 Gaussian 16, Revision C.01,

 ----------------------------------------------------------------------
 #t hf aug-cc-pvdz symm=none int=(grid=ultrafine) guess=(read,tcheck) s
 table=opt
 ----------------------------------------------------------------------
 -----
 title
 -----
 Symbolic Z-matrix:
 Charge =  0 Multiplicity = 2

 SCF Done:  E(UHF) =  -479.328561158     A.U. after   22 cycles
 Normal termination of Gaussian 16 at Tue Apr  8 23:51:23 2025.
 Gaussian 16:  ES64L-G16RevC.01  3-Jul-2019

 ----------------------------------------------------------------------
 #t hf aug-cc-pvdz iop(5/13=1,5/36=2,99/5=2) pseudo=read geom=check gue
 ss=(read,tcheck) scf=(maxcycle=1)
 ----------------------------------------------------------------------
 -----
 title
 -----
 Structure from the checkpoint file:  "BDE49_nonexpt_1890_mol2.chk"
 Charge =  0 Multiplicity = 2

                         Standard orientation:
 ---------------------------------------------------------------------
 Center     Atomic      Atomic             Coordinates (Angstroms)
 Number     Number       Type             X           Y           Z
 ---------------------------------------------------------------------
      1         14           0       -1.547177    0.147731   -0.083111
      2          8           0       -0.116496   -0.691478   -0.300414
      3          1           0       -2.148929   -0.092770    1.252539
      4          1           0       -1.367935    1.600236   -0.334717
      5          8           0        0.894319   -0.072413    0.617657
      6          6           0        2.007707    0.252037   -0.195236
      7          1           0        2.747718    0.646701    0.506470
      8          1           0        1.758736    1.016870   -0.938100
      9          1           0        2.402060   -0.640372   -0.689164
 ---------------------------------------------------------------------

 SCF Done:  E(UHF) =  -479.544968258     A.U. after    2 cycles

 The electronic state is 2-A.
 Alpha  occ. eigenvalues --  -69.57486 -20.62705 -20.59398 -11.29624  -6.24190
 Alpha  occ. eigenvalues --   -4.00121  -3.99341  -3.99152  -1.56345  -1.29755
 Alpha  occ. eigenvalues --   -0.93068  -0.75962  -0.67443  -0.65419  -0.64956
 Alpha  occ. eigenvalues --   -0.56473  -0.54563  -0.51717  -0.47515  -0.44364
 Alpha  occ. eigenvalues --   -0.34865
 Alpha virt. eigenvalues --    0.03740   0.04461   0.05157   0.05631   0.06696
 Alpha virt. eigenvalues --    0.07624   0.07990   0.09295   0.11964   0.13995
 Alpha virt. eigenvalues --    0.14435   0.15698   0.16422   0.17396   0.18965

  Beta  occ. eigenvalues --  -69.56918 -20.61590 -20.60240 -11.29678  -6.23312
  Beta  occ. eigenvalues --   -3.98961  -3.98778  -3.97994  -1.55514  -1.29727
  Beta  occ. eigenvalues --   -0.92712  -0.73174  -0.66204  -0.65374  -0.63196
  Beta  occ. eigenvalues --   -0.56297  -0.54495  -0.51095  -0.47024  -0.43871
  Beta virt. eigenvalues --    0.02329   0.03809   0.04791   0.05530   0.05848
  Beta virt. eigenvalues --    0.06952   0.07949   0.09470   0.09749   0.12321
  Beta virt. eigenvalues --    0.14426   0.15624   0.16256   0.16831   0.18154

 Mulliken charges and spin densities:
               1          2
     1  Si   1.263238   0.989516
     2  O   -0.797350  -0.325356
     3  H   -0.190421   0.038106
     4  H   -0.202244   0.030118
     5  O   -0.794702   0.280398
     6  C    0.397703  -0.027096
     7  H    0.055533   0.012333
     8  H    0.126089   0.001491
     9  H    0.142154   0.000490
 Sum of Mulliken charges =  -0.00000   1.00000

 Dipole moment (field-independent basis, Debye):
    X=              0.6810    Y=              1.2020    Z=             -0.4984  Tot=              1.4687
                          Isotropic Fermi Contact Couplings
        Atom                 a.u.       MegaHertz       Gauss      10(-4) cm-1
     1  Si(29)             0.65577    -582.79936    -207.95730    -194.40094
     2  O(17)              0.05450     -33.03837     -11.78891     -11.02042
     3  H(1)               0.01098      49.09322      17.51768      16.37573
     4  H(1)               0.00870      38.87075      13.87005      12.96588
     5  O(17)              0.03750     -22.73377      -8.11198      -7.58317
     6  C(13)             -0.00855      -9.61270      -3.43005      -3.20645
     7  H(1)               0.00514      22.98232       8.20066       7.66608
     8  H(1)               0.00065       2.90987       1.03831       0.97063

 Normal termination of Gaussian 16 at Tue Apr  8 23:51:26 2025.
