 Gaussian 16, Revision C.01,

 ----------------------------------------------------------------------
 #t hf aug-cc-pvdz symm=none int=(grid=ultrafine) guess=(read,tcheck) s
 table=(opt,rrhf)
 ----------------------------------------------------------------------
 -----
 title
 -----
 Symbolic Z-matrix:
 Charge =  0 Multiplicity = 1

 SCF Done:  E(RHF) =  -683.911276702     A.U. after   15 cycles
 Normal termination of Gaussian 16 at Tue Apr  8 23:32:34 2025.
 Gaussian 16:  ES64L-G16RevC.01  3-Jul-2019

 ----------------------------------------------------------------------
 #t hf aug-cc-pvdz iop(5/13=1,5/36=2,99/5=2) pseudo=read geom=check gue
 ss=(read,tcheck) scf=(maxcycle=1)
 ----------------------------------------------------------------------
 -----
 title
 -----
 Structure from the checkpoint file:  "BDE49_nonexpt_1404_mol1.chk"
 Charge =  0 Multiplicity = 1

                         Standard orientation:
 ---------------------------------------------------------------------
 Center     Atomic      Atomic             Coordinates (Angstroms)
 Number     Number       Type             X           Y           Z
 ---------------------------------------------------------------------
      1          6           0       -1.431950   -0.259357   -0.135725
      2          6           0       -1.283793    1.259764   -0.167837
      3         15           0        0.000000   -1.215849    0.626088
      4          6           0        1.431950   -0.259357   -0.135724
      5          6           0        1.283793    1.259764   -0.167837
      6          6           0        0.000000    1.804191    0.473323
      7          1           0        1.340093    1.546580   -1.225223
      8          1           0        2.174867    1.679201    0.309431
      9          1           0       -0.000000    2.893773    0.391053
     10          1           0        0.000000    1.584455    1.546903
     11          1           0       -2.174867    1.679200    0.309431
     12          1           0       -1.340094    1.546581   -1.225223
     13          8           0        2.420826   -0.826046   -0.526740
     14          8           0       -2.420826   -0.826046   -0.526740
     15          1           0        0.000000   -2.305352   -0.267054
 ---------------------------------------------------------------------

 SCF Done:  E(RHF) =  -684.298885587     A.U. after    2 cycles

 The electronic state is 1-A.
 Alpha  occ. eigenvalues --  -84.29848 -20.55972 -20.55969 -11.36545 -11.36533
 Alpha  occ. eigenvalues --  -11.27141 -11.27054 -11.27045  -6.77186  -4.29833
 Alpha  occ. eigenvalues --   -4.29754  -4.28939  -1.49480  -1.49456  -1.12860
 Alpha  occ. eigenvalues --   -1.01715  -0.95930  -0.87690  -0.78470  -0.72588
 Alpha  occ. eigenvalues --   -0.68422  -0.67192  -0.66434  -0.63574  -0.61631
 Alpha  occ. eigenvalues --   -0.58919  -0.56687  -0.55137  -0.53919  -0.51111
 Alpha  occ. eigenvalues --   -0.50720  -0.44538  -0.38552  -0.35137
 Alpha virt. eigenvalues --    0.02661   0.03573   0.03881   0.04748   0.06237
 Alpha virt. eigenvalues --    0.06453   0.06691   0.07527   0.07605   0.09211
 Alpha virt. eigenvalues --    0.10757   0.11531   0.12651   0.12662   0.13854

 Mulliken charges:
               1
     1  C    0.592092
     2  C   -0.344031
     3  P    0.198413
     4  C    0.592092
     5  C   -0.344032
     6  C   -0.152098
     7  H    0.263439
     8  H    0.217600
     9  H    0.147056
    10  H    0.275604
    11  H    0.217599
    12  H    0.263439
    13  O   -1.282814
    14  O   -1.282814
    15  H    0.638454
 Sum of Mulliken charges =  -0.00000

 Dipole moment (field-independent basis, Debye):
    X=             -0.0000    Y=              3.4082    Z=              1.2497  Tot=              3.6301

 Test job not archived.
 1\1\GINC-SE051\SP\RHF\Aug-CC-pVDZ\C5H7O2P1\OHZDE\08-Apr-2025\0\\#t hf
 aug-cc-pvdz iop(5/13=1,5/36=2,99/5=2) pseudo=read geom=check guess=(re
 ad,tcheck) scf=(maxcycle=1)\\title\\0,1\C,0,-1.43195,-0.259357,-0.1357
 25\C,0,-1.283793,1.259764,-0.167837\P,0,0.,-1.215849,0.626088\C,0,1.43
 195,-0.259357,-0.135724\C,0,1.283793,1.259764,-0.167837\C,0,0.,1.80419
 1,0.473323\H,0,1.340093,1.54658,-1.225223\H,0,2.174867,1.679201,0.3094
 31\H,0,0.,2.893773,0.391053\H,0,0.,1.584455,1.546903\H,0,-2.174867,1.6
 792,0.309431\H,0,-1.340094,1.546581,-1.225223\O,0,2.420826,-0.826046,-

 Normal termination of Gaussian 16 at Tue Apr  8 23:32:40 2025.
