 Gaussian 16, Revision C.01,

 ----------------------------------------------------------------------
 #t hf aug-cc-pvdz symm=none int=(grid=ultrafine) guess=(read,tcheck) s
 table=(opt,rrhf)
 ----------------------------------------------------------------------
 -----
 title
 -----
 Symbolic Z-matrix:
 Charge =  0 Multiplicity = 1

 SCF Done:  E(RHF) =  -412.479813544     A.U. after   12 cycles
 Normal termination of Gaussian 16 at Tue Apr  8 22:30:20 2025.
 Gaussian 16:  ES64L-G16RevC.01  3-Jul-2019

 ----------------------------------------------------------------------
 #t hf aug-cc-pvdz iop(5/13=1,5/36=2,99/5=2) pseudo=read geom=check gue
 ss=(read,tcheck) scf=(maxcycle=1)
 ----------------------------------------------------------------------
 -----
 title
 -----
 Structure from the checkpoint file:  "BDE49_expt_1021_mol1.chk"
 Charge =  0 Multiplicity = 1

                         Standard orientation:
 ---------------------------------------------------------------------
 Center     Atomic      Atomic             Coordinates (Angstroms)
 Number     Number       Type             X           Y           Z
 ---------------------------------------------------------------------
      1          6           0       -0.330927    0.000000   -0.000018
      2          9           0       -0.820081   -1.082414   -0.633921
      3          9           0       -0.820076    1.090236   -0.620375
      4          9           0       -0.819925   -0.007820    1.254388
      5          6           0        1.129440   -0.000003   -0.000078
      6          6           0        2.326580   -0.000000   -0.000040
      7          1           0        3.390189   -0.000002   -0.000002
 ---------------------------------------------------------------------

 SCF Done:  E(RHF) =  -412.862634088     A.U. after    2 cycles

 The electronic state is 1-A.
 Alpha  occ. eigenvalues --  -26.51771 -26.51771 -26.51766 -11.55736 -11.29776
 Alpha  occ. eigenvalues --  -11.28606  -1.72698  -1.62445  -1.62445  -1.10194
 Alpha  occ. eigenvalues --   -0.99469  -0.87046  -0.82229  -0.82229  -0.76333
 Alpha  occ. eigenvalues --   -0.69700  -0.69700  -0.64667  -0.64667  -0.62968
 Alpha  occ. eigenvalues --   -0.62760  -0.46040  -0.46040
 Alpha virt. eigenvalues --    0.02932   0.07723   0.08893   0.08893   0.09057
 Alpha virt. eigenvalues --    0.10040   0.10040   0.14544   0.15875   0.16557
 Alpha virt. eigenvalues --    0.16557   0.18762   0.18762   0.24102   0.24102

 Mulliken charges:
               1
     1  C    2.474032
     2  F   -0.708365
     3  F   -0.708363
     4  F   -0.708343
     5  C   -0.378765
     6  C    0.337202
     7  H   -0.307397
 Sum of Mulliken charges =  -0.00000

 Dipole moment (field-independent basis, Debye):
    X=              2.4911    Y=              0.0000    Z=             -0.0001  Tot=              2.4911

 Test job not archived.
 1\1\GINC-SE177\SP\RHF\Aug-CC-pVDZ\C3H1F3\OHZDE\08-Apr-2025\0\\#t hf au
 g-cc-pvdz iop(5/13=1,5/36=2,99/5=2) pseudo=read geom=check guess=(read
 ,tcheck) scf=(maxcycle=1)\\title\\0,1\C,0,-0.330927,0.,0.000018\F,0,-0
 .820081,1.086159,0.627483\F,0,-0.820076,-1.086533,0.626838\F,0,-0.8199
 25,0.000372,-1.254412\C,0,1.12944,0.000003,0.000078\C,0,2.32658,0.,0.0
 0004\H,0,3.390189,0.000001,0.000002\\Version=ES64L-G16RevC.01\State=1-
 A\HF=-412.8626341\RMSD=1.830e-02\Dipole=0.9800559,-0.0000006,0.0000221
 \Quadrupole=5.077906,-2.5389581,-2.5389479,0.0000018,-0.000113,-0.0000

 Normal termination of Gaussian 16 at Tue Apr  8 22:30:23 2025.
