 Gaussian 16, Revision C.01,

 ----------------------------------------------------------------------
 #t hf aug-cc-pvdz symm=none int=(grid=ultrafine) guess=(read,tcheck) s
 table=(opt,rrhf)
 ----------------------------------------------------------------------
 -----
 title
 -----
 Symbolic Z-matrix:
 Charge =  0 Multiplicity = 1

 SCF Done:  E(RHF) =  -332.456125550     A.U. after   12 cycles
 Normal termination of Gaussian 16 at Wed Apr  9 00:26:49 2025.
 Gaussian 16:  ES64L-G16RevC.01  3-Jul-2019

 ----------------------------------------------------------------------
 #t hf aug-cc-pvdz iop(5/13=1,5/36=2,99/5=2) pseudo=read geom=check gue
 ss=(read,tcheck) scf=(maxcycle=1)
 ----------------------------------------------------------------------
 -----
 title
 -----
 Structure from the checkpoint file:  "BDE49_nonexpt_274_mol1.chk"
 Charge =  0 Multiplicity = 1

                         Standard orientation:
 ---------------------------------------------------------------------
 Center     Atomic      Atomic             Coordinates (Angstroms)
 Number     Number       Type             X           Y           Z
 ---------------------------------------------------------------------
      1          6           0        0.225367    0.667314   -0.324439
      2          5           0       -0.965036   -0.330775   -0.007806
      3          8           0       -2.041165   -0.523155   -0.841494
      4          8           0       -0.970898   -1.008346    1.177571
      5          6           0        1.586120    0.188423    0.218018
      6          6           0        2.074863   -1.121921   -0.406517
      7          1           0        1.509930    0.065457    1.303627
      8          1           0        2.333931    0.972779    0.045691
      9          1           0        2.160890   -1.035620   -1.494932
     10          1           0        1.388698   -1.944845   -0.186806
     11          6           0       -0.129891    2.064996    0.237918
     12          1           0        0.319328    0.770105   -1.416886
     13          1           0        0.650273    2.794406   -0.002727
     14          1           0       -0.229847    2.032588    1.326931
     15          1           0       -1.073363    2.442940   -0.168267
     16          1           0        3.058399   -1.402652   -0.019669
     17          1           0       -1.972840   -0.033859   -1.665140
     18          1           0       -1.762466   -1.548291    1.278706
 ---------------------------------------------------------------------

 SCF Done:  E(RHF) =  -332.807749468     A.U. after    2 cycles

 The electronic state is 1-A.
 Alpha  occ. eigenvalues --  -20.55677 -20.54843 -11.22748 -11.22217 -11.21805
 Alpha  occ. eigenvalues --  -11.21134  -7.62807  -1.47718  -1.43301  -1.07103
 Alpha  occ. eigenvalues --   -0.98132  -0.86413  -0.80206  -0.75797  -0.72570
 Alpha  occ. eigenvalues --   -0.63237  -0.61255  -0.59338  -0.57670  -0.57040
 Alpha  occ. eigenvalues --   -0.55184  -0.54770  -0.51820  -0.49655  -0.48718
 Alpha  occ. eigenvalues --   -0.47182  -0.46140  -0.43846
 Alpha virt. eigenvalues --    0.03069   0.03691   0.03962   0.04166   0.06009
 Alpha virt. eigenvalues --    0.06399   0.06665   0.06834   0.07030   0.09296
 Alpha virt. eigenvalues --    0.09543   0.09792   0.10227   0.10774   0.12291

 Mulliken charges:
               1
     1  C   -0.465963
     2  B    2.251974
     3  O   -1.480225
     4  O   -1.370955
     5  C   -0.305427
     6  C   -0.344369
     7  H    0.138644
     8  H    0.117742
     9  H    0.173433
    10  H    0.127565
    11  C   -0.327918
    12  H    0.007034
    13  H    0.145163
    14  H    0.177716
    15  H    0.059342
    16  H    0.102129
    17  H    0.487282
    18  H    0.506833
 Sum of Mulliken charges =  -0.00000

 Dipole moment (field-independent basis, Debye):
    X=             -0.3340    Y=              0.5373    Z=             -1.1954  Tot=              1.3525

 Test job not archived.
 1\1\GINC-SE419\SP\RHF\Aug-CC-pVDZ\C4H11B1O2\OHZDE\09-Apr-2025\0\\#t hf
  aug-cc-pvdz iop(5/13=1,5/36=2,99/5=2) pseudo=read geom=check guess=(r
 ead,tcheck) scf=(maxcycle=1)\\title\\0,1\C,0,0.225367,0.667314,-0.3244
 39\B,0,-0.965036,-0.330775,-0.007806\O,0,-2.041165,-0.523155,-0.841494
 \O,0,-0.970898,-1.008346,1.177571\C,0,1.58612,0.188423,0.218018\C,0,2.
 074863,-1.121921,-0.406517\H,0,1.50993,0.065457,1.303627\H,0,2.333931,
 0.972779,0.045691\H,0,2.16089,-1.03562,-1.494932\H,0,1.388698,-1.94484
 5,-0.186806\C,0,-0.129891,2.064996,0.237918\H,0,0.319328,0.770105,-1.4

 Normal termination of Gaussian 16 at Wed Apr  9 00:26:56 2025.
