 Gaussian 16, Revision C.01,

 ----------------------------------------------------------------------
 #t hf aug-cc-pvdz symm=none int=(grid=ultrafine) guess=(read,tcheck) s
 table=(opt,rrhf)
 ----------------------------------------------------------------------
 -----
 title
 -----
 Symbolic Z-matrix:
 Charge =  0 Multiplicity = 1

 SCF Done:  E(RHF) =  -660.889371103     A.U. after   13 cycles
 Normal termination of Gaussian 16 at Wed Apr  9 00:30:14 2025.
 Gaussian 16:  ES64L-G16RevC.01  3-Jul-2019

 ----------------------------------------------------------------------
 #t hf aug-cc-pvdz iop(5/13=1,5/36=2,99/5=2) pseudo=read geom=check gue
 ss=(read,tcheck) scf=(maxcycle=1)
 ----------------------------------------------------------------------
 -----
 title
 -----
 Structure from the checkpoint file:  "BDE49_nonexpt_349_mol1.chk"
 Charge =  0 Multiplicity = 1

                         Standard orientation:
 ---------------------------------------------------------------------
 Center     Atomic      Atomic             Coordinates (Angstroms)
 Number     Number       Type             X           Y           Z
 ---------------------------------------------------------------------
      1          9           0        0.873823    1.407498    0.000008
      2          9           0        1.978346   -0.584167   -0.000001
      3         16           0       -0.721140   -0.835280   -0.000005
      4          5           0        0.830088    0.078955    0.000002
      5          6           0       -1.946559    0.533682   -0.000001
      6          1           0       -2.929440    0.064564   -0.000003
      7          1           0       -1.836463    1.146537   -0.892250
      8          1           0       -1.836464    1.146531    0.892253
 ---------------------------------------------------------------------

 SCF Done:  E(RHF) =  -661.196823305     A.U. after    2 cycles

 The electronic state is 1-A.
 Alpha  occ. eigenvalues --  -93.96159 -26.48826 -26.48410 -11.28562  -8.24508
 Alpha  occ. eigenvalues --   -7.74717  -6.22308  -6.22154  -6.21993  -1.63723
 Alpha  occ. eigenvalues --   -1.59853  -1.08206  -0.91561  -0.80532  -0.75116
 Alpha  occ. eigenvalues --   -0.70946  -0.70207  -0.64146  -0.63584  -0.61281
 Alpha  occ. eigenvalues --   -0.60935  -0.53551  -0.47010  -0.39671
 Alpha virt. eigenvalues --    0.03254   0.04663   0.04843   0.05567   0.06830
 Alpha virt. eigenvalues --    0.07555   0.08319   0.12170   0.13231   0.13321
 Alpha virt. eigenvalues --    0.13955   0.16469   0.17069   0.17181   0.18339

 Mulliken charges:
               1
     1  F   -0.533771
     2  F   -0.682223
     3  S   -0.159930
     4  B    1.685447
     5  C   -0.728166
     6  H    0.146190
     7  H    0.136226
     8  H    0.136227
 Sum of Mulliken charges =  -0.00000

 Dipole moment (field-independent basis, Debye):
    X=             -2.0126    Y=              0.9887    Z=              0.0000  Tot=              2.2424

 Test job not archived.
 1\1\GINC-SE127\SP\RHF\Aug-CC-pVDZ\C1H3B1F2S1\OHZDE\09-Apr-2025\0\\#t h
 f aug-cc-pvdz iop(5/13=1,5/36=2,99/5=2) pseudo=read geom=check guess=(
 read,tcheck) scf=(maxcycle=1)\\title\\0,1\F,0,0.873823,1.407498,0.0000
 08\F,0,1.978346,-0.584167,-0.000001\S,0,-0.72114,-0.83528,-0.000005\B,
 0,0.830088,0.078955,0.000002\C,0,-1.946559,0.533682,-0.000001\H,0,-2.9
 2944,0.064564,-0.000003\H,0,-1.836463,1.146537,-0.89225\H,0,-1.836464,
 1.146531,0.892253\\Version=ES64L-G16RevC.01\State=1-A\HF=-661.1968233\
 RMSD=4.879e-03\Dipole=-0.7918256,0.3889898,0.0000015\Quadrupole=1.3406

 Normal termination of Gaussian 16 at Wed Apr  9 00:30:17 2025.
