 Gaussian 16, Revision C.01,

 ----------------------------------------------------------------------
 #t hf aug-cc-pvdz symm=none int=(grid=ultrafine) guess=(read,tcheck) s
 table=(opt,rrhf)
 ----------------------------------------------------------------------
 -----
 title
 -----
 Symbolic Z-matrix:
 Charge =  0 Multiplicity = 1

 SCF Done:  E(RHF) =  -1863.31315509     A.U. after   12 cycles
 Normal termination of Gaussian 16 at Wed Apr  9 00:16:21 2025.
 Gaussian 16:  ES64L-G16RevC.01  3-Jul-2019

 ----------------------------------------------------------------------
 #t hf aug-cc-pvdz iop(5/13=1,5/36=2,99/5=2) pseudo=read geom=check gue
 ss=(read,tcheck) scf=(maxcycle=1)
 ----------------------------------------------------------------------
 -----
 title
 -----
 Structure from the checkpoint file:  "BDE49_nonexpt_2448_mol1.chk"
 Charge =  0 Multiplicity = 1

                         Standard orientation:
 ---------------------------------------------------------------------
 Center     Atomic      Atomic             Coordinates (Angstroms)
 Number     Number       Type             X           Y           Z
 ---------------------------------------------------------------------
      1         14           0       -1.099937    2.060837   -0.679332
      2         14           0        0.860753    2.091588    0.652136
      3         15           0        1.921391   -0.639155   -0.153598
      4          8           0        3.451060   -0.930072   -0.437835
      5          8           0        1.609393   -1.461433    1.146359
      6          1           0        3.571534   -1.547567   -1.168047
      7          1           0        0.659129   -1.330984    1.408470
      8          8           0        1.033196   -0.918876   -1.312040
      9         15           0       -1.838872   -0.731661    0.184059
     10          8           0       -3.283788   -1.212195    0.606240
     11          1           0       -3.866497   -1.405210   -0.138131
     12          8           0       -1.445328   -1.693330   -0.991982
     13          1           0       -0.495539   -1.533112   -1.265053
     14          8           0       -0.904889   -0.674334    1.330061
     15          8           0        1.953870    0.880312    0.253006
     16          1           0        0.570228    2.021833    2.096527
     17          1           0        1.572753    3.352199    0.346709
     18          8           0       -2.061851    0.698158   -0.461536
     19          1           0       -0.774339    2.147753   -2.118062
     20          1           0       -1.939783    3.217556   -0.296772
 ---------------------------------------------------------------------

 SCF Done:  E(RHF) =  -1864.05626548     A.U. after    2 cycles

 The electronic state is 1-A.
 Alpha  occ. eigenvalues --  -84.47490 -84.47483 -69.58682 -69.58663 -20.60648
 Alpha  occ. eigenvalues --  -20.60371 -20.58486 -20.58395 -20.58042 -20.57765
 Alpha  occ. eigenvalues --  -20.52830 -20.52745  -6.92257  -6.92224  -6.25254
 Alpha  occ. eigenvalues --   -6.25199  -4.46435  -4.46367  -4.45917  -4.45895
 Alpha  occ. eigenvalues --   -4.45868  -4.45860  -4.00741  -4.00691  -4.00564
 Alpha  occ. eigenvalues --   -4.00547  -4.00498  -4.00472  -1.57032  -1.56661
 Alpha  occ. eigenvalues --   -1.48651  -1.48330  -1.47251  -1.47049  -1.41461
 Alpha  occ. eigenvalues --   -1.40794  -0.90098  -0.87845  -0.80188  -0.77414
 Alpha  occ. eigenvalues --   -0.76622  -0.73360  -0.70945  -0.70005  -0.66589
 Alpha  occ. eigenvalues --   -0.65919  -0.63707  -0.62335  -0.62003  -0.61206
 Alpha  occ. eigenvalues --   -0.59827  -0.58972  -0.57180  -0.56772  -0.55841
 Alpha  occ. eigenvalues --   -0.54597  -0.53958  -0.53490  -0.49599  -0.49233
 Alpha  occ. eigenvalues --   -0.48595  -0.48224  -0.47728  -0.46686  -0.42176
 Alpha virt. eigenvalues --    0.03339   0.03755   0.04018   0.04504   0.05903
 Alpha virt. eigenvalues --    0.06465   0.06856   0.07399   0.07722   0.08557
 Alpha virt. eigenvalues --    0.09086   0.09853   0.10481   0.10685   0.11086

 Mulliken charges:
               1
     1  Si   1.146748
     2  Si   1.156502
     3  P    4.719752
     4  O   -1.275452
     5  O   -1.520452
     6  H    0.381229
     7  H    0.679186
     8  O   -1.657621
     9  P    4.620703
    10  O   -1.282491
    11  H    0.371294
    12  O   -1.473247
    13  H    0.739396
    14  O   -1.656537
    15  O   -2.336045
    16  H   -0.039500
    17  H   -0.120981
    18  O   -2.255670
    19  H   -0.077190
    20  H   -0.119625
 Sum of Mulliken charges =   0.00000

 Dipole moment (field-independent basis, Debye):
    X=             -0.9500    Y=              1.5930    Z=             -2.0970  Tot=              2.7996

 Test job not archived.
 1\1\GINC-SE412\SP\RHF\Aug-CC-pVDZ\H8O8P2Si2\OHZDE\09-Apr-2025\0\\#t hf
  aug-cc-pvdz iop(5/13=1,5/36=2,99/5=2) pseudo=read geom=check guess=(r
 ead,tcheck) scf=(maxcycle=1)\\title\\0,1\Si,0,-1.099937,2.060837,-0.67
 9332\Si,0,0.860753,2.091588,0.652136\P,0,1.921391,-0.639155,-0.153598\
 O,0,3.45106,-0.930072,-0.437835\O,0,1.609393,-1.461433,1.146359\H,0,3.
 571534,-1.547567,-1.168047\H,0,0.659129,-1.330984,1.40847\O,0,1.033196
 ,-0.918876,-1.31204\P,0,-1.838872,-0.731661,0.184059\O,0,-3.283788,-1.
 212195,0.60624\H,0,-3.866497,-1.40521,-0.138131\O,0,-1.445328,-1.69333

 Normal termination of Gaussian 16 at Wed Apr  9 00:16:35 2025.
