 Gaussian 16, Revision C.01,

 ----------------------------------------------------------------------
 #t hf aug-cc-pvdz symm=none int=(grid=ultrafine) guess=(read,tcheck) s
 table=(opt,rrhf)
 ----------------------------------------------------------------------
 -----
 title
 -----
 Symbolic Z-matrix:
 Charge =  0 Multiplicity = 1

 SCF Done:  E(RHF) =  -1006.70011947     A.U. after   17 cycles
 Normal termination of Gaussian 16 at Tue Apr  8 23:26:27 2025.
 Gaussian 16:  ES64L-G16RevC.01  3-Jul-2019

 ----------------------------------------------------------------------
 #t hf aug-cc-pvdz iop(5/13=1,5/36=2,99/5=2) pseudo=read geom=check gue
 ss=(read,tcheck) scf=(maxcycle=1)
 ----------------------------------------------------------------------
 -----
 title
 -----
 Structure from the checkpoint file:  "BDE49_nonexpt_1200_mol1.chk"
 Charge =  0 Multiplicity = 1

                         Standard orientation:
 ---------------------------------------------------------------------
 Center     Atomic      Atomic             Coordinates (Angstroms)
 Number     Number       Type             X           Y           Z
 ---------------------------------------------------------------------
      1          6           0       -0.434059   -0.281990    0.653847
      2          8           0        0.024423    0.080389    1.702451
      3          8           0        0.305236   -0.935331   -0.313814
      4         16           0        1.852862   -1.542525    0.096839
      5          6           0        2.992941   -0.150458   -0.065453
      6          8           0        4.146928   -0.437033    0.117533
      7          6           0       -1.835115   -0.068657    0.203511
      8          6           0       -2.316167   -0.548630   -1.020577
      9          6           0       -3.640013   -0.319235   -1.380323
     10          6           0       -4.485831    0.385491   -0.525035
     11          6           0       -4.008670    0.863561    0.695530
     12          6           0       -2.687375    0.638390    1.060503
     13          1           0       -2.296381    0.998182    2.003894
     14          1           0       -1.654161   -1.096039   -1.677613
     15          1           0       -4.012833   -0.691675   -2.327333
     16          1           0       -5.517359    0.561318   -0.808849
     17          1           0       -4.667227    1.409930    1.360580
     18          6           0        2.450747    1.217475   -0.402524
     19          6           0        3.559115    2.222220   -0.716879
     20          1           0        1.853976    1.538851    0.458197
     21          1           0        1.746708    1.114631   -1.234062
     22          1           0        4.251038    2.315079    0.121301
     23          1           0        3.127435    3.204430   -0.920565
     24          1           0        4.136869    1.912503   -1.589934
 ---------------------------------------------------------------------

 SCF Done:  E(RHF) =  -1007.36748282     A.U. after    2 cycles

 The electronic state is 1-A.
 Alpha  occ. eigenvalues --  -94.02840 -20.62510 -20.56054 -20.55547 -11.41366
 Alpha  occ. eigenvalues --  -11.38492 -11.27342 -11.27229 -11.27195 -11.26979
 Alpha  occ. eigenvalues --  -11.26450 -11.26295 -11.26233 -11.23964  -8.30322
 Alpha  occ. eigenvalues --   -6.28139  -6.27867  -6.27624  -1.55486  -1.50275
 Alpha  occ. eigenvalues --   -1.47145  -1.18251  -1.09195  -1.06595  -1.04228
 Alpha  occ. eigenvalues --   -1.02687  -0.91539  -0.88998  -0.85943  -0.81261
 Alpha  occ. eigenvalues --   -0.76143  -0.74720  -0.71191  -0.69579  -0.67860
 Alpha  occ. eigenvalues --   -0.65998  -0.65615  -0.64838  -0.64618  -0.62452
 Alpha  occ. eigenvalues --   -0.60730  -0.57482  -0.55732  -0.54992  -0.54034
 Alpha  occ. eigenvalues --   -0.53582  -0.52757  -0.52731  -0.51329  -0.49686
 Alpha  occ. eigenvalues --   -0.46495  -0.41387  -0.39542  -0.37198  -0.36772
 Alpha virt. eigenvalues --    0.02619   0.03206   0.03449   0.04205   0.04762
 Alpha virt. eigenvalues --    0.05062   0.05441   0.06211   0.06544   0.07367
 Alpha virt. eigenvalues --    0.08459   0.08902   0.09080   0.09674   0.10265

 Mulliken charges:
               1
     1  C    1.052675
     2  O   -1.380238
     3  O   -1.364132
     4  S    0.888022
     5  C    0.840115
     6  O   -1.314318
     7  C    2.185891
     8  C    0.252336
     9  C    0.293298
    10  C   -0.054976
    11  C    0.418369
    12  C   -0.483673
    13  H   -0.335052
    14  H   -0.308458
    15  H   -0.223461
    16  H   -0.210804
    17  H   -0.213435
    18  C   -0.708672
    19  C   -0.408435
    20  H    0.302370
    21  H    0.255209
    22  H    0.184792
    23  H    0.159677
    24  H    0.172902
 Sum of Mulliken charges =  -0.00000

 Dipole moment (field-independent basis, Debye):
    X=             -4.3171    Y=              1.9439    Z=             -2.2107  Tot=              5.2252

 Test job not archived.
 1\1\GINC-SE339\SP\RHF\Aug-CC-pVDZ\C10H10O3S1\OHZDE\08-Apr-2025\0\\#t h
 f aug-cc-pvdz iop(5/13=1,5/36=2,99/5=2) pseudo=read geom=check guess=(
 read,tcheck) scf=(maxcycle=1)\\title\\0,1\C,0,-0.434059,-0.28199,0.653
 847\O,0,0.024423,0.080389,1.702451\O,0,0.305236,-0.935331,-0.313814\S,
 0,1.852862,-1.542525,0.096839\C,0,2.992941,-0.150458,-0.065453\O,0,4.1
 46928,-0.437033,0.117533\C,0,-1.835115,-0.068657,0.203511\C,0,-2.31616
 7,-0.54863,-1.020577\C,0,-3.640013,-0.319235,-1.380323\C,0,-4.485831,0
 .385491,-0.525035\C,0,-4.00867,0.863561,0.69553\C,0,-2.687375,0.63839,

 Normal termination of Gaussian 16 at Tue Apr  8 23:26:48 2025.
