 Gaussian 16, Revision C.01,

 ----------------------------------------------------------------------
 #t hf aug-cc-pvdz symm=none int=(grid=ultrafine) guess=(read,tcheck) s
 table=(opt,rrhf)
 ----------------------------------------------------------------------
 -----
 title
 -----
 Symbolic Z-matrix:
 Charge =  0 Multiplicity = 1

 SCF Done:  E(RHF) =  -806.989742185     A.U. after   14 cycles
 Normal termination of Gaussian 16 at Tue Apr  8 23:20:35 2025.
 Gaussian 16:  ES64L-G16RevC.01  3-Jul-2019

 ----------------------------------------------------------------------
 #t hf aug-cc-pvdz iop(5/13=1,5/36=2,99/5=2) pseudo=read geom=check gue
 ss=(read,tcheck) scf=(maxcycle=1)
 ----------------------------------------------------------------------
 -----
 title
 -----
 Structure from the checkpoint file:  "BDE49_nonexpt_1094_mol1.chk"
 Charge =  0 Multiplicity = 1

                         Standard orientation:
 ---------------------------------------------------------------------
 Center     Atomic      Atomic             Coordinates (Angstroms)
 Number     Number       Type             X           Y           Z
 ---------------------------------------------------------------------
      1          6           0        0.648671   -0.984811    0.644411
      2          6           0        1.907384   -1.493269   -0.071640
      3          6           0        3.016643   -0.432144   -0.083782
      4          6           0        2.520129    0.891595   -0.682193
      5          6           0        1.256642    1.398048    0.029378
      6          6           0       -1.087664    0.865739    0.764040
      7          6           0        0.143317    0.334144    0.037105
      8          8           0       -2.184263   -0.058844    0.843303
      9         17           0       -2.965611   -0.269702   -0.699148
     10          1           0        0.878072   -0.820671    1.706707
     11          1           0       -0.144931   -1.735429    0.610189
     12          1           0        1.651668   -1.761993   -1.104625
     13          1           0        2.265057   -2.410198    0.407186
     14          1           0        3.884790   -0.795707   -0.642731
     15          1           0        3.359094   -0.257008    0.944442
     16          1           0        2.297514    0.745737   -1.746837
     17          1           0        3.306771    1.650993   -0.630397
     18          1           0        0.897957    2.315748   -0.449878
     19          1           0        1.508373    1.663651    1.065377
     20          1           0       -1.431405    1.812945    0.334438
     21          1           0       -0.870345    1.027561    1.827140
     22          1           0       -0.143859    0.144242   -1.005833
 ---------------------------------------------------------------------

 SCF Done:  E(RHF) =  -807.435559431     A.U. after    2 cycles

 The electronic state is 1-A.
 Alpha  occ. eigenvalues -- -105.61037 -20.62215 -11.30037 -11.23790 -11.23462
 Alpha  occ. eigenvalues --  -11.23067 -11.22762 -11.22709 -11.22623 -10.65280
 Alpha  occ. eigenvalues --   -7.82256  -7.81748  -7.81723  -1.47204  -1.12960
 Alpha  occ. eigenvalues --   -1.04943  -1.01405  -1.00724  -0.90931  -0.84144
 Alpha  occ. eigenvalues --   -0.81251  -0.76575  -0.67084  -0.66869  -0.65206
 Alpha  occ. eigenvalues --   -0.62671  -0.60807  -0.60330  -0.58144  -0.53996
 Alpha  occ. eigenvalues --   -0.53493  -0.51996  -0.51258  -0.49524  -0.48707
 Alpha  occ. eigenvalues --   -0.47029  -0.45936  -0.45078  -0.43991  -0.42226
 Alpha virt. eigenvalues --    0.03248   0.03296   0.03492   0.04398   0.05558
 Alpha virt. eigenvalues --    0.05789   0.06009   0.06225   0.06748   0.07906
 Alpha virt. eigenvalues --    0.09105   0.09276   0.09440   0.10204   0.11860

 Mulliken charges:
               1
     1  C   -0.091714
     2  C   -0.232764
     3  C   -0.237473
     4  C   -0.257192
     5  C   -0.054762
     6  C    0.935311
     7  C   -0.912943
     8  O   -1.140848
     9  Cl   0.225000
    10  H    0.186019
    11  H    0.127019
    12  H    0.162537
    13  H    0.105231
    14  H    0.101839
    15  H    0.150569
    16  H    0.159889
    17  H    0.109498
    18  H    0.077896
    19  H    0.180696
    20  H    0.158454
    21  H    0.109808
    22  H    0.137934
 Sum of Mulliken charges =   0.00000

 Dipole moment (field-independent basis, Debye):
    X=              2.0196    Y=              1.0170    Z=              0.0485  Tot=              2.2618

 Test job not archived.
 1\1\GINC-SE457\SP\RHF\Aug-CC-pVDZ\C7H13Cl1O1\OHZDE\08-Apr-2025\0\\#t h
 f aug-cc-pvdz iop(5/13=1,5/36=2,99/5=2) pseudo=read geom=check guess=(
 read,tcheck) scf=(maxcycle=1)\\title\\0,1\C,0,0.648671,-0.984811,0.644
 411\C,0,1.907384,-1.493269,-0.07164\C,0,3.016643,-0.432144,-0.083782\C
 ,0,2.520129,0.891595,-0.682193\C,0,1.256642,1.398048,0.029378\C,0,-1.0
 87664,0.865739,0.76404\C,0,0.143317,0.334144,0.037105\O,0,-2.184263,-0
 .058844,0.843303\Cl,0,-2.965611,-0.269702,-0.699148\H,0,0.878072,-0.82
 0671,1.706707\H,0,-0.144931,-1.735429,0.610189\H,0,1.651668,-1.761993,

 Normal termination of Gaussian 16 at Tue Apr  8 23:20:47 2025.
