 Gaussian 16, Revision C.01,

 ----------------------------------------------------------------------
 #t hf aug-cc-pvdz symm=none int=(grid=ultrafine) guess=(read,tcheck) s
 table=(opt,rrhf)
 ----------------------------------------------------------------------
 -----
 title
 -----
 Symbolic Z-matrix:
 Charge =  0 Multiplicity = 1

 SCF Done:  E(RHF) =  -827.556550820     A.U. after   15 cycles
 Normal termination of Gaussian 16 at Tue Apr  8 22:49:18 2025.
 Gaussian 16:  ES64L-G16RevC.01  3-Jul-2019

 ----------------------------------------------------------------------
 #t hf aug-cc-pvdz iop(5/13=1,5/36=2,99/5=2) pseudo=read geom=check gue
 ss=(read,tcheck) scf=(maxcycle=1)
 ----------------------------------------------------------------------
 -----
 title
 -----
 Structure from the checkpoint file:  "BDE49_expt_1687_mol1.chk"
 Charge =  0 Multiplicity = 1

                         Standard orientation:
 ---------------------------------------------------------------------
 Center     Atomic      Atomic             Coordinates (Angstroms)
 Number     Number       Type             X           Y           Z
 ---------------------------------------------------------------------
      1          6           0       -0.073630    1.529642    0.177418
      2          6           0       -1.391834    1.759105   -0.206835
      3          6           0       -2.291277    0.701014   -0.313534
      4          6           0       -1.838912   -0.578853   -0.028801
      5          6           0       -0.532937   -0.833894    0.355278
      6          6           0        0.364453    0.232455    0.460949
      7          1           0        0.620504    2.358804    0.254155
      8          1           0       -1.724926    2.767234   -0.423428
      9          6           0        1.780727   -0.018051    0.877770
     10          9           0       -2.701924   -1.613516   -0.124474
     11          1           0       -3.322141    0.851267   -0.608298
     12          1           0       -0.228521   -1.853037    0.561739
     13          1           0        2.221973    0.848766    1.363853
     14         17           0        2.869383   -0.371312   -0.557984
     15          1           0        1.871382   -0.887591    1.524507
 ---------------------------------------------------------------------

 SCF Done:  E(RHF) =  -827.999791641     A.U. after    2 cycles

 The electronic state is 1-A.
 Alpha  occ. eigenvalues -- -105.55870 -26.48237 -11.34607 -11.32113 -11.27683
 Alpha  occ. eigenvalues --  -11.26761 -11.26257 -11.26201 -11.25913 -10.60631
 Alpha  occ. eigenvalues --   -7.77566  -7.77195  -7.77189  -1.61150  -1.18585
 Alpha  occ. eigenvalues --   -1.11115  -1.04022  -1.03089  -0.92849  -0.86464
 Alpha  occ. eigenvalues --   -0.83792  -0.74493  -0.71882  -0.70224  -0.67895
 Alpha  occ. eigenvalues --   -0.64742  -0.63464  -0.62247  -0.59038  -0.57816
 Alpha  occ. eigenvalues --   -0.55165  -0.53105  -0.51349  -0.45107  -0.44848
 Alpha  occ. eigenvalues --   -0.36686  -0.35612
 Alpha virt. eigenvalues --    0.03124   0.03422   0.03990   0.04979   0.05593
 Alpha virt. eigenvalues --    0.07073   0.08080   0.08124   0.09951   0.10306
 Alpha virt. eigenvalues --    0.10930   0.11592   0.12610   0.13481   0.14064

 Mulliken charges:
               1
     1  C    0.047360
     2  C    0.378912
     3  C   -0.241824
     4  C    1.162744
     5  C   -0.319028
     6  C    1.638175
     7  H   -0.267453
     8  H   -0.210589
     9  C   -0.858378
    10  F   -1.007340
    11  H   -0.180103
    12  H   -0.222199
    13  H    0.070091
    14  Cl  -0.079218
    15  H    0.088850
 Sum of Mulliken charges =   0.00000

 Dipole moment (field-independent basis, Debye):
    X=             -0.6301    Y=              1.7524    Z=              1.6488  Tot=              2.4873

 Test job not archived.
 1\1\GINC-SE423\SP\RHF\Aug-CC-pVDZ\C7H6Cl1F1\OHZDE\08-Apr-2025\0\\#t hf
  aug-cc-pvdz iop(5/13=1,5/36=2,99/5=2) pseudo=read geom=check guess=(r
 ead,tcheck) scf=(maxcycle=1)\\title\\0,1\C,0,-0.07363,1.529642,0.17741
 8\C,0,-1.391834,1.759105,-0.206835\C,0,-2.291277,0.701014,-0.313534\C,
 0,-1.838912,-0.578853,-0.028801\C,0,-0.532937,-0.833894,0.355278\C,0,0
 .364453,0.232455,0.460949\H,0,0.620504,2.358804,0.254155\H,0,-1.724926
 ,2.767234,-0.423428\C,0,1.780727,-0.018051,0.87777\F,0,-2.701924,-1.61
 3516,-0.124474\H,0,-3.322141,0.851267,-0.608298\H,0,-0.228521,-1.85303

 Normal termination of Gaussian 16 at Tue Apr  8 22:49:25 2025.
