 Gaussian 16, Revision C.01,

 ----------------------------------------------------------------------
 #t hf aug-cc-pvdz symm=none int=(grid=ultrafine) guess=(read,tcheck) s
 table=(opt,rrhf)
 ----------------------------------------------------------------------
 -----
 title
 -----
 Symbolic Z-matrix:
 Charge =  0 Multiplicity = 1

 SCF Done:  E(RHF) =  -311.379790659     A.U. after   14 cycles
 Normal termination of Gaussian 16 at Wed Apr  9 00:39:26 2025.
 Gaussian 16:  ES64L-G16RevC.01  3-Jul-2019

 ----------------------------------------------------------------------
 #t hf aug-cc-pvdz iop(5/13=1,5/36=2,99/5=2) pseudo=read geom=check gue
 ss=(read,tcheck) scf=(maxcycle=1)
 ----------------------------------------------------------------------
 -----
 title
 -----
 Structure from the checkpoint file:  "BDE49_nonexpt_615_mol1.chk"
 Charge =  0 Multiplicity = 1

                         Standard orientation:
 ---------------------------------------------------------------------
 Center     Atomic      Atomic             Coordinates (Angstroms)
 Number     Number       Type             X           Y           Z
 ---------------------------------------------------------------------
      1          6           0       -2.485175    0.482912    0.724739
      2          6           0       -1.957584   -0.342564   -0.452572
      3          1           0       -2.567708   -0.126739    1.630742
      4          1           0       -3.478122    0.883432    0.505032
      5          1           0       -1.825521    1.326254    0.937186
      6          6           0       -0.581082   -0.961449   -0.197280
      7          1           0       -1.896315    0.287925   -1.343453
      8          1           0       -2.661141   -1.149703   -0.680586
      9          6           0        0.560457    0.049676   -0.194596
     10          1           0       -0.344866   -1.703365   -0.971413
     11          1           0       -0.571469   -1.508559    0.754221
     12          8           0        0.435164    1.200491   -0.529927
     13          5           0        3.036365    0.196575    0.295740
     14          7           0        1.803355   -0.488121    0.215982
     15          1           0        3.090626    1.341971    0.002327
     16          1           0        3.982390   -0.425907    0.663200
     17          1           0        1.765818   -1.466719    0.469838
 ---------------------------------------------------------------------

 SCF Done:  E(RHF) =  -311.705746487     A.U. after    2 cycles

 The electronic state is 1-A.
 Alpha  occ. eigenvalues --  -20.52776 -15.52504 -11.36960 -11.25717 -11.23743
 Alpha  occ. eigenvalues --  -11.22314  -7.60167  -1.47756  -1.22232  -1.08032
 Alpha  occ. eigenvalues --   -0.97147  -0.86201  -0.80246  -0.76883  -0.70623
 Alpha  occ. eigenvalues --   -0.65045  -0.63419  -0.60720  -0.58377  -0.57401
 Alpha  occ. eigenvalues --   -0.55591  -0.50137  -0.49863  -0.49178  -0.48961
 Alpha  occ. eigenvalues --   -0.45862  -0.43144
 Alpha virt. eigenvalues --    0.02670   0.03790   0.03942   0.04789   0.04992
 Alpha virt. eigenvalues --    0.05155   0.05329   0.06614   0.07188   0.08520
 Alpha virt. eigenvalues --    0.09116   0.10113   0.11121   0.11471   0.12622

 Mulliken charges:
               1
     1  C   -0.303172
     2  C   -0.314594
     3  H    0.145964
     4  H    0.126529
     5  H    0.158556
     6  C   -0.248403
     7  H    0.149569
     8  H    0.130788
     9  C    0.245475
    10  H    0.218587
    11  H    0.178663
    12  O   -1.202928
    13  B   -0.793391
    14  N    0.851290
    15  H    0.303603
    16  H    0.338513
    17  H    0.014949
 Sum of Mulliken charges =   0.00000

 Dipole moment (field-independent basis, Debye):
    X=             -0.6797    Y=             -3.4026    Z=              0.7008  Tot=              3.5399

 Test job not archived.
 1\1\GINC-SE458\SP\RHF\Aug-CC-pVDZ\C4H10B1N1O1\OHZDE\09-Apr-2025\0\\#t
 hf aug-cc-pvdz iop(5/13=1,5/36=2,99/5=2) pseudo=read geom=check guess=
 (read,tcheck) scf=(maxcycle=1)\\title\\0,1\C,0,-2.485175,0.482912,0.72
 4739\C,0,-1.957584,-0.342564,-0.452572\H,0,-2.567708,-0.126739,1.63074
 2\H,0,-3.478122,0.883432,0.505032\H,0,-1.825521,1.326254,0.937186\C,0,
 -0.581082,-0.961449,-0.19728\H,0,-1.896315,0.287925,-1.343453\H,0,-2.6
 61141,-1.149703,-0.680586\C,0,0.560457,0.049676,-0.194596\H,0,-0.34486
 6,-1.703365,-0.971413\H,0,-0.571469,-1.508559,0.754221\O,0,0.435164,1.

 Normal termination of Gaussian 16 at Wed Apr  9 00:39:32 2025.
