 Gaussian 16, Revision C.01,

 ----------------------------------------------------------------------
 #t hf aug-cc-pvdz symm=none int=(grid=ultrafine) guess=(read,tcheck) s
 table=(opt,rrhf)
 ----------------------------------------------------------------------
 -----
 title
 -----
 Symbolic Z-matrix:
 Charge =  0 Multiplicity = 1

 SCF Done:  E(RHF) =  -491.120254999     A.U. after   12 cycles
 Normal termination of Gaussian 16 at Wed Apr  9 00:34:24 2025.
 Gaussian 16:  ES64L-G16RevC.01  3-Jul-2019

 ----------------------------------------------------------------------
 #t hf aug-cc-pvdz iop(5/13=1,5/36=2,99/5=2) pseudo=read geom=check gue
 ss=(read,tcheck) scf=(maxcycle=1)
 ----------------------------------------------------------------------
 -----
 title
 -----
 Structure from the checkpoint file:  "BDE49_nonexpt_417_mol1.chk"
 Charge =  0 Multiplicity = 1

                         Standard orientation:
 ---------------------------------------------------------------------
 Center     Atomic      Atomic             Coordinates (Angstroms)
 Number     Number       Type             X           Y           Z
 ---------------------------------------------------------------------
      1          9           0       -2.228922    0.480892    0.300038
      2          5           0       -1.275861   -0.412045    0.081522
      3          9           0       -1.647716   -1.579966   -0.407515
      4          6           0        0.233706   -0.115022    0.487217
      5          8           0        0.563310    1.257725    0.577589
      6          8           0        1.077290   -0.839434   -0.375458
      7          6           0        0.408320    1.982285   -0.641042
      8          1           0        0.752069    2.996847   -0.443172
      9          1           0       -0.643044    2.020221   -0.952106
     10          1           0        1.007778    1.544219   -1.444608
     11          6           0        2.418227   -0.951586    0.093919
     12          1           0        2.967922   -1.516693   -0.657948
     13          1           0        2.450820   -1.493366    1.048610
     14          1           0        2.879751    0.031286    0.226646
     15          1           0        0.367436   -0.471016    1.524646
 ---------------------------------------------------------------------

 SCF Done:  E(RHF) =  -491.599250029     A.U. after    2 cycles

 The electronic state is 1-A.
 Alpha  occ. eigenvalues --  -26.48364 -26.48204 -20.56284 -20.56080 -11.34000
 Alpha  occ. eigenvalues --  -11.29014 -11.28843  -7.72357  -1.63579  -1.59520
 Alpha  occ. eigenvalues --   -1.50716  -1.44359  -0.99900  -0.94754  -0.86996
 Alpha  occ. eigenvalues --   -0.80405  -0.75031  -0.73707  -0.71524  -0.68822
 Alpha  occ. eigenvalues --   -0.68533  -0.64999  -0.63816  -0.63038  -0.61706
 Alpha  occ. eigenvalues --   -0.60892  -0.58367  -0.53907  -0.53344  -0.46544
 Alpha  occ. eigenvalues --   -0.44701  -0.43938
 Alpha virt. eigenvalues --    0.03480   0.03852   0.04260   0.04374   0.06316
 Alpha virt. eigenvalues --    0.06538   0.06705   0.07006   0.08230   0.09653
 Alpha virt. eigenvalues --    0.11306   0.12798   0.13027   0.14161   0.14886

 Mulliken charges:
               1
     1  F   -0.685135
     2  B    1.695791
     3  F   -0.762575
     4  C    1.546779
     5  O   -1.421209
     6  O   -1.390562
     7  C    0.192741
     8  H   -0.016712
     9  H    0.121266
    10  H    0.192595
    11  C    0.169042
    12  H   -0.001630
    13  H    0.157411
    14  H    0.203515
    15  H   -0.001318
 Sum of Mulliken charges =  -0.00000

 Dipole moment (field-independent basis, Debye):
    X=              1.6691    Y=              0.3423    Z=              0.1301  Tot=              1.7088

 Test job not archived.
 1\1\GINC-SE222\SP\RHF\Aug-CC-pVDZ\C3H7B1F2O2\OHZDE\09-Apr-2025\0\\#t h
 f aug-cc-pvdz iop(5/13=1,5/36=2,99/5=2) pseudo=read geom=check guess=(
 read,tcheck) scf=(maxcycle=1)\\title\\0,1\F,0,-2.228922,0.480892,0.300
 038\B,0,-1.275861,-0.412045,0.081522\F,0,-1.647716,-1.579966,-0.407515
 \C,0,0.233706,-0.115022,0.487217\O,0,0.56331,1.257725,0.577589\O,0,1.0
 7729,-0.839434,-0.375458\C,0,0.40832,1.982285,-0.641042\H,0,0.75207,2.
 996847,-0.443172\H,0,-0.643044,2.020221,-0.952106\H,0,1.007778,1.54421
 9,-1.444608\C,0,2.418227,-0.951586,0.093919\H,0,2.967922,-1.516694,-0.

 Normal termination of Gaussian 16 at Wed Apr  9 00:34:29 2025.
