 Gaussian 16, Revision C.01,

 ----------------------------------------------------------------------
 #t hf aug-cc-pvdz symm=none int=(grid=ultrafine) guess=(read,tcheck) s
 table=(opt,rrhf)
 ----------------------------------------------------------------------
 -----
 title
 -----
 Symbolic Z-matrix:
 Charge =  0 Multiplicity = 1

 SCF Done:  E(RHF) =  -1317.95771632     A.U. after   13 cycles
 Normal termination of Gaussian 16 at Wed Apr  9 00:48:59 2025.
 Gaussian 16:  ES64L-G16RevC.01  3-Jul-2019

 ----------------------------------------------------------------------
 #t hf aug-cc-pvdz iop(5/13=1,5/36=2,99/5=2) pseudo=read geom=check gue
 ss=(read,tcheck) scf=(maxcycle=1)
 ----------------------------------------------------------------------
 -----
 title
 -----
 Structure from the checkpoint file:  "BDE49_nonexpt_880_mol1.chk"
 Charge =  0 Multiplicity = 1

                         Standard orientation:
 ---------------------------------------------------------------------
 Center     Atomic      Atomic             Coordinates (Angstroms)
 Number     Number       Type             X           Y           Z
 ---------------------------------------------------------------------
      1          9           0        2.348635   -0.190696    0.000011
      2         16           0        0.975940   -1.155502   -0.000010
      3          5           0       -0.354367    0.059506   -0.000025
      4         16           0       -2.055612   -0.594530    0.000008
      5         16           0       -0.099322    1.845936    0.000002
      6          1           0        1.245265    1.790083    0.000003
      7          1           0       -1.747238   -1.905805    0.000010
 ---------------------------------------------------------------------

 SCF Done:  E(RHF) =  -1318.24924065     A.U. after    2 cycles

 The electronic state is 1-A.
 Alpha  occ. eigenvalues --  -94.05045 -93.98022 -93.97257 -26.49041  -8.32537
 Alpha  occ. eigenvalues --   -8.26278  -8.25576  -7.69701  -6.30339  -6.29998
 Alpha  occ. eigenvalues --   -6.29798  -6.24108  -6.23978  -6.23783  -6.23398
 Alpha  occ. eigenvalues --   -6.23278  -6.23095  -1.58795  -1.08804  -1.02760
 Alpha  occ. eigenvalues --   -1.00665  -0.71676  -0.67897  -0.66999  -0.65822
 Alpha  occ. eigenvalues --   -0.56174  -0.54639  -0.50701  -0.48374  -0.46855
 Alpha  occ. eigenvalues --   -0.40012  -0.39552
 Alpha virt. eigenvalues --    0.03388   0.04314   0.05188   0.05428   0.07197
 Alpha virt. eigenvalues --    0.07979   0.08489   0.09321   0.11104   0.11227
 Alpha virt. eigenvalues --    0.11944   0.12911   0.13151   0.15621   0.16461

 Mulliken charges:
               1
     1  F   -0.685720
     2  S    0.281697
     3  B    1.090981
     4  S   -0.650490
     5  S   -0.612859
     6  H    0.325404
     7  H    0.250987
 Sum of Mulliken charges =  -0.00000

 Dipole moment (field-independent basis, Debye):
    X=             -0.2086    Y=             -0.9782    Z=             -0.0000  Tot=              1.0002

 Test job not archived.
 1\1\GINC-SE273\SP\RHF\Aug-CC-pVDZ\B1F1H2S3\OHZDE\09-Apr-2025\0\\#t hf
 aug-cc-pvdz iop(5/13=1,5/36=2,99/5=2) pseudo=read geom=check guess=(re
 ad,tcheck) scf=(maxcycle=1)\\title\\0,1\F,0,-2.348635,-0.190696,-0.000
 011\S,0,-0.97594,-1.155502,0.00001\B,0,0.354367,0.059506,0.000025\S,0,
 2.055612,-0.59453,-0.000008\S,0,0.099322,1.845936,-0.000002\H,0,-1.245
 265,1.790083,-0.000003\H,0,1.747238,-1.905805,-0.00001\\Version=ES64L-
 G16RevC.01\State=1-A\HF=-1318.2492407\RMSD=5.158e-03\Dipole=0.0820588,
 -0.3848716,0.0000088\Quadrupole=-1.2863698,3.0534516,-1.7670819,-2.883

 Normal termination of Gaussian 16 at Wed Apr  9 00:49:02 2025.
