 Gaussian 16, Revision C.01,

 ----------------------------------------------------------------------
 #t hf aug-cc-pvdz symm=none int=(grid=ultrafine) guess=(read,tcheck) s
 table=(opt,rrhf)
 ----------------------------------------------------------------------
 -----
 title
 -----
 Symbolic Z-matrix:
 Charge =  0 Multiplicity = 1

 SCF Done:  E(RHF) =  -537.167728774     A.U. after   12 cycles
 Normal termination of Gaussian 16 at Tue Apr  8 23:59:44 2025.
 Gaussian 16:  ES64L-G16RevC.01  3-Jul-2019

 ----------------------------------------------------------------------
 #t hf aug-cc-pvdz iop(5/13=1,5/36=2,99/5=2) pseudo=read geom=check gue
 ss=(read,tcheck) scf=(maxcycle=1)
 ----------------------------------------------------------------------
 -----
 title
 -----
 Structure from the checkpoint file:  "BDE49_nonexpt_2091_mol1.chk"
 Charge =  0 Multiplicity = 1

                         Standard orientation:
 ---------------------------------------------------------------------
 Center     Atomic      Atomic             Coordinates (Angstroms)
 Number     Number       Type             X           Y           Z
 ---------------------------------------------------------------------
      1          8           0        0.443039   -1.319919   -0.190846
      2          7           0        0.373111    1.346475   -0.166345
      3          6           0       -1.660878   -0.056826   -0.283923
      4          6           0       -1.041773    1.252622    0.222558
      5          6           0       -0.926160   -1.298505    0.224627
      6         14           0        1.416740   -0.008373    0.036604
      7          1           0       -0.980012   -1.346521    1.322177
      8          1           0       -1.390120   -2.206070   -0.168354
      9          1           0       -1.646438   -0.060167   -1.378305
     10          1           0       -2.707028   -0.109434    0.037676
     11          1           0        0.742047    2.285801   -0.128923
     12          1           0       -1.180324    1.315789    1.314876
     13          1           0       -1.586958    2.095427   -0.213169
     14          1           0        2.493079   -0.011811   -0.974888
     15          1           0        2.038167   -0.095518    1.388063
 ---------------------------------------------------------------------

 SCF Done:  E(RHF) =  -537.459750409     A.U. after    2 cycles

 The electronic state is 1-A.
 Alpha  occ. eigenvalues --  -69.55590 -20.52656 -15.47237 -11.29078 -11.27004
 Alpha  occ. eigenvalues --  -11.23554  -6.22044  -3.97565  -3.97424  -3.97318
 Alpha  occ. eigenvalues --   -1.43285  -1.17473  -1.03988  -0.90826  -0.82715
 Alpha  occ. eigenvalues --   -0.74042  -0.69650  -0.64090  -0.62286  -0.61308
 Alpha  occ. eigenvalues --   -0.59236  -0.56582  -0.53275  -0.51356  -0.48503
 Alpha  occ. eigenvalues --   -0.45090  -0.43300  -0.39931
 Alpha virt. eigenvalues --    0.03417   0.04059   0.04481   0.04629   0.05726
 Alpha virt. eigenvalues --    0.05892   0.06415   0.06962   0.07437   0.09310
 Alpha virt. eigenvalues --    0.10349   0.11903   0.13486   0.13937   0.14189

 Mulliken charges:
               1
     1  O   -1.590001
     2  N    0.254644
     3  C   -0.445344
     4  C   -0.534397
     5  C    0.685225
     6  Si   1.288370
     7  H    0.160594
     8  H   -0.010472
     9  H    0.141436
    10  H    0.187911
    11  H   -0.027062
    12  H    0.095735
    13  H    0.053505
    14  H   -0.084182
    15  H   -0.175962
 Sum of Mulliken charges =  -0.00000

 Dipole moment (field-independent basis, Debye):
    X=             -1.4973    Y=              1.4476    Z=              0.7630  Tot=              2.2181

 Test job not archived.
 1\1\GINC-SE364\SP\RHF\Aug-CC-pVDZ\C3H9N1O1Si1\OHZDE\08-Apr-2025\0\\#t
 hf aug-cc-pvdz iop(5/13=1,5/36=2,99/5=2) pseudo=read geom=check guess=
 (read,tcheck) scf=(maxcycle=1)\\title\\0,1\O,0,0.443039,-1.319919,-0.1
 90846\N,0,0.373111,1.346475,-0.166345\C,0,-1.660878,-0.056826,-0.28392
 3\C,0,-1.041773,1.252622,0.222558\C,0,-0.92616,-1.298505,0.224627\Si,0
 ,1.41674,-0.008373,0.036604\H,0,-0.980012,-1.346521,1.322177\H,0,-1.39
 0121,-2.20607,-0.168354\H,0,-1.646438,-0.060167,-1.378305\H,0,-2.70702
 8,-0.109434,0.037676\H,0,0.742047,2.285801,-0.128923\H,0,-1.180324,1.3

 Normal termination of Gaussian 16 at Tue Apr  8 23:59:49 2025.
