 Gaussian 16, Revision C.01,

 ----------------------------------------------------------------------
 #t hf aug-cc-pvdz symm=none int=(grid=ultrafine) guess=(read,tcheck) s
 table=(opt,rrhf)
 ----------------------------------------------------------------------
 -----
 title
 -----
 Symbolic Z-matrix:
 Charge =  0 Multiplicity = 1

 SCF Done:  E(RHF) =  -664.937027571     A.U. after   16 cycles
 Normal termination of Gaussian 16 at Tue Apr  8 23:34:10 2025.
 Gaussian 16:  ES64L-G16RevC.01  3-Jul-2019

 ----------------------------------------------------------------------
 #t hf aug-cc-pvdz iop(5/13=1,5/36=2,99/5=2) pseudo=read geom=check gue
 ss=(read,tcheck) scf=(maxcycle=1)
 ----------------------------------------------------------------------
 -----
 title
 -----
 Structure from the checkpoint file:  "BDE49_nonexpt_1442_mol1.chk"
 Charge =  0 Multiplicity = 1

                         Standard orientation:
 ---------------------------------------------------------------------
 Center     Atomic      Atomic             Coordinates (Angstroms)
 Number     Number       Type             X           Y           Z
 ---------------------------------------------------------------------
      1          6           0       -0.145432    0.204454   -0.084100
      2          6           0        1.309240    0.528539   -0.181726
      3         15           0        2.518158   -0.821847    0.265399
      4          7           0        1.790253    1.629248   -0.610188
      5          1           0        1.039493    2.254303   -0.921516
      6          6           0       -0.634458   -1.071351   -0.393634
      7          6           0       -1.998325   -1.341735   -0.324632
      8          6           0       -2.890295   -0.348760    0.074098
      9          6           0       -2.412558    0.919685    0.400064
     10          6           0       -1.051952    1.195358    0.318381
     11          1           0        0.050743   -1.848706   -0.712933
     12          1           0       -2.363957   -2.329152   -0.582476
     13          1           0       -3.951117   -0.563016    0.135941
     14          1           0       -3.099999    1.692738    0.724372
     15          1           0       -0.682725    2.177302    0.593455
     16          1           0        2.071123   -1.027288    1.595214
     17          1           0        3.574992    0.049647    0.607562
 ---------------------------------------------------------------------

 SCF Done:  E(RHF) =  -665.312719736     A.U. after    2 cycles

 The electronic state is 1-A.
 Alpha  occ. eigenvalues --  -84.27879 -15.50042 -11.30633 -11.26629 -11.26064
 Alpha  occ. eigenvalues --  -11.26048 -11.25932 -11.25796 -11.25783  -6.75039
 Alpha  occ. eigenvalues --   -4.27728  -4.27555  -4.26829  -1.22877  -1.16615
 Alpha  occ. eigenvalues --   -1.04318  -1.03335  -0.92216  -0.85981  -0.84747
 Alpha  occ. eigenvalues --   -0.76950  -0.74328  -0.68589  -0.66312  -0.63735
 Alpha  occ. eigenvalues --   -0.61586  -0.56612  -0.54501  -0.54255  -0.51752
 Alpha  occ. eigenvalues --   -0.50363  -0.49274  -0.44041  -0.36197  -0.35685
 Alpha  occ. eigenvalues --   -0.34991
 Alpha virt. eigenvalues --    0.03000   0.03449   0.03908   0.05105   0.05543
 Alpha virt. eigenvalues --    0.05636   0.06833   0.07266   0.07702   0.08173
 Alpha virt. eigenvalues --    0.09085   0.10546   0.10866   0.11874   0.13000

 Mulliken charges:
               1
     1  C    1.463447
     2  C   -2.540513
     3  P   -0.497745
     4  N    0.936041
     5  H    0.133237
     6  C    0.155123
     7  C    0.186232
     8  C    0.108210
     9  C    0.088505
    10  C    0.266185
    11  H   -0.213440
    12  H   -0.232454
    13  H   -0.206683
    14  H   -0.233780
    15  H   -0.331171
    16  H    0.450867
    17  H    0.467938
 Sum of Mulliken charges =  -0.00000

 Dipole moment (field-independent basis, Debye):
    X=             -2.8459    Y=             -1.1745    Z=              0.8357  Tot=              3.1902

 Test job not archived.
 1\1\GINC-SE227\SP\RHF\Aug-CC-pVDZ\C7H8N1P1\OHZDE\08-Apr-2025\0\\#t hf
 aug-cc-pvdz iop(5/13=1,5/36=2,99/5=2) pseudo=read geom=check guess=(re
 ad,tcheck) scf=(maxcycle=1)\\title\\0,1\C,0,-0.145432,0.204454,-0.0841
 \C,0,1.30924,0.528539,-0.181726\P,0,2.518158,-0.821847,0.265399\N,0,1.
 790253,1.629248,-0.610188\H,0,1.039493,2.254303,-0.921516\C,0,-0.63445
 8,-1.071351,-0.393634\C,0,-1.998325,-1.341735,-0.324632\C,0,-2.890295,
 -0.34876,0.074098\C,0,-2.412558,0.919685,0.400064\C,0,-1.051952,1.1953
 58,0.318381\H,0,0.050743,-1.848706,-0.712933\H,0,-2.363957,-2.329152,-

 Normal termination of Gaussian 16 at Tue Apr  8 23:34:19 2025.
