 Gaussian 16, Revision C.01,

 ----------------------------------------------------------------------
 #t hf aug-cc-pvdz symm=none int=(grid=ultrafine) guess=(read,tcheck) s
 table=opt
 ----------------------------------------------------------------------
 -----
 title
 -----
 Symbolic Z-matrix:
 Charge =  0 Multiplicity = 2

 SCF Done:  E(UHF) =  -484.668172730     A.U. after   15 cycles
 Normal termination of Gaussian 16 at Tue Apr  8 23:41:59 2025.
 Gaussian 16:  ES64L-G16RevC.01  3-Jul-2019

 ----------------------------------------------------------------------
 #t hf aug-cc-pvdz iop(5/13=1,5/36=2,99/5=2) pseudo=read geom=check gue
 ss=(read,tcheck) scf=(maxcycle=1)
 ----------------------------------------------------------------------
 -----
 title
 -----
 Structure from the checkpoint file:  "BDE49_nonexpt_1657_mol2.chk"
 Charge =  0 Multiplicity = 2

                         Standard orientation:
 ---------------------------------------------------------------------
 Center     Atomic      Atomic             Coordinates (Angstroms)
 Number     Number       Type             X           Y           Z
 ---------------------------------------------------------------------
      1         14           0        1.536670   -0.000001    0.070384
      2          6           0        0.442212    1.501942   -0.299722
      3          6           0       -0.982654    1.294417    0.273979
      4          6           0       -1.665169    0.000001   -0.200863
      5          6           0       -0.982655   -1.294417    0.273979
      6          6           0        0.442210   -1.501942   -0.299722
      7          1           0        0.380153    1.634706   -1.386497
      8          1           0        0.888609    2.417669    0.099443
      9          1           0       -1.609503    2.151071   -0.001295
     10          1           0       -0.937093    1.290290    1.370016
     11          1           0       -1.717383    0.000001   -1.297798
     12          1           0       -2.701764    0.000001    0.153160
     13          1           0       -1.609506   -2.151069   -0.001295
     14          1           0       -0.937094   -1.290290    1.370016
     15          1           0        0.380151   -1.634706   -1.386497
     16          1           0        0.888606   -2.417669    0.099443
     17          1           0        1.937776   -0.000001    1.510025
 ---------------------------------------------------------------------

 SCF Done:  E(UHF) =  -484.914582066     A.U. after    2 cycles

 The electronic state is 2-A.
 Alpha  occ. eigenvalues --  -69.51746 -11.23346 -11.23345 -11.22799 -11.21690
 Alpha  occ. eigenvalues --  -11.21686  -6.18931  -3.94851  -3.93954  -3.93943
 Alpha  occ. eigenvalues --   -1.09005  -1.00379  -0.93733  -0.82947  -0.78238
 Alpha  occ. eigenvalues --   -0.69319  -0.63512  -0.60476  -0.59689  -0.56423
 Alpha  occ. eigenvalues --   -0.54474  -0.50829  -0.49127  -0.48480  -0.47334
 Alpha  occ. eigenvalues --   -0.44316  -0.40781  -0.31567
 Alpha virt. eigenvalues --    0.03655   0.03724   0.03783   0.03846   0.05684
 Alpha virt. eigenvalues --    0.06072   0.06342   0.06461   0.06864   0.09029
 Alpha virt. eigenvalues --    0.09441   0.09665   0.10512   0.10901   0.13710

  Beta  occ. eigenvalues --  -69.51204 -11.23268 -11.23267 -11.22807 -11.21628
  Beta  occ. eigenvalues --  -11.21624  -6.18104  -3.93597  -3.93574  -3.92743
  Beta  occ. eigenvalues --   -1.08743  -1.00058  -0.93172  -0.82740  -0.77685
  Beta  occ. eigenvalues --   -0.67140  -0.63124  -0.60345  -0.58318  -0.55725
  Beta  occ. eigenvalues --   -0.54260  -0.50279  -0.49018  -0.47924  -0.47075
  Beta  occ. eigenvalues --   -0.43299  -0.40141
  Beta virt. eigenvalues --    0.02745   0.03716   0.03751   0.03853   0.05419
  Beta virt. eigenvalues --    0.05790   0.06277   0.06481   0.06604   0.08263
  Beta virt. eigenvalues --    0.09059   0.09448   0.09773   0.10704   0.11186

 Mulliken charges and spin densities:
               1          2
     1  Si   0.969287   0.948829
     2  C   -0.552775   0.009802
     3  C   -0.361698   0.009221
     4  C   -0.281390  -0.009052
     5  C   -0.361700   0.009221
     6  C   -0.552774   0.009802
     7  H    0.176582  -0.000860
     8  H    0.053832  -0.008276
     9  H    0.100870   0.004986
    10  H    0.145778  -0.005384
    11  H    0.153937  -0.002188
    12  H    0.120740  -0.001160
    13  H    0.100871   0.004986
    14  H    0.145778  -0.005384
    15  H    0.176582  -0.000860
    16  H    0.053831  -0.008276
    17  H   -0.087751   0.044595
 Sum of Mulliken charges =  -0.00000   1.00000

 Dipole moment (field-independent basis, Debye):
    X=             -0.9217    Y=              0.0000    Z=             -0.2374  Tot=              0.9518
                          Isotropic Fermi Contact Couplings
        Atom                 a.u.       MegaHertz       Gauss      10(-4) cm-1
     1  Si(29)             0.56781    -504.63251    -180.06543    -168.32729
     2  C(13)              0.01308      14.70568       5.24735       4.90529
     3  C(13)              0.01667      18.73495       6.68510       6.24931
     4  C(13)             -0.00087      -0.98075      -0.34996      -0.32714
     5  C(13)              0.01667      18.73497       6.68510       6.24931
     6  C(13)              0.01308      14.70569       5.24736       4.90529
     7  H(1)               0.00083       3.70711       1.32279       1.23656
     8  H(1)              -0.00046      -2.04476      -0.72962      -0.68206

 Normal termination of Gaussian 16 at Tue Apr  8 23:42:06 2025.
