 Gaussian 16, Revision C.01,

 ----------------------------------------------------------------------
 #t hf aug-cc-pvdz symm=none int=(grid=ultrafine) guess=(read,tcheck) s
 table=(opt,rrhf)
 ----------------------------------------------------------------------
 -----
 title
 -----
 Symbolic Z-matrix:
 Charge =  0 Multiplicity = 1

 SCF Done:  E(RHF) =  -924.439603439     A.U. after   15 cycles
 Normal termination of Gaussian 16 at Wed Apr  9 00:04:25 2025.
 Gaussian 16:  ES64L-G16RevC.01  3-Jul-2019

 ----------------------------------------------------------------------
 #t hf aug-cc-pvdz iop(5/13=1,5/36=2,99/5=2) pseudo=read geom=check gue
 ss=(read,tcheck) scf=(maxcycle=1)
 ----------------------------------------------------------------------
 -----
 title
 -----
 Structure from the checkpoint file:  "BDE49_nonexpt_2122_mol1.chk"
 Charge =  0 Multiplicity = 1

                         Standard orientation:
 ---------------------------------------------------------------------
 Center     Atomic      Atomic             Coordinates (Angstroms)
 Number     Number       Type             X           Y           Z
 ---------------------------------------------------------------------
      1          7           0       -0.786542   -0.847111   -0.813630
      2          7           0        0.439460   -0.874252   -0.995692
      3          6           0        3.010121    0.406103   -0.379248
      4          6           0        4.360238    0.294083    0.353967
      5          1           0        4.239921    0.405774    1.436490
      6          1           0        5.045703    1.080788    0.020782
      7          1           0        4.848448   -0.667404    0.170883
      8          6           0        2.371161    1.792569   -0.179880
      9          1           0        2.142091    1.979530    0.874788
     10          1           0        1.444266    1.898348   -0.749905
     11          6           0       -3.109682    0.446182    0.421912
     12          6           0       -2.470954    1.846348    0.340232
     13          1           0       -1.863972    2.074482    1.221612
     14          1           0       -3.242771    2.619397    0.263210
     15          1           0       -1.830116    1.935825   -0.542238
     16          6           0       -4.014381    0.164024   -0.792028
     17          1           0       -4.528312   -0.796827   -0.701069
     18          1           0       -3.433935    0.142691   -1.717571
     19          1           0        3.052875    2.583979   -0.509521
     20          1           0       -4.779080    0.942268   -0.890891
     21         14           0       -1.805319   -0.894711    0.675416
     22         14           0        1.843466   -0.986361    0.133388
     23          1           0        3.185277    0.260330   -1.452213
     24          1           0       -3.728974    0.409487    1.329517
     25          1           0        2.408557   -2.315490   -0.194801
     26          1           0        1.554397   -0.916404    1.593081
     27          1           0       -2.398343   -2.251588    0.629066
     28          1           0       -1.099528   -0.696486    1.971041
 ---------------------------------------------------------------------

 SCF Done:  E(RHF) =  -924.874254913     A.U. after    2 cycles

 The electronic state is 1-A.
 Alpha  occ. eigenvalues --  -69.54163 -69.54107 -15.54617 -15.53977 -11.23480
 Alpha  occ. eigenvalues --  -11.23319 -11.23282 -11.23099 -11.23070 -11.22692
 Alpha  occ. eigenvalues --   -6.21130  -6.21073  -3.96508  -3.96451  -3.96438
 Alpha  occ. eigenvalues --   -3.96400  -3.96377  -3.96348  -1.32012  -1.06608
 Alpha  occ. eigenvalues --   -1.06360  -0.93868  -0.93412  -0.93139  -0.83735
 Alpha  occ. eigenvalues --   -0.80758  -0.77348  -0.67393  -0.64243  -0.63353
 Alpha  occ. eigenvalues --   -0.62075  -0.61292  -0.59667  -0.58948  -0.57187
 Alpha  occ. eigenvalues --   -0.56765  -0.55363  -0.54785  -0.54330  -0.50064
 Alpha  occ. eigenvalues --   -0.49724  -0.49411  -0.48904  -0.47809  -0.47566
 Alpha  occ. eigenvalues --   -0.42817  -0.42468  -0.35571
 Alpha virt. eigenvalues --    0.03374   0.03601   0.03788   0.04037   0.04298
 Alpha virt. eigenvalues --    0.04446   0.04884   0.05793   0.06001   0.06597
 Alpha virt. eigenvalues --    0.07001   0.07298   0.07954   0.08072   0.08459

 Mulliken charges:
               1
     1  N   -0.524161
     2  N   -0.271245
     3  C   -0.793578
     4  C   -0.241826
     5  H    0.169083
     6  H    0.152845
     7  H    0.125459
     8  C   -0.314485
     9  H    0.190978
    10  H    0.178712
    11  C   -0.877563
    12  C   -0.220995
    13  H    0.138844
    14  H    0.107094
    15  H    0.239835
    16  C   -0.270140
    17  H    0.114356
    18  H    0.195982
    19  H    0.119190
    20  H    0.142332
    21  Si   0.887239
    22  Si   0.869097
    23  H    0.164889
    24  H    0.122942
    25  H   -0.187659
    26  H   -0.020694
    27  H   -0.143565
    28  H   -0.052965
 Sum of Mulliken charges =  -0.00000

 Dipole moment (field-independent basis, Debye):
    X=              0.3477    Y=              1.0931    Z=              2.3118  Tot=              2.5807

 Test job not archived.
 1\1\GINC-SE071\SP\RHF\Aug-CC-pVDZ\C6H18N2Si2\OHZDE\09-Apr-2025\0\\#t h
 f aug-cc-pvdz iop(5/13=1,5/36=2,99/5=2) pseudo=read geom=check guess=(
 read,tcheck) scf=(maxcycle=1)\\title\\0,1\N,0,-0.786542,-0.847111,-0.8
 1363\N,0,0.43946,-0.874252,-0.995692\C,0,3.010121,0.406103,-0.379248\C
 ,0,4.360238,0.294083,0.353967\H,0,4.239921,0.405774,1.43649\H,0,5.0457
 03,1.080788,0.020782\H,0,4.848448,-0.667404,0.170883\C,0,2.371161,1.79
 2569,-0.17988\H,0,2.142091,1.97953,0.874788\H,0,1.444266,1.898348,-0.7
 49905\C,0,-3.109682,0.446182,0.421912\C,0,-2.470954,1.846348,0.340232\

 Normal termination of Gaussian 16 at Wed Apr  9 00:04:46 2025.
