 Gaussian 16, Revision C.01,

 ----------------------------------------------------------------------
 #t hf aug-cc-pvdz symm=none int=(grid=ultrafine) guess=(read,tcheck) s
 table=(opt,rrhf)
 ----------------------------------------------------------------------
 -----
 title
 -----
 Symbolic Z-matrix:
 Charge =  0 Multiplicity = 1

 SCF Done:  E(RHF) =  -906.421547876     A.U. after   12 cycles
 Normal termination of Gaussian 16 at Tue Apr  8 23:45:48 2025.
 Gaussian 16:  ES64L-G16RevC.01  3-Jul-2019

 ----------------------------------------------------------------------
 #t hf aug-cc-pvdz iop(5/13=1,5/36=2,99/5=2) pseudo=read geom=check gue
 ss=(read,tcheck) scf=(maxcycle=1)
 ----------------------------------------------------------------------
 -----
 title
 -----
 Structure from the checkpoint file:  "BDE49_nonexpt_1748_mol1.chk"
 Charge =  0 Multiplicity = 1

                         Standard orientation:
 ---------------------------------------------------------------------
 Center     Atomic      Atomic             Coordinates (Angstroms)
 Number     Number       Type             X           Y           Z
 ---------------------------------------------------------------------
      1         14           0        0.280054   -0.376056    0.000290
      2          6           0       -1.427000   -0.504206   -0.775385
      3          6           0       -2.559296    0.244385   -0.051610
      4          1           0       -1.665822   -1.574547   -0.841069
      5          1           0       -1.347655   -0.153578   -1.810967
      6          1           0       -2.700005   -0.125267    0.967950
      7          1           0       -3.511246    0.124013   -0.576171
      8          1           0       -2.349560    1.314936    0.011446
      9          6           0        1.550938   -1.296780   -1.019056
     10          1           0        1.320022   -2.367021   -1.042534
     11          1           0        2.552996   -1.176289   -0.599444
     12          1           0        1.570522   -0.931596   -2.049063
     13          6           0        0.295712   -0.935906    1.786301
     14          1           0        0.004345   -1.989158    1.858541
     15          1           0       -0.396579   -0.349476    2.395156
     16          1           0        1.294227   -0.830915    2.218421
     17         17           0        0.832110    1.663454   -0.010460
 ---------------------------------------------------------------------

 SCF Done:  E(RHF) =  -906.713238881     A.U. after    2 cycles

 The electronic state is 1-A.
 Alpha  occ. eigenvalues -- -105.53747 -69.55624 -11.23230 -11.22517 -11.22176
 Alpha  occ. eigenvalues --  -11.22159 -10.58704  -7.75587  -7.75317  -7.75315
 Alpha  occ. eigenvalues --   -6.22315  -3.97726  -3.97558  -3.97542  -1.04896
 Alpha  occ. eigenvalues --   -1.01698  -0.96490  -0.94156  -0.85137  -0.66675
 Alpha  occ. eigenvalues --   -0.61827  -0.59435  -0.58159  -0.57335  -0.56270
 Alpha  occ. eigenvalues --   -0.55533  -0.52735  -0.50959  -0.48938  -0.48061
 Alpha  occ. eigenvalues --   -0.47064  -0.43275  -0.42190
 Alpha virt. eigenvalues --    0.02993   0.03792   0.03987   0.04444   0.06029
 Alpha virt. eigenvalues --    0.06069   0.06661   0.06889   0.07619   0.08898
 Alpha virt. eigenvalues --    0.09474   0.09731   0.10554   0.10984   0.12096

 Mulliken charges:
               1
     1  Si   2.298129
     2  C   -0.436756
     3  C   -0.541553
     4  H    0.082149
     5  H    0.004464
     6  H    0.140270
     7  H    0.105486
     8  H    0.146357
     9  C   -0.581538
    10  H    0.091046
    11  H   -0.016200
    12  H   -0.000440
    13  C   -0.602892
    14  H    0.078315
    15  H   -0.032377
    16  H   -0.029301
    17  Cl  -0.705157
 Sum of Mulliken charges =  -0.00000

 Dipole moment (field-independent basis, Debye):
    X=             -0.7554    Y=             -2.4620    Z=             -0.0317  Tot=              2.5755

 Test job not archived.
 1\1\GINC-SE044\SP\RHF\Aug-CC-pVDZ\C4H11Cl1Si1\OHZDE\08-Apr-2025\0\\#t
 hf aug-cc-pvdz iop(5/13=1,5/36=2,99/5=2) pseudo=read geom=check guess=
 (read,tcheck) scf=(maxcycle=1)\\title\\0,1\Si,0,0.280054,-0.376056,0.0
 0029\C,0,-1.427,-0.504206,-0.775385\C,0,-2.559296,0.244385,-0.05161\H,
 0,-1.665822,-1.574547,-0.841069\H,0,-1.347655,-0.153578,-1.810967\H,0,
 -2.700005,-0.125267,0.96795\H,0,-3.511246,0.124013,-0.576171\H,0,-2.34
 956,1.314936,0.011446\C,0,1.550938,-1.29678,-1.019056\H,0,1.320022,-2.
 367021,-1.042534\H,0,2.552996,-1.176289,-0.599444\H,0,1.570522,-0.9315

 Normal termination of Gaussian 16 at Tue Apr  8 23:45:54 2025.
