 Gaussian 16, Revision C.01,

 ----------------------------------------------------------------------
 #t hf aug-cc-pvdz symm=none int=(grid=ultrafine) guess=(read,tcheck) s
 table=(opt,rrhf)
 ----------------------------------------------------------------------
 -----
 title
 -----
 Symbolic Z-matrix:
 Charge =  0 Multiplicity = 1

 SCF Done:  E(RHF) =  -1178.32633834     A.U. after   15 cycles
 Normal termination of Gaussian 16 at Wed Apr  9 00:20:16 2025.
 Gaussian 16:  ES64L-G16RevC.01  3-Jul-2019

 ----------------------------------------------------------------------
 #t hf aug-cc-pvdz iop(5/13=1,5/36=2,99/5=2) pseudo=read geom=check gue
 ss=(read,tcheck) scf=(maxcycle=1)
 ----------------------------------------------------------------------
 -----
 title
 -----
 Structure from the checkpoint file:  "BDE49_nonexpt_2595_mol1.chk"
 Charge =  0 Multiplicity = 1

                         Standard orientation:
 ---------------------------------------------------------------------
 Center     Atomic      Atomic             Coordinates (Angstroms)
 Number     Number       Type             X           Y           Z
 ---------------------------------------------------------------------
      1         17           0        2.618861   -0.113869    0.918356
      2         16           0        1.678089    0.248349   -0.900220
      3          8           0        0.132497    0.650671   -0.453541
      4          6           0       -0.801881   -0.405214   -0.250956
      5          8           0       -0.519117   -1.560565   -0.411211
      6          7           0       -1.992628    0.111068    0.130990
      7          6           0       -2.277822    1.531149    0.311017
      8          1           0       -1.370881    2.115319    0.202230
      9          1           0       -2.692563    1.696858    1.310209
     10          1           0       -3.012851    1.867658   -0.428293
     11          6           0       -3.103008   -0.808271    0.352971
     12          1           0       -3.473761   -0.709451    1.378074
     13          1           0       -2.759407   -1.826055    0.190162
     14          1           0       -3.922972   -0.586451   -0.338026
 ---------------------------------------------------------------------

 SCF Done:  E(RHF) =  -1178.78441093     A.U. after    2 cycles

 The electronic state is 1-A.
 Alpha  occ. eigenvalues -- -105.58927 -94.06911 -20.62983 -20.53315 -15.54878
 Alpha  occ. eigenvalues --  -11.42936 -11.28676 -11.28090 -10.63647  -8.33913
 Alpha  occ. eigenvalues --   -7.80583  -7.80148  -7.80096  -6.31687  -6.31480
 Alpha  occ. eigenvalues --   -6.31074  -1.55577  -1.46980  -1.27700  -1.11267
 Alpha  occ. eigenvalues --   -1.00299  -0.99721  -0.92295  -0.78170  -0.75729
 Alpha  occ. eigenvalues --   -0.70619  -0.70363  -0.64108  -0.63756  -0.61388
 Alpha  occ. eigenvalues --   -0.58999  -0.58249  -0.56348  -0.55167  -0.51702
 Alpha  occ. eigenvalues --   -0.48600  -0.48100  -0.46364  -0.42214  -0.38054
 Alpha virt. eigenvalues --    0.03076   0.04390   0.04516   0.04676   0.05736
 Alpha virt. eigenvalues --    0.06799   0.07228   0.07533   0.08451   0.10672
 Alpha virt. eigenvalues --    0.11398   0.12728   0.13239   0.14082   0.14444

 Mulliken charges:
               1
     1  Cl  -0.287052
     2  S    0.687441
     3  O   -1.235529
     4  C    0.808332
     5  O   -0.995983
     6  N    0.722024
     7  C   -0.284455
     8  H    0.067601
     9  H    0.167132
    10  H    0.169000
    11  C   -0.241577
    12  H    0.195166
    13  H    0.011830
    14  H    0.216071
 Sum of Mulliken charges =  -0.00000

 Dipole moment (field-independent basis, Debye):
    X=             -3.2815    Y=              2.2150    Z=              0.1588  Tot=              3.9623

 Test job not archived.
 1\1\GINC-SE253\SP\RHF\Aug-CC-pVDZ\C3H6Cl1N1O2S1\OHZDE\09-Apr-2025\0\\#
 t hf aug-cc-pvdz iop(5/13=1,5/36=2,99/5=2) pseudo=read geom=check gues
 s=(read,tcheck) scf=(maxcycle=1)\\title\\0,1\Cl,0,2.618861,-0.113869,0
 .918356\S,0,1.678089,0.248349,-0.90022\O,0,0.132497,0.650671,-0.453541
 \C,0,-0.801881,-0.405214,-0.250956\O,0,-0.519117,-1.560565,-0.411211\N
 ,0,-1.992628,0.111068,0.13099\C,0,-2.277822,1.531149,0.311017\H,0,-1.3
 70881,2.115319,0.20223\H,0,-2.692563,1.696858,1.310209\H,0,-3.012851,1
 .867658,-0.428293\C,0,-3.103008,-0.808271,0.352971\H,0,-3.473761,-0.70

 Normal termination of Gaussian 16 at Wed Apr  9 00:20:21 2025.
