 Gaussian 16, Revision C.01,

 ----------------------------------------------------------------------
 #t hf aug-cc-pvdz symm=none int=(grid=ultrafine) guess=(read,tcheck) s
 table=(opt,rrhf)
 ----------------------------------------------------------------------
 -----
 title
 -----
 Symbolic Z-matrix:
 Charge =  0 Multiplicity = 1

 SCF Done:  E(RHF) =  -443.023596197     A.U. after   12 cycles
 Normal termination of Gaussian 16 at Tue Apr  8 23:57:22 2025.
 Gaussian 16:  ES64L-G16RevC.01  3-Jul-2019

 ----------------------------------------------------------------------
 #t hf aug-cc-pvdz iop(5/13=1,5/36=2,99/5=2) pseudo=read geom=check gue
 ss=(read,tcheck) scf=(maxcycle=1)
 ----------------------------------------------------------------------
 -----
 title
 -----
 Structure from the checkpoint file:  "BDE49_nonexpt_2038_mol1.chk"
 Charge =  0 Multiplicity = 1

                         Standard orientation:
 ---------------------------------------------------------------------
 Center     Atomic      Atomic             Coordinates (Angstroms)
 Number     Number       Type             X           Y           Z
 ---------------------------------------------------------------------
      1         14           0       -1.373278   -0.171797    0.000004
      2          6           0        0.533604    0.199564   -0.000064
      3          8           0        0.849403    1.371297    0.000016
      4          6           0        1.563437   -0.910518    0.000011
      5          1           0        1.423226   -1.549697    0.878673
      6          1           0        2.570481   -0.490164    0.000042
      7          1           0        1.423297   -1.549738   -0.878633
      8          1           0       -1.944069    0.456469   -1.210924
      9          1           0       -1.944013    0.456556    1.210914
     10          1           0       -1.680491   -1.622915    0.000061
 ---------------------------------------------------------------------

 SCF Done:  E(RHF) =  -443.213551205     A.U. after    2 cycles

 The electronic state is 1-A.
 Alpha  occ. eigenvalues --  -69.54402 -20.55010 -11.33560 -11.25157  -6.21537
 Alpha  occ. eigenvalues --   -3.96903  -3.96896  -3.96888  -1.47652  -1.02035
 Alpha  occ. eigenvalues --   -0.81832  -0.72355  -0.63368  -0.62798  -0.61059
 Alpha  occ. eigenvalues --   -0.54756  -0.52182  -0.50037  -0.48551  -0.38790
 Alpha virt. eigenvalues --    0.03042   0.04415   0.04667   0.05437   0.06239
 Alpha virt. eigenvalues --    0.07203   0.07652   0.08707   0.08936   0.11381
 Alpha virt. eigenvalues --    0.12356   0.13578   0.14741   0.14819   0.15516

 Mulliken charges:
               1
     1  Si   0.935483
     2  C    0.564863
     3  O   -1.105393
     4  C   -0.409943
     5  H    0.225186
     6  H    0.133495
     7  H    0.225202
     8  H   -0.206255
     9  H   -0.206244
    10  H   -0.156394
 Sum of Mulliken charges =  -0.00000

 Dipole moment (field-independent basis, Debye):
    X=             -0.3622    Y=             -2.7579    Z=             -0.0000  Tot=              2.7816

 Test job not archived.
 1\1\GINC-SE424\SP\RHF\Aug-CC-pVDZ\C2H6O1Si1\OHZDE\08-Apr-2025\0\\#t hf
  aug-cc-pvdz iop(5/13=1,5/36=2,99/5=2) pseudo=read geom=check guess=(r
 ead,tcheck) scf=(maxcycle=1)\\title\\0,1\Si,0,1.373278,-0.171797,-0.00
 0004\C,0,-0.533604,0.199564,0.000064\O,0,-0.849403,1.371297,-0.000016\
 C,0,-1.563437,-0.910518,-0.000011\H,0,-1.423226,-1.549697,-0.878673\H,
 0,-2.570481,-0.490164,-0.000042\H,0,-1.423297,-1.549738,0.878633\H,0,1
 .944069,0.45647,1.210924\H,0,1.944013,0.456557,-1.210914\H,0,1.680491,
 -1.622915,-0.000061\\Version=ES64L-G16RevC.01\State=1-A\HF=-443.213551

 Normal termination of Gaussian 16 at Tue Apr  8 23:57:25 2025.
