 Gaussian 16, Revision C.01,

 ----------------------------------------------------------------------
 #t hf aug-cc-pvdz symm=none int=(grid=ultrafine) guess=(read,tcheck) s
 table=(opt,rrhf)
 ----------------------------------------------------------------------
 -----
 title
 -----
 Symbolic Z-matrix:
 Charge =  0 Multiplicity = 1

 SCF Done:  E(RHF) =  -1613.81847166     A.U. after   14 cycles
 Normal termination of Gaussian 16 at Tue Apr  8 23:31:23 2025.
 Gaussian 16:  ES64L-G16RevC.01  3-Jul-2019

 ----------------------------------------------------------------------
 #t hf aug-cc-pvdz iop(5/13=1,5/36=2,99/5=2) pseudo=read geom=check gue
 ss=(read,tcheck) scf=(maxcycle=1)
 ----------------------------------------------------------------------
 -----
 title
 -----
 Structure from the checkpoint file:  "BDE49_nonexpt_1362_mol1.chk"
 Charge =  0 Multiplicity = 1

                         Standard orientation:
 ---------------------------------------------------------------------
 Center     Atomic      Atomic             Coordinates (Angstroms)
 Number     Number       Type             X           Y           Z
 ---------------------------------------------------------------------
      1          9           0       -0.102870    2.143349    0.183458
      2         15           0       -0.016757    0.918847   -0.875943
      3         16           0        1.717254   -0.122506    0.173823
      4         16           0       -1.720348   -0.329287   -0.115623
      5          8           0        2.817688    0.801783   -0.032019
      6          8           0        1.365740   -0.560179    1.514743
      7          8           0       -2.918758    0.279885   -0.660664
      8          8           0       -1.342047   -1.686667   -0.487326
      9          6           0        1.968916   -1.579036   -0.843435
     10          1           0        2.819251   -2.100819   -0.400376
     11          1           0        2.203054   -1.260031   -1.858542
     12          1           0        1.066307   -2.187451   -0.801577
     13          6           0       -1.775030   -0.175109    1.670588
     14          1           0       -1.912034    0.877977    1.911874
     15          1           0       -0.849862   -0.568617    2.085339
     16          1           0       -2.644321   -0.758919    1.979325
 ---------------------------------------------------------------------

 SCF Done:  E(RHF) =  -1614.45599658     A.U. after    2 cycles

 The electronic state is 1-A.
 Alpha  occ. eigenvalues --  -94.21625 -94.21486 -84.43564 -26.52798 -20.56854
 Alpha  occ. eigenvalues --  -20.56781 -20.56484 -20.56403 -11.30855 -11.30304
 Alpha  occ. eigenvalues --   -8.47068  -8.46958  -6.89714  -6.45139  -6.45025
 Alpha  occ. eigenvalues --   -6.44911  -6.44855  -6.44799  -6.44746  -4.42190
 Alpha  occ. eigenvalues --   -4.41411  -4.40953  -1.63866  -1.57912  -1.57810
 Alpha  occ. eigenvalues --   -1.46315  -1.46193  -1.09061  -1.08427  -0.97002
 Alpha  occ. eigenvalues --   -0.88621  -0.83334  -0.74342  -0.74112  -0.71125
 Alpha  occ. eigenvalues --   -0.69905  -0.69065  -0.68558  -0.68168  -0.67635
 Alpha  occ. eigenvalues --   -0.63280  -0.62893  -0.62295  -0.62106  -0.56249
 Alpha  occ. eigenvalues --   -0.52779  -0.51788  -0.50887  -0.50195  -0.49184
 Alpha  occ. eigenvalues --   -0.48899  -0.41450  -0.39590
 Alpha virt. eigenvalues --    0.03185   0.03435   0.04499   0.04716   0.05401
 Alpha virt. eigenvalues --    0.05875   0.06570   0.06935   0.08040   0.09913
 Alpha virt. eigenvalues --    0.10623   0.11453   0.11931   0.12643   0.13142

 Mulliken charges:
               1
     1  F   -0.839395
     2  P    1.512011
     3  S    3.026516
     4  S    2.931090
     5  O   -1.529557
     6  O   -1.607064
     7  O   -1.532667
     8  O   -1.598417
     9  C   -0.865083
    10  H    0.250097
    11  H    0.217057
    12  H    0.211604
    13  C   -0.831050
    14  H    0.218567
    15  H    0.187085
    16  H    0.249206
 Sum of Mulliken charges =  -0.00000

 Dipole moment (field-independent basis, Debye):
    X=              0.4166    Y=             -0.7834    Z=             -0.6330  Tot=              1.0899

 Test job not archived.
 1\1\GINC-SE132\SP\RHF\Aug-CC-pVDZ\C2H6F1O4P1S2\OHZDE\08-Apr-2025\0\\#t
  hf aug-cc-pvdz iop(5/13=1,5/36=2,99/5=2) pseudo=read geom=check guess
 =(read,tcheck) scf=(maxcycle=1)\\title\\0,1\F,0,-0.10287,2.143349,0.18
 3458\P,0,-0.016757,0.918847,-0.875943\S,0,1.717254,-0.122506,0.173823\
 S,0,-1.720348,-0.329287,-0.115623\O,0,2.817688,0.801782,-0.032019\O,0,
 1.36574,-0.560179,1.514743\O,0,-2.918758,0.279885,-0.660664\O,0,-1.342
 047,-1.686667,-0.487326\C,0,1.968916,-1.579036,-0.843435\H,0,2.819251,
 -2.10082,-0.400376\H,0,2.203054,-1.260031,-1.858542\H,0,1.066307,-2.18

 Normal termination of Gaussian 16 at Tue Apr  8 23:31:33 2025.
