 Gaussian 16, Revision C.01,

 ----------------------------------------------------------------------
 #t hf aug-cc-pvdz symm=none int=(grid=ultrafine) guess=(read,tcheck) s
 table=(opt,rrhf)
 ----------------------------------------------------------------------
 -----
 title
 -----
 Symbolic Z-matrix:
 Charge =  0 Multiplicity = 1

 SCF Done:  E(RHF) =  -719.293765354     A.U. after   15 cycles
 Normal termination of Gaussian 16 at Tue Apr  8 23:16:17 2025.
 Gaussian 16:  ES64L-G16RevC.01  3-Jul-2019

 ----------------------------------------------------------------------
 #t hf aug-cc-pvdz iop(5/13=1,5/36=2,99/5=2) pseudo=read geom=check gue
 ss=(read,tcheck) scf=(maxcycle=1)
 ----------------------------------------------------------------------
 -----
 title
 -----
 Structure from the checkpoint file:  "BDE49_nonexpt_1009_mol1.chk"
 Charge =  0 Multiplicity = 1

                         Standard orientation:
 ---------------------------------------------------------------------
 Center     Atomic      Atomic             Coordinates (Angstroms)
 Number     Number       Type             X           Y           Z
 ---------------------------------------------------------------------
      1          6           0       -0.972118   -0.559903   -0.534782
      2         16           0        0.665952   -1.141812    0.002253
      3          7           0        1.597155    0.435275   -0.008069
      4          8           0        1.031236    1.446281   -0.367697
      5          8           0        2.747812    0.322777    0.352782
      6          6           0       -1.821451    0.083883    0.561652
      7          1           0       -1.442370   -1.468810   -0.927048
      8          1           0       -0.810804    0.116341   -1.376402
      9          6           0       -3.195902    0.512521    0.037068
     10          1           0       -1.288279    0.951947    0.956415
     11          1           0       -1.938033   -0.622823    1.388848
     12          1           0       -3.101987    1.244914   -0.769844
     13          1           0       -3.787873    0.970137    0.833150
     14          1           0       -3.761533   -0.341109   -0.348999
 ---------------------------------------------------------------------

 SCF Done:  E(RHF) =  -719.675475854     A.U. after    2 cycles

 The electronic state is 1-A.
 Alpha  occ. eigenvalues --  -94.02728 -20.60442 -20.60343 -15.80690 -11.29976
 Alpha  occ. eigenvalues --  -11.25582 -11.24406  -8.30496  -6.28291  -6.28032
 Alpha  occ. eigenvalues --   -6.27803  -1.68710  -1.52924  -1.14951  -1.06945
 Alpha  occ. eigenvalues --   -0.97122  -0.88079  -0.83669  -0.76945  -0.75929
 Alpha  occ. eigenvalues --   -0.75477  -0.66937  -0.61497  -0.59194  -0.58102
 Alpha  occ. eigenvalues --   -0.52604  -0.51405  -0.50903  -0.48602  -0.47155
 Alpha  occ. eigenvalues --   -0.46515  -0.41291
 Alpha virt. eigenvalues --    0.02952   0.03529   0.03775   0.04953   0.05855
 Alpha virt. eigenvalues --    0.06327   0.06477   0.07814   0.08167   0.08583
 Alpha virt. eigenvalues --    0.11556   0.12686   0.13568   0.14061   0.14790

 Mulliken charges:
               1
     1  C   -0.731014
     2  S    0.750937
     3  N    1.851735
     4  O   -1.178120
     5  O   -1.238701
     6  C   -0.363704
     7  H    0.206985
     8  H    0.278239
     9  C   -0.378367
    10  H    0.189494
    11  H    0.182416
    12  H    0.154066
    13  H    0.124233
    14  H    0.151802
 Sum of Mulliken charges =  -0.00000

 Dipole moment (field-independent basis, Debye):
    X=             -4.0427    Y=             -1.7898    Z=             -0.4913  Tot=              4.4484

 Test job not archived.
 1\1\GINC-SE099\SP\RHF\Aug-CC-pVDZ\C3H7N1O2S1\OHZDE\08-Apr-2025\0\\#t h
 f aug-cc-pvdz iop(5/13=1,5/36=2,99/5=2) pseudo=read geom=check guess=(
 read,tcheck) scf=(maxcycle=1)\\title\\0,1\C,0,-0.972118,-0.559903,-0.5
 34782\S,0,0.665952,-1.141812,0.002253\N,0,1.597155,0.435275,-0.008069\
 O,0,1.031236,1.446281,-0.367697\O,0,2.747812,0.322777,0.352782\C,0,-1.
 821451,0.083883,0.561652\H,0,-1.44237,-1.46881,-0.927048\H,0,-0.810804
 ,0.116341,-1.376402\C,0,-3.195902,0.512521,0.037068\H,0,-1.288279,0.95
 1947,0.956415\H,0,-1.938033,-0.622823,1.388848\H,0,-3.101987,1.244914,

 Normal termination of Gaussian 16 at Tue Apr  8 23:16:23 2025.
