 Gaussian 16, Revision C.01,

 ----------------------------------------------------------------------
 #t hf aug-cc-pvdz symm=none int=(grid=ultrafine) guess=(read,tcheck) s
 table=(opt,rrhf)
 ----------------------------------------------------------------------
 -----
 title
 -----
 Symbolic Z-matrix:
 Charge =  0 Multiplicity = 1

 SCF Done:  E(RHF) =  -699.452523189     A.U. after   12 cycles
 Normal termination of Gaussian 16 at Wed Apr  9 00:50:58 2025.
 Gaussian 16:  ES64L-G16RevC.01  3-Jul-2019

 ----------------------------------------------------------------------
 #t hf aug-cc-pvdz iop(5/13=1,5/36=2,99/5=2) pseudo=read geom=check gue
 ss=(read,tcheck) scf=(maxcycle=1)
 ----------------------------------------------------------------------
 -----
 title
 -----
 Structure from the checkpoint file:  "BDE49_nonexpt_845_mol1.chk"
 Charge =  0 Multiplicity = 1

                         Standard orientation:
 ---------------------------------------------------------------------
 Center     Atomic      Atomic             Coordinates (Angstroms)
 Number     Number       Type             X           Y           Z
 ---------------------------------------------------------------------
      1          6           0       -2.604532    0.453806   -1.079373
      2          6           0       -1.094184    0.221718   -1.247217
      3          6           0       -2.967675    0.799234    0.371388
      4          1           0       -3.144046   -0.453892   -1.380172
      5          1           0       -2.936530    1.251390   -1.752679
      6          6           0       -2.453549   -0.268185    1.347093
      7          1           0       -4.051693    0.915534    0.473854
      8          1           0       -2.523655    1.768710    0.632317
      9          6           0       -0.942830   -0.501003    1.184800
     10          1           0       -2.984101   -1.211713    1.164211
     11          1           0       -2.678646    0.021267    2.379270
     12          6           0       -0.565113   -0.854496   -0.271369
     13          1           0       -0.614350   -1.292866    1.867152
     14          1           0       -0.409650    0.411246    1.482817
     15          1           0       -0.561482    1.163436   -1.068057
     16          1           0       -0.876891   -0.066856   -2.281232
     17          5           0        2.452379    0.437133    0.075572
     18          8           0        3.716482    0.335059    0.596954
     19          8           0        1.942467    1.692293   -0.083125
     20          1           0        2.564995    2.375413    0.200169
     21          1           0        4.015843   -0.570413    0.711283
     22         14           0        1.299449   -1.154812   -0.476039
     23          1           0       -1.054128   -1.807581   -0.523125
     24          1           0        1.589206   -1.505537   -1.895047
     25          1           0        1.706664   -2.341688    0.333359
 ---------------------------------------------------------------------

 SCF Done:  E(RHF) =  -699.916889090     A.U. after    2 cycles

 The electronic state is 1-A.
 Alpha  occ. eigenvalues --  -69.50386 -20.56525 -20.55813 -11.22569 -11.22132
 Alpha  occ. eigenvalues --  -11.22113 -11.21969 -11.21937 -11.21671  -7.64056
 Alpha  occ. eigenvalues --   -6.17668  -3.93022  -3.92994  -3.92963  -1.48523
 Alpha  occ. eigenvalues --   -1.44058  -1.11041  -0.99797  -0.99735  -0.83147
 Alpha  occ. eigenvalues --   -0.82991  -0.78029  -0.75398  -0.74395  -0.70037
 Alpha  occ. eigenvalues --   -0.64314  -0.60927  -0.60207  -0.60085  -0.58904
 Alpha  occ. eigenvalues --   -0.57138  -0.55970  -0.53333  -0.52814  -0.49988
 Alpha  occ. eigenvalues --   -0.49462  -0.48716  -0.48534  -0.46721  -0.45291
 Alpha  occ. eigenvalues --   -0.43205  -0.41967  -0.39391
 Alpha virt. eigenvalues --    0.03047   0.03315   0.03583   0.03945   0.04920
 Alpha virt. eigenvalues --    0.05217   0.05646   0.05967   0.06308   0.07798
 Alpha virt. eigenvalues --    0.08063   0.08405   0.08593   0.08839   0.10121

 Mulliken charges:
               1
     1  C   -0.249095
     2  C   -0.237295
     3  C   -0.247871
     4  H    0.149412
     5  H    0.108086
     6  C   -0.217910
     7  H    0.099146
     8  H    0.160951
     9  C   -0.220480
    10  H    0.157813
    11  H    0.108614
    12  C   -0.337269
    13  H    0.077440
    14  H    0.105128
    15  H    0.116649
    16  H    0.078428
    17  B    1.787075
    18  O   -1.394178
    19  O   -1.369781
    20  H    0.505841
    21  H    0.540534
    22  Si   0.231155
    23  H    0.183643
    24  H   -0.081315
    25  H   -0.054723
 Sum of Mulliken charges =  -0.00000

 Dipole moment (field-independent basis, Debye):
    X=              0.4879    Y=             -0.1651    Z=              0.6154  Tot=              0.8025

 Test job not archived.
 1\1\GINC-SE039\SP\RHF\Aug-CC-pVDZ\C6H15B1O2Si1\OHZDE\09-Apr-2025\0\\#t
  hf aug-cc-pvdz iop(5/13=1,5/36=2,99/5=2) pseudo=read geom=check guess
 =(read,tcheck) scf=(maxcycle=1)\\title\\0,1\C,0,-2.604532,0.453806,-1.
 079373\C,0,-1.094184,0.221718,-1.247217\C,0,-2.967675,0.799234,0.37138
 8\H,0,-3.144046,-0.453892,-1.380172\H,0,-2.93653,1.25139,-1.752679\C,0
 ,-2.453549,-0.268185,1.347093\H,0,-4.051693,0.915534,0.473854\H,0,-2.5
 23655,1.76871,0.632317\C,0,-0.94283,-0.501003,1.1848\H,0,-2.984101,-1.
 211713,1.164211\H,0,-2.678646,0.021267,2.37927\C,0,-0.565113,-0.854496

 Normal termination of Gaussian 16 at Wed Apr  9 00:51:21 2025.
