 Gaussian 16, Revision C.01,

 ----------------------------------------------------------------------
 #t hf aug-cc-pvdz symm=none int=(grid=ultrafine) guess=(read,tcheck) s
 table=opt
 ----------------------------------------------------------------------
 -----
 title
 -----
 Symbolic Z-matrix:
 Charge =  0 Multiplicity = 2

 SCF Done:  E(UHF) =  -1056.26948046     A.U. after   16 cycles

 1\1\GINC-SE092\Stability\UHF\Aug-CC-pVDZ\C1Cl2F1\OHZDE\08-Apr-2025\0\\
 #t hf aug-cc-pvdz symm=none int=(grid=ultrafine) guess=(read,tcheck) s
 table=opt\\title\\0,2\C,0,0.159667,0.442142,0.\Cl,0,0.159667,-0.460836
 ,1.481572\Cl,0,0.159667,-0.460836,-1.481572\F,0,-0.709632,1.446173,0.\
 \Version=ES64L-G16RevC.01\HF=-1056.2694805\S2=0.761789\S2-1=0.\S2A=0.7
 50115\RMSD=6.225e-09\Dipole=0.1454103,-0.133698,0.\Quadrupole=-0.47668
 46,-0.4871395,0.9638241,0.604333,0.,0.\PG=Unknown\\@
 The archive entry for this job was punched.

 Normal termination of Gaussian 16 at Tue Apr  8 22:29:18 2025.
 Gaussian 16:  ES64L-G16RevC.01  3-Jul-2019

 ----------------------------------------------------------------------
 #t hf aug-cc-pvdz iop(5/13=1,5/36=2,99/5=2) pseudo=read geom=check gue
 ss=(read,tcheck) scf=(maxcycle=1)
 ----------------------------------------------------------------------
 -----
 title
 -----
 Structure from the checkpoint file:  "BDE49_expt_1005_mol2.chk"
 Charge =  0 Multiplicity = 2

                         Standard orientation:
 ---------------------------------------------------------------------
 Center     Atomic      Atomic             Coordinates (Angstroms)
 Number     Number       Type             X           Y           Z
 ---------------------------------------------------------------------
      1          6           0        0.159667    0.442142    0.000000
      2         17           0        0.159667   -0.460836    1.481572
      3         17           0        0.159667   -0.460836   -1.481572
      4          9           0       -0.709632    1.446173   -0.000000
 ---------------------------------------------------------------------

 SCF Done:  E(UHF) =  -1056.54300998     A.U. after    2 cycles

 The electronic state is 2-A'.
 Alpha  occ. eigenvalues -- -105.61410-105.61409 -26.53120 -11.47805 -10.66273
 Alpha  occ. eigenvalues --  -10.66270  -7.83249  -7.83246  -7.82832  -7.82828
 Alpha  occ. eigenvalues --   -7.82757  -7.82756  -1.67487  -1.18985  -1.09948
 Alpha  occ. eigenvalues --   -0.89725  -0.76229  -0.74714  -0.73691  -0.59705
 Alpha  occ. eigenvalues --   -0.58777  -0.52737  -0.51173  -0.48871  -0.41150
 Alpha virt. eigenvalues --    0.06806   0.07977   0.09219   0.11022   0.11169
 Alpha virt. eigenvalues --    0.12901   0.14576   0.15481   0.15557   0.17983
 Alpha virt. eigenvalues --    0.19968   0.23560   0.26454   0.27875   0.29389

  Beta  occ. eigenvalues -- -105.61333-105.61332 -26.52702 -11.44817 -10.66187
  Beta  occ. eigenvalues --  -10.66184  -7.83198  -7.83191  -7.82712  -7.82711
  Beta  occ. eigenvalues --   -7.82548  -7.82548  -1.66103  -1.16433  -1.09173
  Beta  occ. eigenvalues --   -0.85991  -0.73823  -0.71515  -0.69179  -0.58370
  Beta  occ. eigenvalues --   -0.53860  -0.52550  -0.49816  -0.48672
  Beta virt. eigenvalues --    0.04941   0.08113   0.08131   0.10261   0.11748
  Beta virt. eigenvalues --    0.11955   0.13113   0.14717   0.15528   0.16447
  Beta virt. eigenvalues --    0.18014   0.21245   0.26548   0.26812   0.29124

 Mulliken charges and spin densities:
               1          2
     1  C    0.393865   0.966860
     2  Cl   0.058621   0.005353
     3  Cl   0.058621   0.005353
     4  F   -0.511106   0.022433
 Sum of Mulliken charges =  -0.00000   1.00000

 Dipole moment (field-independent basis, Debye):
    X=              0.2623    Y=             -0.1999    Z=             -0.0000  Tot=              0.3297
                          Isotropic Fermi Contact Couplings
        Atom                 a.u.       MegaHertz       Gauss      10(-4) cm-1
     1  C(13)              0.49507     556.55032     198.59099     185.64520
     2  Cl(35)             0.06063      26.58309       9.48551       8.86717
     3  Cl(35)             0.06063      26.58309       9.48551       8.86717
     4  F(19)              0.06625     278.75010      99.46497      92.98102
 --------------------------------------------------------
       Center         ----  Spin Dipole Couplings  ----
                      3XX-RR        3YY-RR        3ZZ-RR
 --------------------------------------------------------

 Normal termination of Gaussian 16 at Tue Apr  8 22:29:20 2025.
