 Gaussian 16, Revision C.01,

 ----------------------------------------------------------------------
 #t hf aug-cc-pvdz symm=none int=(grid=ultrafine) guess=(read,tcheck) s
 table=(opt,rrhf)
 ----------------------------------------------------------------------
 -----
 title
 -----
 Symbolic Z-matrix:
 Charge =  0 Multiplicity = 1

 SCF Done:  E(RHF) =  -550.414989791     A.U. after   13 cycles
 Normal termination of Gaussian 16 at Tue Apr  8 23:36:20 2025.
 Gaussian 16:  ES64L-G16RevC.01  3-Jul-2019

 ----------------------------------------------------------------------
 #t hf aug-cc-pvdz iop(5/13=1,5/36=2,99/5=2) pseudo=read geom=check gue
 ss=(read,tcheck) scf=(maxcycle=1)
 ----------------------------------------------------------------------
 -----
 title
 -----
 Structure from the checkpoint file:  "BDE49_nonexpt_1507_mol1.chk"
 Charge =  0 Multiplicity = 1

                         Standard orientation:
 ---------------------------------------------------------------------
 Center     Atomic      Atomic             Coordinates (Angstroms)
 Number     Number       Type             X           Y           Z
 ---------------------------------------------------------------------
      1         15           0       -0.572437    0.000652   -0.661238
      2          7           0        1.158303   -0.116453   -0.648477
      3          8           0        1.789768    0.112173    0.637121
      4          6           0       -0.947170    1.414227    0.479781
      5          1           0       -0.706158    2.357734   -0.015612
      6          1           0       -0.378769    1.340376    1.408604
      7          6           0       -0.957848   -1.407706    0.468504
      8          1           0       -0.410620   -1.325452    1.410373
      9          1           0       -0.697120   -2.346409   -0.024196
     10          1           0       -2.030150   -1.416516    0.678307
     11          1           0       -2.017362    1.416686    0.704625
     12          1           0        2.253815   -0.718046    0.789039
     13          1           0        1.576758    0.560505   -1.279912
 ---------------------------------------------------------------------

 SCF Done:  E(RHF) =  -550.683015728     A.U. after    2 cycles

 The electronic state is 1-A.
 Alpha  occ. eigenvalues --  -84.28453 -20.58278 -15.54586 -11.23124 -11.22803
 Alpha  occ. eigenvalues --   -6.75259  -4.28017  -4.27527  -4.26945  -1.47327
 Alpha  occ. eigenvalues --   -1.11705  -0.99434  -0.93910  -0.76929  -0.69944
 Alpha  occ. eigenvalues --   -0.66478  -0.60980  -0.58764  -0.56160  -0.55477
 Alpha  occ. eigenvalues --   -0.55181  -0.49056  -0.46625  -0.42395  -0.32302
 Alpha virt. eigenvalues --    0.03815   0.04511   0.04655   0.05359   0.06506
 Alpha virt. eigenvalues --    0.06545   0.07297   0.07996   0.08520   0.11483
 Alpha virt. eigenvalues --    0.12284   0.14877   0.16027   0.16349   0.16706

 Mulliken charges:
               1
     1  P    1.175422
     2  N    0.389318
     3  O   -1.107219
     4  C   -0.824002
     5  H    0.081563
     6  H    0.142536
     7  C   -0.832122
     8  H    0.144389
     9  H    0.116150
    10  H    0.109678
    11  H    0.139406
    12  H    0.329124
    13  H    0.135757
 Sum of Mulliken charges =  -0.00000

 Dipole moment (field-independent basis, Debye):
    X=             -0.0119    Y=             -0.2617    Z=              0.7479  Tot=              0.7924

 Test job not archived.
 1\1\GINC-SE094\SP\RHF\Aug-CC-pVDZ\C2H8N1O1P1\OHZDE\08-Apr-2025\0\\#t h
 f aug-cc-pvdz iop(5/13=1,5/36=2,99/5=2) pseudo=read geom=check guess=(
 read,tcheck) scf=(maxcycle=1)\\title\\0,1\P,0,-0.572437,0.000652,-0.66
 1238\N,0,1.158303,-0.116453,-0.648477\O,0,1.789768,0.112173,0.637121\C
 ,0,-0.947169,1.414228,0.479781\H,0,-0.706157,2.357734,-0.015612\H,0,-0
 .378769,1.340376,1.408604\C,0,-0.957848,-1.407705,0.468504\H,0,-0.4106
 2,-1.325452,1.410373\H,0,-0.697121,-2.346409,-0.024196\H,0,-2.03015,-1
 .416515,0.678307\H,0,-2.017361,1.416687,0.704625\H,0,2.253815,-0.71804

 Normal termination of Gaussian 16 at Tue Apr  8 23:36:23 2025.
