 Gaussian 16, Revision C.01,

 ----------------------------------------------------------------------
 #t hf aug-cc-pvdz symm=none int=(grid=ultrafine) guess=(read,tcheck) s
 table=(opt,rrhf)
 ----------------------------------------------------------------------
 -----
 title
 -----
 Symbolic Z-matrix:
 Charge =  0 Multiplicity = 1

 SCF Done:  E(RHF) =  -1125.38345327     A.U. after   13 cycles
 Normal termination of Gaussian 16 at Wed Apr  9 00:14:36 2025.
 Gaussian 16:  ES64L-G16RevC.01  3-Jul-2019

 ----------------------------------------------------------------------
 #t hf aug-cc-pvdz iop(5/13=1,5/36=2,99/5=2) pseudo=read geom=check gue
 ss=(read,tcheck) scf=(maxcycle=1)
 ----------------------------------------------------------------------
 -----
 title
 -----
 Structure from the checkpoint file:  "BDE49_nonexpt_2486_mol1.chk"
 Charge =  0 Multiplicity = 1

                         Standard orientation:
 ---------------------------------------------------------------------
 Center     Atomic      Atomic             Coordinates (Angstroms)
 Number     Number       Type             X           Y           Z
 ---------------------------------------------------------------------
      1         14           0       -1.860044    0.565220    0.085129
      2         16           0       -0.406166   -0.970672   -0.390935
      3         16           0        1.236526   -0.181944    0.670022
      4          6           0        2.086846    0.805783   -0.609395
      5          1           0        2.978656    1.207896   -0.121951
      6          1           0        1.461277    1.628604   -0.953348
      7          1           0        2.384841    0.175415   -1.446000
      8          1           0       -3.097610    0.179998   -0.632028
      9          1           0       -1.389374    1.884960   -0.388396
     10          1           0       -2.104004    0.617210    1.540890
 ---------------------------------------------------------------------

 SCF Done:  E(RHF) =  -1125.58715512     A.U. after    2 cycles

 The electronic state is 1-A.
 Alpha  occ. eigenvalues --  -93.97910 -93.96419 -69.56221 -11.27666  -8.25767
 Alpha  occ. eigenvalues --   -8.24566  -6.23575  -6.23372  -6.23134  -6.23055
 Alpha  occ. eigenvalues --   -6.22336  -6.22159  -6.21952  -3.98470  -3.98381
 Alpha  occ. eigenvalues --   -3.98348  -1.10035  -0.98534  -0.84977  -0.73446
 Alpha  occ. eigenvalues --   -0.61022  -0.60799  -0.54379  -0.51609  -0.50497
 Alpha  occ. eigenvalues --   -0.48929  -0.45308  -0.37835  -0.35964
 Alpha virt. eigenvalues --    0.03490   0.03999   0.04618   0.05439   0.06444
 Alpha virt. eigenvalues --    0.07066   0.07218   0.08153   0.09454   0.09906
 Alpha virt. eigenvalues --    0.11532   0.12595   0.13514   0.14349   0.14939

 Mulliken charges:
               1
     1  Si   1.228359
     2  S   -0.574110
     3  S    0.039618
     4  C   -0.700228
     5  H    0.191765
     6  H    0.157264
     7  H    0.216661
     8  H   -0.209433
     9  H   -0.174224
    10  H   -0.175672
 Sum of Mulliken charges =  -0.00000

 Dipole moment (field-independent basis, Debye):
    X=              0.2584    Y=              1.8026    Z=             -0.7854  Tot=              1.9831

 Test job not archived.
 1\1\GINC-SE365\SP\RHF\Aug-CC-pVDZ\C1H6S2Si1\OHZDE\09-Apr-2025\0\\#t hf
  aug-cc-pvdz iop(5/13=1,5/36=2,99/5=2) pseudo=read geom=check guess=(r
 ead,tcheck) scf=(maxcycle=1)\\title\\0,1\Si,0,-1.860044,0.56522,0.0851
 29\S,0,-0.406166,-0.970672,-0.390935\S,0,1.236526,-0.181944,0.670022\C
 ,0,2.086846,0.805783,-0.609395\H,0,2.978656,1.207896,-0.121951\H,0,1.4
 61277,1.628604,-0.953348\H,0,2.384841,0.175415,-1.446\H,0,-3.09761,0.1
 79998,-0.632028\H,0,-1.389374,1.88496,-0.388396\H,0,-2.104004,0.61721,
 1.54089\\Version=ES64L-G16RevC.01\State=1-A\HF=-1125.5871551\RMSD=4.01

 Normal termination of Gaussian 16 at Wed Apr  9 00:14:38 2025.
