 Gaussian 16, Revision C.01,

 ----------------------------------------------------------------------
 #t hf aug-cc-pvdz symm=none int=(grid=ultrafine) guess=(read,tcheck) s
 table=(opt,rrhf)
 ----------------------------------------------------------------------
 -----
 title
 -----
 Symbolic Z-matrix:
 Charge =  0 Multiplicity = 1

 SCF Done:  E(RHF) =  -1129.71957311     A.U. after   14 cycles
 Normal termination of Gaussian 16 at Wed Apr  9 00:21:53 2025.
 Gaussian 16:  ES64L-G16RevC.01  3-Jul-2019

 ----------------------------------------------------------------------
 #t hf aug-cc-pvdz iop(5/13=1,5/36=2,99/5=2) pseudo=read geom=check gue
 ss=(read,tcheck) scf=(maxcycle=1)
 ----------------------------------------------------------------------
 -----
 title
 -----
 Structure from the checkpoint file:  "BDE49_nonexpt_2609_mol1.chk"
 Charge =  0 Multiplicity = 1

                         Standard orientation:
 ---------------------------------------------------------------------
 Center     Atomic      Atomic             Coordinates (Angstroms)
 Number     Number       Type             X           Y           Z
 ---------------------------------------------------------------------
      1          6           0        1.010713    1.154490   -0.324170
      2          6           0        2.249672    1.370086    0.556557
      3          6           0        3.331977    0.317833    0.279680
      4          6           0        2.774865   -1.105217    0.420422
      5          6           0        1.533335   -1.317535   -0.458356
      6          6           0       -0.772832   -0.521755   -1.071494
      7          6           0        0.442131   -0.266036   -0.173137
      8         16           0       -2.258947    0.489086   -0.758711
      9         17           0       -2.870816   -0.264155    1.087251
     10          1           0        1.283111    1.316815   -1.376866
     11          1           0        0.240808    1.892003   -0.082047
     12          1           0        1.954210    1.317246    1.612120
     13          1           0        2.648704    2.376701    0.396941
     14          1           0        4.181379    0.459546    0.955440
     15          1           0        3.717568    0.455656   -0.738942
     16          1           0        2.507096   -1.286746    1.469035
     17          1           0        3.542511   -1.842175    0.163816
     18          1           0        1.130887   -2.324503   -0.303074
     19          1           0        1.823597   -1.255756   -1.516294
     20          1           0       -1.073761   -1.571559   -1.052551
     21          1           0       -0.547135   -0.266155   -2.116033
     22          1           0        0.118892   -0.397027    0.867565
 ---------------------------------------------------------------------

 SCF Done:  E(RHF) =  -1130.15591732     A.U. after    2 cycles

 The electronic state is 1-A.
 Alpha  occ. eigenvalues -- -105.57714 -94.00306 -11.28354 -11.24455 -11.23517
 Alpha  occ. eigenvalues --  -11.23124 -11.22955 -11.22910 -11.22876 -10.62402
 Alpha  occ. eigenvalues --   -8.27973  -7.79341  -7.78914  -7.78879  -6.25800
 Alpha  occ. eigenvalues --   -6.25526  -6.25266  -1.14719  -1.11140  -1.04391
 Alpha  occ. eigenvalues --   -1.00963  -0.97249  -0.87188  -0.84208  -0.80360
 Alpha  occ. eigenvalues --   -0.76650  -0.66462  -0.64223  -0.62092  -0.61354
 Alpha  occ. eigenvalues --   -0.59869  -0.56857  -0.54687  -0.54104  -0.52684
 Alpha  occ. eigenvalues --   -0.50555  -0.50111  -0.49636  -0.48805  -0.46649
 Alpha  occ. eigenvalues --   -0.45848  -0.44623  -0.42945  -0.36358
 Alpha virt. eigenvalues --    0.02981   0.03210   0.03430   0.04396   0.05133
 Alpha virt. eigenvalues --    0.05535   0.05782   0.06222   0.06768   0.07592
 Alpha virt. eigenvalues --    0.09023   0.09109   0.09315   0.10116   0.10293

 Mulliken charges:
               1
     1  C   -0.290616
     2  C   -0.240422
     3  C   -0.249543
     4  C   -0.252315
     5  C   -0.068333
     6  C   -0.299531
     7  C   -0.653500
     8  S    0.455566
     9  Cl  -0.325013
    10  H    0.170225
    11  H    0.143335
    12  H    0.155507
    13  H    0.107420
    14  H    0.104234
    15  H    0.152843
    16  H    0.161742
    17  H    0.109053
    18  H    0.066004
    19  H    0.178573
    20  H    0.135816
    21  H    0.288661
    22  H    0.150295
 Sum of Mulliken charges =  -0.00000

 Dipole moment (field-independent basis, Debye):
    X=              2.4725    Y=             -0.5209    Z=             -1.1425  Tot=              2.7730

 Test job not archived.
 1\1\GINC-SE120\SP\RHF\Aug-CC-pVDZ\C7H13Cl1S1\OHZDE\09-Apr-2025\0\\#t h
 f aug-cc-pvdz iop(5/13=1,5/36=2,99/5=2) pseudo=read geom=check guess=(
 read,tcheck) scf=(maxcycle=1)\\title\\0,1\C,0,1.010713,1.15449,-0.3241
 7\C,0,2.249672,1.370086,0.556557\C,0,3.331977,0.317833,0.27968\C,0,2.7
 74865,-1.105217,0.420422\C,0,1.533335,-1.317535,-0.458356\C,0,-0.77283
 2,-0.521755,-1.071494\C,0,0.442131,-0.266036,-0.173137\S,0,-2.258947,0
 .489086,-0.758711\Cl,0,-2.870816,-0.264155,1.087251\H,0,1.283111,1.316
 815,-1.376866\H,0,0.240808,1.892003,-0.082047\H,0,1.95421,1.317246,1.6

 Normal termination of Gaussian 16 at Wed Apr  9 00:22:08 2025.
