 Gaussian 16, Revision C.01,

 ----------------------------------------------------------------------
 #t hf aug-cc-pvdz symm=none int=(grid=ultrafine) guess=(read,tcheck) s
 table=(opt,rrhf)
 ----------------------------------------------------------------------
 -----
 title
 -----
 Symbolic Z-matrix:
 Charge =  0 Multiplicity = 1

 SCF Done:  E(RHF) =  -1236.83734890     A.U. after   16 cycles
 Normal termination of Gaussian 16 at Tue Apr  8 23:01:51 2025.
 Gaussian 16:  ES64L-G16RevC.01  3-Jul-2019

 ----------------------------------------------------------------------
 #t hf aug-cc-pvdz iop(5/13=1,5/36=2,99/5=2) pseudo=read geom=check gue
 ss=(read,tcheck) scf=(maxcycle=1)
 ----------------------------------------------------------------------
 -----
 title
 -----
 Structure from the checkpoint file:  "BDE49_expt_1983_mol1.chk"
 Charge =  0 Multiplicity = 1

                         Standard orientation:
 ---------------------------------------------------------------------
 Center     Atomic      Atomic             Coordinates (Angstroms)
 Number     Number       Type             X           Y           Z
 ---------------------------------------------------------------------
      1          6           0        3.240385   -0.000000    0.259803
      2          6           0        2.558846    1.210867    0.141517
      3          6           0        1.187394    1.220748   -0.092569
      4          6           0        2.558846   -1.210867    0.141516
      5          6           0        1.187393   -1.220748   -0.092570
      6          6           0        0.525207    0.000000   -0.203739
      7          1           0        4.308764   -0.000000    0.442026
      8          1           0        3.094185    2.148717    0.227815
      9          1           0        0.639512    2.147921   -0.195964
     10          1           0        3.094184   -2.148717    0.227813
     11          1           0        0.639512   -2.147921   -0.195965
     12         16           0       -1.223875    0.000000   -0.531977
     13         17           0       -1.996958   -0.000001    1.452036
     14          8           0       -1.612143   -1.259609   -1.100154
     15          8           0       -1.612143    1.259610   -1.100152
 ---------------------------------------------------------------------

 SCF Done:  E(RHF) =  -1237.35484921     A.U. after    2 cycles

 The electronic state is 1-A.
 Alpha  occ. eigenvalues -- -105.58848 -94.25041 -20.57718 -20.57714 -11.31076
 Alpha  occ. eigenvalues --  -11.29299 -11.29290 -11.28742 -11.27987 -11.27973
 Alpha  occ. eigenvalues --  -10.63659  -8.49984  -7.80576  -7.80161  -7.80148
 Alpha  occ. eigenvalues --   -6.48066  -6.47895  -6.47740  -1.59844  -1.48003
 Alpha  occ. eigenvalues --   -1.20594  -1.10890  -1.06526  -1.06192  -0.93978
 Alpha  occ. eigenvalues --   -0.88152  -0.83892  -0.76812  -0.71331  -0.70441
 Alpha  occ. eigenvalues --   -0.70045  -0.66754  -0.66625  -0.64458  -0.57534
 Alpha  occ. eigenvalues --   -0.56127  -0.55092  -0.54266  -0.52544  -0.51052
 Alpha  occ. eigenvalues --   -0.49174  -0.47250  -0.46817  -0.39400  -0.38496
 Alpha virt. eigenvalues --    0.02397   0.03068   0.03335   0.04041   0.05836
 Alpha virt. eigenvalues --    0.06258   0.07461   0.07799   0.09158   0.10398
 Alpha virt. eigenvalues --    0.10526   0.11115   0.12183   0.12449   0.13189

 Mulliken charges:
               1
     1  C   -0.124026
     2  C    0.624923
     3  C   -0.637996
     4  C    0.624919
     5  C   -0.638002
     6  C    0.859444
     7  H   -0.196287
     8  H   -0.205804
     9  H   -0.224953
    10  H   -0.205805
    11  H   -0.224954
    12  S    3.862846
    13  Cl  -0.265761
    14  O   -1.624272
    15  O   -1.624272
 Sum of Mulliken charges =  -0.00000

 Dipole moment (field-independent basis, Debye):
    X=              5.4529    Y=             -0.0000    Z=              1.3721  Tot=              5.6229

 Test job not archived.
 1\1\GINC-SE127\SP\RHF\Aug-CC-pVDZ\C6H5Cl1O2S1\OHZDE\08-Apr-2025\0\\#t
 hf aug-cc-pvdz iop(5/13=1,5/36=2,99/5=2) pseudo=read geom=check guess=
 (read,tcheck) scf=(maxcycle=1)\\title\\0,1\C,0,3.240385,0.,0.259803\C,
 0,2.558846,1.210867,0.141517\C,0,1.187394,1.220748,-0.092569\C,0,2.558
 846,-1.210867,0.141516\C,0,1.187393,-1.220748,-0.09257\C,0,0.525207,0.
 ,-0.203739\H,0,4.308764,0.,0.442026\H,0,3.094185,2.148717,0.227815\H,0
 ,0.639512,2.147921,-0.195964\H,0,3.094184,-2.148717,0.227813\H,0,0.639
 512,-2.147921,-0.195965\S,0,-1.223875,0.,-0.531977\Cl,0,-1.996958,-0.0

 Normal termination of Gaussian 16 at Tue Apr  8 23:01:59 2025.
