 Gaussian 16, Revision C.01,

 ----------------------------------------------------------------------
 #t hf aug-cc-pvdz symm=none int=(grid=ultrafine) guess=(read,tcheck) s
 table=(opt,rrhf)
 ----------------------------------------------------------------------
 -----
 title
 -----
 Symbolic Z-matrix:
 Charge =  0 Multiplicity = 1

 SCF Done:  E(RHF) =  -554.843094139     A.U. after   12 cycles

 1\1\GINC-SE073\Stability\RHF\Aug-CC-pVDZ\C4H10S1\OHZDE\08-Apr-2025\0\\
 #t hf aug-cc-pvdz symm=none int=(grid=ultrafine) guess=(read,tcheck) s
 table=(opt,rrhf)\\title\\0,1\S,0,-0.770179,-0.708065,-0.321855\C,0,0.7
 28142,0.125445,0.366015\C,0,1.911757,-0.823505,0.161263\H,0,2.821656,-
 0.382517,0.578762\H,0,2.08703,-1.006447,-0.902988\H,0,1.741893,-1.7854
 26,0.649236\C,0,0.982685,1.496998,-0.260207\H,0,0.547641,0.239725,1.43
 9895\H,0,0.14261,2.178517,-0.110567\H,0,1.155994,1.403563,-1.335412\H,
 0,1.86666,1.960107,0.19195\C,0,-2.101034,0.370205,0.297929\H,0,-2.0634

 Normal termination of Gaussian 16 at Tue Apr  8 22:45:46 2025.
 Gaussian 16:  ES64L-G16RevC.01  3-Jul-2019

 ----------------------------------------------------------------------
 #t hf aug-cc-pvdz iop(5/13=1,5/36=2,99/5=2) pseudo=read geom=check gue
 ss=(read,tcheck) scf=(maxcycle=1)
 ----------------------------------------------------------------------
 -----
 title
 -----
 Structure from the checkpoint file:  "BDE49_expt_1566_mol1.chk"
 Charge =  0 Multiplicity = 1

                         Standard orientation:
 ---------------------------------------------------------------------
 Center     Atomic      Atomic             Coordinates (Angstroms)
 Number     Number       Type             X           Y           Z
 ---------------------------------------------------------------------
      1         16           0       -0.770179   -0.708065   -0.321855
      2          6           0        0.728142    0.125445    0.366015
      3          6           0        1.911757   -0.823505    0.161263
      4          1           0        2.821656   -0.382517    0.578762
      5          1           0        2.087030   -1.006447   -0.902988
      6          1           0        1.741893   -1.785426    0.649236
      7          6           0        0.982685    1.496998   -0.260207
      8          1           0        0.547641    0.239725    1.439895
      9          1           0        0.142610    2.178517   -0.110567
     10          1           0        1.155994    1.403563   -1.335412
     11          1           0        1.866660    1.960107    0.191950
     12          6           0       -2.101034    0.370205    0.297929
     13          1           0       -2.063487    1.364452   -0.148768
     14          1           0       -2.066448    0.447236    1.386493
     15          1           0       -3.039989   -0.105020    0.011081
 ---------------------------------------------------------------------

 SCF Done:  E(RHF) =  -555.082042767     A.U. after    2 cycles

 The electronic state is 1-A.
 Alpha  occ. eigenvalues --  -93.93189 -11.27016 -11.26010 -11.23156 -11.23114
 Alpha  occ. eigenvalues --   -8.21265  -6.19090  -6.18930  -6.18718  -1.10631
 Alpha  occ. eigenvalues --   -1.01804  -0.94077  -0.87680  -0.77428  -0.63781
 Alpha  occ. eigenvalues --   -0.61809  -0.59497  -0.58413  -0.56312  -0.54905
 Alpha  occ. eigenvalues --   -0.50847  -0.50128  -0.47405  -0.42420  -0.34060
 Alpha virt. eigenvalues --    0.03639   0.03773   0.04221   0.04551   0.06125
 Alpha virt. eigenvalues --    0.06583   0.06950   0.07342   0.08441   0.09768
 Alpha virt. eigenvalues --    0.10954   0.13660   0.14094   0.14551   0.15440

 Mulliken charges:
               1
     1  S    0.414113
     2  C   -1.072058
     3  C   -0.102583
     4  H    0.177111
     5  H    0.223204
     6  H    0.144258
     7  C   -0.254972
     8  H    0.168785
     9  H    0.072163
    10  H    0.220271
    11  H    0.185373
    12  C   -0.689800
    13  H    0.204920
    14  H    0.172088
    15  H    0.137128
 Sum of Mulliken charges =   0.00000

 Dipole moment (field-independent basis, Debye):
    X=              0.3014    Y=              1.5012    Z=              1.0622  Tot=              1.8635

 Test job not archived.
 1\1\GINC-SE073\SP\RHF\Aug-CC-pVDZ\C4H10S1\OHZDE\08-Apr-2025\0\\#t hf a
 ug-cc-pvdz iop(5/13=1,5/36=2,99/5=2) pseudo=read geom=check guess=(rea
 d,tcheck) scf=(maxcycle=1)\\title\\0,1\S,0,-0.770179,-0.708065,-0.3218
 55\C,0,0.728142,0.125445,0.366015\C,0,1.911757,-0.823505,0.161263\H,0,
 2.821656,-0.382517,0.578762\H,0,2.08703,-1.006447,-0.902988\H,0,1.7418
 93,-1.785426,0.649236\C,0,0.982685,1.496998,-0.260207\H,0,0.547641,0.2
 39725,1.439895\H,0,0.14261,2.178517,-0.110567\H,0,1.155994,1.403563,-1
 .335412\H,0,1.86666,1.960107,0.19195\C,0,-2.101034,0.370205,0.297929\H

 Normal termination of Gaussian 16 at Tue Apr  8 22:45:50 2025.
