 Gaussian 16, Revision C.01,

 ----------------------------------------------------------------------
 #t hf aug-cc-pvdz symm=none int=(grid=ultrafine) guess=(read,tcheck) s
 table=(opt,rrhf)
 ----------------------------------------------------------------------
 -----
 title
 -----
 Symbolic Z-matrix:
 Charge =  0 Multiplicity = 1

 SCF Done:  E(RHF) =  -502.868973861     A.U. after   12 cycles
 Normal termination of Gaussian 16 at Tue Apr  8 23:57:20 2025.
 Gaussian 16:  ES64L-G16RevC.01  3-Jul-2019

 ----------------------------------------------------------------------
 #t hf aug-cc-pvdz iop(5/13=1,5/36=2,99/5=2) pseudo=read geom=check gue
 ss=(read,tcheck) scf=(maxcycle=1)
 ----------------------------------------------------------------------
 -----
 title
 -----
 Structure from the checkpoint file:  "BDE49_nonexpt_2041_mol1.chk"
 Charge =  0 Multiplicity = 1

                         Standard orientation:
 ---------------------------------------------------------------------
 Center     Atomic      Atomic             Coordinates (Angstroms)
 Number     Number       Type             X           Y           Z
 ---------------------------------------------------------------------
      1         14           0        1.333488    0.016971    0.000020
      2          6           0       -0.581145    0.153579    0.000093
      3          8           0       -1.273288    1.110870   -0.000025
      4          9           0       -1.147736   -1.107924   -0.000072
      5          1           0        1.883396    1.383694   -0.000022
      6          1           0        1.725241   -0.729221   -1.211842
      7          1           0        1.725326   -0.729182    1.211878
 ---------------------------------------------------------------------

 SCF Done:  E(RHF) =  -503.100055469     A.U. after    2 cycles

 The electronic state is 1-A.
 Alpha  occ. eigenvalues --  -69.57503 -26.48851 -20.58695 -11.42467  -6.24608
 Alpha  occ. eigenvalues --   -4.00016  -3.99948  -3.99948  -1.62488  -1.51711
 Alpha  occ. eigenvalues --   -0.89035  -0.79200  -0.71621  -0.69042  -0.69036
 Alpha  occ. eigenvalues --   -0.58515  -0.55061  -0.52690  -0.52227  -0.46289
 Alpha virt. eigenvalues --    0.03142   0.04892   0.04987   0.05234   0.07709
 Alpha virt. eigenvalues --    0.08333   0.09709   0.10006   0.12723   0.12763
 Alpha virt. eigenvalues --    0.14873   0.15204   0.17069   0.18402   0.20291

 Mulliken charges:
               1
     1  Si   1.112475
     2  C    1.096487
     3  O   -0.927114
     4  F   -0.683834
     5  H   -0.140186
     6  H   -0.228911
     7  H   -0.228916
 Sum of Mulliken charges =  -0.00000

 Dipole moment (field-independent basis, Debye):
    X=              2.9911    Y=             -0.4872    Z=              0.0002  Tot=              3.0305

 Test job not archived.
 1\1\GINC-SE361\SP\RHF\Aug-CC-pVDZ\C1H3F1O1Si1\OHZDE\08-Apr-2025\0\\#t
 hf aug-cc-pvdz iop(5/13=1,5/36=2,99/5=2) pseudo=read geom=check guess=
 (read,tcheck) scf=(maxcycle=1)\\title\\0,1\Si,0,1.333488,0.016971,0.00
 002\C,0,-0.581145,0.153579,0.000093\O,0,-1.273287,1.11087,-0.000025\F,
 0,-1.147736,-1.107924,-0.000072\H,0,1.883397,1.383693,-0.000022\H,0,1.
 725241,-0.729222,-1.211842\H,0,1.725326,-0.729183,1.211878\\Version=ES
 64L-G16RevC.01\State=1-A\HF=-503.1000555\RMSD=5.508e-03\Dipole=1.17679
 47,-0.1916689,0.0000808\Quadrupole=-0.1759109,-1.5392103,1.7151212,0.7

 Normal termination of Gaussian 16 at Tue Apr  8 23:57:22 2025.
