 Gaussian 16, Revision C.01,

 ----------------------------------------------------------------------
 #t hf aug-cc-pvdz symm=none int=(grid=ultrafine) guess=(read,tcheck) s
 table=(opt,rrhf)
 ----------------------------------------------------------------------
 -----
 title
 -----
 Symbolic Z-matrix:
 Charge =  0 Multiplicity = 1

 SCF Done:  E(RHF) =  -433.640094894     A.U. after   12 cycles
 Normal termination of Gaussian 16 at Wed Apr  9 00:46:45 2025.
 Gaussian 16:  ES64L-G16RevC.01  3-Jul-2019

 ----------------------------------------------------------------------
 #t hf aug-cc-pvdz iop(5/13=1,5/36=2,99/5=2) pseudo=read geom=check gue
 ss=(read,tcheck) scf=(maxcycle=1)
 ----------------------------------------------------------------------
 -----
 title
 -----
 Structure from the checkpoint file:  "BDE49_nonexpt_816_mol1.chk"
 Charge =  0 Multiplicity = 1

                         Standard orientation:
 ---------------------------------------------------------------------
 Center     Atomic      Atomic             Coordinates (Angstroms)
 Number     Number       Type             X           Y           Z
 ---------------------------------------------------------------------
      1          5           0        0.971295    0.085808    0.002298
      2          6           0        1.215759    1.635453    0.054222
      3          1           0        1.199682    1.900979    1.125397
      4          1           0        0.433628    2.245221   -0.407054
      5          1           0        2.193927    1.952319   -0.323221
      6         14           0       -0.907915   -0.702249    0.103444
      7          6           0        2.192889   -0.894281   -0.101830
      8          1           0        3.122956   -0.490771    0.313809
      9          1           0        2.374512   -1.015909   -1.183585
     10          1           0        2.028062   -1.902439    0.287872
     11          6           0       -2.329369    0.516730   -0.154629
     12          1           0       -2.293804    1.324240    0.582290
     13          1           0       -3.298225    0.019469   -0.059297
     14          1           0       -2.283654    0.970473   -1.148932
     15          1           0       -1.057963   -1.334419    1.447770
     16          1           0       -1.040464   -1.814124   -0.881322
 ---------------------------------------------------------------------

 SCF Done:  E(RHF) =  -433.837863952     A.U. after    2 cycles

 The electronic state is 1-A.
 Alpha  occ. eigenvalues --  -69.49898 -11.21253 -11.20811 -11.20661  -7.58486
 Alpha  occ. eigenvalues --   -6.17140  -3.92503  -3.92484  -3.92434  -0.97904
 Alpha  occ. eigenvalues --   -0.94495  -0.92862  -0.71588  -0.61198  -0.58130
 Alpha  occ. eigenvalues --   -0.56728  -0.55847  -0.55463  -0.54510  -0.53407
 Alpha  occ. eigenvalues --   -0.47203  -0.45919  -0.44648  -0.38547
 Alpha virt. eigenvalues --    0.03407   0.03765   0.03875   0.04197   0.05921
 Alpha virt. eigenvalues --    0.06279   0.06438   0.07003   0.07594   0.08056
 Alpha virt. eigenvalues --    0.08819   0.09272   0.09869   0.10417   0.10679

 Mulliken charges:
               1
     1  B    0.467630
     2  C   -0.400796
     3  H    0.140068
     4  H   -0.022009
     5  H   -0.058715
     6  Si   0.950626
     7  C   -0.390615
     8  H   -0.044040
     9  H    0.135677
    10  H   -0.030043
    11  C   -0.632968
    12  H    0.075916
    13  H   -0.028457
    14  H    0.077226
    15  H   -0.104887
    16  H   -0.134612
 Sum of Mulliken charges =  -0.00000

 Dipole moment (field-independent basis, Debye):
    X=              0.5388    Y=              0.8762    Z=             -0.1856  Tot=              1.0452

 Test job not archived.
 1\1\GINC-SE044\SP\RHF\Aug-CC-pVDZ\C3H11B1Si1\OHZDE\09-Apr-2025\0\\#t h
 f aug-cc-pvdz iop(5/13=1,5/36=2,99/5=2) pseudo=read geom=check guess=(
 read,tcheck) scf=(maxcycle=1)\\title\\0,1\B,0,0.971295,0.085808,0.0022
 98\C,0,1.215759,1.635453,0.054222\H,0,1.199682,1.900979,1.125397\H,0,0
 .433628,2.245221,-0.407054\H,0,2.193927,1.952319,-0.323221\Si,0,-0.907
 915,-0.702249,0.103444\C,0,2.192889,-0.894281,-0.10183\H,0,3.122956,-0
 .490771,0.313809\H,0,2.374512,-1.015909,-1.183585\H,0,2.028062,-1.9024
 39,0.287872\C,0,-2.329369,0.51673,-0.154629\H,0,-2.293804,1.32424,0.58

 Normal termination of Gaussian 16 at Wed Apr  9 00:46:50 2025.
