 Gaussian 16, Revision C.01,

 ----------------------------------------------------------------------
 #t hf aug-cc-pvdz symm=none int=(grid=ultrafine) guess=(read,tcheck) s
 table=(opt,rrhf)
 ----------------------------------------------------------------------
 -----
 title
 -----
 Symbolic Z-matrix:
 Charge =  0 Multiplicity = 1

 SCF Done:  E(RHF) =  -877.301807102     A.U. after   16 cycles
 Normal termination of Gaussian 16 at Tue Apr  8 23:09:40 2025.
 Gaussian 16:  ES64L-G16RevC.01  3-Jul-2019

 ----------------------------------------------------------------------
 #t hf aug-cc-pvdz iop(5/13=1,5/36=2,99/5=2) pseudo=read geom=check gue
 ss=(read,tcheck) scf=(maxcycle=1)
 ----------------------------------------------------------------------
 -----
 title
 -----
 Structure from the checkpoint file:  "BDE49_expt_606_mol1.chk"
 Charge =  0 Multiplicity = 1

                         Standard orientation:
 ---------------------------------------------------------------------
 Center     Atomic      Atomic             Coordinates (Angstroms)
 Number     Number       Type             X           Y           Z
 ---------------------------------------------------------------------
      1          6           0       -1.451455   -0.007518    0.000001
      2          6           0       -1.582379    1.378433    0.000045
      3          6           0       -0.434299    2.168497    0.000028
      4          6           0        2.309091   -0.401340   -0.000154
      5          8           0        3.332502    0.238418    0.000041
      6          8           0        2.299339   -1.755404    0.000073
      7          1           0        3.226318   -2.034942    0.000200
      8          6           0       -0.203484   -0.616722   -0.000058
      9          6           0        0.824610    1.580137   -0.000031
     10          6           0        0.940486    0.187306   -0.000078
     11          1           0       -0.530180    3.247788    0.000061
     12          1           0        1.727109    2.177521   -0.000047
     13          1           0       -0.116714   -1.693746   -0.000093
     14         17           0       -2.894666   -1.007098    0.000021
     15          1           0       -2.567359    1.827176    0.000091
 ---------------------------------------------------------------------

 SCF Done:  E(RHF) =  -877.792465258     A.U. after    2 cycles

 The electronic state is 1-A.
 Alpha  occ. eigenvalues -- -105.58186 -20.61151 -20.54758 -11.40974 -11.32436
 Alpha  occ. eigenvalues --  -11.27954 -11.27937 -11.27802 -11.27192 -11.26993
 Alpha  occ. eigenvalues --  -10.62974  -7.79942  -7.79542  -7.79523  -1.55934
 Alpha  occ. eigenvalues --   -1.46254  -1.20292  -1.11472  -1.06525  -1.00620
 Alpha  occ. eigenvalues --   -0.92532  -0.86352  -0.81054  -0.74870  -0.72537
 Alpha  occ. eigenvalues --   -0.69934  -0.67366  -0.64952  -0.64443  -0.61636
 Alpha  occ. eigenvalues --   -0.60226  -0.56510  -0.55818  -0.53668  -0.49882
 Alpha  occ. eigenvalues --   -0.48132  -0.47885  -0.45842  -0.37907  -0.36052
 Alpha virt. eigenvalues --    0.03136   0.03526   0.04353   0.05100   0.05510
 Alpha virt. eigenvalues --    0.06093   0.08077   0.09050   0.09064   0.10470
 Alpha virt. eigenvalues --    0.10953   0.12304   0.12409   0.13156   0.13503

 Mulliken charges:
               1
     1  C   -0.068505
     2  C   -0.079976
     3  C    0.614024
     4  C    1.774436
     5  O   -1.398997
     6  O   -1.620968
     7  H    0.572176
     8  C    0.194638
     9  C   -0.375317
    10  C    1.599469
    11  H   -0.207499
    12  H   -0.316865
    13  H   -0.174420
    14  Cl  -0.344576
    15  H   -0.167620
 Sum of Mulliken charges =   0.00000

 Dipole moment (field-independent basis, Debye):
    X=             -0.4159    Y=              0.4579    Z=             -0.0002  Tot=              0.6185

 Test job not archived.
 1\1\GINC-SE338\SP\RHF\Aug-CC-pVDZ\C7H5Cl1O2\OHZDE\08-Apr-2025\0\\#t hf
  aug-cc-pvdz iop(5/13=1,5/36=2,99/5=2) pseudo=read geom=check guess=(r
 ead,tcheck) scf=(maxcycle=1)\\title\\0,1\C,0,1.451455,-0.007518,-0.000
 001\C,0,1.582379,1.378433,-0.000045\C,0,0.434299,2.168497,-0.000028\C,
 0,-2.309091,-0.40134,0.000154\O,0,-3.332502,0.238418,-0.000041\O,0,-2.
 299339,-1.755404,-0.000073\H,0,-3.226318,-2.034942,-0.0002\C,0,0.20348
 4,-0.616722,0.000058\C,0,-0.82461,1.580137,0.000031\C,0,-0.940486,0.18
 7306,0.000078\H,0,0.53018,3.247788,-0.000061\H,0,-1.727109,2.177521,0.

 Normal termination of Gaussian 16 at Tue Apr  8 23:09:47 2025.
