 Gaussian 16, Revision C.01,

 ----------------------------------------------------------------------
 #t hf aug-cc-pvdz symm=none int=(grid=ultrafine) guess=(read,tcheck) s
 table=(opt,rrhf)
 ----------------------------------------------------------------------
 -----
 title
 -----
 Symbolic Z-matrix:
 Charge =  0 Multiplicity = 1

 SCF Done:  E(RHF) =  -120.559907027     A.U. after   11 cycles
 Normal termination of Gaussian 16 at Wed Apr  9 00:28:39 2025.
 Gaussian 16:  ES64L-G16RevC.01  3-Jul-2019

 ----------------------------------------------------------------------
 #t hf aug-cc-pvdz iop(5/13=1,5/36=2,99/5=2) pseudo=read geom=check gue
 ss=(read,tcheck) scf=(maxcycle=1)
 ----------------------------------------------------------------------
 -----
 title
 -----
 Structure from the checkpoint file:  "BDE49_nonexpt_311_mol1.chk"
 Charge =  0 Multiplicity = 1

                         Standard orientation:
 ---------------------------------------------------------------------
 Center     Atomic      Atomic             Coordinates (Angstroms)
 Number     Number       Type             X           Y           Z
 ---------------------------------------------------------------------
      1          6           0        1.324730   -0.164904    0.000001
      2          5           0       -0.089315    0.528516   -0.000006
      3          1           0        1.908055    0.152258   -0.872735
      4          1           0        1.289110   -1.259605    0.000000
      5          7           0       -1.275687   -0.204323    0.000000
      6          1           0       -1.300103   -1.213436    0.000001
      7          1           0       -2.188510    0.222885    0.000007
      8          1           0        1.908047    0.152256    0.872744
      9          1           0       -0.188590    1.722746    0.000007
 ---------------------------------------------------------------------

 SCF Done:  E(RHF) =  -120.693089255     A.U. after    2 cycles

 The electronic state is 1-A.
 Alpha  occ. eigenvalues --  -15.48959 -11.19602  -7.57255  -1.16073  -0.93955
 Alpha  occ. eigenvalues --   -0.73397  -0.71059  -0.57819  -0.54489  -0.51670
 Alpha  occ. eigenvalues --   -0.46589  -0.45677
 Alpha virt. eigenvalues --    0.03402   0.04441   0.04874   0.05106   0.06812
 Alpha virt. eigenvalues --    0.07275   0.08565   0.09013   0.11224   0.12981
 Alpha virt. eigenvalues --    0.15421   0.16471   0.16530   0.17381   0.19001

 Mulliken charges:
               1
     1  C   -0.381532
     2  B    0.068452
     3  H    0.030954
     4  H   -0.011326
     5  N    0.163826
     6  H    0.018024
     7  H   -0.022214
     8  H    0.030956
     9  H    0.102861
 Sum of Mulliken charges =  -0.00000

 Dipole moment (field-independent basis, Debye):
    X=             -0.8608    Y=             -0.8325    Z=             -0.0000  Tot=              1.1975

 Test job not archived.
 1\1\GINC-SE365\SP\RHF\Aug-CC-pVDZ\C1H6B1N1\OHZDE\09-Apr-2025\0\\#t hf
 aug-cc-pvdz iop(5/13=1,5/36=2,99/5=2) pseudo=read geom=check guess=(re
 ad,tcheck) scf=(maxcycle=1)\\title\\0,1\C,0,-1.32473,-0.164904,-0.0000
 01\B,0,0.089315,0.528516,0.000006\H,0,-1.908055,0.152258,0.872735\H,0,
 -1.28911,-1.259605,0.\N,0,1.275687,-0.204323,0.\H,0,1.300103,-1.213436
 ,-0.000001\H,0,2.18851,0.222885,-0.000007\H,0,-1.908047,0.152256,-0.87
 2744\H,0,0.18859,1.722746,-0.000007\\Version=ES64L-G16RevC.01\State=1-
 A\HF=-120.6930893\RMSD=9.868e-03\Dipole=0.3386844,-0.327526,0.0000009\

 Normal termination of Gaussian 16 at Wed Apr  9 00:28:41 2025.
