 Gaussian 16, Revision C.01,

 ----------------------------------------------------------------------
 #t hf aug-cc-pvdz symm=none int=(grid=ultrafine) guess=(read,tcheck) s
 table=(opt,rrhf)
 ----------------------------------------------------------------------
 -----
 title
 -----
 Symbolic Z-matrix:
 Charge =  0 Multiplicity = 1

 SCF Done:  E(RHF) =  -896.495957832     A.U. after   16 cycles
 Normal termination of Gaussian 16 at Tue Apr  8 23:09:36 2025.
 Gaussian 16:  ES64L-G16RevC.01  3-Jul-2019

 ----------------------------------------------------------------------
 #t hf aug-cc-pvdz iop(5/13=1,5/36=2,99/5=2) pseudo=read geom=check gue
 ss=(read,tcheck) scf=(maxcycle=1)
 ----------------------------------------------------------------------
 -----
 title
 -----
 Structure from the checkpoint file:  "BDE49_expt_486_mol1.chk"
 Charge =  0 Multiplicity = 1

                         Standard orientation:
 ---------------------------------------------------------------------
 Center     Atomic      Atomic             Coordinates (Angstroms)
 Number     Number       Type             X           Y           Z
 ---------------------------------------------------------------------
      1          6           0        1.319517   -1.104603    0.000001
      2          6           0       -0.060612   -0.925872   -0.000014
      3          6           0        2.168788   -0.004662   -0.000001
      4          6           0        1.652576    1.287012   -0.000017
      5          6           0        0.276326    1.467426   -0.000032
      6          6           0       -0.595217    0.369328   -0.000029
      7          1           0       -0.725451   -1.775160   -0.000014
      8          1           0        1.732107   -2.105360    0.000013
      9          1           0        2.318052    2.140443   -0.000018
     10          1           0       -0.124601    2.476349   -0.000044
     11          7           0       -1.978954    0.637382   -0.000046
     12          6           0       -3.032770   -0.252749   -0.000017
     13          8           0       -2.902941   -1.461435   -0.000008
     14          6           0       -4.405956    0.399968    0.000077
     15          1           0       -4.386957    1.491790   -0.000574
     16          1           0       -4.951370    0.054265    0.880438
     17          1           0       -4.951974    0.053199   -0.879479
     18          1           0       -2.222791    1.615481   -0.000049
     19         17           0        3.909016   -0.243311    0.000018
 ---------------------------------------------------------------------

 SCF Done:  E(RHF) =  -897.015326051     A.U. after    2 cycles

 The electronic state is 1-A.
 Alpha  occ. eigenvalues -- -105.56977 -20.52379 -15.55759 -11.37861 -11.30640
 Alpha  occ. eigenvalues --  -11.30589 -11.26473 -11.26161 -11.26106 -11.26048
 Alpha  occ. eigenvalues --  -11.24882 -10.61764  -7.78731  -7.78337  -7.78317
 Alpha  occ. eigenvalues --   -1.47469  -1.27648  -1.18005  -1.09601  -1.03968
 Alpha  occ. eigenvalues --   -1.03492  -0.97972  -0.88715  -0.85715  -0.81291
 Alpha  occ. eigenvalues --   -0.76597  -0.70553  -0.67607  -0.66030  -0.65037
 Alpha  occ. eigenvalues --   -0.63965  -0.61690  -0.60894  -0.58426  -0.58340
 Alpha  occ. eigenvalues --   -0.54609  -0.54426  -0.53284  -0.49174  -0.46382
 Alpha  occ. eigenvalues --   -0.45024  -0.43437  -0.36539  -0.32803
 Alpha virt. eigenvalues --    0.02110   0.03498   0.04472   0.04745   0.05347
 Alpha virt. eigenvalues --    0.05540   0.07584   0.07858   0.08327   0.09024
 Alpha virt. eigenvalues --    0.09917   0.10302   0.11702   0.12062   0.12330

 Mulliken charges:
               1
     1  C    0.434804
     2  C    0.757334
     3  C   -0.107152
     4  C    0.323997
     5  C    0.924282
     6  C   -1.996237
     7  H   -0.314563
     8  H   -0.176344
     9  H   -0.176414
    10  H   -0.404978
    11  N    1.304738
    12  C    0.989892
    13  O   -1.491276
    14  C   -0.394430
    15  H    0.065548
    16  H    0.251833
    17  H    0.251721
    18  H    0.092961
    19  Cl  -0.335718
 Sum of Mulliken charges =   0.00000

 Dipole moment (field-independent basis, Debye):
    X=             -2.7600    Y=              3.6800    Z=              0.0001  Tot=              4.5999

 Test job not archived.
 1\1\GINC-SE082\SP\RHF\Aug-CC-pVDZ\C8H8Cl1N1O1\OHZDE\08-Apr-2025\0\\#t
 hf aug-cc-pvdz iop(5/13=1,5/36=2,99/5=2) pseudo=read geom=check guess=
 (read,tcheck) scf=(maxcycle=1)\\title\\0,1\C,0,1.319517,-1.104603,0.00
 0001\C,0,-0.060612,-0.925872,-0.000014\C,0,2.168788,-0.004662,-0.00000
 1\C,0,1.652576,1.287012,-0.000017\C,0,0.276326,1.467426,-0.000032\C,0,
 -0.595217,0.369328,-0.000029\H,0,-0.725451,-1.77516,-0.000014\H,0,1.73
 2107,-2.10536,0.000013\H,0,2.318052,2.140443,-0.000018\H,0,-0.124601,2
 .476349,-0.000044\N,0,-1.978954,0.637382,-0.000046\C,0,-3.03277,-0.252

 Normal termination of Gaussian 16 at Tue Apr  8 23:09:48 2025.
