 Gaussian 16, Revision C.01,

 ----------------------------------------------------------------------
 #t hf aug-cc-pvdz symm=none int=(grid=ultrafine) guess=(read,tcheck) s
 table=(opt,rrhf)
 ----------------------------------------------------------------------
 -----
 title
 -----
 Symbolic Z-matrix:
 Charge =  0 Multiplicity = 1

 SCF Done:  E(RHF) =  -461.057646073     A.U. after   11 cycles
 Normal termination of Gaussian 16 at Wed Apr  9 00:30:44 2025.
 Gaussian 16:  ES64L-G16RevC.01  3-Jul-2019

 ----------------------------------------------------------------------
 #t hf aug-cc-pvdz iop(5/13=1,5/36=2,99/5=2) pseudo=read geom=check gue
 ss=(read,tcheck) scf=(maxcycle=1)
 ----------------------------------------------------------------------
 -----
 title
 -----
 Structure from the checkpoint file:  "BDE49_nonexpt_358_mol1.chk"
 Charge =  0 Multiplicity = 1

                         Standard orientation:
 ---------------------------------------------------------------------
 Center     Atomic      Atomic             Coordinates (Angstroms)
 Number     Number       Type             X           Y           Z
 ---------------------------------------------------------------------
      1          9           0        1.677458   -0.883714   -0.349639
      2          9           0        1.195842    1.171339    0.474916
      3          5           0        0.787235    0.046476   -0.065300
      4          6           0       -0.754757   -0.227099   -0.364940
      5          9           0       -1.227689   -1.015491    0.669730
      6          9           0       -1.472652    0.937670   -0.371201
      7          1           0       -0.964263   -0.758033   -1.298117
 ---------------------------------------------------------------------

 SCF Done:  E(RHF) =  -461.479729349     A.U. after    2 cycles

 The electronic state is 1-A.
 Alpha  occ. eigenvalues --  -26.51038 -26.50780 -26.49366 -26.49256 -11.42497
 Alpha  occ. eigenvalues --   -7.75599  -1.66371  -1.64920  -1.62376  -1.58734
 Alpha  occ. eigenvalues --   -0.98318  -0.83954  -0.79611  -0.78506  -0.76473
 Alpha  occ. eigenvalues --   -0.74506  -0.71873  -0.69222  -0.66141  -0.65893
 Alpha  occ. eigenvalues --   -0.64750  -0.61730  -0.60406  -0.52050
 Alpha virt. eigenvalues --    0.03278   0.04822   0.05270   0.05638   0.08774
 Alpha virt. eigenvalues --    0.10133   0.11656   0.14303   0.14669   0.19631
 Alpha virt. eigenvalues --    0.20431   0.22296   0.24264   0.25049   0.26183

 Mulliken charges:
               1
     1  F   -0.624327
     2  F   -0.580205
     3  B    1.468530
     4  C    1.151828
     5  F   -0.689224
     6  F   -0.703816
     7  H   -0.022786
 Sum of Mulliken charges =   0.00000

 Dipole moment (field-independent basis, Debye):
    X=              0.4444    Y=             -0.5852    Z=             -1.4880  Tot=              1.6595

 Test job not archived.
 1\1\GINC-SE071\SP\RHF\Aug-CC-pVDZ\C1H1B1F4\OHZDE\09-Apr-2025\0\\#t hf
 aug-cc-pvdz iop(5/13=1,5/36=2,99/5=2) pseudo=read geom=check guess=(re
 ad,tcheck) scf=(maxcycle=1)\\title\\0,1\F,0,-1.677458,-0.883714,0.3496
 39\F,0,-1.195842,1.171339,-0.474916\B,0,-0.787235,0.046476,0.0653\C,0,
 0.754757,-0.227099,0.36494\F,0,1.227689,-1.015491,-0.66973\F,0,1.47265
 2,0.93767,0.371201\H,0,0.964263,-0.758033,1.298117\\Version=ES64L-G16R
 evC.01\State=1-A\HF=-461.4797293\RMSD=4.239e-03\Dipole=-0.1748321,-0.2
 302402,0.585417\Quadrupole=-1.7605469,-0.9069056,2.6674525,-0.8301714,

 Normal termination of Gaussian 16 at Wed Apr  9 00:30:46 2025.
