 Gaussian 16, Revision C.01,

 ----------------------------------------------------------------------
 #t hf aug-cc-pvdz symm=none int=(grid=ultrafine) guess=(read,tcheck) s
 table=(opt,rrhf)
 ----------------------------------------------------------------------
 -----
 title
 -----
 Symbolic Z-matrix:
 Charge =  0 Multiplicity = 1

 SCF Done:  E(RHF) =  -629.685858688     A.U. after   14 cycles
 Normal termination of Gaussian 16 at Tue Apr  8 23:23:18 2025.
 Gaussian 16:  ES64L-G16RevC.01  3-Jul-2019

 ----------------------------------------------------------------------
 #t hf aug-cc-pvdz iop(5/13=1,5/36=2,99/5=2) pseudo=read geom=check gue
 ss=(read,tcheck) scf=(maxcycle=1)
 ----------------------------------------------------------------------
 -----
 title
 -----
 Structure from the checkpoint file:  "BDE49_nonexpt_1230_mol1.chk"
 Charge =  0 Multiplicity = 1

                         Standard orientation:
 ---------------------------------------------------------------------
 Center     Atomic      Atomic             Coordinates (Angstroms)
 Number     Number       Type             X           Y           Z
 ---------------------------------------------------------------------
      1         16           0       -1.956246   -0.090714   -0.060046
      2          8           0       -0.446872   -0.063999   -0.804789
      3          6           0        0.765382    0.003966    0.030611
      4          6           0        1.872179   -0.018268   -1.024708
      5          1           0        1.806879   -0.929994   -1.621666
      6          1           0        2.854421    0.018335   -0.546755
      7          1           0        1.775979    0.838337   -1.694834
      8          6           0        0.846390   -1.218932    0.944467
      9          1           0        0.817360   -2.137532    0.353778
     10          1           0        0.015166   -1.234004    1.652446
     11          1           0        1.778178   -1.204802    1.516045
     12          6           0        0.785914    1.309708    0.825132
     13          1           0        0.675306    2.166374    0.155502
     14          1           0        1.733542    1.412493    1.360071
     15          1           0       -0.018404    1.335382    1.563714
     16          1           0       -2.182700    1.239983    0.007736
 ---------------------------------------------------------------------

 SCF Done:  E(RHF) =  -629.993419545     A.U. after    2 cycles

 The electronic state is 1-A.
 Alpha  occ. eigenvalues --  -93.99671 -20.57028 -11.30327 -11.23070 -11.22753
 Alpha  occ. eigenvalues --  -11.22706  -8.27086  -6.24958  -6.24746  -6.24498
 Alpha  occ. eigenvalues --   -1.45533  -1.08962  -0.97511  -0.94867  -0.93700
 Alpha  occ. eigenvalues --   -0.76285  -0.66035  -0.64377  -0.63458  -0.59224
 Alpha  occ. eigenvalues --   -0.57308  -0.54652  -0.53123  -0.52763  -0.52319
 Alpha  occ. eigenvalues --   -0.50095  -0.47249  -0.42989  -0.36719
 Alpha virt. eigenvalues --    0.03674   0.03857   0.04185   0.04496   0.06363
 Alpha virt. eigenvalues --    0.06638   0.06699   0.07379   0.07934   0.09714
 Alpha virt. eigenvalues --    0.09853   0.12032   0.13067   0.13947   0.14505

 Mulliken charges:
               1
     1  S    0.157407
     2  O   -1.540315
     3  C   -0.906494
     4  C   -0.069200
     5  H    0.170257
     6  H    0.245582
     7  H    0.174744
     8  C    0.120753
     9  H    0.237236
    10  H    0.179750
    11  H    0.230703
    12  C    0.082033
    13  H    0.228640
    14  H    0.223326
    15  H    0.160098
    16  H    0.305481
 Sum of Mulliken charges =  -0.00000

 Dipole moment (field-independent basis, Debye):
    X=              1.2713    Y=              0.9492    Z=              1.2032  Tot=              1.9912

 Test job not archived.
 1\1\GINC-SE338\SP\RHF\Aug-CC-pVDZ\C4H10O1S1\OHZDE\08-Apr-2025\0\\#t hf
  aug-cc-pvdz iop(5/13=1,5/36=2,99/5=2) pseudo=read geom=check guess=(r
 ead,tcheck) scf=(maxcycle=1)\\title\\0,1\S,0,-1.956246,-0.090714,-0.06
 0046\O,0,-0.446872,-0.063999,-0.804789\C,0,0.765382,0.003966,0.030611\
 C,0,1.872179,-0.018268,-1.024708\H,0,1.806879,-0.929994,-1.621666\H,0,
 2.854421,0.018336,-0.546755\H,0,1.775979,0.838337,-1.694834\C,0,0.8463
 9,-1.218932,0.944467\H,0,0.81736,-2.137532,0.353778\H,0,0.015166,-1.23
 4004,1.652446\H,0,1.778178,-1.204802,1.516045\C,0,0.785914,1.309708,0.

 Normal termination of Gaussian 16 at Tue Apr  8 23:23:23 2025.
