 Gaussian 16, Revision C.01,

 ----------------------------------------------------------------------
 #t hf aug-cc-pvdz symm=none int=(grid=ultrafine) guess=(read,tcheck) s
 table=opt
 ----------------------------------------------------------------------
 -----
 title
 -----
 Symbolic Z-matrix:
 Charge =  0 Multiplicity = 2

 SCF Done:  E(UHF) =  -163.667248660     A.U. after   15 cycles
 Normal termination of Gaussian 16 at Wed Apr  9 00:34:45 2025.
 Gaussian 16:  ES64L-G16RevC.01  3-Jul-2019

 ----------------------------------------------------------------------
 #t hf aug-cc-pvdz iop(5/13=1,5/36=2,99/5=2) pseudo=read geom=check gue
 ss=(read,tcheck) scf=(maxcycle=1)
 ----------------------------------------------------------------------
 -----
 title
 -----
 Structure from the checkpoint file:  "BDE49_nonexpt_455_mol2.chk"
 Charge =  0 Multiplicity = 2

                         Standard orientation:
 ---------------------------------------------------------------------
 Center     Atomic      Atomic             Coordinates (Angstroms)
 Number     Number       Type             X           Y           Z
 ---------------------------------------------------------------------
      1          1           0       -1.778214   -1.308016   -0.000001
      2          5           0       -1.443235   -0.171452    0.000000
      3          6           0       -0.069989    0.514081    0.000000
      4          9           0        1.041367   -0.362396    0.000000
      5          1           0        0.021007    1.171178    0.877244
      6          1           0        0.021006    1.171177   -0.877244
 ---------------------------------------------------------------------

 SCF Done:  E(UHF) =  -163.823560935     A.U. after    2 cycles

 The electronic state is 2-A.
 Alpha  occ. eigenvalues --  -26.44241 -11.31222  -7.63789  -1.55754  -0.97108
 Alpha  occ. eigenvalues --   -0.72189  -0.67964  -0.67404  -0.61238  -0.52920
 Alpha  occ. eigenvalues --   -0.50695  -0.35850
 Alpha virt. eigenvalues --    0.02950   0.03548   0.04696   0.05457   0.06018
 Alpha virt. eigenvalues --    0.09592   0.10217   0.10378   0.13766   0.15414
 Alpha virt. eigenvalues --    0.16429   0.18449   0.23834   0.24317   0.25519

  Beta  occ. eigenvalues --  -26.43942 -11.31226  -7.61998  -1.54917  -0.96127
  Beta  occ. eigenvalues --   -0.69549  -0.67804  -0.65390  -0.59357  -0.52732
  Beta  occ. eigenvalues --   -0.49743
  Beta virt. eigenvalues --    0.02939   0.03592   0.04707   0.04827   0.06715
  Beta virt. eigenvalues --    0.08341   0.09775   0.11352   0.11370   0.14737
  Beta virt. eigenvalues --    0.16761   0.16928   0.19606   0.24989   0.25486

 Mulliken charges and spin densities:
               1          2
     1  H    0.257071  -0.005853
     2  B   -0.147818   1.023386
     3  C    0.354503  -0.024441
     4  F   -0.701987   0.023977
     5  H    0.119116  -0.008535
     6  H    0.119114  -0.008535
 Sum of Mulliken charges =  -0.00000   1.00000

 Dipole moment (field-independent basis, Debye):
    X=             -0.9711    Y=              1.0401    Z=             -0.0000  Tot=              1.4230
                          Isotropic Fermi Contact Couplings
        Atom                 a.u.       MegaHertz       Gauss      10(-4) cm-1
     1  H(1)               0.00143       6.40759       2.28639       2.13734
     2  B(11)              0.23705     340.01943     121.32739     113.41827
     3  C(13)              0.03684      41.41475      14.77781      13.81447
     4  F(19)              0.05438     228.78482      81.63611      76.31440
     5  H(1)              -0.00068      -3.02176      -1.07824      -1.00795
     6  H(1)              -0.00068      -3.02179      -1.07825      -1.00796
 --------------------------------------------------------
       Center         ----  Spin Dipole Couplings  ----

 Normal termination of Gaussian 16 at Wed Apr  9 00:34:47 2025.
