 Gaussian 16, Revision C.01,

 ----------------------------------------------------------------------
 #t hf aug-cc-pvdz symm=none int=(grid=ultrafine) guess=(read,tcheck) s
 table=(opt,rrhf)
 ----------------------------------------------------------------------
 -----
 title
 -----
 Symbolic Z-matrix:
 Charge =  0 Multiplicity = 1

 SCF Done:  E(RHF) =  -994.598677436     A.U. after   14 cycles
 Normal termination of Gaussian 16 at Wed Apr  9 00:15:42 2025.
 Gaussian 16:  ES64L-G16RevC.01  3-Jul-2019

 ----------------------------------------------------------------------
 #t hf aug-cc-pvdz iop(5/13=1,5/36=2,99/5=2) pseudo=read geom=check gue
 ss=(read,tcheck) scf=(maxcycle=1)
 ----------------------------------------------------------------------
 -----
 title
 -----
 Structure from the checkpoint file:  "BDE49_nonexpt_2482_mol1.chk"
 Charge =  0 Multiplicity = 1

                         Standard orientation:
 ---------------------------------------------------------------------
 Center     Atomic      Atomic             Coordinates (Angstroms)
 Number     Number       Type             X           Y           Z
 ---------------------------------------------------------------------
      1         16           0        0.732132    0.235876   -0.316754
      2         14           0        2.685381   -0.617600    0.406446
      3          8           0        0.940896    1.665934   -0.534972
      4          8           0        0.286809   -0.613921   -1.420206
      5          6           0       -0.449728    0.060645    1.059914
      6          6           0       -1.757166    0.828484    0.815989
      7          1           0        0.070934    0.461357    1.934268
      8          1           0       -0.602973   -1.011957    1.195170
      9          6           0       -2.682231    0.268184   -0.277037
     10          1           0       -1.504186    1.867536    0.588401
     11          1           0       -2.294132    0.840023    1.772204
     12          6           0       -3.170855   -1.161431   -0.024910
     13          1           0       -3.546708    0.937411   -0.343861
     14          1           0       -2.178329    0.313681   -1.245294
     15          1           0       -3.647785   -1.256007    0.956649
     16          1           0       -2.352582   -1.884295   -0.077738
     17          1           0       -3.905068   -1.456424   -0.778729
     18          1           0        3.573841   -0.455682   -0.757382
     19          1           0        2.473864   -2.036479    0.757108
     20          1           0        3.141924    0.161829    1.574708
 ---------------------------------------------------------------------

 SCF Done:  E(RHF) =  -995.018325890     A.U. after    2 cycles

 The electronic state is 1-A.
 Alpha  occ. eigenvalues --  -94.16549 -69.58303 -20.52634 -20.52548 -11.28631
 Alpha  occ. eigenvalues --  -11.25096 -11.23070 -11.22495  -8.42189  -6.40270
 Alpha  occ. eigenvalues --   -6.40037  -6.39964  -6.25332  -4.00725  -4.00631
 Alpha  occ. eigenvalues --   -4.00630  -1.53444  -1.41952  -1.10568  -1.02731
 Alpha  occ. eigenvalues --   -0.94002  -0.86804  -0.80016  -0.76754  -0.68273
 Alpha  occ. eigenvalues --   -0.67050  -0.64751  -0.62619  -0.61925  -0.57499
 Alpha  occ. eigenvalues --   -0.56383  -0.56012  -0.53750  -0.53006  -0.49626
 Alpha  occ. eigenvalues --   -0.48850  -0.48748  -0.47688  -0.46352  -0.44988
 Alpha  occ. eigenvalues --   -0.39398
 Alpha virt. eigenvalues --    0.02491   0.03173   0.03954   0.04079   0.05367
 Alpha virt. eigenvalues --    0.05598   0.05779   0.06648   0.07159   0.08055
 Alpha virt. eigenvalues --    0.08488   0.08671   0.09410   0.09710   0.11075

 Mulliken charges:
               1
     1  S    2.907908
     2  Si   0.908100
     3  O   -1.542102
     4  O   -1.544350
     5  C   -0.789730
     6  C   -0.298751
     7  H    0.143823
     8  H    0.192602
     9  C   -0.327339
    10  H    0.168920
    11  H    0.165689
    12  C   -0.329147
    13  H    0.148629
    14  H    0.191772
    15  H    0.151315
    16  H    0.153013
    17  H    0.102291
    18  H   -0.167032
    19  H   -0.123732
    20  H   -0.111879
 Sum of Mulliken charges =   0.00000

 Dipole moment (field-independent basis, Debye):
    X=              0.6657    Y=             -1.8845    Z=              4.2663  Tot=              4.7113

 Test job not archived.
 1\1\GINC-SE338\SP\RHF\Aug-CC-pVDZ\C4H12O2S1Si1\OHZDE\09-Apr-2025\0\\#t
  hf aug-cc-pvdz iop(5/13=1,5/36=2,99/5=2) pseudo=read geom=check guess
 =(read,tcheck) scf=(maxcycle=1)\\title\\0,1\S,0,0.732132,0.235876,-0.3
 16754\Si,0,2.685381,-0.6176,0.406446\O,0,0.940896,1.665934,-0.534972\O
 ,0,0.286809,-0.613921,-1.420206\C,0,-0.449728,0.060645,1.059914\C,0,-1
 .757166,0.828484,0.815989\H,0,0.070934,0.461357,1.934268\H,0,-0.602973
 ,-1.011957,1.19517\C,0,-2.682231,0.268184,-0.277037\H,0,-1.504186,1.86
 7536,0.588401\H,0,-2.294132,0.840023,1.772204\C,0,-3.170855,-1.161431,

 Normal termination of Gaussian 16 at Wed Apr  9 00:15:51 2025.
