 Gaussian 16, Revision C.01,

 ----------------------------------------------------------------------
 #t hf aug-cc-pvdz symm=none int=(grid=ultrafine) guess=(read,tcheck) s
 table=opt
 ----------------------------------------------------------------------
 -----
 title
 -----
 Symbolic Z-matrix:
 Charge =  0 Multiplicity = 2

 SCF Done:  E(UHF) =  -834.637025381     A.U. after   20 cycles
 Normal termination of Gaussian 16 at Tue Apr  8 23:52:18 2025.
 Gaussian 16:  ES64L-G16RevC.01  3-Jul-2019

 ----------------------------------------------------------------------
 #t hf aug-cc-pvdz iop(5/13=1,5/36=2,99/5=2) pseudo=read geom=check gue
 ss=(read,tcheck) scf=(maxcycle=1)
 ----------------------------------------------------------------------
 -----
 title
 -----
 Structure from the checkpoint file:  "BDE49_nonexpt_1927_mol2.chk"
 Charge =  0 Multiplicity = 2

                         Standard orientation:
 ---------------------------------------------------------------------
 Center     Atomic      Atomic             Coordinates (Angstroms)
 Number     Number       Type             X           Y           Z
 ---------------------------------------------------------------------
      1          6           0        1.633789    0.720331   -0.006067
      2         16           0        0.597766   -0.632902   -0.012914
      3         16           0       -1.366988    0.189587   -0.061692
      4          1           0       -1.444286    0.518461    1.243081
      5          1           0        1.395574    1.610262   -0.571892
      6          1           0        2.553528    0.642328    0.558897
 ---------------------------------------------------------------------

 SCF Done:  E(UHF) =  -834.798724716     A.U. after    2 cycles

 The electronic state is 2-A.
 Alpha  occ. eigenvalues --  -93.99253 -93.98595 -11.28293  -8.27183  -8.26517
 Alpha  occ. eigenvalues --   -6.24974  -6.24694  -6.24644  -6.24399  -6.24152
 Alpha  occ. eigenvalues --   -6.23898  -1.12603  -1.00234  -0.84620  -0.64676
 Alpha  occ. eigenvalues --   -0.59596  -0.54601  -0.51874  -0.43614  -0.39678
 Alpha  occ. eigenvalues --   -0.33230
 Alpha virt. eigenvalues --    0.03723   0.04491   0.05234   0.06655   0.08727
 Alpha virt. eigenvalues --    0.11894   0.12572   0.12902   0.13175   0.14438
 Alpha virt. eigenvalues --    0.15819   0.16749   0.17516   0.18584   0.20012

  Beta  occ. eigenvalues --  -93.99244 -93.98525 -11.25913  -8.27167  -8.26425
  Beta  occ. eigenvalues --   -6.25081  -6.24882  -6.24327  -6.24196  -6.24077
  Beta  occ. eigenvalues --   -6.23831  -1.10547  -0.97092  -0.80162  -0.63153
  Beta  occ. eigenvalues --   -0.58512  -0.53737  -0.47883  -0.39897  -0.38272
  Beta virt. eigenvalues --    0.03550   0.03994   0.05208   0.06354   0.07903
  Beta virt. eigenvalues --    0.08782   0.12042   0.12952   0.13346   0.13889
  Beta virt. eigenvalues --    0.15247   0.17058   0.17671   0.18604   0.18809

 Mulliken charges and spin densities:
               1          2
     1  C   -0.411487   1.214673
     2  S    0.215278  -0.072011
     3  S   -0.369924   0.045713
     4  H    0.412904   0.000135
     5  H    0.060227  -0.092172
     6  H    0.093002  -0.096339
 Sum of Mulliken charges =  -0.00000   1.00000

 Dipole moment (field-independent basis, Debye):
    X=              0.7382    Y=              1.2202    Z=              0.9171  Tot=              1.6956
                          Isotropic Fermi Contact Couplings
        Atom                 a.u.       MegaHertz       Gauss      10(-4) cm-1
     1  C(13)              0.20135     226.35052      80.76750      75.50241
     2  S(33)              0.05045      17.32924       6.18351       5.78041
     3  S(33)              0.06722      23.08666       8.23789       7.70088
     4  H(1)               0.00131       5.87554       2.09654       1.95987
     5  H(1)              -0.02210     -98.79550     -35.25269     -32.95463
     6  H(1)              -0.02264    -101.21809     -36.11713     -33.76272
 --------------------------------------------------------
       Center         ----  Spin Dipole Couplings  ----

 Normal termination of Gaussian 16 at Tue Apr  8 23:52:20 2025.
