 Gaussian 16, Revision C.01,

 ----------------------------------------------------------------------
 #t hf aug-cc-pvdz symm=none int=(grid=ultrafine) guess=(read,tcheck) s
 table=(opt,rrhf)
 ----------------------------------------------------------------------
 -----
 title
 -----
 Symbolic Z-matrix:
 Charge =  0 Multiplicity = 1

 SCF Done:  E(RHF) =  -1943.10420200     A.U. after   18 cycles
 Normal termination of Gaussian 16 at Tue Apr  8 23:27:20 2025.
 Gaussian 16:  ES64L-G16RevC.01  3-Jul-2019

 ----------------------------------------------------------------------
 #t hf aug-cc-pvdz iop(5/13=1,5/36=2,99/5=2) pseudo=read geom=check gue
 ss=(read,tcheck) scf=(maxcycle=1)
 ----------------------------------------------------------------------
 -----
 title
 -----
 Structure from the checkpoint file:  "BDE49_nonexpt_1259_mol1.chk"
 Charge =  0 Multiplicity = 1

                         Standard orientation:
 ---------------------------------------------------------------------
 Center     Atomic      Atomic             Coordinates (Angstroms)
 Number     Number       Type             X           Y           Z
 ---------------------------------------------------------------------
      1         17           0        3.006960    0.011662   -0.641927
      2         17           0       -1.619669    1.792349   -1.059341
      3          8           0        0.991872    2.155928    1.033991
      4          8           0        0.352945   -1.684102   -1.529598
      5         15           0        1.533152   -0.539472    0.696644
      6         15           0       -1.382207    0.775048    0.758627
      7          6           0        0.532153    1.067557    0.868072
      8          6           0        0.158388   -1.202613   -0.451570
      9          6           0       -1.221402   -1.035813    0.205283
     10          6           0       -1.273562   -1.851168    1.526959
     11          1           0       -0.564664   -1.505316    2.284691
     12          1           0       -1.046948   -2.901144    1.322678
     13          1           0       -2.275169   -1.794891    1.957554
     14          6           0       -2.339872   -1.475751   -0.743583
     15          1           0       -2.283629   -0.952863   -1.697260
     16          1           0       -2.250725   -2.546077   -0.944300
     17          1           0       -3.319741   -1.289411   -0.296977
 ---------------------------------------------------------------------

 SCF Done:  E(RHF) =  -1943.68259527     A.U. after    2 cycles

 The electronic state is 1-A.
 Alpha  occ. eigenvalues -- -105.58851-105.58608 -84.36543 -84.36189 -20.59611
 Alpha  occ. eigenvalues --  -20.58514 -11.39087 -11.38375 -11.30900 -11.28312
 Alpha  occ. eigenvalues --  -11.25954 -10.63684 -10.63444  -7.80610  -7.80358
 Alpha  occ. eigenvalues --   -7.80206  -7.80195  -7.79987  -7.79971  -6.83126
 Alpha  occ. eigenvalues --   -6.82986  -4.35505  -4.35344  -4.35272  -4.35100
 Alpha  occ. eigenvalues --   -4.34781  -4.34647  -1.52951  -1.52041  -1.15436
 Alpha  occ. eigenvalues --   -1.09764  -1.08200  -0.98935  -0.97202  -0.88119
 Alpha  occ. eigenvalues --   -0.87168  -0.75459  -0.74089  -0.69307  -0.67148
 Alpha  occ. eigenvalues --   -0.65201  -0.63105  -0.62184  -0.61372  -0.59090
 Alpha  occ. eigenvalues --   -0.58283  -0.57289  -0.56097  -0.54277  -0.51572
 Alpha  occ. eigenvalues --   -0.50641  -0.50159  -0.49655  -0.49372  -0.46100
 Alpha  occ. eigenvalues --   -0.41376  -0.37400  -0.34286
 Alpha virt. eigenvalues --    0.02326   0.02942   0.03847   0.04204   0.05087
 Alpha virt. eigenvalues --    0.06059   0.06687   0.07206   0.07560   0.08100
 Alpha virt. eigenvalues --    0.08788   0.09416   0.10165   0.10454   0.11390

 Mulliken charges:
               1
     1  Cl  -0.478066
     2  Cl  -0.522599
     3  O   -1.158371
     4  O   -1.340517
     5  P    1.229343
     6  P    1.012948
     7  C    0.231368
     8  C    0.696318
     9  C   -0.660992
    10  C   -0.152795
    11  H    0.198832
    12  H    0.191922
    13  H    0.202091
    14  C   -0.066405
    15  H    0.178168
    16  H    0.237536
    17  H    0.201220
 Sum of Mulliken charges =  -0.00000

 Dipole moment (field-independent basis, Debye):
    X=             -2.8304    Y=             -3.0949    Z=              3.2065  Tot=              5.2793

 Test job not archived.
 1\1\GINC-SE229\SP\RHF\Aug-CC-pVDZ\C5H6Cl2O2P2\OHZDE\08-Apr-2025\0\\#t
 hf aug-cc-pvdz iop(5/13=1,5/36=2,99/5=2) pseudo=read geom=check guess=
 (read,tcheck) scf=(maxcycle=1)\\title\\0,1\Cl,0,3.00696,0.011662,-0.64
 1927\Cl,0,-1.619669,1.792349,-1.059341\O,0,0.991872,2.155928,1.033991\
 O,0,0.352945,-1.684102,-1.529598\P,0,1.533152,-0.539472,0.696644\P,0,-
 1.382207,0.775048,0.758627\C,0,0.532153,1.067557,0.868072\C,0,0.158388
 ,-1.202613,-0.45157\C,0,-1.221402,-1.035813,0.205283\C,0,-1.273562,-1.
 851168,1.526959\H,0,-0.564664,-1.505316,2.284691\H,0,-1.046948,-2.9011

 Normal termination of Gaussian 16 at Tue Apr  8 23:27:34 2025.
