 Gaussian 16, Revision C.01,

 ----------------------------------------------------------------------
 #t hf aug-cc-pvdz symm=none int=(grid=ultrafine) guess=(read,tcheck) s
 table=(opt,rrhf)
 ----------------------------------------------------------------------
 -----
 title
 -----
 Symbolic Z-matrix:
 Charge =  0 Multiplicity = 1

 SCF Done:  E(RHF) =  -553.228343967     A.U. after   16 cycles
 Normal termination of Gaussian 16 at Wed Apr  9 00:54:13 2025.
 Gaussian 16:  ES64L-G16RevC.01  3-Jul-2019

 ----------------------------------------------------------------------
 #t hf aug-cc-pvdz iop(5/13=1,5/36=2,99/5=2) pseudo=read geom=check gue
 ss=(read,tcheck) scf=(maxcycle=1)
 ----------------------------------------------------------------------
 -----
 title
 -----
 Structure from the checkpoint file:  "BDE49_nonexpt_955_mol1.chk"
 Charge =  0 Multiplicity = 1

                         Standard orientation:
 ---------------------------------------------------------------------
 Center     Atomic      Atomic             Coordinates (Angstroms)
 Number     Number       Type             X           Y           Z
 ---------------------------------------------------------------------
      1          9           0       -3.857362   -0.023956    0.404558
      2          7           0       -0.626416   -1.066667   -0.068163
      3          7           0       -2.884276   -0.765387   -0.324340
      4          1           0       -2.907216   -1.695215    0.090914
      5          6           0       -1.604196   -0.198480   -0.136078
      6          6           0       -1.441244    1.212377   -0.133624
      7          1           0       -2.309070    1.854935   -0.180030
      8          6           0       -0.166077    1.700084   -0.063259
      9          1           0        0.013371    2.770113   -0.050664
     10          6           0        2.285403    1.238418    0.041510
     11          1           0        2.497232    2.302609    0.051919
     12          6           0        3.309226    0.321367    0.083751
     13          1           0        4.338993    0.656440    0.128159
     14          6           0        3.023981   -1.063020    0.070353
     15          1           0        3.840311   -1.775739    0.104156
     16          6           0        1.725381   -1.512142    0.014265
     17          1           0        1.485813   -2.568396    0.004006
     18          6           0        0.651373   -0.590856   -0.032073
     19          6           0        0.938096    0.808125   -0.018505
 ---------------------------------------------------------------------

 SCF Done:  E(RHF) =  -553.777278220     A.U. after    2 cycles

 The electronic state is 1-A.
 Alpha  occ. eigenvalues --  -26.48226 -15.61192 -15.51298 -11.33680 -11.29162
 Alpha  occ. eigenvalues --  -11.28067 -11.26043 -11.25975 -11.25958 -11.25792
 Alpha  occ. eigenvalues --  -11.25227 -11.24797  -1.59245  -1.29569  -1.19032
 Alpha  occ. eigenvalues --   -1.14421  -1.10708  -1.02424  -1.02073  -0.90462
 Alpha  occ. eigenvalues --   -0.88254  -0.84499  -0.78510  -0.76489  -0.72904
 Alpha  occ. eigenvalues --   -0.71146  -0.68690  -0.66643  -0.65311  -0.63338
 Alpha  occ. eigenvalues --   -0.61587  -0.60888  -0.59478  -0.58761  -0.54106
 Alpha  occ. eigenvalues --   -0.53823  -0.52213  -0.47090  -0.46770  -0.43915
 Alpha  occ. eigenvalues --   -0.33961  -0.33100
 Alpha virt. eigenvalues --    0.03091   0.03277   0.03629   0.04669   0.04762
 Alpha virt. eigenvalues --    0.05398   0.06851   0.07704   0.08425   0.08908
 Alpha virt. eigenvalues --    0.09391   0.11313   0.11662   0.12180   0.12232

 Mulliken charges:
               1
     1  F   -0.666355
     2  N    1.450066
     3  N    1.284528
     4  H    0.139027
     5  C   -2.087544
     6  C    0.291982
     7  H   -0.165083
     8  C    0.215418
     9  H   -0.290903
    10  C    0.521102
    11  H   -0.295848
    12  C    0.234999
    13  H   -0.249361
    14  C    0.009201
    15  H   -0.225208
    16  C    1.374636
    17  H   -0.287825
    18  C   -2.828720
    19  C    1.575886
 Sum of Mulliken charges =   0.00000

 Dipole moment (field-independent basis, Debye):
    X=              2.2776    Y=              1.5811    Z=              0.5270  Tot=              2.8222

 Test job not archived.
 1\1\GINC-SE273\SP\RHF\Aug-CC-pVDZ\C9H7F1N2\OHZDE\09-Apr-2025\0\\#t hf
 aug-cc-pvdz iop(5/13=1,5/36=2,99/5=2) pseudo=read geom=check guess=(re
 ad,tcheck) scf=(maxcycle=1)\\title\\0,1\F,0,-3.857362,-0.023956,0.4045
 58\N,0,-0.626416,-1.066667,-0.068163\N,0,-2.884276,-0.765387,-0.32434\
 H,0,-2.907216,-1.695215,0.090914\C,0,-1.604196,-0.19848,-0.136078\C,0,
 -1.441244,1.212377,-0.133624\H,0,-2.30907,1.854935,-0.18003\C,0,-0.166
 077,1.700084,-0.063259\H,0,0.013371,2.770113,-0.050664\C,0,2.285403,1.
 238418,0.04151\H,0,2.497232,2.302609,0.051919\C,0,3.309226,0.321367,0.

 Normal termination of Gaussian 16 at Wed Apr  9 00:54:30 2025.
