 Gaussian 16, Revision C.01,

 ----------------------------------------------------------------------
 #t hf aug-cc-pvdz symm=none int=(grid=ultrafine) guess=(read,tcheck) s
 table=(opt,rrhf)
 ----------------------------------------------------------------------
 -----
 title
 -----
 Symbolic Z-matrix:
 Charge =  0 Multiplicity = 1

 SCF Done:  E(RHF) =  -611.939245852     A.U. after   14 cycles
 Normal termination of Gaussian 16 at Wed Apr  9 00:09:07 2025.
 Gaussian 16:  ES64L-G16RevC.01  3-Jul-2019

 ----------------------------------------------------------------------
 #t hf aug-cc-pvdz iop(5/13=1,5/36=2,99/5=2) pseudo=read geom=check gue
 ss=(read,tcheck) scf=(maxcycle=1)
 ----------------------------------------------------------------------
 -----
 title
 -----
 Structure from the checkpoint file:  "BDE49_nonexpt_2284_mol1.chk"
 Charge =  0 Multiplicity = 1

                         Standard orientation:
 ---------------------------------------------------------------------
 Center     Atomic      Atomic             Coordinates (Angstroms)
 Number     Number       Type             X           Y           Z
 ---------------------------------------------------------------------
      1         14           0       -0.509300    0.669046    0.432409
      2          8           0        0.962241   -0.160520    0.705673
      3          7           0        1.748039   -0.457604   -0.460293
      4          8           0        2.730035   -1.020081   -0.178508
      5          6           0       -1.671278   -0.389722   -0.589328
      6          6           0       -0.174856    2.327211   -0.361539
      7          1           0       -1.103807    2.899149   -0.451393
      8          1           0        0.249462    2.213391   -1.362795
      9          1           0        0.523841    2.915502    0.239211
     10          6           0       -2.014351   -1.757032    0.029765
     11          1           0       -1.231510   -0.523014   -1.585033
     12          1           0       -2.588193    0.193664   -0.745257
     13          1           0       -1.117977   -2.364896    0.176540
     14          1           0       -2.696909   -2.323443   -0.609608
     15          1           0       -2.494510   -1.643633    1.005732
     16          1           0       -1.021762    0.831924    1.810214
 ---------------------------------------------------------------------

 SCF Done:  E(RHF) =  -612.297732531     A.U. after    2 cycles

 The electronic state is 1-A.
 Alpha  occ. eigenvalues --  -69.55805 -20.64383 -20.58445 -15.72792 -11.23637
 Alpha  occ. eigenvalues --  -11.22848 -11.22614  -6.22496  -3.97939  -3.97805
 Alpha  occ. eigenvalues --   -3.97758  -1.67598  -1.45717  -1.03400  -0.97231
 Alpha  occ. eigenvalues --   -0.95925  -0.85740  -0.78812  -0.74738  -0.69364
 Alpha  occ. eigenvalues --   -0.66487  -0.62067  -0.58898  -0.57932  -0.57556
 Alpha  occ. eigenvalues --   -0.53856  -0.52862  -0.51322  -0.50528  -0.47747
 Alpha  occ. eigenvalues --   -0.44458  -0.43239
 Alpha virt. eigenvalues --    0.03264   0.03848   0.04253   0.04539   0.05848
 Alpha virt. eigenvalues --    0.06181   0.06761   0.06986   0.08048   0.08465
 Alpha virt. eigenvalues --    0.09369   0.10116   0.11234   0.13571   0.13764

 Mulliken charges:
               1
     1  Si   2.212700
     2  O   -1.713568
     3  N    1.571347
     4  O   -0.887602
     5  C   -0.480479
     6  C   -0.588582
     7  H    0.033218
     8  H    0.088143
     9  H   -0.048136
    10  C   -0.485485
    11  H    0.101457
    12  H    0.045110
    13  H    0.130949
    14  H    0.113132
    15  H    0.100457
    16  H   -0.192663
 Sum of Mulliken charges =  -0.00000

 Dipole moment (field-independent basis, Debye):
    X=             -2.0811    Y=              1.0861    Z=             -0.6683  Tot=              2.4408

 Test job not archived.
 1\1\GINC-SE273\SP\RHF\Aug-CC-pVDZ\C3H9N1O2Si1\OHZDE\09-Apr-2025\0\\#t
 hf aug-cc-pvdz iop(5/13=1,5/36=2,99/5=2) pseudo=read geom=check guess=
 (read,tcheck) scf=(maxcycle=1)\\title\\0,1\Si,0,-0.5093,0.669046,0.432
 409\O,0,0.962241,-0.160519,0.705673\N,0,1.748039,-0.457603,-0.460293\O
 ,0,2.730035,-1.02008,-0.178508\C,0,-1.671278,-0.389722,-0.589328\C,0,-
 0.174857,2.327211,-0.361539\H,0,-1.103808,2.899149,-0.451393\H,0,0.249
 461,2.213391,-1.362795\H,0,0.52384,2.915502,0.239211\C,0,-2.01435,-1.7
 57032,0.029765\H,0,-1.23151,-0.523014,-1.585033\H,0,-2.588193,0.193663

 Normal termination of Gaussian 16 at Wed Apr  9 00:09:14 2025.
