 Gaussian 16, Revision C.01,

 ----------------------------------------------------------------------
 #t hf aug-cc-pvdz symm=none int=(grid=ultrafine) guess=(read,tcheck) s
 table=(opt,rrhf)
 ----------------------------------------------------------------------
 -----
 title
 -----
 Symbolic Z-matrix:
 Charge =  0 Multiplicity = 1

 SCF Done:  E(RHF) =  -588.832663565     A.U. after   15 cycles
 Normal termination of Gaussian 16 at Wed Apr  9 00:01:35 2025.
 Gaussian 16:  ES64L-G16RevC.01  3-Jul-2019

 ----------------------------------------------------------------------
 #t hf aug-cc-pvdz iop(5/13=1,5/36=2,99/5=2) pseudo=read geom=check gue
 ss=(read,tcheck) scf=(maxcycle=1)
 ----------------------------------------------------------------------
 -----
 title
 -----
 Structure from the checkpoint file:  "BDE49_nonexpt_2131_mol1.chk"
 Charge =  0 Multiplicity = 1

                         Standard orientation:
 ---------------------------------------------------------------------
 Center     Atomic      Atomic             Coordinates (Angstroms)
 Number     Number       Type             X           Y           Z
 ---------------------------------------------------------------------
      1          7           0       -0.050248    0.478763    0.000080
      2         14           0       -1.717926   -0.152357    0.000037
      3          7           0        0.908492   -0.501386    0.000153
      4          8           0        0.457219   -1.653635   -0.000190
      5          8           0        2.085917   -0.187799   -0.000123
      6          6           0        0.430264    1.857070    0.000035
      7          1           0       -0.442731    2.507628   -0.000022
      8          1           0        1.034366    2.058568   -0.887028
      9          1           0        1.034308    2.058640    0.887121
     10          1           0       -2.000829   -0.921907   -1.222874
     11          1           0       -2.507590    1.099268   -0.000057
     12          1           0       -2.000939   -0.921792    1.222995
 ---------------------------------------------------------------------

 SCF Done:  E(RHF) =  -589.160759107     A.U. after    2 cycles

 The electronic state is 1-A.
 Alpha  occ. eigenvalues --  -69.57686 -20.59530 -20.58553 -15.82397 -15.57819
 Alpha  occ. eigenvalues --  -11.29858  -6.24387  -3.99836  -3.99731  -3.99679
 Alpha  occ. eigenvalues --   -1.68252  -1.51726  -1.30171  -1.04124  -0.90817
 Alpha  occ. eigenvalues --   -0.82454  -0.78493  -0.77237  -0.73521  -0.63769
 Alpha  occ. eigenvalues --   -0.63334  -0.59119  -0.53401  -0.52682  -0.51838
 Alpha  occ. eigenvalues --   -0.47763  -0.46250  -0.45582
 Alpha virt. eigenvalues --    0.03081   0.03968   0.04905   0.04951   0.05570
 Alpha virt. eigenvalues --    0.06183   0.06852   0.07310   0.09480   0.09519
 Alpha virt. eigenvalues --    0.12258   0.13299   0.14941   0.15154   0.15465

 Mulliken charges:
               1
     1  N   -0.230092
     2  Si   0.841775
     3  N    2.269953
     4  O   -1.347489
     5  O   -1.347455
     6  C   -0.322843
     7  H    0.062468
     8  H    0.200282
     9  H    0.200281
    10  H   -0.090281
    11  H   -0.146301
    12  H   -0.090297
 Sum of Mulliken charges =  -0.00000

 Dipole moment (field-independent basis, Debye):
    X=             -2.3399    Y=              3.0792    Z=              0.0004  Tot=              3.8674

 Test job not archived.
 1\1\GINC-SE398\SP\RHF\Aug-CC-pVDZ\C1H6N2O2Si1\OHZDE\09-Apr-2025\0\\#t
 hf aug-cc-pvdz iop(5/13=1,5/36=2,99/5=2) pseudo=read geom=check guess=
 (read,tcheck) scf=(maxcycle=1)\\title\\0,1\N,0,0.050248,0.478763,-0.00
 008\Si,0,1.717926,-0.152356,-0.000037\N,0,-0.908492,-0.501386,-0.00015
 3\O,0,-0.457219,-1.653635,0.00019\O,0,-2.085917,-0.1878,0.000123\C,0,-
 0.430265,1.85707,-0.000035\H,0,0.44273,2.507628,0.000022\H,0,-1.034367
 ,2.058568,0.887028\H,0,-1.034309,2.05864,-0.887121\H,0,2.000829,-0.921
 906,1.222874\H,0,2.50759,1.099269,0.000057\H,0,2.000939,-0.921791,-1.2

 Normal termination of Gaussian 16 at Wed Apr  9 00:01:40 2025.
