 Gaussian 16, Revision C.01,

 ----------------------------------------------------------------------
 #t hf aug-cc-pvdz symm=none int=(grid=ultrafine) guess=(read,tcheck) s
 table=(opt,rrhf)
 ----------------------------------------------------------------------
 -----
 title
 -----
 Symbolic Z-matrix:
 Charge =  0 Multiplicity = 1

 SCF Done:  E(RHF) =  -787.639070866     A.U. after   12 cycles
 Normal termination of Gaussian 16 at Wed Apr  9 00:21:06 2025.
 Gaussian 16:  ES64L-G16RevC.01  3-Jul-2019

 ----------------------------------------------------------------------
 #t hf aug-cc-pvdz iop(5/13=1,5/36=2,99/5=2) pseudo=read geom=check gue
 ss=(read,tcheck) scf=(maxcycle=1)
 ----------------------------------------------------------------------
 -----
 title
 -----
 Structure from the checkpoint file:  "BDE49_nonexpt_2627_mol1.chk"
 Charge =  0 Multiplicity = 1

                         Standard orientation:
 ---------------------------------------------------------------------
 Center     Atomic      Atomic             Coordinates (Angstroms)
 Number     Number       Type             X           Y           Z
 ---------------------------------------------------------------------
      1          9           0        1.494736    0.810516    0.000014
      2         16           0        0.662453   -0.658916   -0.000004
      3         14           0       -1.338016    0.167308   -0.000003
      4          1           0       -1.571219    0.978903   -1.211518
      5          1           0       -2.177198   -1.052088   -0.000019
      6          1           0       -1.571227    0.978878    1.211527
 ---------------------------------------------------------------------

 SCF Done:  E(RHF) =  -787.823258148     A.U. after    2 cycles

 The electronic state is 1-A.
 Alpha  occ. eigenvalues --  -94.02783 -69.57740 -26.47175  -8.30290  -6.28079
 Alpha  occ. eigenvalues --   -6.27759  -6.27519  -6.24684  -4.00111  -3.99995
 Alpha  occ. eigenvalues --   -3.99948  -1.56568  -0.99608  -0.76388  -0.65060
 Alpha  occ. eigenvalues --   -0.65046  -0.62977  -0.52620  -0.52266  -0.46578
 Alpha  occ. eigenvalues --   -0.39550
 Alpha virt. eigenvalues --    0.03361   0.04622   0.05352   0.05477   0.06487
 Alpha virt. eigenvalues --    0.08629   0.08907   0.10420   0.13099   0.13890
 Alpha virt. eigenvalues --    0.15966   0.16199   0.18101   0.18916   0.22279

 Mulliken charges:
               1
     1  F   -0.633778
     2  S    0.058320
     3  Si   1.208483
     4  H   -0.205125
     5  H   -0.222775
     6  H   -0.205125
 Sum of Mulliken charges =  -0.00000

 Dipole moment (field-independent basis, Debye):
    X=             -2.2923    Y=             -0.3709    Z=             -0.0000  Tot=              2.3221

 Test job not archived.
 1\1\GINC-SE132\SP\RHF\Aug-CC-pVDZ\F1H3S1Si1\OHZDE\09-Apr-2025\0\\#t hf
  aug-cc-pvdz iop(5/13=1,5/36=2,99/5=2) pseudo=read geom=check guess=(r
 ead,tcheck) scf=(maxcycle=1)\\title\\0,1\F,0,1.494736,0.810516,0.00001
 4\S,0,0.662453,-0.658916,-0.000004\Si,0,-1.338016,0.167308,-0.000003\H
 ,0,-1.571219,0.978903,-1.211518\H,0,-2.177198,-1.052088,-0.000019\H,0,
 -1.571227,0.978878,1.211527\\Version=ES64L-G16RevC.01\State=1-A\HF=-78
 7.8232581\RMSD=3.539e-03\Dipole=-0.9018693,-0.1459134,-0.0000047\Quadr
 upole=0.5231514,0.0918653,-0.6150167,-0.7687501,-0.0000039,0.0000045\P

 Normal termination of Gaussian 16 at Wed Apr  9 00:21:08 2025.
