 Gaussian 16, Revision C.01,

 ----------------------------------------------------------------------
 #t hf aug-cc-pvdz symm=none int=(grid=ultrafine) guess=(read,tcheck) s
 table=opt
 ----------------------------------------------------------------------
 -----
 title
 -----
 Symbolic Z-matrix:
 Charge =  0 Multiplicity = 2

 SCF Done:  E(UHF) =  -837.846082791     A.U. after   21 cycles
 Normal termination of Gaussian 16 at Tue Apr  8 23:54:21 2025.
 Gaussian 16:  ES64L-G16RevC.01  3-Jul-2019

 ----------------------------------------------------------------------
 #t hf aug-cc-pvdz iop(5/13=1,5/36=2,99/5=2) pseudo=read geom=check gue
 ss=(read,tcheck) scf=(maxcycle=1)
 ----------------------------------------------------------------------
 -----
 title
 -----
 Structure from the checkpoint file:  "BDE49_nonexpt_1966_mol2.chk"
 Charge =  0 Multiplicity = 2

                         Standard orientation:
 ---------------------------------------------------------------------
 Center     Atomic      Atomic             Coordinates (Angstroms)
 Number     Number       Type             X           Y           Z
 ---------------------------------------------------------------------
      1         14           0       -1.615131    0.207465    0.022914
      2         16           0        0.577064   -0.188738   -0.449499
      3          1           0       -2.307281   -0.941867   -0.626362
      4          1           0       -1.665212    0.030126    1.499254
      5          8           0        0.868614   -1.324075    0.467911
      6          8           0        1.050379    1.280342    0.268748
      7          1           0        1.999361    1.376897    0.105023
 ---------------------------------------------------------------------

 SCF Done:  E(UHF) =  -838.082208222     A.U. after    2 cycles

 The electronic state is 2-A.
 Alpha  occ. eigenvalues --  -94.11167 -69.58778 -20.60178 -20.52621  -8.37567
 Alpha  occ. eigenvalues --   -6.35381  -6.35243  -6.35014  -6.25748  -4.01601
 Alpha  occ. eigenvalues --   -4.00749  -4.00672  -1.50813  -1.43365  -0.95619
 Alpha  occ. eigenvalues --   -0.76491  -0.71168  -0.62879  -0.61509  -0.56960
 Alpha  occ. eigenvalues --   -0.52541  -0.50199  -0.45869  -0.40764  -0.35776
 Alpha virt. eigenvalues --    0.03181   0.03705   0.04580   0.06369   0.07011
 Alpha virt. eigenvalues --    0.08377   0.09347   0.10248   0.11399   0.12308
 Alpha virt. eigenvalues --    0.14582   0.16683   0.17417   0.17914   0.19964

  Beta  occ. eigenvalues --  -94.11133 -69.58205 -20.60187 -20.52282  -8.37527
  Beta  occ. eigenvalues --   -6.35387  -6.35152  -6.34923  -6.24858  -4.00392
  Beta  occ. eigenvalues --   -4.00297  -3.99438  -1.50619  -1.42819  -0.94823
  Beta  occ. eigenvalues --   -0.72946  -0.70919  -0.62002  -0.61135  -0.55842
  Beta  occ. eigenvalues --   -0.51419  -0.49597  -0.44227  -0.36933
  Beta virt. eigenvalues --   -0.00811   0.03689   0.03902   0.04910   0.06830
  Beta virt. eigenvalues --    0.07808   0.08782   0.09918   0.10618   0.11812
  Beta virt. eigenvalues --    0.13292   0.16222   0.17338   0.18433   0.20092

 Mulliken charges and spin densities:
               1          2
     1  Si   0.812192   0.838997
     2  S    1.421644   0.019604
     3  H   -0.180612   0.047936
     4  H   -0.111395   0.056102
     5  O   -1.285711   0.045485
     6  O   -1.092487  -0.004818
     7  H    0.436369  -0.003306
 Sum of Mulliken charges =  -0.00000   1.00000

 Dipole moment (field-independent basis, Debye):
    X=             -1.2680    Y=              2.3301    Z=             -1.5597  Tot=              3.0773
                          Isotropic Fermi Contact Couplings
        Atom                 a.u.       MegaHertz       Gauss      10(-4) cm-1
     1  Si(29)             0.66487    -590.89187    -210.84491    -197.10031
     2  S(33)              0.01772       6.08654       2.17183       2.03025
     3  H(1)               0.01007      45.01247      16.06157      15.01454
     4  H(1)               0.01221      54.57153      19.47248      18.20310
     5  O(17)              0.02909     -17.63432      -6.29236      -5.88218
     6  O(17)             -0.00645       3.90935       1.39495       1.30402
     7  H(1)              -0.00055      -2.44433      -0.87220      -0.81534
 --------------------------------------------------------

 Normal termination of Gaussian 16 at Tue Apr  8 23:54:23 2025.
