 Gaussian 16, Revision C.01,

 ----------------------------------------------------------------------
 #t hf aug-cc-pvdz symm=none int=(grid=ultrafine) guess=(read,tcheck) s
 table=opt
 ----------------------------------------------------------------------
 -----
 title
 -----
 Symbolic Z-matrix:
 Charge =  0 Multiplicity = 2

 SCF Done:  E(UHF) =  -1544.23533709     A.U. after   15 cycles
 Normal termination of Gaussian 16 at Tue Apr  8 23:46:27 2025.
 Gaussian 16:  ES64L-G16RevC.01  3-Jul-2019

 ----------------------------------------------------------------------
 #t hf aug-cc-pvdz iop(5/13=1,5/36=2,99/5=2) pseudo=read geom=check gue
 ss=(read,tcheck) scf=(maxcycle=1)
 ----------------------------------------------------------------------
 -----
 title
 -----
 Structure from the checkpoint file:  "BDE49_nonexpt_1764_mol2.chk"
 Charge =  0 Multiplicity = 2

                         Standard orientation:
 ---------------------------------------------------------------------
 Center     Atomic      Atomic             Coordinates (Angstroms)
 Number     Number       Type             X           Y           Z
 ---------------------------------------------------------------------
      1         14           0        0.702827   -0.420225    0.000000
      2          6           0       -0.230808    1.293776    0.000000
      3         17           0        0.109374   -1.428047    1.699882
      4         17           0        0.109374   -1.428047   -1.699882
      5          9           0        0.109374    2.013747   -1.089877
      6          9           0        0.109374    2.013747    1.089877
      7          9           0       -1.571351    1.158515   -0.000000
 ---------------------------------------------------------------------

 SCF Done:  E(UHF) =  -1544.71983154     A.U. after    2 cycles

 The electronic state is 2-A'.
 Alpha  occ. eigenvalues -- -105.59964-105.59964 -69.67326 -26.52009 -26.52007
 Alpha  occ. eigenvalues --  -26.51949 -11.52530 -10.64955 -10.64946  -7.81936
 Alpha  occ. eigenvalues --   -7.81931  -7.81524  -7.81523  -7.81464  -7.81461
 Alpha  occ. eigenvalues --   -6.33618  -4.09239  -4.08599  -4.08458  -1.72474
 Alpha  occ. eigenvalues --   -1.62527  -1.62487  -1.11678  -1.08078  -0.97474
 Alpha  occ. eigenvalues --   -0.84704  -0.81849  -0.81798  -0.71481  -0.69897
 Alpha  occ. eigenvalues --   -0.69754  -0.65108  -0.65089  -0.63295  -0.59583
 Alpha  occ. eigenvalues --   -0.56524  -0.55569  -0.51570  -0.50518  -0.49764
 Alpha  occ. eigenvalues --   -0.40225
 Alpha virt. eigenvalues --    0.04787   0.05131   0.05179   0.06382   0.09438
 Alpha virt. eigenvalues --    0.10494   0.11699   0.11978   0.12187   0.12447
 Alpha virt. eigenvalues --    0.13988   0.15546   0.16639   0.16842   0.18793

  Beta  occ. eigenvalues -- -105.59851-105.59851 -69.66710 -26.52027 -26.52025
  Beta  occ. eigenvalues --  -26.51828 -11.52203 -10.64832 -10.64823  -7.81665
  Beta  occ. eigenvalues --   -7.81661  -7.81405  -7.81401  -7.81283  -7.81281
  Beta  occ. eigenvalues --   -6.32600  -4.08200  -4.08090  -4.07219  -1.72337
  Beta  occ. eigenvalues --   -1.62522  -1.62314  -1.10555  -1.07183  -0.96683
  Beta  occ. eigenvalues --   -0.83473  -0.81705  -0.81585  -0.69788  -0.69544
  Beta  occ. eigenvalues --   -0.68336  -0.65099  -0.64988  -0.63248  -0.58256
  Beta  occ. eigenvalues --   -0.55694  -0.53003  -0.50538  -0.49561  -0.49391
  Beta virt. eigenvalues --   -0.01980   0.05329   0.05500   0.05730   0.06703
  Beta virt. eigenvalues --    0.10625   0.10993   0.12081   0.12232   0.12365
  Beta virt. eigenvalues --    0.14528   0.15628   0.16046   0.17091   0.17215

 Mulliken charges and spin densities:
               1          2
     1  Si   1.295379   0.842226
     2  C    1.724872   0.058612
     3  Cl  -0.451841   0.047869
     4  Cl  -0.451841   0.047869
     5  F   -0.693020  -0.001444
     6  F   -0.693020  -0.001444
     7  F   -0.730529   0.006311
 Sum of Mulliken charges =   0.00000   1.00000

 Dipole moment (field-independent basis, Debye):
    X=              1.3407    Y=             -0.7397    Z=             -0.0000  Tot=              1.5312
                          Isotropic Fermi Contact Couplings
        Atom                 a.u.       MegaHertz       Gauss      10(-4) cm-1
     1  Si(29)             1.01450    -901.61111    -321.71726    -300.74509
     2  C(13)              0.07789      87.56310      31.24469      29.20791
     3  Cl(35)             0.06106      26.77226       9.55301       8.93027
     4  Cl(35)             0.06106      26.77226       9.55301       8.93027
     5  F(19)             -0.00393     -16.53111      -5.89871      -5.51418
     6  F(19)             -0.00393     -16.53111      -5.89871      -5.51418
     7  F(19)              0.02085      87.71877      31.30024      29.25983
 --------------------------------------------------------

 Normal termination of Gaussian 16 at Tue Apr  8 23:46:31 2025.
