 Gaussian 16, Revision C.01,

 ----------------------------------------------------------------------
 #t hf aug-cc-pvdz symm=none int=(grid=ultrafine) guess=(read,tcheck) s
 table=opt
 ----------------------------------------------------------------------
 -----
 title
 -----
 Symbolic Z-matrix:
 Charge =  0 Multiplicity = 2

 SCF Done:  E(UHF) =  -498.031283813     A.U. after   15 cycles

 1\1\GINC-SE461\Stability\UHF\Aug-CC-pVDZ\C4H10P1\OHZDE\08-Apr-2025\0\\
 #t hf aug-cc-pvdz symm=none int=(grid=ultrafine) guess=(read,tcheck) s
 table=opt\\title\\0,2\P,0,0.,0.618722,-0.000004\C,0,-1.418166,-0.59146
 9,0.000006\C,0,1.418166,-0.591469,0.\C,0,2.78876,0.096032,-0.000005\H,
 0,1.318982,-1.243727,-0.877115\H,0,1.318984,-1.243717,0.877123\H,0,2.9
 15665,0.730103,-0.881899\H,0,3.597304,-0.640563,-0.000003\H,0,2.915668
 ,0.730112,0.881881\C,0,-2.78876,0.096032,0.000006\H,0,-1.318981,-1.243
 717,0.877129\H,0,-1.318985,-1.243727,-0.877109\H,0,-2.915664,0.730113,

 Normal termination of Gaussian 16 at Tue Apr  8 22:59:02 2025.
 Gaussian 16:  ES64L-G16RevC.01  3-Jul-2019

 ----------------------------------------------------------------------
 #t hf aug-cc-pvdz iop(5/13=1,5/36=2,99/5=2) pseudo=read geom=check gue
 ss=(read,tcheck) scf=(maxcycle=1)
 ----------------------------------------------------------------------
 -----
 title
 -----
 Structure from the checkpoint file:  "BDE49_expt_1950_mol2.chk"
 Charge =  0 Multiplicity = 2

                         Standard orientation:
 ---------------------------------------------------------------------
 Center     Atomic      Atomic             Coordinates (Angstroms)
 Number     Number       Type             X           Y           Z
 ---------------------------------------------------------------------
      1         15           0        0.000000   -0.618722   -0.000004
      2          6           0        1.418166    0.591469    0.000006
      3          6           0       -1.418166    0.591469   -0.000000
      4          6           0       -2.788760   -0.096032   -0.000005
      5          1           0       -1.318982    1.243727   -0.877115
      6          1           0       -1.318984    1.243717    0.877123
      7          1           0       -2.915665   -0.730103   -0.881899
      8          1           0       -3.597304    0.640563   -0.000003
      9          1           0       -2.915668   -0.730112    0.881881
     10          6           0        2.788760   -0.096032    0.000006
     11          1           0        1.318981    1.243717    0.877129
     12          1           0        1.318985    1.243727   -0.877109
     13          1           0        2.915664   -0.730113    0.881893
     14          1           0        3.597304    0.640563    0.000012
     15          1           0        2.915668   -0.730103   -0.881888
 ---------------------------------------------------------------------

 SCF Done:  E(UHF) =  -498.250318944     A.U. after    2 cycles

 The electronic state is 2-A.
 Alpha  occ. eigenvalues --  -84.26152 -11.23889 -11.23882 -11.23054 -11.23049
 Alpha  occ. eigenvalues --   -6.73373  -4.25946  -4.25641  -4.24878  -1.05531
 Alpha  occ. eigenvalues --   -1.02437  -0.89654  -0.83147  -0.73709  -0.63119
 Alpha  occ. eigenvalues --   -0.61075  -0.59775  -0.56395  -0.53788  -0.51595
 Alpha  occ. eigenvalues --   -0.51542  -0.49793  -0.42694  -0.35559  -0.29862
 Alpha virt. eigenvalues --    0.03782   0.03803   0.04384   0.04535   0.05981
 Alpha virt. eigenvalues --    0.06041   0.06279   0.07526   0.08683   0.09952
 Alpha virt. eigenvalues --    0.10195   0.11754   0.13091   0.13796   0.14720

  Beta  occ. eigenvalues --  -84.25473 -11.24029 -11.24022 -11.23047 -11.23042
  Beta  occ. eigenvalues --   -6.72513  -4.25112  -4.24497  -4.22621  -1.04768
  Beta  occ. eigenvalues --   -1.02442  -0.88352  -0.83116  -0.69299  -0.62080
  Beta  occ. eigenvalues --   -0.60716  -0.59671  -0.56104  -0.53314  -0.51493
  Beta  occ. eigenvalues --   -0.50978  -0.49411  -0.42466  -0.33583
  Beta virt. eigenvalues --    0.03791   0.03811   0.04122   0.04572   0.06035
  Beta virt. eigenvalues --    0.06044   0.06267   0.06285   0.08503   0.08739
  Beta virt. eigenvalues --    0.09994   0.10487   0.11887   0.13156   0.14728

 Mulliken charges and spin densities:
               1          2
     1  P    1.115172   1.225439
     2  C   -0.694795  -0.159405
     3  C   -0.694796  -0.159405
     4  C   -0.521773   0.028175
     5  H    0.096134   0.008429
     6  H    0.096136   0.008429
     7  H    0.164056   0.001549
     8  H    0.138603  -0.001446
     9  H    0.164054   0.001549
    10  C   -0.521776   0.028175
    11  H    0.096136   0.008429
    12  H    0.096134   0.008429
    13  H    0.164056   0.001549
    14  H    0.138602  -0.001446
    15  H    0.164057   0.001549
 Sum of Mulliken charges =  -0.00000   1.00000

 Dipole moment (field-independent basis, Debye):
    X=             -0.0000    Y=              1.3019    Z=              0.0000  Tot=              1.3019
                          Isotropic Fermi Contact Couplings
        Atom                 a.u.       MegaHertz       Gauss      10(-4) cm-1
     1  P(31)              0.20749     375.78130     134.08811     125.34715
     2  C(13)             -0.02548     -28.64840     -10.22246      -9.55608
     3  C(13)             -0.02548     -28.64840     -10.22246      -9.55608
     4  C(13)              0.00081       0.90638       0.32342       0.30234
     5  H(1)               0.00931      41.59905      14.84357      13.87595
     6  H(1)               0.00931      41.59905      14.84357      13.87595
     7  H(1)              -0.00035      -1.56808      -0.55953      -0.52306
     8  H(1)              -0.00077      -3.42985      -1.22386      -1.14408

 Normal termination of Gaussian 16 at Tue Apr  8 22:59:07 2025.
