 Gaussian 16, Revision C.01,

 ----------------------------------------------------------------------
 #t hf aug-cc-pvdz symm=none int=(grid=ultrafine) guess=(read,tcheck) s
 table=(opt,rrhf)
 ----------------------------------------------------------------------
 -----
 title
 -----
 Symbolic Z-matrix:
 Charge =  0 Multiplicity = 1

 SCF Done:  E(RHF) =  -662.273817700     A.U. after   13 cycles
 Normal termination of Gaussian 16 at Tue Apr  8 22:46:31 2025.
 Gaussian 16:  ES64L-G16RevC.01  3-Jul-2019

 ----------------------------------------------------------------------
 #t hf aug-cc-pvdz iop(5/13=1,5/36=2,99/5=2) pseudo=read geom=check gue
 ss=(read,tcheck) scf=(maxcycle=1)
 ----------------------------------------------------------------------
 -----
 title
 -----
 Structure from the checkpoint file:  "BDE49_expt_1596_mol1.chk"
 Charge =  0 Multiplicity = 1

                         Standard orientation:
 ---------------------------------------------------------------------
 Center     Atomic      Atomic             Coordinates (Angstroms)
 Number     Number       Type             X           Y           Z
 ---------------------------------------------------------------------
      1         16           0        0.089805    0.150745    0.055324
      2          6           0       -1.616738   -0.365520    0.036580
      3          1           0       -2.186104    0.416463    0.538794
      4          1           0       -1.704153   -1.310319    0.569604
      5          1           0       -1.933701   -0.462718   -1.000391
      6          8           0        0.756225   -1.074993   -0.792365
      7          8           0        0.612943    0.062165    1.395224
      8          8           0        0.216579    1.343055   -0.727935
      9          1           0        1.401528   -1.504043   -0.212059
 ---------------------------------------------------------------------

 SCF Done:  E(RHF) =  -662.603619477     A.U. after    2 cycles

 The electronic state is 1-A.
 Alpha  occ. eigenvalues --  -94.24344 -20.62428 -20.55926 -20.55520 -11.30190
 Alpha  occ. eigenvalues --   -8.49128  -6.47253  -6.47124  -6.46925  -1.61756
 Alpha  occ. eigenvalues --   -1.49299  -1.46509  -1.07717  -0.88758  -0.76079
 Alpha  occ. eigenvalues --   -0.72061  -0.70266  -0.65472  -0.63204  -0.62211
 Alpha  occ. eigenvalues --   -0.56768  -0.52138  -0.50296  -0.48452  -0.47651
 Alpha virt. eigenvalues --    0.02917   0.04128   0.05180   0.05604   0.09928
 Alpha virt. eigenvalues --    0.10929   0.11655   0.13413   0.14534   0.15304
 Alpha virt. eigenvalues --    0.15850   0.18198   0.19339   0.19580   0.23568

 Mulliken charges:
               1
     1  S    3.739952
     2  C   -0.739732
     3  H    0.274041
     4  H    0.235270
     5  H    0.246193
     6  O   -1.195173
     7  O   -1.440166
     8  O   -1.441578
     9  H    0.321193
 Sum of Mulliken charges =   0.00000

 Dipole moment (field-independent basis, Debye):
    X=             -2.2914    Y=             -3.1679    Z=             -0.0424  Tot=              3.9100

 Test job not archived.
 1\1\GINC-SE453\SP\RHF\Aug-CC-pVDZ\C1H4O3S1\OHZDE\08-Apr-2025\0\\#t hf
 aug-cc-pvdz iop(5/13=1,5/36=2,99/5=2) pseudo=read geom=check guess=(re
 ad,tcheck) scf=(maxcycle=1)\\title\\0,1\S,0,0.089805,0.150745,0.055324
 \C,0,-1.616738,-0.365518,0.03658\H,0,-2.186104,0.416465,0.538794\H,0,-
 1.704154,-1.310317,0.569604\H,0,-1.933702,-0.462716,-1.000391\O,0,0.75
 6224,-1.074994,-0.792365\O,0,0.612943,0.062164,1.395224\O,0,0.21658,1.
 343055,-0.727935\H,0,1.401526,-1.504044,-0.212059\\Version=ES64L-G16Re
 vC.01\State=1-A\HF=-662.6036195\RMSD=7.430e-03\Dipole=-0.9015096,-1.24

 Normal termination of Gaussian 16 at Tue Apr  8 22:46:34 2025.
