 Gaussian 16, Revision C.01,

 ----------------------------------------------------------------------
 #t hf aug-cc-pvdz symm=none int=(grid=ultrafine) guess=(read,tcheck) s
 table=(opt,rrhf)
 ----------------------------------------------------------------------
 -----
 title
 -----
 Symbolic Z-matrix:
 Charge =  0 Multiplicity = 1

 SCF Done:  E(RHF) =  -249.344526888     A.U. after   13 cycles
 Normal termination of Gaussian 16 at Wed Apr  9 00:38:23 2025.
 Gaussian 16:  ES64L-G16RevC.01  3-Jul-2019

 ----------------------------------------------------------------------
 #t hf aug-cc-pvdz iop(5/13=1,5/36=2,99/5=2) pseudo=read geom=check gue
 ss=(read,tcheck) scf=(maxcycle=1)
 ----------------------------------------------------------------------
 -----
 title
 -----
 Structure from the checkpoint file:  "BDE49_nonexpt_591_mol1.chk"
 Charge =  0 Multiplicity = 1

                         Standard orientation:
 ---------------------------------------------------------------------
 Center     Atomic      Atomic             Coordinates (Angstroms)
 Number     Number       Type             X           Y           Z
 ---------------------------------------------------------------------
      1          6           0        0.941124   -0.680637   -0.000049
      2          5           0       -0.501855    0.027870   -0.000010
      3          7           0       -0.482983    1.431320    0.000026
      4          8           0        1.980300   -0.050426    0.000005
      5          7           0       -1.649189   -0.793586   -0.000008
      6          1           0        0.998017   -1.801466    0.000108
      7          1           0       -2.597542   -0.454726    0.000020
      8          1           0       -1.582153   -1.798156   -0.000034
      9          1           0       -1.284028    2.039495    0.000056
     10          1           0        0.411053    1.898593    0.000031
 ---------------------------------------------------------------------

 SCF Done:  E(RHF) =  -249.597043201     A.U. after    2 cycles

 The electronic state is 1-A.
 Alpha  occ. eigenvalues --  -20.54499 -15.49622 -15.48293 -11.31238  -7.59830
 Alpha  occ. eigenvalues --   -1.46355  -1.18243  -1.14391  -0.85837  -0.75608
 Alpha  occ. eigenvalues --   -0.73214  -0.71670  -0.65165  -0.63364  -0.59815
 Alpha  occ. eigenvalues --   -0.53733  -0.49361  -0.43848  -0.39684
 Alpha virt. eigenvalues --    0.02704   0.04472   0.05270   0.05816   0.06375
 Alpha virt. eigenvalues --    0.06869   0.08190   0.08333   0.10132   0.10600
 Alpha virt. eigenvalues --    0.13951   0.14452   0.16084   0.16277   0.16956

 Mulliken charges:
               1
     1  C    0.541699
     2  B    0.183578
     3  N    0.115554
     4  O   -0.959672
     5  N    0.118725
     6  H   -0.051266
     7  H    0.043230
     8  H   -0.034315
     9  H    0.029346
    10  H    0.013119
 Sum of Mulliken charges =  -0.00000

 Dipole moment (field-independent basis, Debye):
    X=             -3.5160    Y=             -0.5827    Z=              0.0000  Tot=              3.5639

 Test job not archived.
 1\1\GINC-SE186\SP\RHF\Aug-CC-pVDZ\C1H5B1N2O1\OHZDE\09-Apr-2025\0\\#t h
 f aug-cc-pvdz iop(5/13=1,5/36=2,99/5=2) pseudo=read geom=check guess=(
 read,tcheck) scf=(maxcycle=1)\\title\\0,1\C,0,-0.941124,-0.680637,0.00
 0049\B,0,0.501855,0.02787,0.00001\N,0,0.482983,1.43132,-0.000026\O,0,-
 1.9803,-0.050426,-0.000005\N,0,1.649189,-0.793586,0.000008\H,0,-0.9980
 17,-1.801466,-0.000108\H,0,2.597542,-0.454726,-0.00002\H,0,1.582153,-1
 .798156,0.000034\H,0,1.284027,2.039495,-0.000056\H,0,-0.411054,1.89859
 3,-0.000031\\Version=ES64L-G16RevC.01\State=1-A\HF=-249.5970432\RMSD=8

 Normal termination of Gaussian 16 at Wed Apr  9 00:38:26 2025.
