 Gaussian 16, Revision C.01,

 ----------------------------------------------------------------------
 #t hf aug-cc-pvdz symm=none int=(grid=ultrafine) guess=(read,tcheck) s
 table=(opt,rrhf)
 ----------------------------------------------------------------------
 -----
 title
 -----
 Symbolic Z-matrix:
 Charge =  0 Multiplicity = 1

 SCF Done:  E(RHF) =  -827.243817454     A.U. after   14 cycles
 Normal termination of Gaussian 16 at Wed Apr  9 00:12:27 2025.
 Gaussian 16:  ES64L-G16RevC.01  3-Jul-2019

 ----------------------------------------------------------------------
 #t hf aug-cc-pvdz iop(5/13=1,5/36=2,99/5=2) pseudo=read geom=check gue
 ss=(read,tcheck) scf=(maxcycle=1)
 ----------------------------------------------------------------------
 -----
 title
 -----
 Structure from the checkpoint file:  "BDE49_nonexpt_2389_mol1.chk"
 Charge =  0 Multiplicity = 1

                         Standard orientation:
 ---------------------------------------------------------------------
 Center     Atomic      Atomic             Coordinates (Angstroms)
 Number     Number       Type             X           Y           Z
 ---------------------------------------------------------------------
      1         14           0        2.433736   -0.458160    0.478224
      2         14           0        0.840614    0.918932   -0.577474
      3          1           0        1.876450   -0.988056    1.746258
      4          1           0        3.643588    0.337841    0.816625
      5          1           0        2.845620   -1.578139   -0.394969
      6          7           0       -0.828621    0.605544   -0.018608
      7          1           0        0.922286    0.820534   -2.052813
      8          1           0        1.029505    2.347388   -0.212156
      9          6           0       -1.178957   -0.709438   -0.164638
     10          8           0       -0.350179   -1.490681   -0.630582
     11          6           0       -2.561206   -1.162333    0.251313
     12          1           0       -3.336644   -0.613490   -0.289883
     13          1           0       -2.723628   -0.993246    1.319530
     14          1           0       -2.652136   -2.224704    0.036814
     15          6           0       -1.745134    1.614136    0.516833
     16          1           0       -1.221669    2.566857    0.583092
     17          1           0       -2.093203    1.352148    1.520311
     18          1           0       -2.617504    1.754498   -0.129443
 ---------------------------------------------------------------------

 SCF Done:  E(RHF) =  -827.567203029     A.U. after    2 cycles

 The electronic state is 1-A.
 Alpha  occ. eigenvalues --  -69.54543 -69.51574 -20.51767 -15.51482 -11.36536
 Alpha  occ. eigenvalues --  -11.28551 -11.25460  -6.21315  -6.18721  -3.96709
 Alpha  occ. eigenvalues --   -3.96625  -3.96586  -3.94080  -3.94071  -3.94063
 Alpha  occ. eigenvalues --   -1.46514  -1.22959  -1.01923  -0.97187  -0.81705
 Alpha  occ. eigenvalues --   -0.74678  -0.70647  -0.69532  -0.66362  -0.63466
 Alpha  occ. eigenvalues --   -0.59529  -0.58777  -0.57607  -0.54486  -0.53480
 Alpha  occ. eigenvalues --   -0.49617  -0.47844  -0.46495  -0.44404  -0.42177
 Alpha  occ. eigenvalues --   -0.38881
 Alpha virt. eigenvalues --    0.02947   0.04035   0.04127   0.04764   0.05069
 Alpha virt. eigenvalues --    0.05707   0.06051   0.06329   0.06909   0.08763
 Alpha virt. eigenvalues --    0.09012   0.09124   0.09692   0.10050   0.10680

 Mulliken charges:
               1
     1  Si   0.101831
     2  Si   0.446571
     3  H   -0.041251
     4  H   -0.149597
     5  H   -0.015161
     6  N    0.654889
     7  H   -0.058747
     8  H   -0.111724
     9  C    0.342506
    10  O   -1.253560
    11  C   -0.551131
    12  H    0.300263
    13  H    0.299093
    14  H    0.057990
    15  C   -0.398285
    16  H   -0.060940
    17  H    0.222057
    18  H    0.215197
 Sum of Mulliken charges =  -0.00000

 Dipole moment (field-independent basis, Debye):
    X=             -2.9717    Y=              2.0444    Z=              1.3110  Tot=              3.8379

 Test job not archived.
 1\1\GINC-SE364\SP\RHF\Aug-CC-pVDZ\C3H11N1O1Si2\OHZDE\09-Apr-2025\0\\#t
  hf aug-cc-pvdz iop(5/13=1,5/36=2,99/5=2) pseudo=read geom=check guess
 =(read,tcheck) scf=(maxcycle=1)\\title\\0,1\Si,0,2.433736,-0.45816,0.4
 78224\Si,0,0.840614,0.918932,-0.577474\H,0,1.87645,-0.988056,1.746258\
 H,0,3.643588,0.337841,0.816625\H,0,2.84562,-1.578139,-0.394969\N,0,-0.
 828621,0.605544,-0.018608\H,0,0.922286,0.820534,-2.052813\H,0,1.029505
 ,2.347388,-0.212156\C,0,-1.178957,-0.709438,-0.164638\O,0,-0.350179,-1
 .490681,-0.630582\C,0,-2.561206,-1.162333,0.251313\H,0,-3.336644,-0.61

 Normal termination of Gaussian 16 at Wed Apr  9 00:12:35 2025.
