 Gaussian 16, Revision C.01,

 ----------------------------------------------------------------------
 #t hf aug-cc-pvdz symm=none int=(grid=ultrafine) guess=(read,tcheck) s
 table=(opt,rrhf)
 ----------------------------------------------------------------------
 -----
 title
 -----
 Symbolic Z-matrix:
 Charge =  0 Multiplicity = 1

 SCF Done:  E(RHF) =  -825.799468362     A.U. after   17 cycles
 Normal termination of Gaussian 16 at Wed Apr  9 00:31:51 2025.
 Gaussian 16:  ES64L-G16RevC.01  3-Jul-2019

 ----------------------------------------------------------------------
 #t hf aug-cc-pvdz iop(5/13=1,5/36=2,99/5=2) pseudo=read geom=check gue
 ss=(read,tcheck) scf=(maxcycle=1)
 ----------------------------------------------------------------------
 -----
 title
 -----
 Structure from the checkpoint file:  "BDE49_nonexpt_340_mol1.chk"
 Charge =  0 Multiplicity = 1

                         Standard orientation:
 ---------------------------------------------------------------------
 Center     Atomic      Atomic             Coordinates (Angstroms)
 Number     Number       Type             X           Y           Z
 ---------------------------------------------------------------------
      1          6           0        0.016428    0.004152   -0.029623
      2          7           0        0.365306   -0.161322    1.466048
      3          5           0       -1.606932   -0.093759   -0.236776
      4          7           0        0.829346   -1.086147   -0.741816
      5          8           0        0.359081   -2.212436   -0.623569
      6          8           0       -2.226815   -1.272950   -0.397066
      7          8           0       -0.558059    0.050867    2.227209
      8          8           0       -2.227564    1.097864   -0.235699
      9          8           0        1.501074   -0.470399    1.741755
     10          8           0        1.851886   -0.785766   -1.298646
     11          7           0        0.533584    1.364516   -0.496710
     12          8           0        0.378584    1.560671   -1.683096
     13          8           0        1.002648    2.109012    0.333465
     14          1           0       -3.185197    1.038942   -0.326453
     15          1           0       -1.623047   -2.029277   -0.419399
 ---------------------------------------------------------------------

 SCF Done:  E(RHF) =  -826.577596014     A.U. after    2 cycles

 The electronic state is 1-A.
 Alpha  occ. eigenvalues --  -20.67055 -20.65481 -20.65480 -20.65456 -20.65099
 Alpha  occ. eigenvalues --  -20.64524 -20.61263 -20.61219 -15.86639 -15.85937
 Alpha  occ. eigenvalues --  -15.85476 -11.46957  -7.73052  -1.75128  -1.73689
 Alpha  occ. eigenvalues --   -1.73072  -1.58683  -1.58039  -1.57537  -1.53969
 Alpha  occ. eigenvalues --   -1.50405  -1.26001  -1.06669  -1.05980  -0.92047
 Alpha  occ. eigenvalues --   -0.88908  -0.87968  -0.86822  -0.81903  -0.81350
 Alpha  occ. eigenvalues --   -0.80868  -0.80129  -0.79651  -0.78789  -0.77747
 Alpha  occ. eigenvalues --   -0.71855  -0.63089  -0.63033  -0.61996  -0.57420
 Alpha  occ. eigenvalues --   -0.56501  -0.55795  -0.54867  -0.54064  -0.53909
 Alpha  occ. eigenvalues --   -0.53406  -0.51604  -0.50211  -0.49174
 Alpha virt. eigenvalues --   -0.01208   0.00144   0.01585   0.02930   0.04285
 Alpha virt. eigenvalues --    0.04767   0.05783   0.07941   0.08796   0.10092
 Alpha virt. eigenvalues --    0.12281   0.12531   0.13320   0.14218   0.14803

 Mulliken charges:
               1
     1  C   -0.872559
     2  N    3.053705
     3  B    1.696751
     4  N    3.136568
     5  O   -1.522772
     6  O   -1.321484
     7  O   -1.393746
     8  O   -1.262808
     9  O   -1.481746
    10  O   -1.424238
    11  N    3.129496
    12  O   -1.472701
    13  O   -1.399249
    14  H    0.460472
    15  H    0.674311
 Sum of Mulliken charges =   0.00000

 Dipole moment (field-independent basis, Debye):
    X=             -3.1864    Y=             -1.0919    Z=             -0.7805  Tot=              3.4576

 Test job not archived.
 1\1\GINC-SE073\SP\RHF\Aug-CC-pVDZ\C1H2B1N3O8\OHZDE\09-Apr-2025\0\\#t h
 f aug-cc-pvdz iop(5/13=1,5/36=2,99/5=2) pseudo=read geom=check guess=(
 read,tcheck) scf=(maxcycle=1)\\title\\0,1\C,0,0.016428,0.004152,-0.029
 623\N,0,0.365306,-0.161322,1.466048\B,0,-1.606932,-0.093761,-0.236776\
 N,0,0.829347,-1.086146,-0.741816\O,0,0.359083,-2.212436,-0.623569\O,0,
 -2.226814,-1.272952,-0.397066\O,0,-0.558059,0.050866,2.227209\O,0,-2.2
 27565,1.097862,-0.235699\O,0,1.501075,-0.470398,1.741755\O,0,1.851887,
 -0.785764,-1.298646\N,0,0.533583,1.364516,-0.49671\O,0,0.378583,1.5606

 Normal termination of Gaussian 16 at Wed Apr  9 00:32:18 2025.
