 Gaussian 16, Revision C.01,

 ----------------------------------------------------------------------
 #t hf aug-cc-pvdz symm=none int=(grid=ultrafine) guess=(read,tcheck) s
 table=(opt,rrhf)
 ----------------------------------------------------------------------
 -----
 title
 -----
 Symbolic Z-matrix:
 Charge =  0 Multiplicity = 1

 SCF Done:  E(RHF) =  -1036.11039114     A.U. after   13 cycles
 Normal termination of Gaussian 16 at Tue Apr  8 23:55:18 2025.
 Gaussian 16:  ES64L-G16RevC.01  3-Jul-2019

 ----------------------------------------------------------------------
 #t hf aug-cc-pvdz iop(5/13=1,5/36=2,99/5=2) pseudo=read geom=check gue
 ss=(read,tcheck) scf=(maxcycle=1)
 ----------------------------------------------------------------------
 -----
 title
 -----
 Structure from the checkpoint file:  "BDE49_nonexpt_198_mol1.chk"
 Charge =  0 Multiplicity = 1

                         Standard orientation:
 ---------------------------------------------------------------------
 Center     Atomic      Atomic             Coordinates (Angstroms)
 Number     Number       Type             X           Y           Z
 ---------------------------------------------------------------------
      1         17           0        0.832260   -1.522026   -0.000003
      2         17           0        0.832251    1.522030   -0.000003
      3          5           0       -0.018167   -0.000000    0.000018
      4          6           0       -1.547607   -0.000004    0.000006
      5          7           0       -2.702887   -0.000007   -0.000003
 ---------------------------------------------------------------------

 SCF Done:  E(RHF) =  -1036.36980021     A.U. after    2 cycles

 The electronic state is 1-A.
 Alpha  occ. eigenvalues -- -105.61167-105.61167 -15.56002 -11.29336 -10.66199
 Alpha  occ. eigenvalues --  -10.66170  -7.83092  -7.83071  -7.82783  -7.82779
 Alpha  occ. eigenvalues --   -7.82733  -7.82723  -7.77490  -1.26504  -1.14763
 Alpha  occ. eigenvalues --   -1.09606  -0.84992  -0.68303  -0.63938  -0.63459
 Alpha  occ. eigenvalues --   -0.57781  -0.53959  -0.52684  -0.52137  -0.50904
 Alpha  occ. eigenvalues --   -0.49640
 Alpha virt. eigenvalues --    0.00192   0.04219   0.04795   0.05067   0.05083
 Alpha virt. eigenvalues --    0.10871   0.10875   0.12073   0.13231   0.13504
 Alpha virt. eigenvalues --    0.14026   0.17046   0.17091   0.17390   0.17842

 Mulliken charges:
               1
     1  Cl  -0.248151
     2  Cl  -0.248151
     3  B    0.710686
     4  C   -0.954886
     5  N    0.740502
 Sum of Mulliken charges =  -0.00000

 Dipole moment (field-independent basis, Debye):
    X=              2.9910    Y=              0.0000    Z=              0.0001  Tot=              2.9910

 Test job not archived.
 1\1\GINC-SE345\SP\RHF\Aug-CC-pVDZ\C1B1Cl2N1\OHZDE\08-Apr-2025\0\\#t hf
  aug-cc-pvdz iop(5/13=1,5/36=2,99/5=2) pseudo=read geom=check guess=(r
 ead,tcheck) scf=(maxcycle=1)\\title\\0,1\Cl,0,-0.832256,1.522028,-0.00
 0003\Cl,0,-0.832255,-1.522028,-0.000003\B,0,0.018167,0.,0.000018\C,0,1
 .547607,0.,0.000006\N,0,2.702887,0.,-0.000003\\Version=ES64L-G16RevC.0
 1\State=1-A\HF=-1036.3698002\RMSD=1.304e-02\Dipole=-1.176754,-0.000000
 7,0.0000217\Quadrupole=-6.2774432,2.8992002,3.378243,0.0000011,0.00004
 1,0.\PG=C01 [X(C1B1Cl2N1)]\\@

 Normal termination of Gaussian 16 at Tue Apr  8 23:55:20 2025.
