 Gaussian 16, Revision C.01,

 ----------------------------------------------------------------------
 #t hf aug-cc-pvdz symm=none int=(grid=ultrafine) guess=(read,tcheck) s
 table=(opt,rrhf)
 ----------------------------------------------------------------------
 -----
 title
 -----
 Symbolic Z-matrix:
 Charge =  0 Multiplicity = 1

 SCF Done:  E(RHF) =  -1063.42637443     A.U. after   14 cycles
 Normal termination of Gaussian 16 at Tue Apr  8 23:30:03 2025.
 Gaussian 16:  ES64L-G16RevC.01  3-Jul-2019

 ----------------------------------------------------------------------
 #t hf aug-cc-pvdz iop(5/13=1,5/36=2,99/5=2) pseudo=read geom=check gue
 ss=(read,tcheck) scf=(maxcycle=1)
 ----------------------------------------------------------------------
 -----
 title
 -----
 Structure from the checkpoint file:  "BDE49_nonexpt_1374_mol1.chk"
 Charge =  0 Multiplicity = 1

                         Standard orientation:
 ---------------------------------------------------------------------
 Center     Atomic      Atomic             Coordinates (Angstroms)
 Number     Number       Type             X           Y           Z
 ---------------------------------------------------------------------
      1         16           0        0.755628   -0.058694    0.102687
      2          9           0       -2.065238    0.762828    0.027500
      3          8           0        0.881473    1.012581   -1.121685
      4          8           0        1.482962   -1.232094   -0.296932
      5          8           0        1.035849    0.657267    1.321865
      6         15           0       -1.354386   -0.696417    0.063963
      7          1           0        0.870763    1.901943   -0.735968
      8          1           0       -1.260145   -0.884068   -1.339958
 ---------------------------------------------------------------------

 SCF Done:  E(RHF) =  -1063.84126413     A.U. after    2 cycles

 The electronic state is 1-A.
 Alpha  occ. eigenvalues --  -94.24964 -84.41467 -26.51241 -20.63814 -20.57368
 Alpha  occ. eigenvalues --  -20.57335  -8.49874  -6.87719  -6.47956  -6.47813
 Alpha  occ. eigenvalues --   -6.47618  -4.40270  -4.39386  -4.38975  -1.62958
 Alpha  occ. eigenvalues --   -1.62115  -1.50341  -1.47808  -0.99404  -0.87834
 Alpha  occ. eigenvalues --   -0.77541  -0.73927  -0.71359  -0.70679  -0.68280
 Alpha  occ. eigenvalues --   -0.65378  -0.63676  -0.57887  -0.53853  -0.52540
 Alpha  occ. eigenvalues --   -0.49673  -0.47146  -0.41316
 Alpha virt. eigenvalues --    0.03127   0.04489   0.05326   0.06635   0.08312
 Alpha virt. eigenvalues --    0.10219   0.11176   0.11963   0.13936   0.15359
 Alpha virt. eigenvalues --    0.16022   0.17838   0.18412   0.18904   0.20847

 Mulliken charges:
               1
     1  S    3.080441
     2  F   -0.776538
     3  O   -1.231102
     4  O   -1.398198
     5  O   -1.406046
     6  P    1.039751
     7  H    0.374410
     8  H    0.317283
 Sum of Mulliken charges =   0.00000

 Dipole moment (field-independent basis, Debye):
    X=             -3.2053    Y=              0.6257    Z=             -1.3624  Tot=              3.5386

 Test job not archived.
 1\1\GINC-SE361\SP\RHF\Aug-CC-pVDZ\F1H2O3P1S1\OHZDE\08-Apr-2025\0\\#t h
 f aug-cc-pvdz iop(5/13=1,5/36=2,99/5=2) pseudo=read geom=check guess=(
 read,tcheck) scf=(maxcycle=1)\\title\\0,1\S,0,0.755628,-0.058694,0.102
 687\F,0,-2.065238,0.762828,0.0275\O,0,0.881473,1.012581,-1.121685\O,0,
 1.482962,-1.232094,-0.296932\O,0,1.035849,0.657267,1.321865\P,0,-1.354
 386,-0.696417,0.063963\H,0,0.870763,1.901943,-0.735968\H,0,-1.260145,-
 0.884068,-1.339958\\Version=ES64L-G16RevC.01\State=1-A\HF=-1063.841264
 1\RMSD=1.232e-02\Dipole=-1.2610664,0.2461783,-0.5360214\Quadrupole=-0.

 Normal termination of Gaussian 16 at Tue Apr  8 23:30:06 2025.
