 Gaussian 16, Revision C.01,

 ----------------------------------------------------------------------
 #t hf aug-cc-pvdz symm=none int=(grid=ultrafine) guess=(read,tcheck) s
 table=(opt,rrhf)
 ----------------------------------------------------------------------
 -----
 title
 -----
 Symbolic Z-matrix:
 Charge =  0 Multiplicity = 1

 SCF Done:  E(RHF) =  -191.721204066     A.U. after   11 cycles
 Normal termination of Gaussian 16 at Tue Apr  8 22:43:25 2025.
 Gaussian 16:  ES64L-G16RevC.01  3-Jul-2019

 ----------------------------------------------------------------------
 #t hf aug-cc-pvdz iop(5/13=1,5/36=2,99/5=2) pseudo=read geom=check gue
 ss=(read,tcheck) scf=(maxcycle=1)
 ----------------------------------------------------------------------
 -----
 title
 -----
 Structure from the checkpoint file:  "BDE49_expt_1496_mol1.chk"
 Charge =  0 Multiplicity = 1

                         Standard orientation:
 ---------------------------------------------------------------------
 Center     Atomic      Atomic             Coordinates (Angstroms)
 Number     Number       Type             X           Y           Z
 ---------------------------------------------------------------------
      1          6           0        0.000000    0.000000   -0.151521
      2          9           0        0.000000    0.000000    1.115373
      3          7           0        0.000000    0.000000   -1.304176
 ---------------------------------------------------------------------

 SCF Done:  E(RHF) =  -191.898282069     A.U. after    2 cycles

 The electronic state is 1-SG.
 Alpha  occ. eigenvalues --  -26.60490 -15.55323 -11.40763  -1.74432  -1.27513
 Alpha  occ. eigenvalues --   -0.91236  -0.79288  -0.79288  -0.64599  -0.53653
 Alpha  occ. eigenvalues --   -0.53653
 Alpha virt. eigenvalues --    0.05031   0.09004   0.09075   0.09075   0.17219
 Alpha virt. eigenvalues --    0.17219   0.18110   0.22336   0.22775   0.22775
 Alpha virt. eigenvalues --    0.28271   0.31017   0.31017   0.34624   0.40357

 Mulliken charges:
               1
     1  C   -0.121515
     2  F   -0.437347
     3  N    0.558862
 Sum of Mulliken charges =  -0.00000

 Dipole moment (field-independent basis, Debye):
    X=             -0.0000    Y=             -0.0000    Z=              2.9425  Tot=              2.9425

 Test job not archived.
 1\1\GINC-SE080\SP\RHF\Aug-CC-pVDZ\C1F1N1\OHZDE\08-Apr-2025\0\\#t hf au
 g-cc-pvdz iop(5/13=1,5/36=2,99/5=2) pseudo=read geom=check guess=(read
 ,tcheck) scf=(maxcycle=1)\\title\\0,1\C,0,0.,0.,-0.151521\F,0,0.,0.,1.
 115373\N,0,0.,0.,-1.304176\\Version=ES64L-G16RevC.01\State=1-SG\HF=-19
 1.8982821\RMSD=1.606e-02\Dipole=0.,0.,1.1576803\Quadrupole=1.1039966,1
 .1039966,-2.2079933,0.,0.,0.\PG=C*V [C*(N1C1F1)]\\@

 Normal termination of Gaussian 16 at Tue Apr  8 22:43:26 2025.
