 Gaussian 16, Revision C.01,

 ----------------------------------------------------------------------
 #t hf aug-cc-pvdz symm=none int=(grid=ultrafine) guess=(read,tcheck) s
 table=(opt,rrhf)
 ----------------------------------------------------------------------
 -----
 title
 -----
 Symbolic Z-matrix:
 Charge =  0 Multiplicity = 1

 SCF Done:  E(RHF) =  -683.498559521     A.U. after   16 cycles
 Normal termination of Gaussian 16 at Tue Apr  8 22:54:14 2025.
 Gaussian 16:  ES64L-G16RevC.01  3-Jul-2019

 ----------------------------------------------------------------------
 #t hf aug-cc-pvdz iop(5/13=1,5/36=2,99/5=2) pseudo=read geom=check gue
 ss=(read,tcheck) scf=(maxcycle=1)
 ----------------------------------------------------------------------
 -----
 title
 -----
 Structure from the checkpoint file:  "BDE49_expt_1820_mol1.chk"
 Charge =  0 Multiplicity = 1

                         Standard orientation:
 ---------------------------------------------------------------------
 Center     Atomic      Atomic             Coordinates (Angstroms)
 Number     Number       Type             X           Y           Z
 ---------------------------------------------------------------------
      1          7           0       -1.777702    0.461886   -0.000168
      2          8           0       -2.914463    0.142739   -0.000163
      3         16           0       -0.565818   -0.927207    0.000053
      4          6           0        0.989758    0.106144    0.000052
      5          6           0        2.136961   -0.915467   -0.000009
      6          1           0        2.106930   -1.554329    0.885960
      7          1           0        3.093845   -0.383443   -0.000018
      8          1           0        2.106884   -1.554276   -0.886014
      9          6           0        1.034796    0.971315    1.266425
     10          1           0        1.004553    0.354527    2.167272
     11          1           0        0.196318    1.668566    1.298144
     12          1           0        1.963036    1.552720    1.280230
     13          6           0        1.034732    0.971395   -1.266269
     14          1           0        1.004439    0.354665   -2.167153
     15          1           0        1.962972    1.552800   -1.280087
     16          1           0        0.196252    1.668649   -1.297898
 ---------------------------------------------------------------------

 SCF Done:  E(RHF) =  -683.850148129     A.U. after    2 cycles

 The electronic state is 1-A.
 Alpha  occ. eigenvalues --  -93.97658 -20.63759 -15.68326 -11.29715 -11.24701
 Alpha  occ. eigenvalues --  -11.24018 -11.23998  -8.25614  -6.23368  -6.23194
 Alpha  occ. eigenvalues --   -6.22990  -1.63479  -1.14563  -1.05211  -0.95778
 Alpha  occ. eigenvalues --   -0.95440  -0.90114  -0.77051  -0.71249  -0.69859
 Alpha  occ. eigenvalues --   -0.64852  -0.62843  -0.62339  -0.61379  -0.56582
 Alpha  occ. eigenvalues --   -0.56502  -0.53971  -0.50501  -0.50477  -0.45469
 Alpha  occ. eigenvalues --   -0.39383  -0.38131
 Alpha virt. eigenvalues --    0.03406   0.03859   0.04064   0.04914   0.05548
 Alpha virt. eigenvalues --    0.06359   0.06528   0.07291   0.07639   0.09077
 Alpha virt. eigenvalues --    0.09537   0.10215   0.12449   0.13560   0.13743

 Mulliken charges:
               1
     1  N    0.568851
     2  O   -0.966602
     3  S    0.352747
     4  C   -1.714377
     5  C    0.164285
     6  H    0.177965
     7  H    0.232110
     8  H    0.177953
     9  C   -0.083438
    10  H    0.180449
    11  H    0.192927
    12  H    0.213577
    13  C   -0.083392
    14  H    0.180455
    15  H    0.213568
    16  H    0.192924
 Sum of Mulliken charges =  -0.00000

 Dipole moment (field-independent basis, Debye):
    X=              2.9303    Y=              0.2280    Z=              0.0002  Tot=              2.9391

 Test job not archived.
 1\1\GINC-SE044\SP\RHF\Aug-CC-pVDZ\C4H9N1O1S1\OHZDE\08-Apr-2025\0\\#t h
 f aug-cc-pvdz iop(5/13=1,5/36=2,99/5=2) pseudo=read geom=check guess=(
 read,tcheck) scf=(maxcycle=1)\\title\\0,1\N,0,-1.777702,0.461886,-0.00
 0168\O,0,-2.914463,0.142739,-0.000163\S,0,-0.565818,-0.927207,0.000053
 \C,0,0.989758,0.106144,0.000052\C,0,2.136961,-0.915467,-0.000009\H,0,2
 .10693,-1.554329,0.88596\H,0,3.093845,-0.383443,-0.000018\H,0,2.106884
 ,-1.554276,-0.886014\C,0,1.034796,0.971315,1.266425\H,0,1.004553,0.354
 527,2.167272\H,0,0.196318,1.668566,1.298144\H,0,1.963036,1.55272,1.280

 Normal termination of Gaussian 16 at Tue Apr  8 22:54:20 2025.
