 Gaussian 16, Revision C.01,

 ----------------------------------------------------------------------
 #t hf aug-cc-pvdz symm=none int=(grid=ultrafine) guess=(read,tcheck) s
 table=opt
 ----------------------------------------------------------------------
 -----
 title
 -----
 Symbolic Z-matrix:
 Charge =  0 Multiplicity = 2

 SCF Done:  E(UHF) =  -407.757477147     A.U. after   15 cycles

 1\1\GINC-SE336\Stability\UHF\Aug-CC-pVDZ\C3H9Si1\OHZDE\08-Apr-2025\0\\
 #t hf aug-cc-pvdz symm=none int=(grid=ultrafine) guess=(read,tcheck) s
 table=opt\\title\\0,2\Si,0,0.680177,-0.703795,0.12049\C,0,-1.098561,-0
 .443373,-0.484177\C,0,-1.87124,0.664887,0.260207\H,0,-1.629724,-1.3965
 8,-0.38706\H,0,-1.069282,-0.224175,-1.55763\H,0,-1.935803,0.455793,1.3
 31636\H,0,-2.893855,0.757358,-0.119947\C,0,1.763258,0.824325,-0.130126
 \H,0,2.782281,0.638672,0.218536\H,0,1.370004,1.680952,0.429169\H,0,1.8
 13934,1.104318,-1.185745\H,0,-1.390141,1.639887,0.143342\H,0,0.669374,

 Normal termination of Gaussian 16 at Tue Apr  8 23:40:24 2025.
 Gaussian 16:  ES64L-G16RevC.01  3-Jul-2019

 ----------------------------------------------------------------------
 #t hf aug-cc-pvdz iop(5/13=1,5/36=2,99/5=2) pseudo=read geom=check gue
 ss=(read,tcheck) scf=(maxcycle=1)
 ----------------------------------------------------------------------
 -----
 title
 -----
 Structure from the checkpoint file:  "BDE49_nonexpt_1636_mol2.chk"
 Charge =  0 Multiplicity = 2

                         Standard orientation:
 ---------------------------------------------------------------------
 Center     Atomic      Atomic             Coordinates (Angstroms)
 Number     Number       Type             X           Y           Z
 ---------------------------------------------------------------------
      1         14           0        0.680177   -0.703795    0.120490
      2          6           0       -1.098561   -0.443373   -0.484177
      3          6           0       -1.871240    0.664887    0.260207
      4          1           0       -1.629724   -1.396580   -0.387060
      5          1           0       -1.069282   -0.224175   -1.557630
      6          1           0       -1.935803    0.455793    1.331636
      7          1           0       -2.893855    0.757358   -0.119947
      8          6           0        1.763258    0.824326   -0.130126
      9          1           0        2.782281    0.638673    0.218536
     10          1           0        1.370004    1.680952    0.429169
     11          1           0        1.813934    1.104319   -1.185745
     12          1           0       -1.390141    1.639887    0.143342
     13          1           0        0.669374   -1.078137    1.565417
 ---------------------------------------------------------------------

 SCF Done:  E(UHF) =  -407.922958027     A.U. after    2 cycles

 The electronic state is 2-A.
 Alpha  occ. eigenvalues --  -69.52157 -11.23203 -11.22211 -11.21878  -6.19274
 Alpha  occ. eigenvalues --   -3.95209  -3.94316  -3.94304  -1.02646  -0.95026
 Alpha  occ. eigenvalues --   -0.84945  -0.68308  -0.61301  -0.58256  -0.56612
 Alpha  occ. eigenvalues --   -0.55466  -0.52579  -0.50422  -0.45781  -0.43326
 Alpha  occ. eigenvalues --   -0.31393
 Alpha virt. eigenvalues --    0.03620   0.03996   0.04269   0.04325   0.06256
 Alpha virt. eigenvalues --    0.06626   0.07053   0.07349   0.08398   0.09579
 Alpha virt. eigenvalues --    0.09986   0.11113   0.14046   0.14490   0.15327

  Beta  occ. eigenvalues --  -69.51616 -11.23112 -11.22155 -11.21826  -6.18454
  Beta  occ. eigenvalues --   -3.93951  -3.93939  -3.93094  -1.02192  -0.94458
  Beta  occ. eigenvalues --   -0.84482  -0.65063  -0.61164  -0.57176  -0.55856
  Beta  occ. eigenvalues --   -0.55117  -0.52033  -0.50285  -0.44981  -0.42546
  Beta virt. eigenvalues --    0.03085   0.03791   0.04071   0.04313   0.06152
  Beta virt. eigenvalues --    0.06465   0.06828   0.07167   0.07656   0.09444
  Beta virt. eigenvalues --    0.09636   0.10079   0.11433   0.14206   0.14842

 Mulliken charges and spin densities:
               1          2
     1  Si   1.199355   0.962283
     2  C   -0.679889   0.013824
     3  C   -0.414961   0.007071
     4  H    0.065664  -0.004047
     5  H    0.136666  -0.004997
     6  H    0.149512  -0.006999
     7  H    0.094322   0.005568
     8  C   -0.676501   0.002942
     9  H   -0.015572  -0.012650
    10  H    0.050747   0.012269
    11  H    0.086259  -0.003861
    12  H    0.142859  -0.004146
    13  H   -0.138460   0.032742
 Sum of Mulliken charges =   0.00000   1.00000

 Dipole moment (field-independent basis, Debye):
    X=             -0.3742    Y=              0.7015    Z=             -0.3102  Tot=              0.8535
                          Isotropic Fermi Contact Couplings
        Atom                 a.u.       MegaHertz       Gauss      10(-4) cm-1
     1  Si(29)             0.55697    -494.99503    -176.62654    -165.11257
     2  C(13)              0.01588      17.85746       6.37199       5.95661
     3  C(13)              0.02293      25.78196       9.19964       8.59994
     4  H(1)               0.00031       1.40736       0.50218       0.46944
     5  H(1)               0.00005       0.20531       0.07326       0.06848
     6  H(1)              -0.00025      -1.10323      -0.39366      -0.36800
     7  H(1)               0.00233      10.40545       3.71292       3.47088
     8  C(13)              0.01337      15.02775       5.36227       5.01272

 Normal termination of Gaussian 16 at Tue Apr  8 23:40:28 2025.
