 Gaussian 16, Revision C.01,

 ----------------------------------------------------------------------
 #t hf aug-cc-pvdz symm=none int=(grid=ultrafine) guess=(read,tcheck) s
 table=(opt,rrhf)
 ----------------------------------------------------------------------
 -----
 title
 -----
 Symbolic Z-matrix:
 Charge =  0 Multiplicity = 1

 SCF Done:  E(RHF) =  -1367.87023496     A.U. after   15 cycles
 Normal termination of Gaussian 16 at Wed Apr  9 00:18:36 2025.
 Gaussian 16:  ES64L-G16RevC.01  3-Jul-2019

 ----------------------------------------------------------------------
 #t hf aug-cc-pvdz iop(5/13=1,5/36=2,99/5=2) pseudo=read geom=check gue
 ss=(read,tcheck) scf=(maxcycle=1)
 ----------------------------------------------------------------------
 -----
 title
 -----
 Structure from the checkpoint file:  "BDE49_nonexpt_2574_mol1.chk"
 Charge =  0 Multiplicity = 1

                         Standard orientation:
 ---------------------------------------------------------------------
 Center     Atomic      Atomic             Coordinates (Angstroms)
 Number     Number       Type             X           Y           Z
 ---------------------------------------------------------------------
      1         17           0       -2.260720    0.086218   -0.000154
      2         16           0       -0.364347   -0.929474    0.000228
      3          6           0        0.778848    0.372130    0.000186
      4         16           0        2.302337   -0.225533   -0.000152
      5          8           0        0.414017    1.635403    0.000021
      6          1           0       -0.560827    1.698391    0.000124
 ---------------------------------------------------------------------

 SCF Done:  E(RHF) =  -1368.17218765     A.U. after    2 cycles

 The electronic state is 1-A.
 Alpha  occ. eigenvalues -- -105.61757 -94.06941 -93.94951 -20.65847 -11.44780
 Alpha  occ. eigenvalues --  -10.66406  -8.34593  -8.23253  -7.83318  -7.82942
 Alpha  occ. eigenvalues --   -7.82870  -6.32350  -6.32096  -6.31798  -6.21102
 Alpha  occ. eigenvalues --   -6.20773  -6.20681  -1.58601  -1.18170  -1.10037
 Alpha  occ. eigenvalues --   -0.98489  -0.86229  -0.75072  -0.66154  -0.65992
 Alpha  occ. eigenvalues --   -0.56091  -0.54560  -0.54521  -0.50646  -0.46440
 Alpha  occ. eigenvalues --   -0.37979  -0.37669
 Alpha virt. eigenvalues --    0.01155   0.04128   0.04785   0.06921   0.07760
 Alpha virt. eigenvalues --    0.10496   0.11423   0.12274   0.12653   0.13254
 Alpha virt. eigenvalues --    0.13629   0.14343   0.14905   0.17180   0.17412

 Mulliken charges:
               1
     1  Cl  -0.365763
     2  S    0.678805
     3  C   -0.046725
     4  S    0.417280
     5  O   -1.149859
     6  H    0.466262
 Sum of Mulliken charges =  -0.00000

 Dipole moment (field-independent basis, Debye):
    X=             -2.2866    Y=              0.4698    Z=              0.0005  Tot=              2.3343

 Test job not archived.
 1\1\GINC-SE186\SP\RHF\Aug-CC-pVDZ\C1H1Cl1O1S2\OHZDE\09-Apr-2025\0\\#t
 hf aug-cc-pvdz iop(5/13=1,5/36=2,99/5=2) pseudo=read geom=check guess=
 (read,tcheck) scf=(maxcycle=1)\\title\\0,1\Cl,0,-2.26072,0.086218,-0.0
 00154\S,0,-0.364347,-0.929474,0.000228\C,0,0.778848,0.37213,0.000186\S
 ,0,2.302337,-0.225533,-0.000152\O,0,0.414017,1.635403,0.000021\H,0,-0.
 560827,1.698391,0.000124\\Version=ES64L-G16RevC.01\State=1-A\HF=-1368.
 1721877\RMSD=6.405e-03\Dipole=-0.8996137,0.1848224,0.0001849\Quadrupol
 e=-1.9697287,2.096648,-0.1269193,-1.7796445,-0.0000823,0.0003145\PG=C0

 Normal termination of Gaussian 16 at Wed Apr  9 00:18:38 2025.
