 Gaussian 16, Revision C.01,

 ----------------------------------------------------------------------
 #t hf aug-cc-pvdz symm=none int=(grid=ultrafine) guess=(read,tcheck) s
 table=(opt,rrhf)
 ----------------------------------------------------------------------
 -----
 title
 -----
 Symbolic Z-matrix:
 Charge =  0 Multiplicity = 1

 SCF Done:  E(RHF) =  -2975.17796603     A.U. after   11 cycles
 Normal termination of Gaussian 16 at Wed Apr  9 00:09:42 2025.
 Gaussian 16:  ES64L-G16RevC.01  3-Jul-2019

 ----------------------------------------------------------------------
 #t hf aug-cc-pvdz iop(5/13=1,5/36=2,99/5=2) pseudo=read geom=check gue
 ss=(read,tcheck) scf=(maxcycle=1)
 ----------------------------------------------------------------------
 -----
 title
 -----
 Structure from the checkpoint file:  "BDE49_nonexpt_2329_mol1.chk"
 Charge =  0 Multiplicity = 1

                         Standard orientation:
 ---------------------------------------------------------------------
 Center     Atomic      Atomic             Coordinates (Angstroms)
 Number     Number       Type             X           Y           Z
 ---------------------------------------------------------------------
      1         14           0        0.712062    1.093749    0.000000
      2         14           0       -0.341030   -1.003307   -0.000000
      3         17           0        0.214780   -2.052486    1.676733
      4         17           0        0.214780   -2.052486   -1.676733
      5         17           0        0.214780    2.153572   -1.679772
      6         17           0        0.214780    2.153572    1.679772
      7         17           0       -2.378959   -0.743812   -0.000000
      8          9           0        2.293649    0.882409    0.000000
 ---------------------------------------------------------------------

 SCF Done:  E(RHF) =  -2975.71371690     A.U. after    2 cycles

 The electronic state is 1-A'.
 Alpha  occ. eigenvalues -- -105.59871-105.59850-105.59850-105.59806-105.59806
 Alpha  occ. eigenvalues --  -69.69568 -69.69213 -26.49633 -10.64884 -10.64859
 Alpha  occ. eigenvalues --  -10.64852 -10.64847 -10.64835  -7.81773  -7.81751
 Alpha  occ. eigenvalues --   -7.81746  -7.81731  -7.81725  -7.81435  -7.81431
 Alpha  occ. eigenvalues --   -7.81412  -7.81411  -7.81408  -7.81405  -7.81393
 Alpha  occ. eigenvalues --   -7.81392  -7.81389  -7.81386  -6.35340  -6.35043
 Alpha  occ. eigenvalues --   -4.10702  -4.10636  -4.10467  -4.10384  -4.10384
 Alpha  occ. eigenvalues --   -4.10196  -1.61052  -1.13202  -1.11228  -1.08063
 Alpha  occ. eigenvalues --   -1.07830  -1.07669  -0.80485  -0.74338  -0.68842
 Alpha  occ. eigenvalues --   -0.68639  -0.66472  -0.60602  -0.60416  -0.58714
 Alpha  occ. eigenvalues --   -0.57932  -0.53533  -0.52950  -0.52790  -0.52370
 Alpha  occ. eigenvalues --   -0.51288  -0.50213  -0.50157  -0.49416  -0.48729
 Alpha  occ. eigenvalues --   -0.45058
 Alpha virt. eigenvalues --    0.04830   0.04837   0.05478   0.05479   0.07470
 Alpha virt. eigenvalues --    0.07625   0.07678   0.08476   0.08595   0.08710
 Alpha virt. eigenvalues --    0.11511   0.11631   0.13028   0.14756   0.15047

 Mulliken charges:
               1
     1  Si   1.947822
     2  Si   1.440663
     3  Cl  -0.506972
     4  Cl  -0.506972
     5  Cl  -0.505440
     6  Cl  -0.505440
     7  Cl  -0.512433
     8  F   -0.851228
 Sum of Mulliken charges =  -0.00000

 Dipole moment (field-independent basis, Debye):
    X=             -0.3637    Y=             -0.0528    Z=             -0.0000  Tot=              0.3675

 Test job not archived.
 1\1\GINC-SE453\SP\RHF\Aug-CC-pVDZ\Cl5F1Si2\OHZDE\09-Apr-2025\0\\#t hf
 aug-cc-pvdz iop(5/13=1,5/36=2,99/5=2) pseudo=read geom=check guess=(re
 ad,tcheck) scf=(maxcycle=1)\\title\\0,1\Si,0,1.253786,0.,-0.36241\Si,0
 ,-1.059142,0.,0.03384\Cl,0,-1.900804,-1.676733,-0.8036\Cl,0,-1.900804,
 1.676733,-0.8036\Cl,0,2.122686,1.679772,0.422145\Cl,0,2.122686,-1.6797
 72,0.422145\Cl,0,-1.404811,0.,2.058934\F,0,1.512531,0.,-1.936936\\Vers
 ion=ES64L-G16RevC.01\State=1-A'\HF=-2975.7137169\RMSD=2.623e-03\Dipole
 =-0.0615791,0.,0.1308306\Quadrupole=-0.2964244,0.9328142,-0.6363898,0.

 Normal termination of Gaussian 16 at Wed Apr  9 00:09:46 2025.
