 Gaussian 16, Revision C.01,

 ----------------------------------------------------------------------
 #t hf aug-cc-pvdz symm=none int=(grid=ultrafine) guess=(read,tcheck) s
 table=(opt,rrhf)
 ----------------------------------------------------------------------
 -----
 title
 -----
 Symbolic Z-matrix:
 Charge =  0 Multiplicity = 1

 SCF Done:  E(RHF) =  -1073.97884334     A.U. after   13 cycles

 1\1\GINC-SE328\Stability\RHF\Aug-CC-pVDZ\C4H6Cl2\OHZDE\08-Apr-2025\0\\
 #t hf aug-cc-pvdz symm=none int=(grid=ultrafine) guess=(read,tcheck) s
 table=(opt,rrhf)\\title\\0,1\C,0,-1.746106,-0.837589,0.032428\C,0,-0.5
 25571,-0.07209,0.403215\C,0,0.525571,0.07209,-0.403215\Cl,0,-3.21364,0
 .258982,-0.042382\H,0,-1.999656,-1.591014,0.777055\H,0,-1.662469,-1.30
 0626,-0.948325\C,0,1.746106,0.837589,-0.032428\H,0,1.999656,1.591014,-
 0.777055\Cl,0,3.21364,-0.258982,0.042382\H,0,1.662469,1.300626,0.94832
 5\H,0,-0.521987,0.378342,1.392551\H,0,0.521987,-0.378342,-1.392551\\Ve

 Normal termination of Gaussian 16 at Tue Apr  8 22:47:38 2025.
 Gaussian 16:  ES64L-G16RevC.01  3-Jul-2019

 ----------------------------------------------------------------------
 #t hf aug-cc-pvdz iop(5/13=1,5/36=2,99/5=2) pseudo=read geom=check gue
 ss=(read,tcheck) scf=(maxcycle=1)
 ----------------------------------------------------------------------
 -----
 title
 -----
 Structure from the checkpoint file:  "BDE49_expt_1649_mol1.chk"
 Charge =  0 Multiplicity = 1

                         Standard orientation:
 ---------------------------------------------------------------------
 Center     Atomic      Atomic             Coordinates (Angstroms)
 Number     Number       Type             X           Y           Z
 ---------------------------------------------------------------------
      1          6           0       -1.746106   -0.837589    0.032428
      2          6           0       -0.525571   -0.072090    0.403215
      3          6           0        0.525571    0.072090   -0.403215
      4         17           0       -3.213640    0.258982   -0.042382
      5          1           0       -1.999656   -1.591014    0.777055
      6          1           0       -1.662469   -1.300626   -0.948325
      7          6           0        1.746106    0.837589   -0.032428
      8          1           0        1.999656    1.591014   -0.777055
      9         17           0        3.213640   -0.258982    0.042382
     10          1           0        1.662469    1.300626    0.948325
     11          1           0       -0.521987    0.378342    1.392551
     12          1           0        0.521987   -0.378342   -1.392551
 ---------------------------------------------------------------------

 SCF Done:  E(RHF) =  -1074.29713011     A.U. after    2 cycles

 The electronic state is 1-AG.
 Alpha  occ. eigenvalues -- -105.56093-105.56093 -11.32225 -11.32222 -11.27366
 Alpha  occ. eigenvalues --  -11.27245 -10.60865 -10.60865  -7.77799  -7.77797
 Alpha  occ. eigenvalues --   -7.77431  -7.77430  -7.77421  -7.77421  -1.15014
 Alpha  occ. eigenvalues --   -1.10847  -1.04195  -0.94945  -0.87557  -0.79694
 Alpha  occ. eigenvalues --   -0.68263  -0.68017  -0.61094  -0.61045  -0.57452
 Alpha  occ. eigenvalues --   -0.55226  -0.54794  -0.45990  -0.45346  -0.45091
 Alpha  occ. eigenvalues --   -0.44776  -0.39344
 Alpha virt. eigenvalues --    0.03655   0.03672   0.03796   0.05842   0.06362
 Alpha virt. eigenvalues --    0.06442   0.07463   0.09788   0.10246   0.12411
 Alpha virt. eigenvalues --    0.12502   0.13408   0.13557   0.15019   0.15401

 Mulliken charges:
               1
     1  C   -0.785754
     2  C    0.642059
     3  C    0.642059
     4  Cl  -0.087218
     5  H    0.222667
     6  H    0.154676
     7  C   -0.785754
     8  H    0.222667
     9  Cl  -0.087218
    10  H    0.154676
    11  H   -0.146430
    12  H   -0.146430
 Sum of Mulliken charges =  -0.00000

 Dipole moment (field-independent basis, Debye):
    X=             -0.0000    Y=             -0.0000    Z=             -0.0000  Tot=              0.0000

 Test job not archived.
 1\1\GINC-SE328\SP\RHF\Aug-CC-pVDZ\C4H6Cl2\OHZDE\08-Apr-2025\0\\#t hf a
 ug-cc-pvdz iop(5/13=1,5/36=2,99/5=2) pseudo=read geom=check guess=(rea
 d,tcheck) scf=(maxcycle=1)\\title\\0,1\C,0,-1.746106,-0.837589,0.03242
 8\C,0,-0.525571,-0.07209,0.403215\C,0,0.525571,0.07209,-0.403215\Cl,0,
 -3.21364,0.258982,-0.042382\H,0,-1.999656,-1.591014,0.777055\H,0,-1.66
 2469,-1.300626,-0.948325\C,0,1.746106,0.837589,-0.032428\H,0,1.999656,
 1.591014,-0.777055\Cl,0,3.21364,-0.258982,0.042382\H,0,1.662469,1.3006
 26,0.948325\H,0,-0.521987,0.378342,1.392551\H,0,0.521987,-0.378342,-1.

 Normal termination of Gaussian 16 at Tue Apr  8 22:47:41 2025.
