 Gaussian 16, Revision C.01,

 ----------------------------------------------------------------------
 #t hf aug-cc-pvdz symm=none int=(grid=ultrafine) guess=(read,tcheck) s
 table=opt
 ----------------------------------------------------------------------
 -----
 title
 -----
 Symbolic Z-matrix:
 Charge =  0 Multiplicity = 2

 SCF Done:  E(UHF) =  -719.505583747     A.U. after   16 cycles
 Normal termination of Gaussian 16 at Tue Apr  8 23:54:49 2025.
 Gaussian 16:  ES64L-G16RevC.01  3-Jul-2019

 ----------------------------------------------------------------------
 #t hf aug-cc-pvdz iop(5/13=1,5/36=2,99/5=2) pseudo=read geom=check gue
 ss=(read,tcheck) scf=(maxcycle=1)
 ----------------------------------------------------------------------
 -----
 title
 -----
 Structure from the checkpoint file:  "BDE49_nonexpt_1956_mol2.chk"
 Charge =  0 Multiplicity = 2

                         Standard orientation:
 ---------------------------------------------------------------------
 Center     Atomic      Atomic             Coordinates (Angstroms)
 Number     Number       Type             X           Y           Z
 ---------------------------------------------------------------------
      1          6           0       -2.094043   -1.227700   -0.040207
      2         15           0       -0.052071    0.387193    0.100558
      3          8           0        1.393214    0.130948   -0.483439
      4          8           0       -0.536514    1.621227   -0.779171
      5          1           0       -0.599474    2.425298   -0.250452
      6          8           0       -0.193588    0.544102    1.548754
      7          8           0       -0.861976   -0.851155   -0.536275
      8          6           0        2.195350   -0.956541    0.024989
      9          1           0        3.183500   -0.832522   -0.412480
     10          1           0        1.766773   -1.910940   -0.286646
     11          1           0        2.256607   -0.906016    1.113390
     12          1           0       -2.316709   -0.975640    0.987500
     13          1           0       -2.526564   -2.063608   -0.567336
 ---------------------------------------------------------------------

 SCF Done:  E(UHF) =  -719.926700201     A.U. after    2 cycles

 The electronic state is 2-A.
 Alpha  occ. eigenvalues --  -84.46031 -20.59797 -20.59774 -20.58627 -20.51121
 Alpha  occ. eigenvalues --  -11.31227 -11.31078  -6.90902  -4.45127  -4.44435
 Alpha  occ. eigenvalues --   -4.44387  -1.56978  -1.49637  -1.48233  -1.39556
 Alpha  occ. eigenvalues --   -0.99145  -0.95391  -0.82228  -0.73920  -0.72348
 Alpha  occ. eigenvalues --   -0.68985  -0.65320  -0.65105  -0.64121  -0.62721
 Alpha  occ. eigenvalues --   -0.58332  -0.55215  -0.53566  -0.52227  -0.49939
 Alpha  occ. eigenvalues --   -0.46539  -0.46073  -0.36783
 Alpha virt. eigenvalues --    0.03546   0.04304   0.04456   0.05899   0.06189
 Alpha virt. eigenvalues --    0.07068   0.09667   0.10493   0.11431   0.12459
 Alpha virt. eigenvalues --    0.13697   0.14398   0.15069   0.15920   0.16494

  Beta  occ. eigenvalues --  -84.46031 -20.59797 -20.59373 -20.58635 -20.51132
  Beta  occ. eigenvalues --  -11.31225 -11.28529  -6.90902  -4.45124  -4.44433
  Beta  occ. eigenvalues --   -4.44388  -1.56514  -1.48685  -1.48202  -1.39537
  Beta  occ. eigenvalues --   -0.98253  -0.90661  -0.80407  -0.73208  -0.71713
  Beta  occ. eigenvalues --   -0.68408  -0.65304  -0.64555  -0.63767  -0.58515
  Beta  occ. eigenvalues --   -0.57576  -0.53612  -0.53171  -0.52058  -0.49838
  Beta  occ. eigenvalues --   -0.46448  -0.46058
  Beta virt. eigenvalues --    0.03585   0.04318   0.04501   0.05892   0.06152
  Beta virt. eigenvalues --    0.07085   0.08106   0.10189   0.10714   0.11795
  Beta virt. eigenvalues --    0.13734   0.14463   0.14830   0.15852   0.16094

 Mulliken charges and spin densities:
               1          2
     1  C    0.388233   1.199886
     2  P    4.379776  -0.008086
     3  O   -1.547759  -0.002598
     4  O   -1.227325   0.001054
     5  H    0.312427   0.000672
     6  O   -1.430611   0.002164
     7  O   -1.477271  -0.008772
     8  C    0.221259   0.001531
     9  H   -0.009558  -0.000151
    10  H    0.176109   0.000289
    11  H    0.151858   0.000352
    12  H    0.072594  -0.095564
    13  H   -0.009733  -0.090778
 Sum of Mulliken charges =  -0.00000   1.00000

 Dipole moment (field-independent basis, Debye):
    X=              0.6145    Y=             -0.9139    Z=             -0.7967  Tot=              1.3593
                          Isotropic Fermi Contact Couplings
        Atom                 a.u.       MegaHertz       Gauss      10(-4) cm-1
     1  C(13)              0.24047     270.33525      96.46234      90.17413
     2  P(31)             -0.00121      -2.18439      -0.77944      -0.72863
     3  O(17)             -0.00138       0.83531       0.29806       0.27863
     4  O(17)              0.00061      -0.37151      -0.13256      -0.12392
     5  H(1)               0.00028       1.24671       0.44486       0.41586
     6  O(17)             -0.00147       0.89385       0.31895       0.29816
     7  O(17)              0.03149     -19.08648      -6.81053      -6.36657
     8  C(13)              0.00032       0.35834       0.12787       0.11953

 Normal termination of Gaussian 16 at Tue Apr  8 23:54:53 2025.
