 Gaussian 16, Revision C.01,

 ----------------------------------------------------------------------
 #t hf aug-cc-pvdz symm=none int=(grid=ultrafine) guess=(read,tcheck) s
 table=(opt,rrhf)
 ----------------------------------------------------------------------
 -----
 title
 -----
 Symbolic Z-matrix:
 Charge =  0 Multiplicity = 1

 SCF Done:  E(RHF) =  -846.809044794     A.U. after   12 cycles
 Normal termination of Gaussian 16 at Wed Apr  9 00:54:21 2025.
 Gaussian 16:  ES64L-G16RevC.01  3-Jul-2019

 ----------------------------------------------------------------------
 #t hf aug-cc-pvdz iop(5/13=1,5/36=2,99/5=2) pseudo=read geom=check gue
 ss=(read,tcheck) scf=(maxcycle=1)
 ----------------------------------------------------------------------
 -----
 title
 -----
 Structure from the checkpoint file:  "BDE49_nonexpt_99_mol1.chk"
 Charge =  0 Multiplicity = 1

                         Standard orientation:
 ---------------------------------------------------------------------
 Center     Atomic      Atomic             Coordinates (Angstroms)
 Number     Number       Type             X           Y           Z
 ---------------------------------------------------------------------
      1          5           0       -0.751266    0.800060    0.365337
      2          5           0        0.751267    0.800048   -0.365358
      3         16           0        2.021904   -0.352432    0.142316
      4          1           0        3.028995    0.050486   -0.655283
      5         16           0       -2.021915   -0.352411   -0.142331
      6          1           0       -3.028937    0.050390    0.655415
      7          1           0        1.025520    1.588136   -1.215787
      8          1           0       -1.025406    1.587942    1.215992
 ---------------------------------------------------------------------

 SCF Done:  E(RHF) =  -846.981003067     A.U. after    2 cycles

 The electronic state is 1-A.
 Alpha  occ. eigenvalues --  -93.95996 -93.95995  -8.24302  -8.24301  -7.61405
 Alpha  occ. eigenvalues --   -7.61380  -6.22128  -6.22128  -6.21968  -6.21967
 Alpha  occ. eigenvalues --   -6.21850  -6.21850  -1.03484  -1.02511  -0.74525
 Alpha  occ. eigenvalues --   -0.63253  -0.59089  -0.58312  -0.47232  -0.45735
 Alpha  occ. eigenvalues --   -0.44262  -0.40917  -0.40862
 Alpha virt. eigenvalues --    0.03371   0.03735   0.04366   0.04561   0.06714
 Alpha virt. eigenvalues --    0.06866   0.07356   0.08032   0.08893   0.09407
 Alpha virt. eigenvalues --    0.10174   0.10945   0.12925   0.13320   0.14436

 Mulliken charges:
               1
     1  B    0.142642
     2  B    0.142658
     3  S   -0.605338
     4  H    0.243875
     5  S   -0.605333
     6  H    0.243874
     7  H    0.218807
     8  H    0.218814
 Sum of Mulliken charges =  -0.00000

 Dipole moment (field-independent basis, Debye):
    X=              0.0000    Y=              1.1274    Z=              0.0000  Tot=              1.1274

 Test job not archived.
 1\1\GINC-SE112\SP\RHF\Aug-CC-pVDZ\B2H4S2\OHZDE\09-Apr-2025\0\\#t hf au
 g-cc-pvdz iop(5/13=1,5/36=2,99/5=2) pseudo=read geom=check guess=(read
 ,tcheck) scf=(maxcycle=1)\\title\\0,1\B,0,-0.751266,0.80006,0.365337\B
 ,0,0.751267,0.800048,-0.365358\S,0,2.021904,-0.352432,0.142316\H,0,3.0
 28995,0.050486,-0.655283\S,0,-2.021915,-0.352411,-0.142331\H,0,-3.0289
 37,0.05039,0.655415\H,0,1.02552,1.588136,-1.215787\H,0,-1.025406,1.587
 942,1.215992\\Version=ES64L-G16RevC.01\State=1-A\HF=-846.9810031\RMSD=
 1.686e-02\Dipole=0.0000103,0.4435691,0.000014\Quadrupole=3.2779843,-2.

 Normal termination of Gaussian 16 at Wed Apr  9 00:54:23 2025.
