 Gaussian 16, Revision C.01,

 ----------------------------------------------------------------------
 #t hf aug-cc-pvdz symm=none int=(grid=ultrafine) guess=(read,tcheck) s
 table=opt
 ----------------------------------------------------------------------
 -----
 title
 -----
 Symbolic Z-matrix:
 Charge =  0 Multiplicity = 2

 SCF Done:  E(UHF) =  -626.324789219     A.U. after   16 cycles
 Normal termination of Gaussian 16 at Tue Apr  8 23:47:19 2025.
 Gaussian 16:  ES64L-G16RevC.01  3-Jul-2019

 ----------------------------------------------------------------------
 #t hf aug-cc-pvdz iop(5/13=1,5/36=2,99/5=2) pseudo=read geom=check gue
 ss=(read,tcheck) scf=(maxcycle=1)
 ----------------------------------------------------------------------
 -----
 title
 -----
 Structure from the checkpoint file:  "BDE49_nonexpt_1802_mol2.chk"
 Charge =  0 Multiplicity = 2

                         Standard orientation:
 ---------------------------------------------------------------------
 Center     Atomic      Atomic             Coordinates (Angstroms)
 Number     Number       Type             X           Y           Z
 ---------------------------------------------------------------------
      1         14           0       -0.898914   -0.510769   -0.310509
      2          6           0        0.801178    0.101315    0.356845
      3          9           0       -2.016077    0.508619    0.258047
      4          9           0        1.184349    1.261909   -0.266758
      5          9           0        1.734904   -0.869003    0.064962
      6          1           0       -1.185253   -1.852976    0.262464
      7          1           0        0.834386    0.282121    1.437334
 ---------------------------------------------------------------------

 SCF Done:  E(UHF) =  -626.662011698     A.U. after    2 cycles

 The electronic state is 2-A.
 Alpha  occ. eigenvalues --  -69.61738 -26.48788 -26.48557 -26.47327 -11.41838
 Alpha  occ. eigenvalues --   -6.28400  -4.04131  -4.03445  -4.03225  -1.64498
 Alpha  occ. eigenvalues --   -1.58444  -1.58108  -0.96262  -0.80913  -0.76786
 Alpha  occ. eigenvalues --   -0.74339  -0.72799  -0.66926  -0.66035  -0.64774
 Alpha  occ. eigenvalues --   -0.61903  -0.61168  -0.58709  -0.48713  -0.38432
 Alpha virt. eigenvalues --    0.03710   0.04340   0.05175   0.06022   0.07869
 Alpha virt. eigenvalues --    0.10697   0.11288   0.12427   0.13988   0.15188
 Alpha virt. eigenvalues --    0.16156   0.20096   0.21007   0.21818   0.24438

  Beta  occ. eigenvalues --  -69.61156 -26.48799 -26.48592 -26.47027 -11.41662
  Beta  occ. eigenvalues --   -6.27470  -4.03088  -4.02868  -4.02026  -1.64505
  Beta  occ. eigenvalues --   -1.58183  -1.57638  -0.95533  -0.78621  -0.76646
  Beta  occ. eigenvalues --   -0.74335  -0.72037  -0.66002  -0.64832  -0.64425
  Beta  occ. eigenvalues --   -0.61239  -0.60415  -0.57393  -0.47298
  Beta virt. eigenvalues --    0.00667   0.03805   0.04782   0.05512   0.06897
  Beta virt. eigenvalues --    0.08605   0.10919   0.11391   0.13639   0.14745
  Beta virt. eigenvalues --    0.16830   0.18580   0.21593   0.21910   0.22604

 Mulliken charges and spin densities:
               1          2
     1  Si   1.375557   0.865186
     2  C    0.894586   0.053650
     3  F   -0.772043   0.007262
     4  F   -0.669429  -0.008087
     5  F   -0.662030  -0.003360
     6  H   -0.168393   0.086274
     7  H    0.001752  -0.000925
 Sum of Mulliken charges =  -0.00000   1.00000

 Dipole moment (field-independent basis, Debye):
    X=             -0.7288    Y=             -1.1278    Z=              0.6199  Tot=              1.4790
                          Isotropic Fermi Contact Couplings
        Atom                 a.u.       MegaHertz       Gauss      10(-4) cm-1
     1  Si(29)             0.79279    -704.57262    -251.40903    -235.02013
     2  C(13)              0.02541      28.56657      10.19326       9.52878
     3  F(19)              0.04571     192.30247      68.61830      64.14520
     4  F(19)             -0.00361     -15.17047      -5.41320      -5.06033
     5  F(19)             -0.00224      -9.42980      -3.36479      -3.14544
     6  H(1)               0.02015      90.08739      32.14542      30.04992
     7  H(1)               0.00499      22.31478       7.96247       7.44341
 --------------------------------------------------------

 Normal termination of Gaussian 16 at Tue Apr  8 23:47:22 2025.
