 Gaussian 16, Revision C.01,

 ----------------------------------------------------------------------
 #t hf aug-cc-pvdz symm=none int=(grid=ultrafine) guess=(read,tcheck) s
 table=opt
 ----------------------------------------------------------------------
 -----
 title
 -----
 Symbolic Z-matrix:
 Charge =  0 Multiplicity = 2

 SCF Done:  E(UHF) =  -841.360417902     A.U. after   24 cycles
 Normal termination of Gaussian 16 at Tue Apr  8 23:45:53 2025.
 Gaussian 16:  ES64L-G16RevC.01  3-Jul-2019

 ----------------------------------------------------------------------
 #t hf aug-cc-pvdz iop(5/13=1,5/36=2,99/5=2) pseudo=read geom=check gue
 ss=(read,tcheck) scf=(maxcycle=1)
 ----------------------------------------------------------------------
 -----
 title
 -----
 Structure from the checkpoint file:  "BDE49_nonexpt_1762_mol2.chk"
 Charge =  0 Multiplicity = 2

                         Standard orientation:
 ---------------------------------------------------------------------
 Center     Atomic      Atomic             Coordinates (Angstroms)
 Number     Number       Type             X           Y           Z
 ---------------------------------------------------------------------
      1          6           0        1.561261   -0.110544    0.029167
      2         14           0       -0.012738    0.828489   -0.123375
      3          7           0        2.585252   -0.651731    0.024500
      4         17           0       -1.600484   -0.482182    0.024385
      5          1           0       -0.077769    1.823633    0.966209
 ---------------------------------------------------------------------

 SCF Done:  E(UHF) =  -841.549728721     A.U. after    2 cycles

 The electronic state is 2-A.
 Alpha  occ. eigenvalues -- -105.59262 -69.64216 -15.55333 -11.27911 -10.64260
 Alpha  occ. eigenvalues --   -7.81201  -7.80863  -7.80781  -6.30829  -4.06630
 Alpha  occ. eigenvalues --   -4.05918  -4.05776  -1.26419  -1.09188  -0.83886
 Alpha  occ. eigenvalues --   -0.67359  -0.61431  -0.58743  -0.56275  -0.53735
 Alpha  occ. eigenvalues --   -0.52330  -0.50015  -0.39565
 Alpha virt. eigenvalues --    0.03401   0.03591   0.04887   0.05213   0.07619
 Alpha virt. eigenvalues --    0.07955   0.10205   0.11493   0.12817   0.13142
 Alpha virt. eigenvalues --    0.14288   0.15460   0.17007   0.18083   0.18499

  Beta  occ. eigenvalues -- -105.59166 -69.63585 -15.54043 -11.28647 -10.64157
  Beta  occ. eigenvalues --   -7.81035  -7.80729  -7.80596  -6.29825  -4.05472
  Beta  occ. eigenvalues --   -4.05344  -4.04464  -1.24104  -1.08295  -0.81580
  Beta  occ. eigenvalues --   -0.65391  -0.60028  -0.57602  -0.52704  -0.51374
  Beta  occ. eigenvalues --   -0.50187  -0.49655
  Beta virt. eigenvalues --   -0.01791   0.03941   0.04161   0.05044   0.05630
  Beta virt. eigenvalues --    0.08810   0.08963   0.11078   0.12684   0.13650
  Beta virt. eigenvalues --    0.13913   0.14215   0.16560   0.17361   0.18536

 Mulliken charges and spin densities:
               1          2
     1  C   -1.208945  -0.391997
     2  Si   1.141259   0.879940
     3  N    0.710258   0.395156
     4  Cl  -0.487853   0.041146
     5  H   -0.154720   0.075755
 Sum of Mulliken charges =  -0.00000   1.00000

 Dipole moment (field-independent basis, Debye):
    X=             -2.5459    Y=              2.6962    Z=             -0.1059  Tot=              3.7097
                          Isotropic Fermi Contact Couplings
        Atom                 a.u.       MegaHertz       Gauss      10(-4) cm-1
     1  C(13)             -0.03448     -38.75700     -13.82946     -12.92794
     2  Si(29)             0.87476    -777.42705    -277.40530    -259.32175
     3  N(14)              0.09638      31.14077      11.11180      10.38744
     4  Cl(35)             0.05301      23.24361       8.29390       7.75323
     5  H(1)               0.01512      67.56502      24.10888      22.53727
 --------------------------------------------------------
       Center         ----  Spin Dipole Couplings  ----
                      3XX-RR        3YY-RR        3ZZ-RR

 Normal termination of Gaussian 16 at Tue Apr  8 23:45:55 2025.
