 Gaussian 16, Revision C.01,

 ----------------------------------------------------------------------
 #t hf aug-cc-pvdz symm=none int=(grid=ultrafine) guess=(read,tcheck) s
 table=(opt,rrhf)
 ----------------------------------------------------------------------
 -----
 title
 -----
 Symbolic Z-matrix:
 Charge =  0 Multiplicity = 1

 SCF Done:  E(RHF) =  -899.645757011     A.U. after   12 cycles
 Normal termination of Gaussian 16 at Wed Apr  9 00:49:02 2025.
 Gaussian 16:  ES64L-G16RevC.01  3-Jul-2019

 ----------------------------------------------------------------------
 #t hf aug-cc-pvdz iop(5/13=1,5/36=2,99/5=2) pseudo=read geom=check gue
 ss=(read,tcheck) scf=(maxcycle=1)
 ----------------------------------------------------------------------
 -----
 title
 -----
 Structure from the checkpoint file:  "BDE49_nonexpt_882_mol1.chk"
 Charge =  0 Multiplicity = 1

                         Standard orientation:
 ---------------------------------------------------------------------
 Center     Atomic      Atomic             Coordinates (Angstroms)
 Number     Number       Type             X           Y           Z
 ---------------------------------------------------------------------
      1          5           0       -0.166753   -0.101252    0.000192
      2          6           0        0.980267   -1.187875    0.000075
      3          6           0        2.443885   -0.726109    0.000008
      4          1           0        2.679030   -0.127205    0.884569
      5          1           0        2.678925   -0.127128   -0.884529
      6          1           0        3.123989   -1.581929   -0.000070
      7         16           0        0.081274    1.698992   -0.000025
      8         16           0       -1.925200   -0.590850   -0.000056
      9          1           0        0.804656   -1.837897   -0.868069
     10          1           0        0.804756   -1.837970    0.868184
     11          1           0        1.424293    1.692422   -0.000104
     12          1           0       -1.723973   -1.920390   -0.000136
 ---------------------------------------------------------------------

 SCF Done:  E(RHF) =  -899.881548308     A.U. after    2 cycles

 The electronic state is 1-A.
 Alpha  occ. eigenvalues --  -93.95294 -93.95067 -11.23964 -11.23213  -8.23616
 Alpha  occ. eigenvalues --   -8.23373  -7.64986  -6.21446  -6.21300  -6.21212
 Alpha  occ. eigenvalues --   -6.21147  -6.21066  -6.20905  -1.06647  -1.02025
 Alpha  occ. eigenvalues --   -1.00102  -0.86551  -0.66738  -0.62321  -0.62217
 Alpha  occ. eigenvalues --   -0.56149  -0.53512  -0.51688  -0.51490  -0.46248
 Alpha  occ. eigenvalues --   -0.44508  -0.43011  -0.37266
 Alpha virt. eigenvalues --    0.03266   0.03799   0.04117   0.04495   0.06312
 Alpha virt. eigenvalues --    0.06771   0.07426   0.07738   0.08178   0.10100
 Alpha virt. eigenvalues --    0.10509   0.10761   0.12557   0.13164   0.15167

 Mulliken charges:
               1
     1  B    1.027666
     2  C   -0.222529
     3  C   -0.520460
     4  H    0.171200
     5  H    0.171202
     6  H    0.052357
     7  S   -0.696318
     8  S   -0.810704
     9  H    0.201135
    10  H    0.201256
    11  H    0.210796
    12  H    0.214400
 Sum of Mulliken charges =  -0.00000

 Dipole moment (field-independent basis, Debye):
    X=              2.1040    Y=             -1.7682    Z=              0.0001  Tot=              2.7484

 Test job not archived.
 1\1\GINC-SE284\SP\RHF\Aug-CC-pVDZ\C2H7B1S2\OHZDE\09-Apr-2025\0\\#t hf
 aug-cc-pvdz iop(5/13=1,5/36=2,99/5=2) pseudo=read geom=check guess=(re
 ad,tcheck) scf=(maxcycle=1)\\title\\0,1\B,0,0.166753,-0.101252,-0.0001
 92\C,0,-0.980267,-1.187875,-0.000075\C,0,-2.443885,-0.726108,-0.000008
 \H,0,-2.67903,-0.127204,-0.884569\H,0,-2.678925,-0.127127,0.884529\H,0
 ,-3.123989,-1.581928,0.00007\S,0,-0.081273,1.698992,0.000025\S,0,1.925
 2,-0.590851,0.000056\H,0,-0.804657,-1.837897,0.868069\H,0,-0.804757,-1
 .83797,-0.868184\H,0,-1.424292,1.692423,0.000104\H,0,1.723972,-1.92039

 Normal termination of Gaussian 16 at Wed Apr  9 00:49:07 2025.
