 Gaussian 16, Revision C.01,

 ----------------------------------------------------------------------
 #t hf aug-cc-pvdz symm=none int=(grid=ultrafine) guess=(read,tcheck) s
 table=(opt,rrhf)
 ----------------------------------------------------------------------
 -----
 title
 -----
 Symbolic Z-matrix:
 Charge =  0 Multiplicity = 1

 SCF Done:  E(RHF) =  -373.127162168     A.U. after   14 cycles

 1\1\GINC-SE102\Stability\RHF\Aug-CC-pVDZ\C9H13B1\OHZDE\09-Apr-2025\0\\
 #t hf aug-cc-pvdz symm=none int=(grid=ultrafine) guess=(read,tcheck) s
 table=(opt,rrhf)\\title\\0,1\B,0,2.235568,0.000126,0.11785\C,0,1.88609
 5,-0.000358,1.64862\C,0,-0.346463,0.000154,-0.553994\C,0,3.737457,0.00
 0017,-0.356167\H,0,4.260601,-0.870059,0.062988\H,0,4.260833,0.869775,0
 .063352\H,0,3.889168,0.000221,-1.4391\H,0,1.257436,0.865784,1.89353\H,
 0,2.751088,-0.000613,2.316543\H,0,1.257353,-0.866597,1.892979\C,0,-1.0
 33906,-1.199181,-0.330972\C,0,-1.034005,1.199344,-0.330499\C,0,-2.3572

 Normal termination of Gaussian 16 at Wed Apr  9 00:30:11 2025.
 Gaussian 16:  ES64L-G16RevC.01  3-Jul-2019

 ----------------------------------------------------------------------
 #t hf aug-cc-pvdz iop(5/13=1,5/36=2,99/5=2) pseudo=read geom=check gue
 ss=(read,tcheck) scf=(maxcycle=1)
 ----------------------------------------------------------------------
 -----
 title
 -----
 Structure from the checkpoint file:  "BDE49_nonexpt_298_mol1.chk"
 Charge =  0 Multiplicity = 1

                         Standard orientation:
 ---------------------------------------------------------------------
 Center     Atomic      Atomic             Coordinates (Angstroms)
 Number     Number       Type             X           Y           Z
 ---------------------------------------------------------------------
      1          5           0        2.235568    0.000126    0.117850
      2          6           0        1.886095   -0.000358    1.648620
      3          6           0       -0.346463    0.000154   -0.553994
      4          6           0        3.737457    0.000017   -0.356167
      5          1           0        4.260601   -0.870059    0.062988
      6          1           0        4.260833    0.869775    0.063352
      7          1           0        3.889168    0.000221   -1.439100
      8          1           0        1.257436    0.865784    1.893530
      9          1           0        2.751088   -0.000613    2.316543
     10          1           0        1.257353   -0.866597    1.892979
     11          6           0       -1.033906   -1.199181   -0.330972
     12          6           0       -1.034005    1.199344   -0.330499
     13          6           0       -2.357298    1.202097    0.104582
     14          6           0       -3.025603   -0.000130    0.325417
     15          6           0       -2.357199   -1.202215    0.104108
     16          1           0       -2.868029   -2.145346    0.265860
     17          1           0       -0.527300   -2.143534   -0.506693
     18          1           0       -2.868206    2.145122    0.266706
     19          1           0       -4.056332   -0.000239    0.661375
     20          1           0       -0.527476    2.143808   -0.505848
     21          6           0        1.097158    0.000301   -0.990950
     22          1           0        1.297774    0.865364   -1.640728
     23          1           0        1.297840   -0.864482   -1.641082
 ---------------------------------------------------------------------

 SCF Done:  E(RHF) =  -373.525451021     A.U. after    2 cycles

 The electronic state is 1-A.
 Alpha  occ. eigenvalues --  -11.24454 -11.23932 -11.23908 -11.23359 -11.23288
 Alpha  occ. eigenvalues --  -11.23288 -11.21241 -11.20138 -11.19630  -7.57973
 Alpha  occ. eigenvalues --   -1.15126  -1.04481  -1.00964  -0.97645  -0.92540
 Alpha  occ. eigenvalues --   -0.92109  -0.82963  -0.80476  -0.70399  -0.64592
 Alpha  occ. eigenvalues --   -0.64063  -0.62491  -0.59246  -0.58657  -0.58192
 Alpha  occ. eigenvalues --   -0.56408  -0.53678  -0.53249  -0.52998  -0.51096
 Alpha  occ. eigenvalues --   -0.49772  -0.49198  -0.45262  -0.45025  -0.34125
 Alpha  occ. eigenvalues --   -0.32552
 Alpha virt. eigenvalues --    0.03087   0.03177   0.03434   0.03930   0.04784
 Alpha virt. eigenvalues --    0.04826   0.06104   0.06556   0.06919   0.07222
 Alpha virt. eigenvalues --    0.07895   0.08599   0.09630   0.09835   0.10144

 Mulliken charges:
               1
     1  B    0.844221
     2  C   -0.455621
     3  C    1.341550
     4  C   -0.429916
     5  H    0.098891
     6  H    0.098944
     7  H   -0.089226
     8  H    0.115214
     9  H   -0.135412
    10  H    0.115173
    11  C    0.319332
    12  C    0.319310
    13  C   -0.054958
    14  C    0.220146
    15  C   -0.054973
    16  H   -0.246997
    17  H   -0.379732
    18  H   -0.246995
    19  H   -0.219325
    20  H   -0.379727
    21  C   -1.010451
    22  H    0.115332
    23  H    0.115217
 Sum of Mulliken charges =  -0.00000

 Dipole moment (field-independent basis, Debye):
    X=              0.5539    Y=              0.0002    Z=             -0.0222  Tot=              0.5543

 Test job not archived.
 1\1\GINC-SE102\SP\RHF\Aug-CC-pVDZ\C9H13B1\OHZDE\09-Apr-2025\0\\#t hf a
 ug-cc-pvdz iop(5/13=1,5/36=2,99/5=2) pseudo=read geom=check guess=(rea
 d,tcheck) scf=(maxcycle=1)\\title\\0,1\B,0,2.235568,0.000126,0.11785\C
 ,0,1.886095,-0.000358,1.64862\C,0,-0.346463,0.000154,-0.553994\C,0,3.7
 37457,0.000017,-0.356167\H,0,4.260601,-0.870059,0.062988\H,0,4.260833,
 0.869775,0.063352\H,0,3.889168,0.000221,-1.4391\H,0,1.257436,0.865784,
 1.89353\H,0,2.751088,-0.000613,2.316543\H,0,1.257353,-0.866597,1.89297
 9\C,0,-1.033906,-1.199181,-0.330972\C,0,-1.034005,1.199344,-0.330499\C

 Normal termination of Gaussian 16 at Wed Apr  9 00:30:26 2025.
