 Gaussian 16, Revision C.01,

 ----------------------------------------------------------------------
 #t hf aug-cc-pvdz symm=none int=(grid=ultrafine) guess=(read,tcheck) s
 table=opt
 ----------------------------------------------------------------------
 -----
 title
 -----
 Symbolic Z-matrix:
 Charge =  0 Multiplicity = 2

 SCF Done:  E(UHF) =  -625.128802184     A.U. after   18 cycles

 1\1\GINC-SE453\Stability\UHF\Aug-CC-pVDZ\C1F3Si1\OHZDE\08-Apr-2025\0\\
 #t hf aug-cc-pvdz symm=none int=(grid=ultrafine) guess=(read,tcheck) s
 table=opt\\title\\0,2\Si,0,-1.008672,-0.76471,0.000008\C,0,0.727006,0.
 000084,0.000003\F,0,-1.798216,0.662364,-0.000009\F,0,1.821002,-0.74850
 7,-0.000008\F,0,1.061588,1.275636,0.000004\\Version=ES64L-G16RevC.01\H
 F=-625.1288022\S2=0.764466\S2-1=0.\S2A=0.750126\RMSD=2.853e-09\Dipole=
 -0.1070129,-0.469339,0.0000073\Quadrupole=-1.8989746,-1.4625723,3.3615
 469,0.9296823,-0.0000072,0.0000305\PG=Unknown\\@

 Normal termination of Gaussian 16 at Tue Apr  8 23:56:20 2025.
 Gaussian 16:  ES64L-G16RevC.01  3-Jul-2019

 ----------------------------------------------------------------------
 #t hf aug-cc-pvdz iop(5/13=1,5/36=2,99/5=2) pseudo=read geom=check gue
 ss=(read,tcheck) scf=(maxcycle=1)
 ----------------------------------------------------------------------
 -----
 title
 -----
 Structure from the checkpoint file:  "BDE49_nonexpt_2000_mol2.chk"
 Charge =  0 Multiplicity = 2

                         Standard orientation:
 ---------------------------------------------------------------------
 Center     Atomic      Atomic             Coordinates (Angstroms)
 Number     Number       Type             X           Y           Z
 ---------------------------------------------------------------------
      1         14           0        1.008672   -0.764710   -0.000008
      2          6           0       -0.727006    0.000084   -0.000003
      3          9           0        1.798216    0.662364    0.000009
      4          9           0       -1.821002   -0.748507    0.000008
      5          9           0       -1.061588    1.275636   -0.000004
 ---------------------------------------------------------------------

 SCF Done:  E(UHF) =  -625.457575387     A.U. after    2 cycles

 The electronic state is 2-A.
 Alpha  occ. eigenvalues --  -69.62357 -26.52161 -26.51992 -26.46900 -11.43427
 Alpha  occ. eigenvalues --   -6.28481  -4.03499  -4.03408  -4.03050  -1.69851
 Alpha  occ. eigenvalues --   -1.62593  -1.57623  -0.96703  -0.81915  -0.78737
 Alpha  occ. eigenvalues --   -0.77719  -0.73291  -0.68698  -0.65620  -0.64903
 Alpha  occ. eigenvalues --   -0.64032  -0.60750  -0.40717  -0.38558
 Alpha virt. eigenvalues --    0.01627   0.04826   0.05623   0.06045   0.08280
 Alpha virt. eigenvalues --    0.11281   0.11505   0.11801   0.14832   0.16608
 Alpha virt. eigenvalues --    0.20485   0.21887   0.23536   0.27194   0.27972

  Beta  occ. eigenvalues --  -69.62328 -26.51755 -26.51581 -26.46838 -11.41428
  Beta  occ. eigenvalues --   -6.28435  -4.03410  -4.03236  -4.03122  -1.68416
  Beta  occ. eigenvalues --   -1.61617  -1.57472  -0.91579  -0.80689  -0.78186
  Beta  occ. eigenvalues --   -0.73070  -0.71441  -0.65648  -0.64528  -0.63910
  Beta  occ. eigenvalues --   -0.63838  -0.58970  -0.39766
  Beta virt. eigenvalues --   -0.01214   0.04898   0.05686   0.06289   0.06900
  Beta virt. eigenvalues --    0.11416   0.11446   0.11749   0.14980   0.16139
  Beta virt. eigenvalues --    0.17460   0.21152   0.22644   0.24043   0.27349

 Mulliken charges and spin densities:
               1          2
     1  Si   1.071210   0.046640
     2  C    0.879174   0.883353
     3  F   -0.675842   0.017750
     4  F   -0.631254   0.021689
     5  F   -0.643288   0.030567
 Sum of Mulliken charges =  -0.00000   1.00000

 Dipole moment (field-independent basis, Debye):
    X=              0.1664    Y=             -0.9638    Z=             -0.0000  Tot=              0.9781
                          Isotropic Fermi Contact Couplings
        Atom                 a.u.       MegaHertz       Gauss      10(-4) cm-1
     1  Si(29)             0.01444     -12.82884      -4.57765      -4.27924
     2  C(13)              0.17237     193.78063      69.14575      64.63826
     3  F(19)              0.00336      14.14000       5.04550       4.71660
     4  F(19)              0.05128     215.73961      76.98126      71.96299
     5  F(19)              0.05488     230.91471      82.39611      77.02486
 --------------------------------------------------------
       Center         ----  Spin Dipole Couplings  ----
                      3XX-RR        3YY-RR        3ZZ-RR

 Normal termination of Gaussian 16 at Tue Apr  8 23:56:22 2025.
