 Gaussian 16, Revision C.01,

 ----------------------------------------------------------------------
 #t hf aug-cc-pvdz symm=none int=(grid=ultrafine) guess=(read,tcheck) s
 table=(opt,rrhf)
 ----------------------------------------------------------------------
 -----
 title
 -----
 Symbolic Z-matrix:
 Charge =  0 Multiplicity = 1

 SCF Done:  E(RHF) =  -457.919010651     A.U. after   11 cycles
 Normal termination of Gaussian 16 at Tue Apr  8 23:58:21 2025.
 Gaussian 16:  ES64L-G16RevC.01  3-Jul-2019

 ----------------------------------------------------------------------
 #t hf aug-cc-pvdz iop(5/13=1,5/36=2,99/5=2) pseudo=read geom=check gue
 ss=(read,tcheck) scf=(maxcycle=1)
 ----------------------------------------------------------------------
 -----
 title
 -----
 Structure from the checkpoint file:  "BDE49_nonexpt_2063_mol1.chk"
 Charge =  0 Multiplicity = 1

                         Standard orientation:
 ---------------------------------------------------------------------
 Center     Atomic      Atomic             Coordinates (Angstroms)
 Number     Number       Type             X           Y           Z
 ---------------------------------------------------------------------
      1         14           0        1.594109   -0.000074    0.000018
      2          6           0       -1.312023    0.000078   -0.000002
      3          8           0       -2.481114   -0.000152    0.000035
      4          7           0       -0.117209    0.000332   -0.000095
      5          1           0        2.074955    1.223249   -0.672757
      6          1           0        2.074426   -1.194577   -0.723048
      7          1           0        2.074608   -0.029218    1.395953
 ---------------------------------------------------------------------

 SCF Done:  E(RHF) =  -458.112817471     A.U. after    2 cycles

 The electronic state is 1-A.
 Alpha  occ. eigenvalues --  -69.58222 -20.59727 -15.52209 -11.41934  -6.24832
 Alpha  occ. eigenvalues --   -4.00335  -4.00174  -4.00174  -1.54453  -1.26947
 Alpha  occ. eigenvalues --   -0.89042  -0.73263  -0.66735  -0.66564  -0.66564
 Alpha  occ. eigenvalues --   -0.53532  -0.53532  -0.46023  -0.46023
 Alpha virt. eigenvalues --    0.03410   0.04035   0.05559   0.05559   0.08191
 Alpha virt. eigenvalues --    0.08191   0.09684   0.10277   0.10278   0.12274
 Alpha virt. eigenvalues --    0.13916   0.16498   0.16499   0.17120   0.20416

 Mulliken charges:
               1
     1  Si   0.802594
     2  C    0.050528
     3  O   -0.827664
     4  N    0.483276
     5  H   -0.169557
     6  H   -0.169590
     7  H   -0.169586
 Sum of Mulliken charges =   0.00000

 Dipole moment (field-independent basis, Debye):
    X=              2.0832    Y=             -0.0003    Z=              0.0001  Tot=              2.0832

 Test job not archived.
 1\1\GINC-SE332\SP\RHF\Aug-CC-pVDZ\C1H3N1O1Si1\OHZDE\08-Apr-2025\0\\#t
 hf aug-cc-pvdz iop(5/13=1,5/36=2,99/5=2) pseudo=read geom=check guess=
 (read,tcheck) scf=(maxcycle=1)\\title\\0,1\Si,0,-1.594109,-0.000073,-0
 .000018\C,0,1.312023,0.000078,0.000003\O,0,2.481114,-0.000152,-0.00003
 6\N,0,0.117209,0.000332,0.000097\H,0,-2.074955,1.218824,0.680742\H,0,-
 2.074426,-1.199279,0.715222\H,0,-2.074608,-0.020089,-1.396114\\Version
 =ES64L-G16RevC.01\State=1-A\HF=-458.1128175\RMSD=1.304e-02\Dipole=-0.8
 196007,-0.0001107,-0.0000585\Quadrupole=-1.9217243,0.9608739,0.9608504

 Normal termination of Gaussian 16 at Tue Apr  8 23:58:23 2025.
