 Gaussian 16, Revision C.01,

 ----------------------------------------------------------------------
 #t hf aug-cc-pvdz symm=none int=(grid=ultrafine) guess=(read,tcheck) s
 table=(opt,rrhf)
 ----------------------------------------------------------------------
 -----
 title
 -----
 Symbolic Z-matrix:
 Charge =  0 Multiplicity = 1

 SCF Done:  E(RHF) =  -788.178353963     A.U. after   13 cycles
 Normal termination of Gaussian 16 at Wed Apr  9 00:11:22 2025.
 Gaussian 16:  ES64L-G16RevC.01  3-Jul-2019

 ----------------------------------------------------------------------
 #t hf aug-cc-pvdz iop(5/13=1,5/36=2,99/5=2) pseudo=read geom=check gue
 ss=(read,tcheck) scf=(maxcycle=1)
 ----------------------------------------------------------------------
 -----
 title
 -----
 Structure from the checkpoint file:  "BDE49_nonexpt_2372_mol1.chk"
 Charge =  0 Multiplicity = 1

                         Standard orientation:
 ---------------------------------------------------------------------
 Center     Atomic      Atomic             Coordinates (Angstroms)
 Number     Number       Type             X           Y           Z
 ---------------------------------------------------------------------
      1         14           0       -2.527894   -0.467107   -0.402406
      2         14           0       -0.795866    0.938386    0.351638
      3          6           0        0.847707   -0.065123    0.307889
      4          1           0       -1.014614    1.348386    1.758070
      5          1           0       -0.701889    2.168719   -0.483017
      6          8           0        0.877666   -1.135552    0.903239
      7          7           0        1.908723    0.439250   -0.385960
      8          1           0       -2.209884   -0.966219   -1.762066
      9          6           0        3.191810   -0.245130   -0.481448
     10          1           0        3.096978   -1.190036    0.050654
     11          1           0        3.989055    0.345299   -0.021108
     12          1           0        3.452360   -0.444248   -1.524509
     13          1           0       -3.800112    0.293405   -0.467629
     14          1           0       -2.699294   -1.616499    0.513230
     15          1           0        1.800548    1.334482   -0.835706
 ---------------------------------------------------------------------

 SCF Done:  E(RHF) =  -788.458807204     A.U. after    2 cycles

 The electronic state is 1-A.
 Alpha  occ. eigenvalues --  -69.53914 -69.53002 -20.51243 -15.53392 -11.34606
 Alpha  occ. eigenvalues --  -11.27245  -6.21139  -6.20194  -3.96474  -3.96455
 Alpha  occ. eigenvalues --   -3.96438  -3.95550  -3.95547  -3.95539  -1.45350
 Alpha  occ. eigenvalues --   -1.23866  -0.97631  -0.83328  -0.80263  -0.73524
 Alpha  occ. eigenvalues --   -0.67040  -0.65305  -0.64170  -0.56525  -0.56066
 Alpha  occ. eigenvalues --   -0.54851  -0.50876  -0.49156  -0.48125  -0.42439
 Alpha  occ. eigenvalues --   -0.41585  -0.39611
 Alpha virt. eigenvalues --    0.02897   0.03894   0.04262   0.05089   0.05445
 Alpha virt. eigenvalues --    0.06276   0.06499   0.07237   0.07391   0.08210
 Alpha virt. eigenvalues --    0.09181   0.09551   0.09993   0.10517   0.11099

 Mulliken charges:
               1
     1  Si   0.340700
     2  Si   0.613955
     3  C    0.181765
     4  H   -0.146029
     5  H   -0.155259
     6  O   -1.144970
     7  N    0.548250
     8  H   -0.099713
     9  C   -0.306919
    10  H    0.066299
    11  H    0.132859
    12  H    0.126461
    13  H   -0.136803
    14  H   -0.089696
    15  H    0.069100
 Sum of Mulliken charges =  -0.00000

 Dipole moment (field-independent basis, Debye):
    X=              0.8865    Y=              2.5458    Z=             -1.8697  Tot=              3.2806

 Test job not archived.
 1\1\GINC-SE126\SP\RHF\Aug-CC-pVDZ\C2H9N1O1Si2\OHZDE\09-Apr-2025\0\\#t
 hf aug-cc-pvdz iop(5/13=1,5/36=2,99/5=2) pseudo=read geom=check guess=
 (read,tcheck) scf=(maxcycle=1)\\title\\0,1\Si,0,-2.527894,-0.467107,-0
 .402406\Si,0,-0.795866,0.938386,0.351638\C,0,0.847707,-0.065123,0.3078
 89\H,0,-1.014614,1.348386,1.75807\H,0,-0.701889,2.168719,-0.483017\O,0
 ,0.877666,-1.135552,0.903239\N,0,1.908723,0.43925,-0.38596\H,0,-2.2098
 84,-0.966219,-1.762066\C,0,3.19181,-0.24513,-0.481448\H,0,3.096978,-1.
 190036,0.050654\H,0,3.989055,0.345299,-0.021108\H,0,3.45236,-0.444248,

 Normal termination of Gaussian 16 at Wed Apr  9 00:11:28 2025.
