 Gaussian 16, Revision C.01,

 ----------------------------------------------------------------------
 #t hf aug-cc-pvdz symm=none int=(grid=ultrafine) guess=(read,tcheck) s
 table=(opt,rrhf)
 ----------------------------------------------------------------------
 -----
 title
 -----
 Symbolic Z-matrix:
 Charge =  0 Multiplicity = 1

 SCF Done:  E(RHF) =  -846.421959439     A.U. after   14 cycles
 Normal termination of Gaussian 16 at Wed Apr  9 00:01:57 2025.
 Gaussian 16:  ES64L-G16RevC.01  3-Jul-2019

 ----------------------------------------------------------------------
 #t hf aug-cc-pvdz iop(5/13=1,5/36=2,99/5=2) pseudo=read geom=check gue
 ss=(read,tcheck) scf=(maxcycle=1)
 ----------------------------------------------------------------------
 -----
 title
 -----
 Structure from the checkpoint file:  "BDE49_nonexpt_2123_mol1.chk"
 Charge =  0 Multiplicity = 1

                         Standard orientation:
 ---------------------------------------------------------------------
 Center     Atomic      Atomic             Coordinates (Angstroms)
 Number     Number       Type             X           Y           Z
 ---------------------------------------------------------------------
      1         14           0        2.121960    0.016674    0.448418
      2          7           0        0.372433   -0.423089    0.275035
      3          7           0       -0.372371    0.422579   -0.275810
      4         14           0       -2.122068   -0.016818   -0.448399
      5          6           0       -2.538231   -1.701772    0.250372
      6          1           0       -1.912390   -2.473874   -0.203476
      7          1           0       -3.586637   -1.949298    0.058043
      8          1           0       -2.369016   -1.731794    1.329872
      9          6           0        2.537947    1.701994   -0.249575
     10          1           0        2.369059    1.732405   -1.329117
     11          1           0        3.586236    1.949688   -0.056828
     12          1           0        1.911784    2.473767    0.204385
     13          6           0        3.079554   -1.372056   -0.368953
     14          1           0        2.924840   -1.373244   -1.451840
     15          1           0        2.762941   -2.342640    0.020911
     16          1           0        4.151945   -1.263847   -0.181635
     17          6           0       -3.079120    1.372465    0.368685
     18          1           0       -2.924075    1.374054    1.451523
     19          1           0       -4.151595    1.264438    0.181740
     20          1           0       -2.762401    2.342819   -0.021667
     21          1           0        2.341351   -0.019995    1.916765
     22          1           0       -2.341866    0.019307   -1.916691
 ---------------------------------------------------------------------

 SCF Done:  E(RHF) =  -846.773959540     A.U. after    2 cycles

 The electronic state is 1-A.
 Alpha  occ. eigenvalues --  -69.53056 -69.53055 -15.53696 -15.53164 -11.21621
 Alpha  occ. eigenvalues --  -11.21618 -11.21337 -11.21325  -6.20027  -6.20005
 Alpha  occ. eigenvalues --   -3.95374  -3.95373  -3.95312  -3.95312  -3.95305
 Alpha  occ. eigenvalues --   -3.95303  -1.31357  -0.97582  -0.97229  -0.94098
 Alpha  occ. eigenvalues --   -0.92861  -0.89867  -0.73386  -0.67744  -0.61143
 Alpha  occ. eigenvalues --   -0.60888  -0.57937  -0.57869  -0.56032  -0.56012
 Alpha  occ. eigenvalues --   -0.55329  -0.55180  -0.55060  -0.54225  -0.53720
 Alpha  occ. eigenvalues --   -0.46661  -0.45349  -0.45175  -0.44523  -0.36742
 Alpha virt. eigenvalues --    0.03223   0.04043   0.04227   0.04625   0.04682
 Alpha virt. eigenvalues --    0.04906   0.05037   0.05493   0.05905   0.07155
 Alpha virt. eigenvalues --    0.07711   0.08101   0.08756   0.09010   0.09715

 Mulliken charges:
               1
     1  Si   1.860979
     2  N   -0.476090
     3  N   -0.476203
     4  Si   1.860987
     5  C   -0.681120
     6  H    0.010761
     7  H    0.005795
     8  H    0.132168
     9  C   -0.681119
    10  H    0.132186
    11  H    0.005784
    12  H    0.010753
    13  C   -0.619093
    14  H    0.101566
    15  H   -0.008595
    16  H   -0.008567
    17  C   -0.619214
    18  H    0.101563
    19  H   -0.008547
    20  H   -0.008564
    21  H   -0.317725
    22  H   -0.317706
 Sum of Mulliken charges =   0.00000

 Dipole moment (field-independent basis, Debye):
    X=             -0.0000    Y=              0.0007    Z=              0.0011  Tot=              0.0013

 Test job not archived.
 1\1\GINC-SE073\SP\RHF\Aug-CC-pVDZ\C4H14N2Si2\OHZDE\09-Apr-2025\0\\#t h
 f aug-cc-pvdz iop(5/13=1,5/36=2,99/5=2) pseudo=read geom=check guess=(
 read,tcheck) scf=(maxcycle=1)\\title\\0,1\Si,0,2.12196,0.016674,0.4484
 18\N,0,0.372433,-0.423089,0.275035\N,0,-0.372371,0.422579,-0.27581\Si,
 0,-2.122068,-0.016818,-0.448399\C,0,-2.538231,-1.701772,0.250372\H,0,-
 1.91239,-2.473874,-0.203476\H,0,-3.586637,-1.949298,0.058043\H,0,-2.36
 9016,-1.731794,1.329872\C,0,2.537947,1.701994,-0.249575\H,0,2.369059,1
 .732405,-1.329117\H,0,3.586236,1.949688,-0.056828\H,0,1.911784,2.47376

 Normal termination of Gaussian 16 at Wed Apr  9 00:02:09 2025.
