 Gaussian 16, Revision C.01,

 ----------------------------------------------------------------------
 #t hf aug-cc-pvdz symm=none int=(grid=ultrafine) guess=(read,tcheck) s
 table=opt
 ----------------------------------------------------------------------
 -----
 title
 -----
 Symbolic Z-matrix:
 Charge =  0 Multiplicity = 2

 SCF Done:  E(UHF) =  -974.066343075     A.U. after   21 cycles
 Normal termination of Gaussian 16 at Tue Apr  8 23:58:25 2025.
 Gaussian 16:  ES64L-G16RevC.01  3-Jul-2019

 ----------------------------------------------------------------------
 #t hf aug-cc-pvdz iop(5/13=1,5/36=2,99/5=2) pseudo=read geom=check gue
 ss=(read,tcheck) scf=(maxcycle=1)
 ----------------------------------------------------------------------
 -----
 title
 -----
 Structure from the checkpoint file:  "BDE49_nonexpt_205_mol2.chk"
 Charge =  0 Multiplicity = 2

                         Standard orientation:
 ---------------------------------------------------------------------
 Center     Atomic      Atomic             Coordinates (Angstroms)
 Number     Number       Type             X           Y           Z
 ---------------------------------------------------------------------
      1         17           0       -2.723382   -0.204545   -0.000001
      2          5           0       -1.238553    0.703494   -0.000019
      3          7           0        0.047077    0.222567    0.000019
      4          6           0        1.241863    0.077390    0.000007
      5         16           0        2.794346   -0.128907   -0.000004
 ---------------------------------------------------------------------

 SCF Done:  E(UHF) =  -974.304689322     A.U. after    2 cycles

 The electronic state is 2-A.
 Alpha  occ. eigenvalues -- -105.59087 -93.98143 -15.56302 -11.42241 -10.64097
 Alpha  occ. eigenvalues --   -8.26419  -7.81060  -7.80673  -7.80637  -7.72569
 Alpha  occ. eigenvalues --   -6.24262  -6.23983  -6.23844  -1.31304  -1.11218
 Alpha  occ. eigenvalues --   -1.09888  -0.93761  -0.65670  -0.64681  -0.63531
 Alpha  occ. eigenvalues --   -0.63399  -0.52654  -0.51402  -0.43680  -0.41641
 Alpha  occ. eigenvalues --   -0.34835
 Alpha virt. eigenvalues --    0.01341   0.04248   0.05187   0.05665   0.05721
 Alpha virt. eigenvalues --    0.06973   0.08765   0.11494   0.11589   0.13475
 Alpha virt. eigenvalues --    0.14066   0.14395   0.15783   0.16047   0.16870

  Beta  occ. eigenvalues -- -105.58995 -93.98080 -15.56794 -11.41851 -10.63988
  Beta  occ. eigenvalues --   -8.26347  -7.80862  -7.80633  -7.80446  -7.70430
  Beta  occ. eigenvalues --   -6.24264  -6.23847  -6.23629  -1.31564  -1.10820
  Beta  occ. eigenvalues --   -1.09056  -0.92537  -0.65106  -0.64008  -0.63795
  Beta  occ. eigenvalues --   -0.60857  -0.51307  -0.50312  -0.42000  -0.41613
  Beta virt. eigenvalues --    0.02580   0.03544   0.04915   0.05586   0.05866
  Beta virt. eigenvalues --    0.06410   0.07201   0.11166   0.11867   0.13070
  Beta virt. eigenvalues --    0.13601   0.14441   0.14585   0.16163   0.17009

 Mulliken charges and spin densities:
               1          2
     1  Cl  -0.226985   0.026061
     2  B    0.006583   0.973447
     3  N    0.829650  -0.169814
     4  C   -1.033380   0.091138
     5  S    0.424132   0.079169
 Sum of Mulliken charges =  -0.00000   1.00000

 Dipole moment (field-independent basis, Debye):
    X=              0.4809    Y=              0.0805    Z=             -0.0000  Tot=              0.4876
                          Isotropic Fermi Contact Couplings
        Atom                 a.u.       MegaHertz       Gauss      10(-4) cm-1
     1  Cl(35)             0.10554      46.27492      16.51204      15.43565
     2  B(11)              0.41296     592.33492     211.35983     197.58166
     3  N(14)             -0.00628      -2.02755      -0.72348      -0.67632
     4  C(13)              0.03295      37.03811      13.21612      12.35458
     5  S(33)              0.02037       6.99771       2.49696       2.33418
 --------------------------------------------------------
       Center         ----  Spin Dipole Couplings  ----
                      3XX-RR        3YY-RR        3ZZ-RR

 1\1\GINC-SE424\SP\UHF\Aug-CC-pVDZ\C1B1Cl1N1S1(2)\OHZDE\08-Apr-2025\0\\
 #t hf aug-cc-pvdz iop(5/13=1,5/36=2,99/5=2) pseudo=read geom=check gue
 ss=(read,tcheck) scf=(maxcycle=1)\\title\\0,2\Cl,0,-2.723382,-0.204545
 ,-0.000001\B,0,-1.238553,0.703494,-0.000019\N,0,0.047077,0.222567,0.00
 0019\C,0,1.241863,0.07739,0.000007\S,0,2.794346,-0.128907,-0.000004\\V
 ersion=ES64L-G16RevC.01\State=2-A\HF=-974.3046893\S2=0.776541\S2-1=0.\
 S2A=0.750282\RMSD=1.508e-02\Dipole=0.1892039,0.0316591,-0.0000051\Quad
 rupole=0.062161,-0.8176203,0.7554593,0.0895849,-0.0000255,0.0000664\PG

 Normal termination of Gaussian 16 at Tue Apr  8 23:58:27 2025.
