 Gaussian 16, Revision C.01,

 ----------------------------------------------------------------------
 #t hf aug-cc-pvdz symm=none int=(grid=ultrafine) guess=(read,tcheck) s
 table=(opt,rrhf)
 ----------------------------------------------------------------------
 -----
 title
 -----
 Symbolic Z-matrix:
 Charge =  0 Multiplicity = 1

 SCF Done:  E(RHF) =  -727.093807143     A.U. after   15 cycles
 Normal termination of Gaussian 16 at Wed Apr  9 00:24:10 2025.
 Gaussian 16:  ES64L-G16RevC.01  3-Jul-2019

 ----------------------------------------------------------------------
 #t hf aug-cc-pvdz iop(5/13=1,5/36=2,99/5=2) pseudo=read geom=check gue
 ss=(read,tcheck) scf=(maxcycle=1)
 ----------------------------------------------------------------------
 -----
 title
 -----
 Structure from the checkpoint file:  "BDE49_nonexpt_2693_mol1.chk"
 Charge =  0 Multiplicity = 1

                         Standard orientation:
 ---------------------------------------------------------------------
 Center     Atomic      Atomic             Coordinates (Angstroms)
 Number     Number       Type             X           Y           Z
 ---------------------------------------------------------------------
      1          9           0        2.482151    0.000004    1.036341
      2         16           0        1.892978   -0.000003   -0.548800
      3          6           0        0.154869   -0.000001   -0.239541
      4          6           0       -0.538870    1.213521   -0.131001
      5          1           0        0.007262    2.144751   -0.216007
      6          6           0       -1.912694    1.210326    0.085845
      7          1           0       -2.449448    2.148139    0.170039
      8          6           0       -2.597400    0.000001    0.193919
      9          6           0       -0.538872   -1.213522   -0.130998
     10          1           0        0.007260   -2.144753   -0.216001
     11          6           0       -1.912695   -1.210325    0.085847
     12          1           0       -2.449451   -2.148136    0.170044
     13          1           0       -3.668656    0.000002    0.361230
 ---------------------------------------------------------------------

 SCF Done:  E(RHF) =  -727.477652582     A.U. after    2 cycles

 The electronic state is 1-A.
 Alpha  occ. eigenvalues --  -94.03117 -26.45355 -11.28618 -11.27310 -11.27307
 Alpha  occ. eigenvalues --  -11.27260 -11.26289 -11.26272  -8.30353  -6.28148
 Alpha  occ. eigenvalues --   -6.27872  -6.27589  -1.54867  -1.18420  -1.07675
 Alpha  occ. eigenvalues --   -1.04234  -0.96506  -0.86063  -0.83229  -0.73420
 Alpha  occ. eigenvalues --   -0.67277  -0.67145  -0.63806  -0.63044  -0.63032
 Alpha  occ. eigenvalues --   -0.62334  -0.56582  -0.53281  -0.53104  -0.48724
 Alpha  occ. eigenvalues --   -0.38266  -0.37557  -0.36763
 Alpha virt. eigenvalues --    0.02945   0.03441   0.04180   0.04711   0.05453
 Alpha virt. eigenvalues --    0.06109   0.08415   0.08796   0.09187   0.11369
 Alpha virt. eigenvalues --    0.11880   0.12446   0.13302   0.13955   0.14079

 Mulliken charges:
               1
     1  F   -0.653978
     2  S    0.694818
     3  C    0.537163
     4  C   -0.296119
     5  H   -0.184468
     6  C    0.539141
     7  H   -0.201985
     8  C   -0.092393
     9  C   -0.296118
    10  H   -0.184467
    11  C    0.539151
    12  H   -0.201985
    13  H   -0.198760
 Sum of Mulliken charges =  -0.00000

 Dipole moment (field-independent basis, Debye):
    X=             -3.4021    Y=             -0.0000    Z=             -0.7631  Tot=              3.4866

 Test job not archived.
 1\1\GINC-SE339\SP\RHF\Aug-CC-pVDZ\C6H5F1S1\OHZDE\09-Apr-2025\0\\#t hf
 aug-cc-pvdz iop(5/13=1,5/36=2,99/5=2) pseudo=read geom=check guess=(re
 ad,tcheck) scf=(maxcycle=1)\\title\\0,1\F,0,2.482151,0.000004,1.036341
 \S,0,1.892978,-0.000003,-0.5488\C,0,0.154869,-0.000001,-0.239541\C,0,-
 0.53887,1.213521,-0.131001\H,0,0.007262,2.144751,-0.216007\C,0,-1.9126
 94,1.210326,0.085845\H,0,-2.449448,2.148139,0.170039\C,0,-2.5974,0.000
 001,0.193919\C,0,-0.538872,-1.213522,-0.130998\H,0,0.00726,-2.144753,-
 0.216001\C,0,-1.912695,-1.210325,0.085847\H,0,-2.449451,-2.148136,0.17

 Normal termination of Gaussian 16 at Wed Apr  9 00:24:15 2025.
