 Gaussian 16, Revision C.01,

 ----------------------------------------------------------------------
 #t hf aug-cc-pvdz symm=none int=(grid=ultrafine) guess=(read,tcheck) s
 table=opt
 ----------------------------------------------------------------------
 -----
 title
 -----
 Symbolic Z-matrix:
 Charge =  0 Multiplicity = 2

 SCF Done:  E(UHF) =  -557.452587849     A.U. after   16 cycles
 Normal termination of Gaussian 16 at Tue Apr  8 23:59:02 2025.
 Gaussian 16:  ES64L-G16RevC.01  3-Jul-2019

 ----------------------------------------------------------------------
 #t hf aug-cc-pvdz iop(5/13=1,5/36=2,99/5=2) pseudo=read geom=check gue
 ss=(read,tcheck) scf=(maxcycle=1)
 ----------------------------------------------------------------------
 -----
 title
 -----
 Structure from the checkpoint file:  "BDE49_nonexpt_2070_mol2.chk"
 Charge =  0 Multiplicity = 2

                         Standard orientation:
 ---------------------------------------------------------------------
 Center     Atomic      Atomic             Coordinates (Angstroms)
 Number     Number       Type             X           Y           Z
 ---------------------------------------------------------------------
      1         14           0        1.803959   -0.668307   -0.150752
      2          6           0        0.023876   -0.218806    0.453509
      3          8           0       -0.874468   -0.771841   -0.480241
      4          8           0       -0.197882    1.153133    0.701244
      5          6           0       -2.211845   -0.890203    0.004330
      6          1           0       -2.256241   -1.574087    0.861819
      7          1           0       -2.807250   -1.298453   -0.811859
      8          1           0       -2.614046    0.082747    0.302093
      9          6           0       -0.067432    1.997649   -0.437147
     10          1           0       -0.238582    3.015700   -0.088899
     11          1           0       -0.795084    1.744163   -1.213360
     12          1           0        0.941059    1.929402   -0.869574
     13          1           0       -0.124018   -0.683022    1.441120
     14          1           0        1.945388   -2.146456   -0.192314
     15          1           0        2.804553   -0.095867    0.789329
 ---------------------------------------------------------------------

 SCF Done:  E(UHF) =  -557.758594094     A.U. after    2 cycles

 The electronic state is 2-A.
 Alpha  occ. eigenvalues --  -69.53633 -20.55600 -20.55366 -11.33255 -11.28533
 Alpha  occ. eigenvalues --  -11.28433  -6.20800  -3.96757  -3.95839  -3.95817
 Alpha  occ. eigenvalues --   -1.50010  -1.43638  -0.98528  -0.94171  -0.85090
 Alpha  occ. eigenvalues --   -0.74179  -0.69853  -0.68287  -0.64751  -0.61460
 Alpha  occ. eigenvalues --   -0.60676  -0.57174  -0.52972  -0.52175  -0.49153
 Alpha  occ. eigenvalues --   -0.45673  -0.43923  -0.41889  -0.33385
 Alpha virt. eigenvalues --    0.03658   0.04006   0.04285   0.04422   0.06164
 Alpha virt. eigenvalues --    0.06626   0.07001   0.07035   0.08160   0.09336
 Alpha virt. eigenvalues --    0.09685   0.10906   0.12850   0.13954   0.14799

  Beta  occ. eigenvalues --  -69.53063 -20.55618 -20.55365 -11.33199 -11.28538
  Beta  occ. eigenvalues --  -11.28402  -6.19936  -3.95447  -3.95429  -3.94560
  Beta  occ. eigenvalues --   -1.50001  -1.43658  -0.98309  -0.94088  -0.84409
  Beta  occ. eigenvalues --   -0.71403  -0.69580  -0.68196  -0.63607  -0.61213
  Beta  occ. eigenvalues --   -0.60622  -0.56796  -0.52915  -0.51835  -0.48281
  Beta  occ. eigenvalues --   -0.45487  -0.43886  -0.40729
  Beta virt. eigenvalues --    0.02563   0.03760   0.04164   0.04384   0.05119
  Beta virt. eigenvalues --    0.06256   0.06828   0.07037   0.07311   0.08861
  Beta virt. eigenvalues --    0.09767   0.09812   0.11210   0.12925   0.14405

 Mulliken charges and spin densities:
               1          2
     1  Si   0.523943   0.989204
     2  C    1.163736   0.047718
     3  O   -1.217557  -0.029148
     4  O   -1.312815  -0.004557
     5  C    0.177778  -0.004896
     6  H    0.138152  -0.000660
     7  H   -0.006042   0.000267
     8  H    0.196342  -0.000638
     9  C    0.218937  -0.006550
    10  H   -0.008185  -0.002393
    11  H    0.175640   0.002373
    12  H    0.169777  -0.006121
    13  H    0.009972  -0.005613
    14  H   -0.126016   0.011591
    15  H   -0.103661   0.009423
 Sum of Mulliken charges =  -0.00000   1.00000

 Dipole moment (field-independent basis, Debye):
    X=             -0.8651    Y=              0.1451    Z=             -0.0247  Tot=              0.8776
                          Isotropic Fermi Contact Couplings
        Atom                 a.u.       MegaHertz       Gauss      10(-4) cm-1
     1  Si(29)             0.58573    -520.55064    -185.74541    -173.63700
     2  C(13)             -0.00065      -0.72803      -0.25978      -0.24284
     3  O(17)             -0.00677       4.10609       1.46515       1.36964
     4  O(17)              0.00254      -1.54166      -0.55010      -0.51424
     5  C(13)             -0.00088      -0.99064      -0.35349      -0.33044
     6  H(1)               0.00011       0.48376       0.17262       0.16137
     7  H(1)               0.00004       0.18192       0.06491       0.06068
     8  H(1)               0.00002       0.10095       0.03602       0.03367

 Normal termination of Gaussian 16 at Tue Apr  8 23:59:07 2025.
