 Gaussian 16, Revision C.01,

 ----------------------------------------------------------------------
 #t hf aug-cc-pvdz symm=none int=(grid=ultrafine) guess=(read,tcheck) s
 table=(opt,rrhf)
 ----------------------------------------------------------------------
 -----
 title
 -----
 Symbolic Z-matrix:
 Charge =  0 Multiplicity = 1

 SCF Done:  E(RHF) =  -645.403259244     A.U. after   15 cycles
 Normal termination of Gaussian 16 at Wed Apr  9 00:23:40 2025.
 Gaussian 16:  ES64L-G16RevC.01  3-Jul-2019

 ----------------------------------------------------------------------
 #t hf aug-cc-pvdz iop(5/13=1,5/36=2,99/5=2) pseudo=read geom=check gue
 ss=(read,tcheck) scf=(maxcycle=1)
 ----------------------------------------------------------------------
 -----
 title
 -----
 Structure from the checkpoint file:  "BDE49_nonexpt_2688_mol1.chk"
 Charge =  0 Multiplicity = 1

                         Standard orientation:
 ---------------------------------------------------------------------
 Center     Atomic      Atomic             Coordinates (Angstroms)
 Number     Number       Type             X           Y           Z
 ---------------------------------------------------------------------
      1          9           0       -1.997723    0.886937    0.000014
      2         16           0       -1.144446   -0.581204   -0.000019
      3          7           0        0.429601   -0.427555   -0.000003
      4          7           0        1.222671    0.521741    0.000008
      5          6           0        2.627723    0.097776    0.000016
      6          1           0        3.108279    0.530273   -0.881605
      7          1           0        2.741858   -0.989668    0.000015
      8          1           0        3.108266    0.530270    0.881646
 ---------------------------------------------------------------------

 SCF Done:  E(RHF) =  -645.700576706     A.U. after    2 cycles

 The electronic state is 1-A.
 Alpha  occ. eigenvalues --  -94.08272 -26.46726 -15.62631 -15.59498 -11.28519
 Alpha  occ. eigenvalues --   -8.35322  -6.33106  -6.32725  -6.32440  -1.56309
 Alpha  occ. eigenvalues --   -1.41076  -1.16870  -1.00872  -0.82877  -0.74559
 Alpha  occ. eigenvalues --   -0.71669  -0.68271  -0.64208  -0.63456  -0.57978
 Alpha  occ. eigenvalues --   -0.57270  -0.55606  -0.45916  -0.39682
 Alpha virt. eigenvalues --    0.03451   0.04459   0.05352   0.05638   0.07121
 Alpha virt. eigenvalues --    0.07456   0.08576   0.11365   0.13243   0.14183
 Alpha virt. eigenvalues --    0.14660   0.16060   0.16843   0.18341   0.19704

 Mulliken charges:
               1
     1  F   -0.625288
     2  S    0.835317
     3  N   -0.251621
     4  N   -0.140350
     5  C   -0.255259
     6  H    0.186838
     7  H    0.063523
     8  H    0.186839
 Sum of Mulliken charges =  -0.00000

 Dipole moment (field-independent basis, Debye):
    X=              2.1602    Y=             -1.4530    Z=             -0.0000  Tot=              2.6034

 Test job not archived.
 1\1\GINC-SE038\SP\RHF\Aug-CC-pVDZ\C1H3F1N2S1\OHZDE\09-Apr-2025\0\\#t h
 f aug-cc-pvdz iop(5/13=1,5/36=2,99/5=2) pseudo=read geom=check guess=(
 read,tcheck) scf=(maxcycle=1)\\title\\0,1\F,0,-1.997723,0.886937,0.000
 014\S,0,-1.144446,-0.581204,-0.000019\N,0,0.429601,-0.427555,-0.000003
 \N,0,1.222671,0.521741,0.000008\C,0,2.627723,0.097776,0.000016\H,0,3.1
 08279,0.530273,-0.881605\H,0,2.741858,-0.989668,0.000015\H,0,3.108266,
 0.53027,0.881646\\Version=ES64L-G16RevC.01\State=1-A\HF=-645.7005767\R
 MSD=3.623e-02\Dipole=0.8498814,-0.5716643,-0.0000085\Quadrupole=3.5839

 Normal termination of Gaussian 16 at Wed Apr  9 00:23:43 2025.
