 Gaussian 16, Revision C.01,

 ----------------------------------------------------------------------
 #t hf aug-cc-pvdz symm=none int=(grid=ultrafine) guess=(read,tcheck) s
 table=opt
 ----------------------------------------------------------------------
 -----
 title
 -----
 Symbolic Z-matrix:
 Charge =  0 Multiplicity = 2

 SCF Done:  E(UHF) =  -746.765768691     A.U. after   19 cycles
 Normal termination of Gaussian 16 at Wed Apr  9 00:32:19 2025.
 Gaussian 16:  ES64L-G16RevC.01  3-Jul-2019

 ----------------------------------------------------------------------
 #t hf aug-cc-pvdz iop(5/13=1,5/36=2,99/5=2) pseudo=read geom=check gue
 ss=(read,tcheck) scf=(maxcycle=1)
 ----------------------------------------------------------------------
 -----
 title
 -----
 Structure from the checkpoint file:  "BDE49_nonexpt_376_mol2.chk"
 Charge =  0 Multiplicity = 2

                         Standard orientation:
 ---------------------------------------------------------------------
 Center     Atomic      Atomic             Coordinates (Angstroms)
 Number     Number       Type             X           Y           Z
 ---------------------------------------------------------------------
      1          9           0       -2.392035   -0.049454   -0.091784
      2          5           0       -1.296904   -0.561289   -0.548348
      3         16           0        0.385420    0.080920    0.108913
      4          8           0        0.435689    1.515388    0.106338
      5          8           0        0.663747   -0.719255    1.281291
      6          8           0        1.411735   -0.393170   -1.057089
      7          1           0        1.756742   -1.266902   -0.819128
 ---------------------------------------------------------------------

 SCF Done:  E(UHF) =  -747.154173251     A.U. after    2 cycles

 The electronic state is 2-A.
 Alpha  occ. eigenvalues --  -94.24863 -26.54983 -20.63784 -20.57593 -20.57300
 Alpha  occ. eigenvalues --   -8.49802  -7.77997  -6.47850  -6.47723  -6.47682
 Alpha  occ. eigenvalues --   -1.68577  -1.62964  -1.50466  -1.48011  -0.98077
 Alpha  occ. eigenvalues --   -0.85329  -0.80165  -0.75240  -0.73854  -0.72654
 Alpha  occ. eigenvalues --   -0.70983  -0.65234  -0.57996  -0.54326  -0.53543
 Alpha  occ. eigenvalues --   -0.52392  -0.49771  -0.41323
 Alpha virt. eigenvalues --    0.01668   0.03098   0.04386   0.05606   0.06410
 Alpha virt. eigenvalues --    0.08359   0.11523   0.12650   0.13591   0.16787
 Alpha virt. eigenvalues --    0.17546   0.18905   0.19968   0.21640   0.22070

  Beta  occ. eigenvalues --  -94.24729 -26.54717 -20.63810 -20.57510 -20.57058
  Beta  occ. eigenvalues --   -8.49615  -7.75885  -6.47798  -6.47652  -6.47232
  Beta  occ. eigenvalues --   -1.67835  -1.62645  -1.50332  -1.47560  -0.96479
  Beta  occ. eigenvalues --   -0.84287  -0.78877  -0.74657  -0.72754  -0.71459
  Beta  occ. eigenvalues --   -0.70390  -0.64690  -0.58005  -0.53349  -0.52195
  Beta  occ. eigenvalues --   -0.49641  -0.48381
  Beta virt. eigenvalues --    0.00393   0.03450   0.03837   0.05261   0.05829
  Beta virt. eigenvalues --    0.07962   0.09248   0.12045   0.12928   0.14292
  Beta virt. eigenvalues --    0.17209   0.17687   0.19261   0.21063   0.22513

 Mulliken charges and spin densities:
               1          2
     1  F   -0.341222  -0.040747
     2  B    0.638669   0.957063
     3  S    3.287672   0.021518
     4  O   -1.398114   0.046289
     5  O   -1.378390   0.021614
     6  O   -1.184440  -0.005430
     7  H    0.375824  -0.000307
 Sum of Mulliken charges =  -0.00000   1.00000

 Dipole moment (field-independent basis, Debye):
    X=             -1.0045    Y=             -2.8624    Z=             -2.1220  Tot=              3.7021
                          Isotropic Fermi Contact Couplings
        Atom                 a.u.       MegaHertz       Gauss      10(-4) cm-1
     1  F(19)              0.05627     236.76386      84.48323      78.97592
     2  B(11)              0.41283     592.15097     211.29419     197.52030
     3  S(33)              0.24052      82.61374      29.47864      27.55698
     4  O(17)              0.01896     -11.49500      -4.10170      -3.83432
     5  O(17)              0.00497      -3.01463      -1.07570      -1.00557
     6  O(17)             -0.00561       3.40214       1.21397       1.13483
     7  H(1)               0.00015       0.67573       0.24112       0.22540
 --------------------------------------------------------

 Normal termination of Gaussian 16 at Wed Apr  9 00:32:22 2025.
