 Gaussian 16, Revision C.01,

 ----------------------------------------------------------------------
 #t hf aug-cc-pvdz symm=none int=(grid=ultrafine) guess=(read,tcheck) s
 table=(opt,rrhf)
 ----------------------------------------------------------------------
 -----
 title
 -----
 Symbolic Z-matrix:
 Charge =  0 Multiplicity = 1

 SCF Done:  E(RHF) =  -694.071033176     A.U. after   12 cycles
 Normal termination of Gaussian 16 at Wed Apr  9 00:09:31 2025.
 Gaussian 16:  ES64L-G16RevC.01  3-Jul-2019

 ----------------------------------------------------------------------
 #t hf aug-cc-pvdz iop(5/13=1,5/36=2,99/5=2) pseudo=read geom=check gue
 ss=(read,tcheck) scf=(maxcycle=1)
 ----------------------------------------------------------------------
 -----
 title
 -----
 Structure from the checkpoint file:  "BDE49_nonexpt_2338_mol1.chk"
 Charge =  0 Multiplicity = 1

                         Standard orientation:
 ---------------------------------------------------------------------
 Center     Atomic      Atomic             Coordinates (Angstroms)
 Number     Number       Type             X           Y           Z
 ---------------------------------------------------------------------
      1         14           0        1.684291   -0.436190   -0.000000
      2         14           0       -0.159191    1.028767    0.000011
      3          6           0       -1.769567   -0.047915    0.000013
      4          1           0       -0.204804    1.908345   -1.196967
      5          1           0       -0.204798    1.908336    1.196995
      6          1           0        1.648566   -1.287379   -1.210596
      7          1           0        1.648575   -1.287385    1.210592
      8          1           0        2.943626    0.346560   -0.000002
      9          8           0       -1.725164   -1.257501   -0.000029
     10          1           0       -2.763841    0.462947   -0.000021
 ---------------------------------------------------------------------

 SCF Done:  E(RHF) =  -694.250935588     A.U. after    2 cycles

 The electronic state is 1-A.
 Alpha  occ. eigenvalues --  -69.54416 -69.53430 -20.56527 -11.33950  -6.21667
 Alpha  occ. eigenvalues --   -6.20619  -3.97000  -3.96982  -3.96972  -3.95979
 Alpha  occ. eigenvalues --   -3.95969  -3.95968  -1.48576  -0.86891  -0.77929
 Alpha  occ. eigenvalues --   -0.70773  -0.66468  -0.59676  -0.54780  -0.50651
 Alpha  occ. eigenvalues --   -0.49528  -0.48594  -0.43178  -0.39312
 Alpha virt. eigenvalues --    0.03293   0.03811   0.04668   0.05720   0.06421
 Alpha virt. eigenvalues --    0.06781   0.07611   0.08119   0.08338   0.09398
 Alpha virt. eigenvalues --    0.09730   0.10225   0.10555   0.13021   0.13352

 Mulliken charges:
               1
     1  Si   0.382311
     2  Si   0.882476
     3  C    0.298786
     4  H   -0.183225
     5  H   -0.183222
     6  H   -0.107262
     7  H   -0.107264
     8  H   -0.134349
     9  O   -0.856063
    10  H    0.007813
 Sum of Mulliken charges =  -0.00000

 Dipole moment (field-independent basis, Debye):
    X=              0.3431    Y=              2.2365    Z=              0.0000  Tot=              2.2626

 Test job not archived.
 1\1\GINC-SE335\SP\RHF\Aug-CC-pVDZ\C1H6O1Si2\OHZDE\09-Apr-2025\0\\#t hf
  aug-cc-pvdz iop(5/13=1,5/36=2,99/5=2) pseudo=read geom=check guess=(r
 ead,tcheck) scf=(maxcycle=1)\\title\\0,1\Si,0,1.684291,-0.43619,0.\Si,
 0,-0.159191,1.028767,0.000011\C,0,-1.769567,-0.047915,0.000013\H,0,-0.
 204804,1.908345,-1.196967\H,0,-0.204798,1.908336,1.196995\H,0,1.648566
 ,-1.287379,-1.210596\H,0,1.648575,-1.287385,1.210592\H,0,2.943626,0.34
 656,-0.000002\O,0,-1.725164,-1.257501,-0.000029\H,0,-2.763841,0.462947
 ,-0.000021\\Version=ES64L-G16RevC.01\State=1-A\HF=-694.2509356\RMSD=5.

 Normal termination of Gaussian 16 at Wed Apr  9 00:09:34 2025.
