 Gaussian 16, Revision C.01,

 ----------------------------------------------------------------------
 #t hf aug-cc-pvdz symm=none int=(grid=ultrafine) guess=(read,tcheck) s
 table=(opt,rrhf)
 ----------------------------------------------------------------------
 -----
 title
 -----
 Symbolic Z-matrix:
 Charge =  0 Multiplicity = 1

 SCF Done:  E(RHF) =  -916.790404436     A.U. after   14 cycles
 Normal termination of Gaussian 16 at Wed Apr  9 00:13:24 2025.
 Gaussian 16:  ES64L-G16RevC.01  3-Jul-2019

 ----------------------------------------------------------------------
 #t hf aug-cc-pvdz iop(5/13=1,5/36=2,99/5=2) pseudo=read geom=check gue
 ss=(read,tcheck) scf=(maxcycle=1)
 ----------------------------------------------------------------------
 -----
 title
 -----
 Structure from the checkpoint file:  "BDE49_nonexpt_2411_mol1.chk"
 Charge =  0 Multiplicity = 1

                         Standard orientation:
 ---------------------------------------------------------------------
 Center     Atomic      Atomic             Coordinates (Angstroms)
 Number     Number       Type             X           Y           Z
 ---------------------------------------------------------------------
      1         14           0        0.538380    1.564878   -0.396078
      2         14           0       -1.042106    0.660375    1.101425
      3          6           0       -1.546312   -1.109023    0.654456
      4          1           0       -2.240543    1.530642    1.146268
      5          1           0       -0.454162    0.604765    2.460650
      6          7           0       -2.162955   -1.466098   -0.403062
      7          8           0       -2.432292   -0.358485   -1.228357
      8          1           0       -2.883827   -0.750304   -1.983377
      9          1           0       -1.307969   -1.943640    1.310874
     10          6           0        2.005104    0.393383   -0.530483
     11          1           0        1.038429    2.870620    0.108730
     12          1           0       -0.010894    1.801252   -1.751776
     13          7           0        1.983918   -0.663630    0.184185
     14          1           0        2.865195    0.580283   -1.182413
     15          8           0        3.129113   -1.447509    0.005240
     16          1           0        2.971871   -2.197281    0.589417
 ---------------------------------------------------------------------

 SCF Done:  E(RHF) =  -917.188947519     A.U. after    2 cycles

 The electronic state is 1-A.
 Alpha  occ. eigenvalues --  -69.53672 -69.53653 -20.59448 -20.59320 -15.58451
 Alpha  occ. eigenvalues --  -15.57892 -11.27453 -11.27111  -6.20837  -6.20784
 Alpha  occ. eigenvalues --   -3.96201  -3.96174  -3.96153  -3.96139  -3.96110
 Alpha  occ. eigenvalues --   -3.96079  -1.51024  -1.50754  -1.18666  -1.18149
 Alpha  occ. eigenvalues --   -0.85188  -0.83760  -0.77377  -0.74472  -0.71897
 Alpha  occ. eigenvalues --   -0.69864  -0.66182  -0.63398  -0.61123  -0.60744
 Alpha  occ. eigenvalues --   -0.56119  -0.53845  -0.50709  -0.48526  -0.46351
 Alpha  occ. eigenvalues --   -0.45441  -0.43444  -0.41898  -0.40435
 Alpha virt. eigenvalues --    0.03453   0.03829   0.04378   0.04655   0.05433
 Alpha virt. eigenvalues --    0.06022   0.06622   0.06826   0.08217   0.08351
 Alpha virt. eigenvalues --    0.08660   0.08959   0.09328   0.10611   0.11142

 Mulliken charges:
               1
     1  Si   0.806119
     2  Si   0.695508
     3  C   -0.863910
     4  H   -0.102684
     5  H   -0.125810
     6  N    1.201646
     7  O   -1.085928
     8  H    0.353702
     9  H   -0.088073
    10  C   -1.016274
    11  H   -0.144326
    12  H   -0.108602
    13  N    1.246709
    14  H   -0.088288
    15  O   -0.966528
    16  H    0.286741
 Sum of Mulliken charges =  -0.00000

 Dipole moment (field-independent basis, Debye):
    X=              0.3614    Y=              0.6455    Z=             -0.0121  Tot=              0.7398

 Test job not archived.
 1\1\GINC-SE187\SP\RHF\Aug-CC-pVDZ\C2H8N2O2Si2\OHZDE\09-Apr-2025\0\\#t
 hf aug-cc-pvdz iop(5/13=1,5/36=2,99/5=2) pseudo=read geom=check guess=
 (read,tcheck) scf=(maxcycle=1)\\title\\0,1\Si,0,0.53838,1.564878,-0.39
 6078\Si,0,-1.042106,0.660375,1.101425\C,0,-1.546312,-1.109023,0.654456
 \H,0,-2.240543,1.530642,1.146268\H,0,-0.454162,0.604765,2.46065\N,0,-2
 .162955,-1.466098,-0.403062\O,0,-2.432292,-0.358485,-1.228357\H,0,-2.8
 83827,-0.750304,-1.983377\H,0,-1.307969,-1.94364,1.310874\C,0,2.005104
 ,0.393383,-0.530483\H,0,1.038429,2.87062,0.10873\H,0,-0.010894,1.80125

 Normal termination of Gaussian 16 at Wed Apr  9 00:13:32 2025.
