 Gaussian 16, Revision C.01,

 ----------------------------------------------------------------------
 #t hf aug-cc-pvdz symm=none int=(grid=ultrafine) guess=(read,tcheck) s
 table=(opt,rrhf)
 ----------------------------------------------------------------------
 -----
 title
 -----
 Symbolic Z-matrix:
 Charge =  0 Multiplicity = 1

 SCF Done:  E(RHF) =  -164.295025276     A.U. after   12 cycles
 Normal termination of Gaussian 16 at Wed Apr  9 00:34:45 2025.
 Gaussian 16:  ES64L-G16RevC.01  3-Jul-2019

 ----------------------------------------------------------------------
 #t hf aug-cc-pvdz iop(5/13=1,5/36=2,99/5=2) pseudo=read geom=check gue
 ss=(read,tcheck) scf=(maxcycle=1)
 ----------------------------------------------------------------------
 -----
 title
 -----
 Structure from the checkpoint file:  "BDE49_nonexpt_455_mol1.chk"
 Charge =  0 Multiplicity = 1

                         Standard orientation:
 ---------------------------------------------------------------------
 Center     Atomic      Atomic             Coordinates (Angstroms)
 Number     Number       Type             X           Y           Z
 ---------------------------------------------------------------------
      1          1           0       -1.715450   -0.550813    1.031147
      2          1           0       -1.715454   -0.550791   -1.031140
      3          5           0       -1.249125   -0.184049    0.000006
      4          6           0        0.087800    0.660078    0.000010
      5          9           0        0.945537   -0.491399   -0.000015
      6          1           0        0.319956    1.241973    0.893226
      7          1           0        0.319942    1.242003   -0.893189
 ---------------------------------------------------------------------

 SCF Done:  E(RHF) =  -164.457591877     A.U. after    2 cycles

 The electronic state is 1-A.
 Alpha  occ. eigenvalues --  -26.44959 -11.30311  -7.61466  -1.55752  -0.95140
 Alpha  occ. eigenvalues --   -0.73392  -0.68456  -0.65463  -0.61117  -0.54457
 Alpha  occ. eigenvalues --   -0.48866  -0.48164
 Alpha virt. eigenvalues --    0.02908   0.03895   0.04372   0.04888   0.08050
 Alpha virt. eigenvalues --    0.08252   0.09449   0.11882   0.12792   0.13266
 Alpha virt. eigenvalues --    0.16439   0.16806   0.18515   0.24384   0.24656

 Mulliken charges:
               1
     1  H    0.141154
     2  H    0.141155
     3  B   -0.019850
     4  C    0.363205
     5  F   -0.668197
     6  H    0.021268
     7  H    0.021266
 Sum of Mulliken charges =  -0.00000

 Dipole moment (field-independent basis, Debye):
    X=             -0.9691    Y=              1.7127    Z=              0.0000  Tot=              1.9678

 Test job not archived.
 1\1\GINC-SE339\SP\RHF\Aug-CC-pVDZ\C1H4B1F1\OHZDE\09-Apr-2025\0\\#t hf
 aug-cc-pvdz iop(5/13=1,5/36=2,99/5=2) pseudo=read geom=check guess=(re
 ad,tcheck) scf=(maxcycle=1)\\title\\0,1\H,0,-1.71545,-0.550814,1.03114
 7\H,0,-1.715454,-0.550792,-1.03114\B,0,-1.249125,-0.184049,0.000006\C,
 0,0.0878,0.660078,0.00001\F,0,0.945537,-0.491399,-0.000015\H,0,0.31995
 6,1.241973,0.893226\H,0,0.319942,1.242003,-0.893189\\Version=ES64L-G16
 RevC.01\State=1-A\HF=-164.4575919\RMSD=5.219e-03\Dipole=-0.3812651,0.6
 738179,0.0000132\Quadrupole=-0.9455064,0.868768,0.0767384,0.0165993,0.

 Normal termination of Gaussian 16 at Wed Apr  9 00:34:47 2025.
