 Gaussian 16, Revision C.01,

 ----------------------------------------------------------------------
 #t hf aug-cc-pvdz symm=none int=(grid=ultrafine) guess=(read,tcheck) s
 table=(opt,rrhf)
 ----------------------------------------------------------------------
 -----
 title
 -----
 Symbolic Z-matrix:
 Charge =  0 Multiplicity = 1

 SCF Done:  E(RHF) =  -486.462149245     A.U. after   14 cycles
 Normal termination of Gaussian 16 at Tue Apr  8 22:54:38 2025.
 Gaussian 16:  ES64L-G16RevC.01  3-Jul-2019

 ----------------------------------------------------------------------
 #t hf aug-cc-pvdz iop(5/13=1,5/36=2,99/5=2) pseudo=read geom=check gue
 ss=(read,tcheck) scf=(maxcycle=1)
 ----------------------------------------------------------------------
 -----
 title
 -----
 Structure from the checkpoint file:  "BDE49_expt_1845_mol1.chk"
 Charge =  0 Multiplicity = 1

                         Standard orientation:
 ---------------------------------------------------------------------
 Center     Atomic      Atomic             Coordinates (Angstroms)
 Number     Number       Type             X           Y           Z
 ---------------------------------------------------------------------
      1          8           0       -1.886608   -0.023863   -0.119877
      2          8           0       -0.716350    0.824348   -0.086415
      3          1           0       -2.206449    0.082668    0.789068
      4          6           0        0.384922    0.007480   -0.003504
      5          9           0        1.431681    0.827577    0.014467
      6          9           0        0.490374   -0.826005   -1.036800
      7          9           0        0.380232   -0.727286    1.120365
 ---------------------------------------------------------------------

 SCF Done:  E(RHF) =  -486.912161030     A.U. after    2 cycles

 The electronic state is 1-A.
 Alpha  occ. eigenvalues --  -26.53073 -26.52710 -26.52523 -20.67780 -20.67211
 Alpha  occ. eigenvalues --  -11.58839  -1.75799  -1.64519  -1.64158  -1.63740
 Alpha  occ. eigenvalues --   -1.36127  -0.96233  -0.85237  -0.84837  -0.83986
 Alpha  occ. eigenvalues --   -0.75696  -0.71836  -0.69983  -0.66864  -0.65911
 Alpha  occ. eigenvalues --   -0.65344  -0.64038  -0.62996  -0.55020  -0.53440
 Alpha virt. eigenvalues --    0.03435   0.08815   0.09289   0.09526   0.12979
 Alpha virt. eigenvalues --    0.14876   0.17299   0.19602   0.21410   0.22139
 Alpha virt. eigenvalues --    0.23502   0.26969   0.27402   0.27774   0.30873

 Mulliken charges:
               1
     1  O   -0.502765
     2  O   -0.781646
     3  H    0.394838
     4  C    2.896272
     5  F   -0.669600
     6  F   -0.655656
     7  F   -0.681444
 Sum of Mulliken charges =  -0.00000

 Dipole moment (field-independent basis, Debye):
    X=             -1.2949    Y=              0.0177    Z=              1.4925  Tot=              1.9760

 Test job not archived.
 1\1\GINC-SE249\SP\RHF\Aug-CC-pVDZ\C1H1F3O2\OHZDE\08-Apr-2025\0\\#t hf
 aug-cc-pvdz iop(5/13=1,5/36=2,99/5=2) pseudo=read geom=check guess=(re
 ad,tcheck) scf=(maxcycle=1)\\title\\0,1\O,0,-1.886608,-0.023863,-0.119
 877\O,0,-0.71635,0.824348,-0.086415\H,0,-2.206449,0.082668,0.789068\C,
 0,0.384922,0.00748,-0.003504\F,0,1.431681,0.827577,0.014467\F,0,0.4903
 74,-0.826005,-1.0368\F,0,0.380232,-0.727286,1.120365\\Version=ES64L-G1
 6RevC.01\State=1-A\HF=-486.912161\RMSD=5.436e-03\Dipole=-0.5094351,0.0
 069753,0.5871973\Quadrupole=1.8142426,-1.6325242,-0.1817184,-0.0194343

 Normal termination of Gaussian 16 at Tue Apr  8 22:54:40 2025.
