 Gaussian 16, Revision C.01,

 ----------------------------------------------------------------------
 #t hf aug-cc-pvdz symm=none int=(grid=ultrafine) guess=(read,tcheck) s
 table=opt
 ----------------------------------------------------------------------
 -----
 title
 -----
 Symbolic Z-matrix:
 Charge =  0 Multiplicity = 2

 SCF Done:  E(UHF) =  -1106.81057092     A.U. after   19 cycles
 Normal termination of Gaussian 16 at Tue Apr  8 23:50:24 2025.
 Gaussian 16:  ES64L-G16RevC.01  3-Jul-2019

 ----------------------------------------------------------------------
 #t hf aug-cc-pvdz iop(5/13=1,5/36=2,99/5=2) pseudo=read geom=check gue
 ss=(read,tcheck) scf=(maxcycle=1)
 ----------------------------------------------------------------------
 -----
 title
 -----
 Structure from the checkpoint file:  "BDE49_nonexpt_186_mol2.chk"
 Charge =  0 Multiplicity = 2

                         Standard orientation:
 ---------------------------------------------------------------------
 Center     Atomic      Atomic             Coordinates (Angstroms)
 Number     Number       Type             X           Y           Z
 ---------------------------------------------------------------------
      1         17           0       -2.368016   -0.016375   -0.054181
      2          5           0       -0.840002   -0.551417   -0.591644
      3         16           0        0.784232    0.071105    0.108123
      4          8           0        0.829894    1.501511    0.207546
      5          8           0        1.036895   -0.807049    1.230951
      6          8           0        1.852701   -0.305349   -1.056136
      7          1           0        2.152660   -1.215118   -0.909554
 ---------------------------------------------------------------------

 SCF Done:  E(UHF) =  -1107.18557355     A.U. after    2 cycles

 The electronic state is 2-A.
 Alpha  occ. eigenvalues -- -105.62965 -94.24675 -20.63549 -20.57298 -20.56959
 Alpha  occ. eigenvalues --  -10.67966  -8.49599  -7.84895  -7.84574  -7.84494
 Alpha  occ. eigenvalues --   -7.75906  -6.47683  -6.47553  -6.47427  -1.62727
 Alpha  occ. eigenvalues --   -1.50175  -1.47673  -1.14443  -0.97584  -0.81840
 Alpha  occ. eigenvalues --   -0.74902  -0.71020  -0.68576  -0.64947  -0.58959
 Alpha  occ. eigenvalues --   -0.56659  -0.55337  -0.52913  -0.52572  -0.50898
 Alpha  occ. eigenvalues --   -0.49445  -0.40274
 Alpha virt. eigenvalues --    0.00194   0.03152   0.04225   0.05499   0.05669
 Alpha virt. eigenvalues --    0.08343   0.11136   0.12495   0.13474   0.14167
 Alpha virt. eigenvalues --    0.15357   0.15767   0.16975   0.18345   0.19599

  Beta  occ. eigenvalues -- -105.62900 -94.24612 -20.63582 -20.57254 -20.56763
  Beta  occ. eigenvalues --  -10.67893  -8.49509  -7.84798  -7.84550  -7.84300
  Beta  occ. eigenvalues --   -7.73748  -6.47665  -6.47526  -6.47205  -1.62531
  Beta  occ. eigenvalues --   -1.50105  -1.47349  -1.13532  -0.96456  -0.80740
  Beta  occ. eigenvalues --   -0.74363  -0.70658  -0.66598  -0.64570  -0.57902
  Beta  occ. eigenvalues --   -0.55429  -0.54748  -0.52370  -0.51609  -0.49312
  Beta  occ. eigenvalues --   -0.47905
  Beta virt. eigenvalues --    0.00672   0.02979   0.03889   0.04965   0.05710
  Beta virt. eigenvalues --    0.06062   0.09069   0.11544   0.12678   0.14172
  Beta virt. eigenvalues --    0.14298   0.15560   0.16000   0.17240   0.18594

 Mulliken charges and spin densities:
               1          2
     1  Cl  -0.098500   0.006203
     2  B    0.297300   0.972075
     3  S    3.376281  -0.018098
     4  O   -1.399387   0.037986
     5  O   -1.369205   0.012590
     6  O   -1.185797  -0.010830
     7  H    0.379308   0.000074
 Sum of Mulliken charges =  -0.00000   1.00000

 Dipole moment (field-independent basis, Debye):
    X=             -1.4315    Y=             -2.5522    Z=             -2.1985  Tot=              3.6601
                          Isotropic Fermi Contact Couplings
        Atom                 a.u.       MegaHertz       Gauss      10(-4) cm-1
     1  Cl(35)             0.05458      23.93236       8.53966       7.98298
     2  B(11)              0.37557     538.71120     192.22555     179.69471
     3  S(33)              0.12212      41.94393      14.96664      13.99099
     4  O(17)              0.01585      -9.60729      -3.42812      -3.20465
     5  O(17)              0.00240      -1.45233      -0.51823      -0.48444
     6  O(17)             -0.00672       4.07225       1.45308       1.35836
     7  H(1)               0.00016       0.70457       0.25141       0.23502
 --------------------------------------------------------

 1\1\GINC-SE328\SP\UHF\Aug-CC-pVDZ\B1Cl1H1O3S1(2)\OHZDE\08-Apr-2025\0\\
 #t hf aug-cc-pvdz iop(5/13=1,5/36=2,99/5=2) pseudo=read geom=check gue
 ss=(read,tcheck) scf=(maxcycle=1)\\title\\0,2\Cl,0,-2.368016,-0.016375
 ,-0.054181\B,0,-0.840002,-0.551417,-0.591644\S,0,0.784232,0.071105,0.1
 08123\O,0,0.829894,1.501511,0.207546\O,0,1.036895,-0.807049,1.230951\O
 ,0,1.852701,-0.305349,-1.056136\H,0,2.15266,-1.215118,-0.909554\\Versi
 on=ES64L-G16RevC.01\State=2-A\HF=-1107.1855736\S2=0.756437\S2-1=0.\S2A
 =0.750028\RMSD=6.102e-03\Dipole=-0.5632015,-1.0040959,-0.8649734\Quadr

 Normal termination of Gaussian 16 at Tue Apr  8 23:50:27 2025.
