 Gaussian 16, Revision C.01,

 ----------------------------------------------------------------------
 #t hf aug-cc-pvdz symm=none int=(grid=ultrafine) guess=(read,tcheck) s
 table=opt
 ----------------------------------------------------------------------
 -----
 title
 -----
 Symbolic Z-matrix:
 Charge =  0 Multiplicity = 2

 SCF Done:  E(UHF) =  -740.595261435     A.U. after   19 cycles
 Normal termination of Gaussian 16 at Wed Apr  9 00:52:42 2025.
 Gaussian 16:  ES64L-G16RevC.01  3-Jul-2019

 ----------------------------------------------------------------------
 #t hf aug-cc-pvdz iop(5/13=1,5/36=2,99/5=2) pseudo=read geom=check gue
 ss=(read,tcheck) scf=(maxcycle=1)
 ----------------------------------------------------------------------
 -----
 title
 -----
 Structure from the checkpoint file:  "BDE49_nonexpt_967_mol2.chk"
 Charge =  0 Multiplicity = 2

                         Standard orientation:
 ---------------------------------------------------------------------
 Center     Atomic      Atomic             Coordinates (Angstroms)
 Number     Number       Type             X           Y           Z
 ---------------------------------------------------------------------
      1         16           0       -0.339774   -0.212324    0.000000
      2          8           0       -0.321599   -0.913292    1.258258
      3          7           0        1.002390    0.951039   -0.000001
      4          6           0       -1.644597    1.005269    0.000000
      5          1           0       -2.575095    0.436876    0.000001
      6          1           0       -1.561549    1.608844    0.902148
      7          9           0        2.125669    0.185158   -0.000001
      8          8           0       -0.321599   -0.913295   -1.258256
      9          1           0       -1.561550    1.608842   -0.902151
 ---------------------------------------------------------------------

 SCF Done:  E(UHF) =  -740.987172977     A.U. after    2 cycles

 The electronic state is 2-A.
 Alpha  occ. eigenvalues --  -94.24036 -26.54431 -20.57507 -20.57506 -15.69911
 Alpha  occ. eigenvalues --  -11.31811  -8.49243  -6.47331  -6.47092  -6.47011
 Alpha  occ. eigenvalues --   -1.68464  -1.59509  -1.47740  -1.21856  -1.07855
 Alpha  occ. eigenvalues --   -0.89130  -0.80416  -0.78585  -0.75597  -0.69660
 Alpha  occ. eigenvalues --   -0.69456  -0.65403  -0.63935  -0.62488  -0.59359
 Alpha  occ. eigenvalues --   -0.53086  -0.51891  -0.49575  -0.49379
 Alpha virt. eigenvalues --    0.02747   0.04730   0.04782   0.08259   0.10489
 Alpha virt. eigenvalues --    0.11074   0.11681   0.12766   0.13842   0.14342
 Alpha virt. eigenvalues --    0.15015   0.15673   0.18334   0.19085   0.20381

  Beta  occ. eigenvalues --  -94.24109 -26.54040 -20.57436 -20.57435 -15.66084
  Beta  occ. eigenvalues --  -11.31843  -8.49339  -6.47399  -6.47310  -6.47096
  Beta  occ. eigenvalues --   -1.66320  -1.59416  -1.47548  -1.14586  -1.05112
  Beta  occ. eigenvalues --   -0.87546  -0.77777  -0.74475  -0.69940  -0.69284
  Beta  occ. eigenvalues --   -0.68278  -0.64138  -0.63788  -0.61706  -0.52579
  Beta  occ. eigenvalues --   -0.51688  -0.49677  -0.47814
  Beta virt. eigenvalues --    0.01597   0.02775   0.04748   0.04948   0.08299
  Beta virt. eigenvalues --    0.10570   0.11271   0.11937   0.13009   0.14002
  Beta virt. eigenvalues --    0.15014   0.15602   0.16092   0.18372   0.20217

 Mulliken charges and spin densities:
               1          2
     1  S    3.174733  -0.044202
     2  O   -1.482847   0.006564
     3  N    0.302255   1.032813
     4  C   -0.707592  -0.016748
     5  H    0.289307  -0.001265
     6  H    0.236705   0.001154
     7  F   -0.566423   0.013966
     8  O   -1.482847   0.006564
     9  H    0.236708   0.001154
 Sum of Mulliken charges =  -0.00000   1.00000

 Dipole moment (field-independent basis, Debye):
    X=             -2.6789    Y=              3.1874    Z=             -0.0000  Tot=              4.1636
                          Isotropic Fermi Contact Couplings
        Atom                 a.u.       MegaHertz       Gauss      10(-4) cm-1
     1  S(33)             -0.06577     -22.59036      -8.06080      -7.53533
     2  O(17)              0.00393      -2.37958      -0.84909      -0.79374
     3  N(14)              0.33179     107.20135      38.25211      35.75852
     4  C(13)             -0.00626      -7.03984      -2.51199      -2.34824
     5  H(1)              -0.00073      -3.26118      -1.16367      -1.08781
     6  H(1)               0.00035       1.56338       0.55785       0.52149
     7  F(19)              0.06528     274.68170      98.01326      91.62395
     8  O(17)              0.00393      -2.37955      -0.84908      -0.79373

 Normal termination of Gaussian 16 at Wed Apr  9 00:52:46 2025.
