 Gaussian 16, Revision C.01,

 ----------------------------------------------------------------------
 #t hf aug-cc-pvdz symm=none int=(grid=ultrafine) guess=(read,tcheck) s
 table=(opt,rrhf)
 ----------------------------------------------------------------------
 -----
 title
 -----
 Symbolic Z-matrix:
 Charge =  0 Multiplicity = 1

 SCF Done:  E(RHF) =  -1148.57119956     A.U. after   14 cycles

 1\1\GINC-SE125\Stability\RHF\Aug-CC-pVDZ\C6H4Cl2\OHZDE\08-Apr-2025\0\\
 #t hf aug-cc-pvdz symm=none int=(grid=ultrafine) guess=(read,tcheck) s
 table=(opt,rrhf)\\title\\0,1\C,0,0.,1.193368,-0.00081\C,0,0.,1.211747,
 1.390258\C,0,0.,0.,2.076225\C,0,0.,-1.211747,1.390258\C,0,0.,-1.193368
 ,-0.00081\C,0,0.,0.,-0.715888\Cl,0,0.,2.708947,-0.883524\H,0,0.,0.,3.1
 59841\H,0,0.,-2.15453,1.920617\H,0,0.,2.15453,1.920617\Cl,0,0.,-2.7089
 47,-0.883524\H,0,0.,0.,-1.796643\\Version=ES64L-G16RevC.01\HF=-1148.57
 11996\RMSD=9.594e-09\Dipole=0.,0.,0.7598921\Quadrupole=-2.7040909,-2.3

 Normal termination of Gaussian 16 at Tue Apr  8 22:48:49 2025.
 Gaussian 16:  ES64L-G16RevC.01  3-Jul-2019

 ----------------------------------------------------------------------
 #t hf aug-cc-pvdz iop(5/13=1,5/36=2,99/5=2) pseudo=read geom=check gue
 ss=(read,tcheck) scf=(maxcycle=1)
 ----------------------------------------------------------------------
 -----
 title
 -----
 Structure from the checkpoint file:  "BDE49_expt_1673_mol1.chk"
 Charge =  0 Multiplicity = 1

                         Standard orientation:
 ---------------------------------------------------------------------
 Center     Atomic      Atomic             Coordinates (Angstroms)
 Number     Number       Type             X           Y           Z
 ---------------------------------------------------------------------
      1          6           0        0.000000    1.193368   -0.000810
      2          6           0        0.000000    1.211747    1.390258
      3          6           0        0.000000   -0.000000    2.076225
      4          6           0       -0.000000   -1.211747    1.390258
      5          6           0       -0.000000   -1.193368   -0.000810
      6          6           0       -0.000000    0.000000   -0.715888
      7         17           0        0.000000    2.708947   -0.883524
      8          1           0        0.000000   -0.000000    3.159841
      9          1           0        0.000000   -2.154530    1.920617
     10          1           0        0.000000    2.154530    1.920617
     11         17           0       -0.000000   -2.708947   -0.883524
     12          1           0       -0.000000    0.000000   -1.796643
 ---------------------------------------------------------------------

 SCF Done:  E(RHF) =  -1148.95624335     A.U. after    2 cycles

 The electronic state is 1-A1.
 Alpha  occ. eigenvalues -- -105.58278-105.58277 -11.32822 -11.32817 -11.27537
 Alpha  occ. eigenvalues --  -11.27445 -11.27067 -11.27063 -10.63073 -10.63073
 Alpha  occ. eigenvalues --   -7.80039  -7.80039  -7.79637  -7.79636  -7.79620
 Alpha  occ. eigenvalues --   -7.79620  -1.21067  -1.13447  -1.09053  -1.02159
 Alpha  occ. eigenvalues --   -0.99620  -0.86573  -0.83320  -0.73226  -0.69463
 Alpha  occ. eigenvalues --   -0.65933  -0.62380  -0.61545  -0.58046  -0.54952
 Alpha  occ. eigenvalues --   -0.54281  -0.52236  -0.48051  -0.47243  -0.47157
 Alpha  occ. eigenvalues --   -0.36970  -0.35687
 Alpha virt. eigenvalues --    0.03091   0.04076   0.04530   0.05706   0.07750
 Alpha virt. eigenvalues --    0.07875   0.08122   0.09562   0.10300   0.10907
 Alpha virt. eigenvalues --    0.12855   0.13102   0.13248   0.13550   0.14717

 Mulliken charges:
               1
     1  C    0.200208
     2  C   -0.070485
     3  C    0.629585
     4  C   -0.070485
     5  C    0.200208
     6  C    0.382417
     7  Cl  -0.327939
     8  H   -0.199451
     9  H   -0.161652
    10  H   -0.161652
    11  Cl  -0.327939
    12  H   -0.092815
 Sum of Mulliken charges =  -0.00000

 Dipole moment (field-independent basis, Debye):
    X=              0.0000    Y=             -0.0000    Z=              1.9331  Tot=              1.9331

 Test job not archived.
 1\1\GINC-SE125\SP\RHF\Aug-CC-pVDZ\C6H4Cl2\OHZDE\08-Apr-2025\0\\#t hf a
 ug-cc-pvdz iop(5/13=1,5/36=2,99/5=2) pseudo=read geom=check guess=(rea
 d,tcheck) scf=(maxcycle=1)\\title\\0,1\C,0,0.,1.193368,-0.00081\C,0,0.
 ,1.211747,1.390258\C,0,0.,0.,2.076225\C,0,0.,-1.211747,1.390258\C,0,0.
 ,-1.193368,-0.00081\C,0,0.,0.,-0.715888\Cl,0,0.,2.708947,-0.883524\H,0
 ,0.,0.,3.159841\H,0,0.,-2.15453,1.920617\H,0,0.,2.15453,1.920617\Cl,0,
 0.,-2.708947,-0.883524\H,0,0.,0.,-1.796643\\Version=ES64L-G16RevC.01\S
 tate=1-A1\HF=-1148.9562434\RMSD=3.287e-02\Dipole=0.,0.,0.7605385\Quadr

 Normal termination of Gaussian 16 at Tue Apr  8 22:48:54 2025.
