 Gaussian 16, Revision C.01,

 ----------------------------------------------------------------------
 #t hf aug-cc-pvdz symm=none int=(grid=ultrafine) guess=(read,tcheck) s
 table=opt
 ----------------------------------------------------------------------
 -----
 title
 -----
 Symbolic Z-matrix:
 Charge =  0 Multiplicity = 2

 SCF Done:  E(UHF) =  -651.426142551     A.U. after   18 cycles
 Normal termination of Gaussian 16 at Wed Apr  9 00:04:27 2025.
 Gaussian 16:  ES64L-G16RevC.01  3-Jul-2019

 ----------------------------------------------------------------------
 #t hf aug-cc-pvdz iop(5/13=1,5/36=2,99/5=2) pseudo=read geom=check gue
 ss=(read,tcheck) scf=(maxcycle=1)
 ----------------------------------------------------------------------
 -----
 title
 -----
 Structure from the checkpoint file:  "BDE49_nonexpt_219_mol2.chk"
 Charge =  0 Multiplicity = 2

                         Standard orientation:
 ---------------------------------------------------------------------
 Center     Atomic      Atomic             Coordinates (Angstroms)
 Number     Number       Type             X           Y           Z
 ---------------------------------------------------------------------
      1          5           0        0.599124    0.667324    0.000005
      2          6           0       -1.840769   -0.015882    0.000001
      3          8           0       -2.997627   -0.133876   -0.000001
      4          7           0       -0.636547    0.037319    0.000003
      5         17           0        2.146226   -0.143032   -0.000003
 ---------------------------------------------------------------------

 SCF Done:  E(UHF) =  -651.678681886     A.U. after    2 cycles

 The electronic state is 2-A.
 Alpha  occ. eigenvalues -- -105.58619 -20.63494 -15.55382 -11.45619 -10.63641
 Alpha  occ. eigenvalues --   -7.80623  -7.80212  -7.80181  -7.72636  -1.58260
 Alpha  occ. eigenvalues --   -1.30743  -1.09890  -0.93175  -0.76567  -0.70479
 Alpha  occ. eigenvalues --   -0.69243  -0.64316  -0.56621  -0.54032  -0.49641
 Alpha  occ. eigenvalues --   -0.48947  -0.36514
 Alpha virt. eigenvalues --    0.03747   0.04224   0.05415   0.05598   0.06412
 Alpha virt. eigenvalues --    0.09741   0.09934   0.10189   0.12995   0.14400
 Alpha virt. eigenvalues --    0.16267   0.17202   0.17508   0.19709   0.21093

  Beta  occ. eigenvalues -- -105.58515 -20.63308 -15.55495 -11.45488 -10.63518
  Beta  occ. eigenvalues --   -7.80369  -7.80168  -7.79984  -7.70491  -1.57885
  Beta  occ. eigenvalues --   -1.30490  -1.08733  -0.91827  -0.76254  -0.69334
  Beta  occ. eigenvalues --   -0.69196  -0.61610  -0.53846  -0.53187  -0.49255
  Beta  occ. eigenvalues --   -0.48864
  Beta virt. eigenvalues --    0.02654   0.04939   0.05031   0.05681   0.08283
  Beta virt. eigenvalues --    0.08693   0.09971   0.10253   0.10521   0.13193
  Beta virt. eigenvalues --    0.14498   0.17245   0.17624   0.18055   0.19899

 Mulliken charges and spin densities:
               1          2
     1  B    0.083739   0.962637
     2  C    0.046361   0.028231
     3  O   -0.747062   0.035897
     4  N    0.858304  -0.057891
     5  Cl  -0.241342   0.031126
 Sum of Mulliken charges =  -0.00000   1.00000

 Dipole moment (field-independent basis, Debye):
    X=             -0.2599    Y=              0.2898    Z=              0.0000  Tot=              0.3893
                          Isotropic Fermi Contact Couplings
        Atom                 a.u.       MegaHertz       Gauss      10(-4) cm-1
     1  B(11)              0.41865     600.49711     214.27230     200.30428
     2  C(13)              0.00622       6.99497       2.49598       2.33327
     3  O(17)              0.01543      -9.35068      -3.33656      -3.11905
     4  N(14)              0.01699       5.48835       1.95838       1.83072
     5  Cl(35)             0.11294      49.52156      17.67052      16.51861
 --------------------------------------------------------
       Center         ----  Spin Dipole Couplings  ----
                      3XX-RR        3YY-RR        3ZZ-RR

 1\1\GINC-SE094\SP\UHF\Aug-CC-pVDZ\C1B1Cl1N1O1(2)\OHZDE\09-Apr-2025\0\\
 #t hf aug-cc-pvdz iop(5/13=1,5/36=2,99/5=2) pseudo=read geom=check gue
 ss=(read,tcheck) scf=(maxcycle=1)\\title\\0,2\B,0,0.599124,0.667324,0.
 000005\C,0,-1.840769,-0.015882,0.000001\O,0,-2.997627,-0.133876,-0.000
 001\N,0,-0.636547,0.037319,0.000003\Cl,0,2.146226,-0.143032,-0.000003\
 \Version=ES64L-G16RevC.01\State=2-A\HF=-651.6786819\S2=0.758512\S2-1=0
 .\S2A=0.750047\RMSD=1.373e-02\Dipole=-0.1022627,0.1140097,0.0000006\Qu
 adrupole=-2.6128293,0.5370367,2.0757925,-0.6486375,-0.0000043,-0.00000

 Normal termination of Gaussian 16 at Wed Apr  9 00:04:29 2025.
