 Gaussian 16, Revision C.01,

 ----------------------------------------------------------------------
 #t hf aug-cc-pvdz symm=none int=(grid=ultrafine) guess=(read,tcheck) s
 table=(opt,rrhf)
 ----------------------------------------------------------------------
 -----
 title
 -----
 Symbolic Z-matrix:
 Charge =  0 Multiplicity = 1

 SCF Done:  E(RHF) =  -609.555787877     A.U. after   13 cycles
 Normal termination of Gaussian 16 at Tue Apr  8 23:43:10 2025.
 Gaussian 16:  ES64L-G16RevC.01  3-Jul-2019

 ----------------------------------------------------------------------
 #t hf aug-cc-pvdz iop(5/13=1,5/36=2,99/5=2) pseudo=read geom=check gue
 ss=(read,tcheck) scf=(maxcycle=1)
 ----------------------------------------------------------------------
 -----
 title
 -----
 Structure from the checkpoint file:  "BDE49_nonexpt_16_mol1.chk"
 Charge =  0 Multiplicity = 1

                         Standard orientation:
 ---------------------------------------------------------------------
 Center     Atomic      Atomic             Coordinates (Angstroms)
 Number     Number       Type             X           Y           Z
 ---------------------------------------------------------------------
      1          5           0        1.314550    0.311305    0.438928
      2          5           0       -0.161165    0.783263   -0.235898
      3         17           0       -1.572574   -0.241392    0.033964
      4          9           0        2.187974   -0.417084   -0.255146
      5          1           0       -0.361996    1.780271   -0.852935
      6          1           0        1.637076    0.604304    1.556707
 ---------------------------------------------------------------------

 SCF Done:  E(RHF) =  -609.771557272     A.U. after    2 cycles

 The electronic state is 1-A.
 Alpha  occ. eigenvalues -- -105.57659 -26.47639 -10.62654  -7.79535  -7.79283
 Alpha  occ. eigenvalues --   -7.79214  -7.66491  -7.65737  -1.60205  -1.08043
 Alpha  occ. eigenvalues --   -0.79644  -0.72130  -0.68233  -0.65608  -0.61146
 Alpha  occ. eigenvalues --   -0.56241  -0.50625  -0.49853  -0.42679
 Alpha virt. eigenvalues --    0.03437   0.03844   0.03917   0.04820   0.06694
 Alpha virt. eigenvalues --    0.07141   0.07754   0.08377   0.09684   0.10370
 Alpha virt. eigenvalues --    0.13984   0.14746   0.15233   0.16914   0.18757

 Mulliken charges:
               1
     1  B    0.932990
     2  B   -0.146818
     3  Cl  -0.338374
     4  F   -0.648324
     5  H    0.242664
     6  H   -0.042138
 Sum of Mulliken charges =  -0.00000

 Dipole moment (field-independent basis, Debye):
    X=              0.2117    Y=              1.1483    Z=              0.1884  Tot=              1.1827

 Test job not archived.
 1\1\GINC-SE045\SP\RHF\Aug-CC-pVDZ\B2Cl1F1H2\OHZDE\08-Apr-2025\0\\#t hf
  aug-cc-pvdz iop(5/13=1,5/36=2,99/5=2) pseudo=read geom=check guess=(r
 ead,tcheck) scf=(maxcycle=1)\\title\\0,1\B,0,1.31455,0.311305,0.438928
 \B,0,-0.161165,0.783263,-0.235898\Cl,0,-1.572574,-0.241392,0.033964\F,
 0,2.187974,-0.417084,-0.255146\H,0,-0.361996,1.780271,-0.852935\H,0,1.
 637076,0.604304,1.556707\\Version=ES64L-G16RevC.01\State=1-A\HF=-609.7
 715573\RMSD=1.408e-02\Dipole=0.0832752,0.4517578,0.0741165\Quadrupole=
 -2.3352561,1.4227816,0.9124745,1.1662871,0.2248956,-0.1075339\PG=C01 [

 Normal termination of Gaussian 16 at Tue Apr  8 23:43:13 2025.
