 Gaussian 16, Revision C.01,

 ----------------------------------------------------------------------
 #t hf aug-cc-pvdz symm=none int=(grid=ultrafine) guess=(read,tcheck) s
 table=(opt,rrhf)
 ----------------------------------------------------------------------
 -----
 title
 -----
 Symbolic Z-matrix:
 Charge =  0 Multiplicity = 1

 SCF Done:  E(RHF) =  -1435.51382719     A.U. after   14 cycles
 Normal termination of Gaussian 16 at Wed Apr  9 00:41:53 2025.
 Gaussian 16:  ES64L-G16RevC.01  3-Jul-2019

 ----------------------------------------------------------------------
 #t hf aug-cc-pvdz iop(5/13=1,5/36=2,99/5=2) pseudo=read geom=check gue
 ss=(read,tcheck) scf=(maxcycle=1)
 ----------------------------------------------------------------------
 -----
 title
 -----
 Structure from the checkpoint file:  "BDE49_nonexpt_702_mol1.chk"
 Charge =  0 Multiplicity = 1

                         Standard orientation:
 ---------------------------------------------------------------------
 Center     Atomic      Atomic             Coordinates (Angstroms)
 Number     Number       Type             X           Y           Z
 ---------------------------------------------------------------------
      1         15           0        0.334960    0.220361    0.843890
      2          5           0       -1.378417   -0.365242    0.022923
      3          8           0       -1.488134   -1.368968   -0.872842
      4          8           0       -2.450460    0.320552    0.479275
      5         17           0        1.550717   -1.306972   -0.001951
      6         17           0        0.643181    1.814650   -0.503467
      7          1           0       -3.280395    0.047844    0.068709
      8          1           0       -0.639423   -1.770241   -1.101038
 ---------------------------------------------------------------------

 SCF Done:  E(RHF) =  -1435.88464496     A.U. after    2 cycles

 The electronic state is 1-A.
 Alpha  occ. eigenvalues -- -105.58435-105.58123 -84.37720 -20.58849 -20.58799
 Alpha  occ. eigenvalues --  -10.63291 -10.62964  -7.80183  -7.79871  -7.79841
 Alpha  occ. eigenvalues --   -7.79824  -7.79498  -7.79478  -7.68952  -6.84098
 Alpha  occ. eigenvalues --   -4.35975  -4.35803  -4.35383  -1.51329  -1.47488
 Alpha  occ. eigenvalues --   -1.10601  -1.05044  -0.84414  -0.78687  -0.75334
 Alpha  occ. eigenvalues --   -0.64729  -0.60559  -0.59312  -0.56267  -0.54059
 Alpha  occ. eigenvalues --   -0.52754  -0.52116  -0.49238  -0.46970  -0.46208
 Alpha  occ. eigenvalues --   -0.36514
 Alpha virt. eigenvalues --    0.03608   0.04571   0.04946   0.05816   0.06890
 Alpha virt. eigenvalues --    0.07670   0.08059   0.09826   0.09986   0.12674
 Alpha virt. eigenvalues --    0.13382   0.14547   0.14949   0.15792   0.18235

 Mulliken charges:
               1
     1  P    0.152324
     2  B    1.925998
     3  O   -1.024867
     4  O   -1.085575
     5  Cl  -0.533581
     6  Cl  -0.471386
     7  H    0.461457
     8  H    0.575630
 Sum of Mulliken charges =  -0.00000

 Dipole moment (field-independent basis, Debye):
    X=             -1.8153    Y=             -1.1231    Z=              0.3483  Tot=              2.1629

 Test job not archived.
 1\1\GINC-SE462\SP\RHF\Aug-CC-pVDZ\B1Cl2H2O2P1\OHZDE\09-Apr-2025\0\\#t
 hf aug-cc-pvdz iop(5/13=1,5/36=2,99/5=2) pseudo=read geom=check guess=
 (read,tcheck) scf=(maxcycle=1)\\title\\0,1\P,0,0.33496,0.220361,0.8438
 9\B,0,-1.378417,-0.365241,0.022923\O,0,-1.488135,-1.368967,-0.872842\O
 ,0,-2.45046,0.320553,0.479275\Cl,0,1.550716,-1.306973,-0.001951\Cl,0,0
 .643182,1.81465,-0.503467\H,0,-3.280395,0.047846,0.068709\H,0,-0.63942
 4,-1.770241,-1.101038\\Version=ES64L-G16RevC.01\State=1-A\HF=-1435.884
 645\RMSD=1.287e-02\Dipole=-0.7142039,-0.441845,0.1370235\Quadrupole=2.

 Normal termination of Gaussian 16 at Wed Apr  9 00:41:57 2025.
