 Gaussian 16, Revision C.01,

 ----------------------------------------------------------------------
 #t hf aug-cc-pvdz symm=none int=(grid=ultrafine) guess=(read,tcheck) s
 table=(opt,rrhf)
 ----------------------------------------------------------------------
 -----
 title
 -----
 Symbolic Z-matrix:
 Charge =  0 Multiplicity = 1

 SCF Done:  E(RHF) =  -390.927653471     A.U. after   13 cycles
 Normal termination of Gaussian 16 at Wed Apr  9 00:33:17 2025.
 Gaussian 16:  ES64L-G16RevC.01  3-Jul-2019

 ----------------------------------------------------------------------
 #t hf aug-cc-pvdz iop(5/13=1,5/36=2,99/5=2) pseudo=read geom=check gue
 ss=(read,tcheck) scf=(maxcycle=1)
 ----------------------------------------------------------------------
 -----
 title
 -----
 Structure from the checkpoint file:  "BDE49_nonexpt_409_mol1.chk"
 Charge =  0 Multiplicity = 1

                         Standard orientation:
 ---------------------------------------------------------------------
 Center     Atomic      Atomic             Coordinates (Angstroms)
 Number     Number       Type             X           Y           Z
 ---------------------------------------------------------------------
      1          9           0       -0.801375    1.331305    0.000000
      2          5           0       -0.853190    0.020851    0.000001
      3          6           0        1.492838   -0.244593   -0.000001
      4          7           0        2.581842    0.136928    0.000000
      5          8           0        0.297218   -0.745623    0.000000
      6          9           0       -1.992150   -0.623550    0.000000
 ---------------------------------------------------------------------

 SCF Done:  E(RHF) =  -391.287556736     A.U. after    2 cycles

 The electronic state is 1-A.
 Alpha  occ. eigenvalues --  -26.53253 -26.52925 -20.68473 -15.53841 -11.37391
 Alpha  occ. eigenvalues --   -7.81671  -1.69185  -1.65073  -1.61391  -1.25903
 Alpha  occ. eigenvalues --   -0.94775  -0.84610  -0.81697  -0.76522  -0.73660
 Alpha  occ. eigenvalues --   -0.69155  -0.68588  -0.68522  -0.66939  -0.63170
 Alpha  occ. eigenvalues --   -0.51918  -0.50843
 Alpha virt. eigenvalues --    0.03993   0.04105   0.04629   0.04967   0.10636
 Alpha virt. eigenvalues --    0.11889   0.12201   0.14371   0.14470   0.16728
 Alpha virt. eigenvalues --    0.18122   0.18735   0.20283   0.21651   0.22917

 Mulliken charges:
               1
     1  F   -0.499952
     2  B    1.539703
     3  C   -0.263928
     4  N    0.744179
     5  O   -0.820158
     6  F   -0.699843
 Sum of Mulliken charges =  -0.00000

 Dipole moment (field-independent basis, Debye):
    X=             -3.3477    Y=             -0.7953    Z=              0.0000  Tot=              3.4408

 Test job not archived.
 1\1\GINC-SE038\SP\RHF\Aug-CC-pVDZ\C1B1F2N1O1\OHZDE\09-Apr-2025\0\\#t h
 f aug-cc-pvdz iop(5/13=1,5/36=2,99/5=2) pseudo=read geom=check guess=(
 read,tcheck) scf=(maxcycle=1)\\title\\0,1\F,0,-0.801375,1.331305,0.\B,
 0,-0.85319,0.020851,0.000001\C,0,1.492838,-0.244593,-0.000001\N,0,2.58
 1842,0.136928,0.\O,0,0.297218,-0.745623,0.\F,0,-1.99215,-0.62355,0.\\V
 ersion=ES64L-G16RevC.01\State=1-A\HF=-391.2875567\RMSD=1.233e-02\Dipol
 e=-1.31707,-0.312898,0.0000011\Quadrupole=-6.6323267,1.9218732,4.71045
 35,-1.5244388,-0.0000047,0.0000009\PG=C01 [X(C1B1F2N1O1)]\\@

 Normal termination of Gaussian 16 at Wed Apr  9 00:33:21 2025.
