 Gaussian 16, Revision C.01,

 ----------------------------------------------------------------------
 #t hf aug-cc-pvdz symm=none int=(grid=ultrafine) guess=(read,tcheck) s
 table=opt
 ----------------------------------------------------------------------
 -----
 title
 -----
 Symbolic Z-matrix:
 Charge =  0 Multiplicity = 2

 SCF Done:  E(UHF) =  -268.247261201     A.U. after   29 cycles
 Normal termination of Gaussian 16 at Tue Apr  8 22:56:14 2025.
 Gaussian 16:  ES64L-G16RevC.01  3-Jul-2019

 ----------------------------------------------------------------------
 #t hf aug-cc-pvdz iop(5/13=1,5/36=2,99/5=2) pseudo=read geom=check gue
 ss=(read,tcheck) scf=(maxcycle=1)
 ----------------------------------------------------------------------
 -----
 title
 -----
 Structure from the checkpoint file:  "BDE49_expt_1864_mol2.chk"
 Charge =  0 Multiplicity = 2

                         Standard orientation:
 ---------------------------------------------------------------------
 Center     Atomic      Atomic             Coordinates (Angstroms)
 Number     Number       Type             X           Y           Z
 ---------------------------------------------------------------------
      1          8           0        2.083150   -0.014990   -0.281990
      2          6           0        0.858575    0.003191    0.310943
      3          6           0       -0.013808    1.223834    0.067872
      4          6           0       -1.284968    0.881722   -0.117282
      5          6           0       -1.509893   -0.611902   -0.019661
      6          6           0       -0.079782   -1.200618   -0.014979
      7          1           0       -2.120608   -0.994259   -0.843399
      8          1           0       -2.048763   -0.856006    0.904062
      9          1           0        0.047492   -2.029200    0.682243
     10          1           0        0.193160   -1.557780   -1.010316
     11          1           0        1.141942   -0.023482    1.391994
     12          1           0        0.397407    2.225481    0.067502
     13          1           0       -2.096577    1.577816   -0.297523
 ---------------------------------------------------------------------

 SCF Done:  E(UHF) =  -268.523127491     A.U. after    2 cycles

 The electronic state is 2-A.
 Alpha  occ. eigenvalues --  -20.60618 -11.29593 -11.24383 -11.24326 -11.23897
 Alpha  occ. eigenvalues --  -11.23825  -1.49282  -1.13575  -0.98142  -0.94602
 Alpha  occ. eigenvalues --   -0.80715  -0.75397  -0.71265  -0.68408  -0.62783
 Alpha  occ. eigenvalues --   -0.60395  -0.58798  -0.54671  -0.51794  -0.50914
 Alpha  occ. eigenvalues --   -0.48766  -0.44954  -0.36858
 Alpha virt. eigenvalues --    0.03544   0.03935   0.04122   0.04713   0.06197
 Alpha virt. eigenvalues --    0.06310   0.07118   0.10054   0.11907   0.12551
 Alpha virt. eigenvalues --    0.13759   0.14254   0.14962   0.15537   0.15956

  Beta  occ. eigenvalues --  -20.56642 -11.29919 -11.24621 -11.24298 -11.23755
  Beta  occ. eigenvalues --  -11.23595  -1.36219  -1.12944  -0.97909  -0.93354
  Beta  occ. eigenvalues --   -0.79587  -0.74254  -0.69231  -0.65169  -0.58618
  Beta  occ. eigenvalues --   -0.57483  -0.56205  -0.52534  -0.51195  -0.50552
  Beta  occ. eigenvalues --   -0.42283  -0.36664
  Beta virt. eigenvalues --    0.03533   0.03931   0.04131   0.04635   0.06200
  Beta virt. eigenvalues --    0.06316   0.06791   0.08993   0.10747   0.12101
  Beta virt. eigenvalues --    0.12842   0.13876   0.14600   0.15023   0.15573

 Mulliken charges and spin densities:
               1          2
     1  O   -1.068411   1.064356
     2  C    0.591804  -0.253945
     3  C    0.133860   0.207198
     4  C    0.368200  -0.176891
     5  C   -0.517819   0.029246
     6  C   -0.295263   0.030090
     7  H    0.161273  -0.002009
     8  H    0.199753  -0.002934
     9  H    0.166563  -0.000874
    10  H    0.174909   0.003571
    11  H    0.269137   0.101649
    12  H   -0.092380  -0.006268
    13  H   -0.091625   0.006809
 Sum of Mulliken charges =  -0.00000   1.00000

 Dipole moment (field-independent basis, Debye):
    X=             -1.9052    Y=             -0.1787    Z=              0.8036  Tot=              2.0754
                          Isotropic Fermi Contact Couplings
        Atom                 a.u.       MegaHertz       Gauss      10(-4) cm-1
     1  O(17)              0.26143    -158.47550     -56.54800     -52.86174
     2  C(13)             -0.05857     -65.84107     -23.49373     -21.96222
     3  C(13)              0.03481      39.13337      13.96376      13.05349
     4  C(13)             -0.02160     -24.27906      -8.66337      -8.09862
     5  C(13)              0.00595       6.68569       2.38562       2.23011
     6  C(13)              0.01359      15.27458       5.45035       5.09505
     7  H(1)              -0.00118      -5.25537      -1.87525      -1.75300
     8  H(1)              -0.00197      -8.79832      -3.13946      -2.93480

 Normal termination of Gaussian 16 at Tue Apr  8 22:56:18 2025.
