 Gaussian 16, Revision C.01,

 ----------------------------------------------------------------------
 #t hf aug-cc-pvdz symm=none int=(grid=ultrafine) guess=(read,tcheck) s
 table=(opt,rrhf)
 ----------------------------------------------------------------------
 -----
 title
 -----
 Symbolic Z-matrix:
 Charge =  0 Multiplicity = 1

 SCF Done:  E(RHF) =  -533.297333470     A.U. after   15 cycles
 Normal termination of Gaussian 16 at Tue Apr  8 23:29:07 2025.
 Gaussian 16:  ES64L-G16RevC.01  3-Jul-2019

 ----------------------------------------------------------------------
 #t hf aug-cc-pvdz iop(5/13=1,5/36=2,99/5=2) pseudo=read geom=check gue
 ss=(read,tcheck) scf=(maxcycle=1)
 ----------------------------------------------------------------------
 -----
 title
 -----
 Structure from the checkpoint file:  "BDE49_nonexpt_1339_mol1.chk"
 Charge =  0 Multiplicity = 1

                         Standard orientation:
 ---------------------------------------------------------------------
 Center     Atomic      Atomic             Coordinates (Angstroms)
 Number     Number       Type             X           Y           Z
 ---------------------------------------------------------------------
      1         15           0        0.747151   -0.784447   -0.263935
      2          6           0        2.019976    0.453734    0.264609
      3          1           0        1.790322    0.911340    1.226715
      4          1           0        2.056889    1.237837   -0.492671
      5          1           0        2.995703   -0.033719    0.308318
      6          6           0       -0.804765    0.262806   -0.042321
      7          6           0       -2.108723   -0.476885    0.191532
      8          1           0       -2.200686   -1.331338   -0.484498
      9          1           0       -2.945666    0.207669    0.049323
     10          1           0       -2.129894   -0.865216    1.214782
     11          8           0       -0.751309    1.464784   -0.160924
     12          1           0        0.597599   -1.516071    0.941536
 ---------------------------------------------------------------------

 SCF Done:  E(RHF) =  -533.541837774     A.U. after    2 cycles

 The electronic state is 1-A.
 Alpha  occ. eigenvalues --  -84.28116 -20.54632 -11.34759 -11.25162 -11.24392
 Alpha  occ. eigenvalues --   -6.75293  -4.27771  -4.27729  -4.26980  -1.47927
 Alpha  occ. eigenvalues --   -1.02949  -0.99305  -0.84848  -0.72811  -0.64270
 Alpha  occ. eigenvalues --   -0.62753  -0.61501  -0.58477  -0.57989  -0.53624
 Alpha  occ. eigenvalues --   -0.50865  -0.48329  -0.40028  -0.33673
 Alpha virt. eigenvalues --    0.03510   0.03952   0.04977   0.05119   0.06484
 Alpha virt. eigenvalues --    0.06803   0.07361   0.09362   0.10112   0.10933
 Alpha virt. eigenvalues --    0.12513   0.12849   0.14190   0.15085   0.15861

 Mulliken charges:
               1
     1  P    0.452884
     2  C   -0.776504
     3  H    0.085366
     4  H    0.171652
     5  H    0.092056
     6  C    0.635630
     7  C   -0.591300
     8  H    0.258826
     9  H    0.143455
    10  H    0.228037
    11  O   -1.226716
    12  H    0.526615
 Sum of Mulliken charges =  -0.00000

 Dipole moment (field-independent basis, Debye):
    X=              0.1994    Y=             -2.1027    Z=              0.9410  Tot=              2.3122

 Test job not archived.
 1\1\GINC-SE232\SP\RHF\Aug-CC-pVDZ\C3H7O1P1\OHZDE\08-Apr-2025\0\\#t hf
 aug-cc-pvdz iop(5/13=1,5/36=2,99/5=2) pseudo=read geom=check guess=(re
 ad,tcheck) scf=(maxcycle=1)\\title\\0,1\P,0,0.747151,-0.784447,-0.2639
 35\C,0,2.019976,0.453734,0.264609\H,0,1.790322,0.91134,1.226715\H,0,2.
 056889,1.237837,-0.492671\H,0,2.995703,-0.033719,0.308318\C,0,-0.80476
 5,0.262806,-0.042321\C,0,-2.108723,-0.476885,0.191532\H,0,-2.200686,-1
 .331338,-0.484498\H,0,-2.945666,0.207669,0.049323\H,0,-2.129894,-0.865
 216,1.214782\O,0,-0.751309,1.464784,-0.160924\H,0,0.597599,-1.516071,0

 Normal termination of Gaussian 16 at Tue Apr  8 23:29:11 2025.
