 Gaussian 16, Revision C.01,

 ----------------------------------------------------------------------
 #t hf aug-cc-pvdz symm=none int=(grid=ultrafine) guess=(read,tcheck) s
 table=(opt,rrhf)
 ----------------------------------------------------------------------
 -----
 title
 -----
 Symbolic Z-matrix:
 Charge =  0 Multiplicity = 1

 SCF Done:  E(RHF) =  -279.565198176     A.U. after   12 cycles
 Normal termination of Gaussian 16 at Wed Apr  9 00:36:03 2025.
 Gaussian 16:  ES64L-G16RevC.01  3-Jul-2019

 ----------------------------------------------------------------------
 #t hf aug-cc-pvdz iop(5/13=1,5/36=2,99/5=2) pseudo=read geom=check gue
 ss=(read,tcheck) scf=(maxcycle=1)
 ----------------------------------------------------------------------
 -----
 title
 -----
 Structure from the checkpoint file:  "BDE49_nonexpt_46_mol1.chk"
 Charge =  0 Multiplicity = 1

                         Standard orientation:
 ---------------------------------------------------------------------
 Center     Atomic      Atomic             Coordinates (Angstroms)
 Number     Number       Type             X           Y           Z
 ---------------------------------------------------------------------
      1          5           0       -0.804713    0.571818    0.274423
      2          5           0        0.804713    0.571819   -0.274421
      3          8           0       -1.716733   -0.217405   -0.335328
      4          6           0       -3.089961   -0.259803    0.054232
      5          1           0       -3.336893   -1.279463    0.357671
      6          1           0       -3.706175    0.011090   -0.805846
      7          1           0       -3.284698    0.429549    0.881254
      8          8           0        1.716733   -0.217406    0.335327
      9          6           0        3.089961   -0.259803   -0.054233
     10          1           0        3.336893   -1.279463   -0.357673
     11          1           0        3.706175    0.011089    0.805845
     12          1           0        3.284698    0.429550   -0.881254
     13          1           0        1.184585    1.277793   -1.178925
     14          1           0       -1.184585    1.277791    1.178927
 ---------------------------------------------------------------------

 SCF Done:  E(RHF) =  -279.853803016     A.U. after    2 cycles

 The electronic state is 1-A.
 Alpha  occ. eigenvalues --  -20.55040 -20.55040 -11.28840 -11.28840  -7.58980
 Alpha  occ. eigenvalues --   -7.58962  -1.46033  -1.45886  -0.95020  -0.94194
 Alpha  occ. eigenvalues --   -0.74395  -0.71179  -0.64529  -0.63609  -0.63215
 Alpha  occ. eigenvalues --   -0.62834  -0.59323  -0.54870  -0.50681  -0.47558
 Alpha  occ. eigenvalues --   -0.46848  -0.46401  -0.39289
 Alpha virt. eigenvalues --    0.03766   0.03845   0.04151   0.04330   0.05819
 Alpha virt. eigenvalues --    0.05945   0.06947   0.07794   0.08040   0.08568
 Alpha virt. eigenvalues --    0.09559   0.09919   0.10317   0.12473   0.13548

 Mulliken charges:
               1
     1  B    0.530335
     2  B    0.530334
     3  O   -1.139805
     4  C    0.433635
     5  H    0.088137
     6  H    0.090298
     7  H    0.099974
     8  O   -1.139805
     9  C    0.433635
    10  H    0.088138
    11  H    0.090297
    12  H    0.099974
    13  H   -0.102575
    14  H   -0.102574
 Sum of Mulliken charges =  -0.00000

 Dipole moment (field-independent basis, Debye):
    X=              0.0000    Y=              0.1110    Z=              0.0000  Tot=              0.1110

 Test job not archived.
 1\1\GINC-SE102\SP\RHF\Aug-CC-pVDZ\C2H8B2O2\OHZDE\09-Apr-2025\0\\#t hf
 aug-cc-pvdz iop(5/13=1,5/36=2,99/5=2) pseudo=read geom=check guess=(re
 ad,tcheck) scf=(maxcycle=1)\\title\\0,1\B,0,-0.804713,0.571818,0.27442
 3\B,0,0.804713,0.571819,-0.274421\O,0,-1.716733,-0.217405,-0.335328\C,
 0,-3.089961,-0.259803,0.054232\H,0,-3.336893,-1.279463,0.357671\H,0,-3
 .706175,0.01109,-0.805846\H,0,-3.284698,0.429549,0.881254\O,0,1.716733
 ,-0.217406,0.335327\C,0,3.089961,-0.259803,-0.054233\H,0,3.336893,-1.2
 79463,-0.357673\H,0,3.706175,0.011089,0.805845\H,0,3.284698,0.42955,-0

 Normal termination of Gaussian 16 at Wed Apr  9 00:36:07 2025.
