 Gaussian 16, Revision C.01,

 ----------------------------------------------------------------------
 #t hf aug-cc-pvdz symm=none int=(grid=ultrafine) guess=(read,tcheck) s
 table=opt
 ----------------------------------------------------------------------
 -----
 title
 -----
 Symbolic Z-matrix:
 Charge =  0 Multiplicity = 2

 SCF Done:  E(UHF) =  -502.251500184     A.U. after   19 cycles
 Normal termination of Gaussian 16 at Tue Apr  8 23:50:18 2025.
 Gaussian 16:  ES64L-G16RevC.01  3-Jul-2019

 ----------------------------------------------------------------------
 #t hf aug-cc-pvdz iop(5/13=1,5/36=2,99/5=2) pseudo=read geom=check gue
 ss=(read,tcheck) scf=(maxcycle=1)
 ----------------------------------------------------------------------
 -----
 title
 -----
 Structure from the checkpoint file:  "BDE49_nonexpt_1876_mol2.chk"
 Charge =  0 Multiplicity = 2

                         Standard orientation:
 ---------------------------------------------------------------------
 Center     Atomic      Atomic             Coordinates (Angstroms)
 Number     Number       Type             X           Y           Z
 ---------------------------------------------------------------------
      1         14           0        1.360028   -0.011122   -0.084370
      2          6           0       -0.529388    0.145153    0.013776
      3          8           0       -1.181643    1.134247    0.022991
      4          1           0        1.991404    1.246237    0.360477
      5          1           0        1.861716   -1.223144    0.593441
      6          9           0       -1.140449   -1.090253   -0.004369
 ---------------------------------------------------------------------

 SCF Done:  E(UHF) =  -502.475716789     A.U. after    2 cycles

 The electronic state is 2-A.
 Alpha  occ. eigenvalues --  -69.58419 -26.49102 -20.59012 -11.42658  -6.25636
 Alpha  occ. eigenvalues --   -4.01630  -4.00718  -4.00651  -1.62769  -1.52243
 Alpha  occ. eigenvalues --   -0.89632  -0.79415  -0.71945  -0.69302  -0.68675
 Alpha  occ. eigenvalues --   -0.58784  -0.56139  -0.53422  -0.47296  -0.37469
 Alpha virt. eigenvalues --    0.03433   0.05016   0.05308   0.05550   0.08220
 Alpha virt. eigenvalues --    0.08331   0.10258   0.12735   0.12938   0.13134
 Alpha virt. eigenvalues --    0.15342   0.16422   0.17290   0.20362   0.22960

  Beta  occ. eigenvalues --  -69.57826 -26.49146 -20.58411 -11.42928  -6.24746
  Beta  occ. eigenvalues --   -4.00290  -4.00227  -3.99356  -1.62804  -1.51040
  Beta  occ. eigenvalues --   -0.88411  -0.77720  -0.71491  -0.69328  -0.66808
  Beta  occ. eigenvalues --   -0.58413  -0.53190  -0.52735  -0.46471
  Beta virt. eigenvalues --   -0.00750   0.03717   0.05246   0.05411   0.06704
  Beta virt. eigenvalues --    0.08570   0.09676   0.11739   0.12943   0.13576
  Beta virt. eigenvalues --    0.15285   0.16267   0.18446   0.19304   0.20965

 Mulliken charges and spin densities:
               1          2
     1  Si   0.774789   0.989084
     2  C    1.087727  -0.120824
     3  O   -0.915741   0.143750
     4  H   -0.132823  -0.000568
     5  H   -0.149780  -0.006704
     6  F   -0.664172  -0.004738
 Sum of Mulliken charges =  -0.00000   1.00000

 Dipole moment (field-independent basis, Debye):
    X=              2.9533    Y=             -0.6211    Z=              0.0879  Tot=              3.0192
                          Isotropic Fermi Contact Couplings
        Atom                 a.u.       MegaHertz       Gauss      10(-4) cm-1
     1  Si(29)             0.58792    -522.50431    -186.44253    -174.28868
     2  C(13)             -0.02462     -27.67736      -9.87597      -9.23217
     3  O(17)              0.04460     -27.03381      -9.64633      -9.01751
     4  H(1)              -0.00045      -2.01635      -0.71948      -0.67258
     5  H(1)              -0.00156      -6.97117      -2.48749      -2.32533
     6  F(19)             -0.00925     -38.92142     -13.88813     -12.98279
 --------------------------------------------------------
       Center         ----  Spin Dipole Couplings  ----

 1\1\GINC-SE340\SP\UHF\Aug-CC-pVDZ\C1H2F1O1Si1(2)\OHZDE\08-Apr-2025\0\\
 #t hf aug-cc-pvdz iop(5/13=1,5/36=2,99/5=2) pseudo=read geom=check gue
 ss=(read,tcheck) scf=(maxcycle=1)\\title\\0,2\Si,0,1.360028,-0.011122,
 -0.08437\C,0,-0.529388,0.145153,0.013776\O,0,-1.181643,1.134247,0.0229
 91\H,0,1.991404,1.246237,0.360477\H,0,1.861716,-1.223144,0.593441\F,0,
 -1.140449,-1.090253,-0.004369\\Version=ES64L-G16RevC.01\State=2-A\HF=-
 502.4757168\S2=0.768419\S2-1=0.\S2A=0.750149\RMSD=5.814e-03\Dipole=1.1
 619359,-0.2443596,0.034578\Quadrupole=0.1193733,-1.4787907,1.3594175,0

 Normal termination of Gaussian 16 at Tue Apr  8 23:50:20 2025.
