 Gaussian 16, Revision C.01,

 ----------------------------------------------------------------------
 #t hf aug-cc-pvdz symm=none int=(grid=ultrafine) guess=(read,tcheck) s
 table=(opt,rrhf)
 ----------------------------------------------------------------------
 -----
 title
 -----
 Symbolic Z-matrix:
 Charge =  0 Multiplicity = 1

 SCF Done:  E(RHF) =  -974.725115685     A.U. after   13 cycles
 Normal termination of Gaussian 16 at Wed Apr  9 00:16:40 2025.
 Gaussian 16:  ES64L-G16RevC.01  3-Jul-2019

 ----------------------------------------------------------------------
 #t hf aug-cc-pvdz iop(5/13=1,5/36=2,99/5=2) pseudo=read geom=check gue
 ss=(read,tcheck) scf=(maxcycle=1)
 ----------------------------------------------------------------------
 -----
 title
 -----
 Structure from the checkpoint file:  "BDE49_nonexpt_2542_mol1.chk"
 Charge =  0 Multiplicity = 1

                         Standard orientation:
 ---------------------------------------------------------------------
 Center     Atomic      Atomic             Coordinates (Angstroms)
 Number     Number       Type             X           Y           Z
 ---------------------------------------------------------------------
      1         17           0       -1.710170    0.000813   -0.620591
      2         16           0       -0.476586   -0.001466    1.061535
      3          6           0        1.206020   -0.000379    0.317319
      4          6           0        1.510422   -1.276442   -0.466760
      5          1           0        1.333509   -2.167132    0.137957
      6          1           0        2.556660   -1.275339   -0.787782
      7          1           0        0.885633   -1.339570   -1.360629
      8          6           0        1.510236    1.277758   -0.463447
      9          1           0        1.787294   -0.001550    1.251314
     10          1           0        0.885437    1.343115   -1.357149
     11          1           0        2.556475    1.277639   -0.784472
     12          1           0        1.333195    2.166850    0.143580
 ---------------------------------------------------------------------

 SCF Done:  E(RHF) =  -974.994394947     A.U. after    2 cycles

 The electronic state is 1-A.
 Alpha  occ. eigenvalues -- -105.57682 -94.00107 -11.29532 -11.24211 -11.24203
 Alpha  occ. eigenvalues --  -10.62378  -8.27804  -7.79315  -7.78891  -7.78854
 Alpha  occ. eigenvalues --   -6.25629  -6.25342  -6.25091  -1.13953  -1.06377
 Alpha  occ. eigenvalues --   -0.95343  -0.93210  -0.78928  -0.65318  -0.62387
 Alpha  occ. eigenvalues --   -0.59756  -0.56256  -0.54702  -0.52099  -0.50612
 Alpha  occ. eigenvalues --   -0.49897  -0.49792  -0.43630  -0.36483
 Alpha virt. eigenvalues --    0.03254   0.03808   0.04227   0.05442   0.06363
 Alpha virt. eigenvalues --    0.07119   0.07191   0.07885   0.08713   0.12223
 Alpha virt. eigenvalues --    0.13516   0.14555   0.14679   0.15165   0.15926

 Mulliken charges:
               1
     1  Cl  -0.339249
     2  S    0.337426
     3  C   -0.870872
     4  C   -0.235314
     5  H    0.151380
     6  H    0.174619
     7  H    0.213347
     8  C   -0.235311
     9  H    0.264614
    10  H    0.213349
    11  H    0.174622
    12  H    0.151389
 Sum of Mulliken charges =  -0.00000

 Dipole moment (field-independent basis, Debye):
    X=              2.7644    Y=              0.0001    Z=              0.0261  Tot=              2.7645

 Test job not archived.
 1\1\GINC-SE424\SP\RHF\Aug-CC-pVDZ\C3H7Cl1S1\OHZDE\09-Apr-2025\0\\#t hf
  aug-cc-pvdz iop(5/13=1,5/36=2,99/5=2) pseudo=read geom=check guess=(r
 ead,tcheck) scf=(maxcycle=1)\\title\\0,1\Cl,0,-1.71017,0.000813,-0.620
 591\S,0,-0.476586,-0.001466,1.061535\C,0,1.20602,-0.000379,0.317319\C,
 0,1.510422,-1.276442,-0.46676\H,0,1.333509,-2.167132,0.137957\H,0,2.55
 666,-1.275339,-0.787782\H,0,0.885633,-1.33957,-1.360629\C,0,1.510236,1
 .277758,-0.463447\H,0,1.787294,-0.00155,1.251314\H,0,0.885437,1.343115
 ,-1.357149\H,0,2.556475,1.277639,-0.784472\H,0,1.333195,2.16685,0.1435

 Normal termination of Gaussian 16 at Wed Apr  9 00:16:44 2025.
