 Gaussian 16, Revision C.01,

 ----------------------------------------------------------------------
 #t hf aug-cc-pvdz symm=none int=(grid=ultrafine) guess=(read,tcheck) s
 table=(opt,rrhf)
 ----------------------------------------------------------------------
 -----
 title
 -----
 Symbolic Z-matrix:
 Charge =  0 Multiplicity = 1

 SCF Done:  E(RHF) =  -302.378543356     A.U. after   12 cycles
 Normal termination of Gaussian 16 at Wed Apr  9 00:32:15 2025.
 Gaussian 16:  ES64L-G16RevC.01  3-Jul-2019

 ----------------------------------------------------------------------
 #t hf aug-cc-pvdz iop(5/13=1,5/36=2,99/5=2) pseudo=read geom=check gue
 ss=(read,tcheck) scf=(maxcycle=1)
 ----------------------------------------------------------------------
 -----
 title
 -----
 Structure from the checkpoint file:  "BDE49_nonexpt_370_mol1.chk"
 Charge =  0 Multiplicity = 1

                         Standard orientation:
 ---------------------------------------------------------------------
 Center     Atomic      Atomic             Coordinates (Angstroms)
 Number     Number       Type             X           Y           Z
 ---------------------------------------------------------------------
      1          9           0       -1.762558   -0.673022   -0.000045
      2          9           0       -0.698926    1.311867   -0.000042
      3          5           0       -0.606077   -0.014838    0.000066
      4          6           0        0.760509   -0.764874    0.000035
      5          6           0        2.013660    0.122514    0.000021
      6          1           0        0.764716   -1.441956    0.865027
      7          1           0        2.041581    0.770596   -0.879382
      8          1           0        2.926135   -0.478528    0.000002
      9          1           0        2.041609    0.770584    0.879432
     10          1           0        0.764689   -1.441945   -0.864966
 ---------------------------------------------------------------------

 SCF Done:  E(RHF) =  -302.673058597     A.U. after    2 cycles

 The electronic state is 1-A.
 Alpha  occ. eigenvalues --  -26.47291 -26.47169 -11.23785 -11.23207  -7.70974
 Alpha  occ. eigenvalues --   -1.62402  -1.58254  -1.04321  -0.87702  -0.79346
 Alpha  occ. eigenvalues --   -0.73611  -0.69988  -0.69079  -0.62669  -0.62021
 Alpha  occ. eigenvalues --   -0.61555  -0.58880  -0.53369  -0.50981  -0.49065
 Alpha virt. eigenvalues --    0.03420   0.04066   0.04263   0.04741   0.06813
 Alpha virt. eigenvalues --    0.07615   0.07664   0.07907   0.11740   0.13435
 Alpha virt. eigenvalues --    0.14923   0.15587   0.15800   0.16851   0.16964

 Mulliken charges:
               1
     1  F   -0.772617
     2  F   -0.670423
     3  B    1.644655
     4  C   -0.258429
     5  C   -0.486661
     6  H    0.072493
     7  H    0.134154
     8  H    0.130196
     9  H    0.134161
    10  H    0.072469
 Sum of Mulliken charges =  -0.00000

 Dipole moment (field-independent basis, Debye):
    X=              1.5937    Y=             -0.8105    Z=              0.0003  Tot=              1.7879

 Test job not archived.
 1\1\GINC-SE162\SP\RHF\Aug-CC-pVDZ\C2H5B1F2\OHZDE\09-Apr-2025\0\\#t hf
 aug-cc-pvdz iop(5/13=1,5/36=2,99/5=2) pseudo=read geom=check guess=(re
 ad,tcheck) scf=(maxcycle=1)\\title\\0,1\F,0,-1.762558,-0.673022,-0.000
 045\F,0,-0.698926,1.311867,-0.000042\B,0,-0.606077,-0.014838,0.000066\
 C,0,0.760509,-0.764874,0.000035\C,0,2.01366,0.122514,0.000021\H,0,0.76
 4716,-1.441956,0.865027\H,0,2.041581,0.770596,-0.879382\H,0,2.926135,-
 0.478528,0.000002\H,0,2.041609,0.770584,0.879432\H,0,0.764689,-1.44194
 5,-0.864966\\Version=ES64L-G16RevC.01\State=1-A\HF=-302.6730586\RMSD=7

 Normal termination of Gaussian 16 at Wed Apr  9 00:32:18 2025.
