 Gaussian 16, Revision C.01,

 ----------------------------------------------------------------------
 #t hf aug-cc-pvdz symm=none int=(grid=ultrafine) guess=(read,tcheck) s
 table=opt
 ----------------------------------------------------------------------
 -----
 title
 -----
 Symbolic Z-matrix:
 Charge =  0 Multiplicity = 2

 SCF Done:  E(UHF) =  -1888.71232762     A.U. after   19 cycles
 Normal termination of Gaussian 16 at Tue Apr  8 23:15:55 2025.
 Gaussian 16:  ES64L-G16RevC.01  3-Jul-2019

 ----------------------------------------------------------------------
 #t hf aug-cc-pvdz iop(5/13=1,5/36=2,99/5=2) pseudo=read geom=check gue
 ss=(read,tcheck) scf=(maxcycle=1)
 ----------------------------------------------------------------------
 -----
 title
 -----
 Structure from the checkpoint file:  "BDE49_nonexpt_1013_mol2.chk"
 Charge =  0 Multiplicity = 2

                         Standard orientation:
 ---------------------------------------------------------------------
 Center     Atomic      Atomic             Coordinates (Angstroms)
 Number     Number       Type             X           Y           Z
 ---------------------------------------------------------------------
      1         16           0        2.297810    0.000000   -0.464936
      2          8           0        0.714396    0.000000   -0.986474
      3          6           0       -0.331414    0.000000   -0.056555
      4         17           0       -1.814241    0.000000   -1.040310
      5         17           0       -0.283810    1.465191    0.981040
      6         17           0       -0.283810   -1.465191    0.981041
 ---------------------------------------------------------------------

 SCF Done:  E(UHF) =  -1889.09616820     A.U. after    2 cycles

 The electronic state is 2-A.
 Alpha  occ. eigenvalues -- -105.60545-105.60529-105.60528 -94.05289 -20.65540
 Alpha  occ. eigenvalues --  -11.51389 -10.65410 -10.65386 -10.65382  -8.32716
 Alpha  occ. eigenvalues --   -7.82362  -7.82346  -7.82335  -7.81904  -7.81903
 Alpha  occ. eigenvalues --   -7.81891  -7.81891  -7.81884  -7.81882  -6.31781
 Alpha  occ. eigenvalues --   -6.30159  -6.29679  -1.56960  -1.20453  -1.08752
 Alpha  occ. eigenvalues --   -1.08212  -1.02417  -0.83454  -0.71405  -0.71284
 Alpha  occ. eigenvalues --   -0.69602  -0.60082  -0.58566  -0.51928  -0.51470
 Alpha  occ. eigenvalues --   -0.51456  -0.48248  -0.48150  -0.46903  -0.45483
 Alpha  occ. eigenvalues --   -0.42111
 Alpha virt. eigenvalues --    0.05151   0.06058   0.08135   0.08542   0.08833
 Alpha virt. eigenvalues --    0.10497   0.11799   0.12307   0.13426   0.13432
 Alpha virt. eigenvalues --    0.14658   0.16591   0.17320   0.17368   0.18639

  Beta  occ. eigenvalues -- -105.60548-105.60522-105.60521 -94.04398 -20.65049
  Beta  occ. eigenvalues --  -11.51430 -10.65414 -10.65380 -10.65376  -8.31694
  Beta  occ. eigenvalues --   -7.82369  -7.82316  -7.82307  -7.81909  -7.81905
  Beta  occ. eigenvalues --   -7.81888  -7.81887  -7.81879  -7.81877  -6.29755
  Beta  occ. eigenvalues --   -6.29152  -6.27731  -1.55628  -1.20121  -1.08563
  Beta  occ. eigenvalues --   -1.08136  -0.96403  -0.81578  -0.70750  -0.69186
  Beta  occ. eigenvalues --   -0.68142  -0.57951  -0.56411  -0.51864  -0.51290
  Beta  occ. eigenvalues --   -0.50576  -0.48184  -0.47945  -0.46809  -0.40095
  Beta virt. eigenvalues --   -0.01530   0.05633   0.06230   0.08345   0.08593
  Beta virt. eigenvalues --    0.08930   0.10615   0.12844   0.13136   0.13472
  Beta virt. eigenvalues --    0.14062   0.14855   0.16835   0.17517   0.17552

 Mulliken charges and spin densities:
               1          2
     1  S    0.609314   0.975299
     2  O   -1.032779   0.020293
     3  C   -0.210836   0.000310
     4  Cl   0.217947  -0.002275
     5  Cl   0.208177   0.003186
     6  Cl   0.208177   0.003186
 Sum of Mulliken charges =  -0.00000   1.00000

 Dipole moment (field-independent basis, Debye):
    X=              0.8390    Y=              0.0000    Z=              0.2441  Tot=              0.8738
                          Isotropic Fermi Contact Couplings
        Atom                 a.u.       MegaHertz       Gauss      10(-4) cm-1
     1  S(33)              0.20351      69.90090      24.94238      23.31643
     2  O(17)              0.04900     -29.70354     -10.59896      -9.90803
     3  C(13)             -0.00733      -8.24256      -2.94115      -2.74942
     4  Cl(35)            -0.00168      -0.73594      -0.26260      -0.24548
     5  Cl(35)            -0.00343      -1.50505      -0.53704      -0.50203
     6  Cl(35)            -0.00343      -1.50505      -0.53704      -0.50203
 --------------------------------------------------------
       Center         ----  Spin Dipole Couplings  ----

 Normal termination of Gaussian 16 at Tue Apr  8 23:15:58 2025.
