 Gaussian 16, Revision C.01,

 ----------------------------------------------------------------------
 #t hf aug-cc-pvdz symm=none int=(grid=ultrafine) guess=(read,tcheck) s
 table=(opt,rrhf)
 ----------------------------------------------------------------------
 -----
 title
 -----
 Symbolic Z-matrix:
 Charge =  0 Multiplicity = 1

 SCF Done:  E(RHF) =  -522.343279577     A.U. after   11 cycles
 Normal termination of Gaussian 16 at Tue Apr  8 22:44:00 2025.
 Gaussian 16:  ES64L-G16RevC.01  3-Jul-2019

 ----------------------------------------------------------------------
 #t hf aug-cc-pvdz iop(5/13=1,5/36=2,99/5=2) pseudo=read geom=check gue
 ss=(read,tcheck) scf=(maxcycle=1)
 ----------------------------------------------------------------------
 -----
 title
 -----
 Structure from the checkpoint file:  "BDE49_expt_1490_mol1.chk"
 Charge =  0 Multiplicity = 1

                         Standard orientation:
 ---------------------------------------------------------------------
 Center     Atomic      Atomic             Coordinates (Angstroms)
 Number     Number       Type             X           Y           Z
 ---------------------------------------------------------------------
      1          6           0       -2.366899    0.000000    0.210673
      2          8           0       -1.078178   -0.000001    0.797505
      3          1           0       -2.532496   -0.890548   -0.408700
      4          1           0       -2.532495    0.890549   -0.408699
      5          1           0       -3.106915   -0.000001    1.013774
      6         14           0        0.378127   -0.000000   -0.002362
      7          6           0        1.669302   -0.000002    1.349501
      8          1           0        1.568110    0.883696    1.985638
      9          1           0        2.680636   -0.000001    0.930914
     10          1           0        1.568110   -0.883701    1.985636
     11          6           0        0.535242   -1.532906   -1.079695
     12          1           0        0.440027   -2.446817   -0.485847
     13          1           0        1.511672   -1.557830   -1.574623
     14          1           0       -0.227012   -1.562008   -1.864659
     15          6           0        0.535243    1.532909   -1.079692
     16          1           0        0.440028    2.446818   -0.485842
     17          1           0       -0.227012    1.562012   -1.864655
     18          1           0        1.511672    1.557833   -1.574620
 ---------------------------------------------------------------------

 SCF Done:  E(RHF) =  -522.631417322     A.U. after    2 cycles

 The electronic state is 1-A.
 Alpha  occ. eigenvalues --  -69.53086 -20.52065 -11.28370 -11.20689 -11.20686
 Alpha  occ. eigenvalues --  -11.20368  -6.19737  -3.95204  -3.95051  -3.95029
 Alpha  occ. eigenvalues --   -1.42412  -0.97640  -0.93159  -0.92711  -0.91717
 Alpha  occ. eigenvalues --   -0.69100  -0.62531  -0.61606  -0.59296  -0.56544
 Alpha  occ. eigenvalues --   -0.56392  -0.55030  -0.54341  -0.53909  -0.53441
 Alpha  occ. eigenvalues --   -0.46968  -0.46852  -0.42701  -0.41048
 Alpha virt. eigenvalues --    0.03398   0.03787   0.04189   0.04209   0.06117
 Alpha virt. eigenvalues --    0.06344   0.06505   0.06800   0.06820   0.09291
 Alpha virt. eigenvalues --    0.09378   0.09636   0.10788   0.11950   0.12121

 Mulliken charges:
               1
     1  C    0.253814
     2  O   -1.960124
     3  H    0.115577
     4  H    0.115577
     5  H   -0.050803
     6  Si   3.794502
     7  C   -0.624304
     8  H   -0.017652
     9  H   -0.027535
    10  H   -0.017653
    11  C   -0.663009
    12  H   -0.042055
    13  H    0.002931
    14  H   -0.088567
    15  C   -0.663006
    16  H   -0.042057
    17  H   -0.088566
    18  H    0.002929
 Sum of Mulliken charges =  -0.00000

 Dipole moment (field-independent basis, Debye):
    X=             -0.1454    Y=              0.0000    Z=             -1.0335  Tot=              1.0437

 Test job not archived.
 1\1\GINC-SE339\SP\RHF\Aug-CC-pVDZ\C4H12O1Si1\OHZDE\08-Apr-2025\0\\#t h
 f aug-cc-pvdz iop(5/13=1,5/36=2,99/5=2) pseudo=read geom=check guess=(
 read,tcheck) scf=(maxcycle=1)\\title\\0,1\C,0,2.366899,0.,-0.210673\O,
 0,1.078178,-0.000001,-0.797505\H,0,2.532496,-0.890548,0.4087\H,0,2.532
 495,0.890549,0.408699\H,0,3.106915,-0.000001,-1.013774\Si,0,-0.378127,
 0.,0.002362\C,0,-1.669302,-0.000002,-1.349501\H,0,-1.56811,0.883696,-1
 .985638\H,0,-2.680636,-0.000001,-0.930914\H,0,-1.56811,-0.883701,-1.98
 5636\C,0,-0.535242,-1.532906,1.079695\H,0,-0.440027,-2.446817,0.485847

 Normal termination of Gaussian 16 at Tue Apr  8 22:44:06 2025.
