 Gaussian 16, Revision C.01,

 ----------------------------------------------------------------------
 #t hf aug-cc-pvdz symm=none int=(grid=ultrafine) guess=(read,tcheck) s
 table=(opt,rrhf)
 ----------------------------------------------------------------------
 -----
 title
 -----
 Symbolic Z-matrix:
 Charge =  0 Multiplicity = 1

 SCF Done:  E(RHF) =  -670.903830787     A.U. after   15 cycles
 Normal termination of Gaussian 16 at Tue Apr  8 23:32:41 2025.
 Gaussian 16:  ES64L-G16RevC.01  3-Jul-2019

 ----------------------------------------------------------------------
 #t hf aug-cc-pvdz iop(5/13=1,5/36=2,99/5=2) pseudo=read geom=check gue
 ss=(read,tcheck) scf=(maxcycle=1)
 ----------------------------------------------------------------------
 -----
 title
 -----
 Structure from the checkpoint file:  "BDE49_nonexpt_1417_mol1.chk"
 Charge =  0 Multiplicity = 1

                         Standard orientation:
 ---------------------------------------------------------------------
 Center     Atomic      Atomic             Coordinates (Angstroms)
 Number     Number       Type             X           Y           Z
 ---------------------------------------------------------------------
      1          6           0        1.183031   -1.211462   -0.000007
      2          6           0       -0.211168   -1.206997   -0.000010
      3          6           0       -0.933908   -0.008329   -0.000003
      4          6           0        1.848010    0.002933   -0.000002
      5          6           0        1.168479    1.214460    0.000001
      6          6           0       -0.221486    1.200466    0.000001
      7          1           0        1.749849   -2.134124   -0.000012
      8          1           0       -0.741681   -2.152700   -0.000020
      9          1           0       -0.755952    2.143425    0.000005
     10          1           0        1.729193    2.141085    0.000003
     11         15           0       -2.779402   -0.114545   -0.000004
     12          9           0        3.197544    0.013064   -0.000001
     13          1           0       -3.033015    0.828359   -1.030546
     14          1           0       -3.033007    0.828115    1.030765
 ---------------------------------------------------------------------

 SCF Done:  E(RHF) =  -671.274659296     A.U. after    2 cycles

 The electronic state is 1-A.
 Alpha  occ. eigenvalues --  -84.28093 -26.48218 -11.34583 -11.26773 -11.26656
 Alpha  occ. eigenvalues --  -11.25961 -11.25939 -11.25793  -6.75143  -4.27933
 Alpha  occ. eigenvalues --   -4.27380  -4.27183  -1.61159  -1.17386  -1.04213
 Alpha  occ. eigenvalues --   -1.03772  -0.88852  -0.87214  -0.81459  -0.75134
 Alpha  occ. eigenvalues --   -0.70858  -0.67834  -0.66128  -0.62786  -0.62239
 Alpha  occ. eigenvalues --   -0.60362  -0.54208  -0.52234  -0.49673  -0.48943
 Alpha  occ. eigenvalues --   -0.36774  -0.35634  -0.35216
 Alpha virt. eigenvalues --    0.03367   0.03786   0.04265   0.05599   0.05991
 Alpha virt. eigenvalues --    0.06217   0.07986   0.08197   0.09824   0.10606
 Alpha virt. eigenvalues --    0.10824   0.11455   0.12501   0.12893   0.13979

 Mulliken charges:
               1
     1  C   -0.064298
     2  C   -0.285315
     3  C    0.167365
     4  C    1.128773
     5  C   -0.006457
     6  C    0.654195
     7  H   -0.178396
     8  H   -0.209368
     9  H   -0.222188
    10  H   -0.189016
    11  P   -0.614316
    12  F   -0.981515
    13  H    0.400253
    14  H    0.400282
 Sum of Mulliken charges =  -0.00000

 Dipole moment (field-independent basis, Debye):
    X=             -0.7520    Y=              0.4651    Z=              0.0000  Tot=              0.8842

 Test job not archived.
 1\1\GINC-SE045\SP\RHF\Aug-CC-pVDZ\C6H6F1P1\OHZDE\08-Apr-2025\0\\#t hf
 aug-cc-pvdz iop(5/13=1,5/36=2,99/5=2) pseudo=read geom=check guess=(re
 ad,tcheck) scf=(maxcycle=1)\\title\\0,1\C,0,1.183031,-1.211462,-0.0000
 07\C,0,-0.211168,-1.206997,-0.00001\C,0,-0.933908,-0.008329,-0.000003\
 C,0,1.84801,0.002933,-0.000002\C,0,1.168479,1.21446,0.000001\C,0,-0.22
 1486,1.200466,0.000001\H,0,1.749849,-2.134124,-0.000012\H,0,-0.741681,
 -2.1527,-0.00002\H,0,-0.755952,2.143425,0.000005\H,0,1.729193,2.141085
 ,0.000003\P,0,-2.779402,-0.114545,-0.000004\F,0,3.197544,0.013064,-0.0

 Normal termination of Gaussian 16 at Tue Apr  8 23:32:47 2025.
