 Gaussian 16, Revision C.01,

 ----------------------------------------------------------------------
 #t hf aug-cc-pvdz symm=none int=(grid=ultrafine) guess=(read,tcheck) s
 table=(opt,rrhf)
 ----------------------------------------------------------------------
 -----
 title
 -----
 Symbolic Z-matrix:
 Charge =  0 Multiplicity = 1

 SCF Done:  E(RHF) =  -1222.98745904     A.U. after   18 cycles
 Normal termination of Gaussian 16 at Tue Apr  8 23:31:53 2025.
 Gaussian 16:  ES64L-G16RevC.01  3-Jul-2019

 ----------------------------------------------------------------------
 #t hf aug-cc-pvdz iop(5/13=1,5/36=2,99/5=2) pseudo=read geom=check gue
 ss=(read,tcheck) scf=(maxcycle=1)
 ----------------------------------------------------------------------
 -----
 title
 -----
 Structure from the checkpoint file:  "BDE49_nonexpt_1377_mol1.chk"
 Charge =  0 Multiplicity = 1

                         Standard orientation:
 ---------------------------------------------------------------------
 Center     Atomic      Atomic             Coordinates (Angstroms)
 Number     Number       Type             X           Y           Z
 ---------------------------------------------------------------------
      1          9           0        2.606680    1.061410    0.135770
      2          9           0       -0.689565   -1.429388   -1.605186
      3          8           0        1.640903   -1.637871    1.258477
      4          8           0       -0.125840    2.411707   -0.243315
      5         15           0        1.499306    0.281068   -0.756832
      6         15           0       -0.875830   -1.477222    0.044715
      7          6           0        0.983965   -1.115264    0.406518
      8          6           0       -0.075346    1.212642   -0.208945
      9          6           0       -1.264136    0.343014    0.284938
     10          6           0       -2.560429    0.735465   -0.444682
     11          1           0       -2.503475    0.500828   -1.509303
     12          1           0       -2.725341    1.809630   -0.337475
     13          1           0       -3.416994    0.207325   -0.019077
     14          6           0       -1.385811    0.586819    1.809968
     15          1           0       -0.475145    0.319812    2.353589
     16          1           0       -1.582326    1.645951    1.987880
     17          1           0       -2.212864    0.003824    2.222817
 ---------------------------------------------------------------------

 SCF Done:  E(RHF) =  -1223.59037052     A.U. after    2 cycles

 The electronic state is 1-A.
 Alpha  occ. eigenvalues --  -84.37994 -84.37865 -26.49136 -26.48672 -20.60227
 Alpha  occ. eigenvalues --  -20.58480 -11.38624 -11.38171 -11.30358 -11.27321
 Alpha  occ. eigenvalues --  -11.26416  -6.84325  -6.84261  -4.37144  -4.37079
 Alpha  occ. eigenvalues --   -4.36538  -4.36233  -4.36065  -4.35806  -1.59869
 Alpha  occ. eigenvalues --   -1.59733  -1.53065  -1.51836  -1.14064  -1.00669
 Alpha  occ. eigenvalues --   -0.97781  -0.90277  -0.88057  -0.78065  -0.75196
 Alpha  occ. eigenvalues --   -0.71181  -0.70611  -0.69681  -0.68068  -0.67351
 Alpha  occ. eigenvalues --   -0.66325  -0.65598  -0.62858  -0.62520  -0.61587
 Alpha  occ. eigenvalues --   -0.59075  -0.57716  -0.57486  -0.55720  -0.54211
 Alpha  occ. eigenvalues --   -0.52313  -0.48807  -0.42402  -0.37825  -0.34719
 Alpha virt. eigenvalues --    0.03073   0.03212   0.04482   0.04746   0.05222
 Alpha virt. eigenvalues --    0.06012   0.06833   0.06919   0.07230   0.08109
 Alpha virt. eigenvalues --    0.08975   0.09983   0.10150   0.11053   0.11195

 Mulliken charges:
               1
     1  F   -0.860832
     2  F   -0.835201
     3  O   -1.201869
     4  O   -1.332924
     5  P    1.871948
     6  P    1.526723
     7  C    0.069809
     8  C    0.523175
     9  C   -0.788367
    10  C    0.050235
    11  H    0.149990
    12  H    0.241663
    13  H    0.196038
    14  C   -0.161880
    15  H    0.130533
    16  H    0.225791
    17  H    0.195165
 Sum of Mulliken charges =  -0.00000

 Dipole moment (field-independent basis, Debye):
    X=             -3.2249    Y=             -0.8950    Z=             -0.0046  Tot=              3.3468

 Test job not archived.
 1\1\GINC-SE341\SP\RHF\Aug-CC-pVDZ\C5H6F2O2P2\OHZDE\08-Apr-2025\0\\#t h
 f aug-cc-pvdz iop(5/13=1,5/36=2,99/5=2) pseudo=read geom=check guess=(
 read,tcheck) scf=(maxcycle=1)\\title\\0,1\F,0,2.60668,-1.06141,-0.1357
 7\F,0,-0.689564,1.429388,1.605186\O,0,1.640904,1.637871,-1.258477\O,0,
 -0.12584,-2.411707,0.243315\P,0,1.499306,-0.281068,0.756832\P,0,-0.875
 829,1.477222,-0.044715\C,0,0.983965,1.115264,-0.406518\C,0,-0.075346,-
 1.212642,0.208945\C,0,-1.264136,-0.343014,-0.284938\C,0,-2.560429,-0.7
 35464,0.444682\H,0,-2.503475,-0.500827,1.509303\H,0,-2.725341,-1.80962

 Normal termination of Gaussian 16 at Tue Apr  8 23:32:03 2025.
