 Gaussian 16, Revision C.01,

 ----------------------------------------------------------------------
 #t hf aug-cc-pvdz symm=none int=(grid=ultrafine) guess=(read,tcheck) s
 table=(opt,rrhf)
 ----------------------------------------------------------------------
 -----
 title
 -----
 Symbolic Z-matrix:
 Charge =  0 Multiplicity = 1

 SCF Done:  E(RHF) =  -566.388272418     A.U. after   14 cycles
 Normal termination of Gaussian 16 at Tue Apr  8 22:32:07 2025.
 Gaussian 16:  ES64L-G16RevC.01  3-Jul-2019

 ----------------------------------------------------------------------
 #t hf aug-cc-pvdz iop(5/13=1,5/36=2,99/5=2) pseudo=read geom=check gue
 ss=(read,tcheck) scf=(maxcycle=1)
 ----------------------------------------------------------------------
 -----
 title
 -----
 Structure from the checkpoint file:  "BDE49_expt_1041_mol1.chk"
 Charge =  0 Multiplicity = 1

                         Standard orientation:
 ---------------------------------------------------------------------
 Center     Atomic      Atomic             Coordinates (Angstroms)
 Number     Number       Type             X           Y           Z
 ---------------------------------------------------------------------
      1          6           0       -0.051875    0.000001   -0.032579
      2          6           0       -0.745552   -1.210076   -0.020901
      3          6           0       -2.136975   -1.206993    0.001778
      4          6           0       -2.833220   -0.000001    0.014269
      5          6           0       -2.136976    1.206992    0.001778
      6          6           0       -0.745553    1.210077   -0.020901
      7          1           0       -0.198821    2.144390   -0.038495
      8          1           0       -3.917097   -0.000001    0.030512
      9          1           0       -2.676580    2.146768    0.006802
     10          1           0       -0.198819   -2.144389   -0.038495
     11          1           0       -2.676578   -2.146769    0.006801
     12          6           0        1.451483    0.000000   -0.002770
     13          9           0        1.972737   -1.087979   -0.611185
     14          9           0        1.927848   -0.000017    1.265543
     15          9           0        1.972738    1.087995   -0.611156
 ---------------------------------------------------------------------

 SCF Done:  E(RHF) =  -566.931835971     A.U. after    2 cycles

 The electronic state is 1-A.
 Alpha  occ. eigenvalues --  -26.50209 -26.50205 -26.49728 -11.52011 -11.27575
 Alpha  occ. eigenvalues --  -11.26939 -11.26930 -11.26648 -11.26297 -11.26285
 Alpha  occ. eigenvalues --   -1.70705  -1.60821  -1.60297  -1.18381  -1.07114
 Alpha  occ. eigenvalues --   -1.04170  -0.95613  -0.86552  -0.86550  -0.80139
 Alpha  occ. eigenvalues --   -0.79747  -0.79287  -0.71641  -0.68732  -0.68157
 Alpha  occ. eigenvalues --   -0.65705  -0.65644  -0.63508  -0.62904  -0.61636
 Alpha  occ. eigenvalues --   -0.61244  -0.59168  -0.53448  -0.53077  -0.52915
 Alpha  occ. eigenvalues --   -0.37326  -0.36755
 Alpha virt. eigenvalues --    0.02947   0.03473   0.04226   0.05436   0.06206
 Alpha virt. eigenvalues --    0.07877   0.08883   0.09089   0.09385   0.11241
 Alpha virt. eigenvalues --    0.12500   0.12589   0.13305   0.13761   0.13800

 Mulliken charges:
               1
     1  C    0.951428
     2  C   -0.315916
     3  C    0.459325
     4  C   -0.191488
     5  C    0.459321
     6  C   -0.315893
     7  H   -0.245948
     8  H   -0.210548
     9  H   -0.209191
    10  H   -0.245949
    11  H   -0.209192
    12  C    2.470000
    13  F   -0.823852
    14  F   -0.748241
    15  F   -0.823855
 Sum of Mulliken charges =  -0.00000

 Dipole moment (field-independent basis, Debye):
    X=             -3.0174    Y=              0.0000    Z=             -0.0581  Tot=              3.0180

 Test job not archived.
 1\1\GINC-SE343\SP\RHF\Aug-CC-pVDZ\C7H5F3\OHZDE\08-Apr-2025\0\\#t hf au
 g-cc-pvdz iop(5/13=1,5/36=2,99/5=2) pseudo=read geom=check guess=(read
 ,tcheck) scf=(maxcycle=1)\\title\\0,1\C,0,-0.051875,0.000001,-0.032579
 \C,0,-0.745552,-1.210076,-0.020901\C,0,-2.136975,-1.206993,0.001778\C,
 0,-2.83322,-0.000001,0.014269\C,0,-2.136976,1.206992,0.001778\C,0,-0.7
 45553,1.210077,-0.020901\H,0,-0.198821,2.14439,-0.038495\H,0,-3.917097
 ,-0.000001,0.030512\H,0,-2.67658,2.146768,0.006802\H,0,-0.198819,-2.14
 4389,-0.038495\H,0,-2.676578,-2.146769,0.006801\C,0,1.451483,0.,-0.002

 Normal termination of Gaussian 16 at Tue Apr  8 22:32:14 2025.
