 Gaussian 16, Revision C.01,

 ----------------------------------------------------------------------
 #t hf aug-cc-pvdz symm=none int=(grid=ultrafine) guess=(read,tcheck) s
 table=(opt,rrhf)
 ----------------------------------------------------------------------
 -----
 title
 -----
 Symbolic Z-matrix:
 Charge =  0 Multiplicity = 1

 SCF Done:  E(RHF) =  -1369.48505036     A.U. after   15 cycles
 Normal termination of Gaussian 16 at Wed Apr  9 00:22:43 2025.
 Gaussian 16:  ES64L-G16RevC.01  3-Jul-2019

 ----------------------------------------------------------------------
 #t hf aug-cc-pvdz iop(5/13=1,5/36=2,99/5=2) pseudo=read geom=check gue
 ss=(read,tcheck) scf=(maxcycle=1)
 ----------------------------------------------------------------------
 -----
 title
 -----
 Structure from the checkpoint file:  "BDE49_nonexpt_2668_mol1.chk"
 Charge =  0 Multiplicity = 1

                         Standard orientation:
 ---------------------------------------------------------------------
 Center     Atomic      Atomic             Coordinates (Angstroms)
 Number     Number       Type             X           Y           Z
 ---------------------------------------------------------------------
      1          9           0       -2.161024   -1.267831    0.000324
      2         16           0       -1.705275    0.360037    0.000063
      3          6           0        0.005060    0.311577   -0.000497
      4         16           0        0.607193    1.852747    0.000227
      5         16           0        0.810304   -1.226488   -0.000306
      6          6           0        2.555542   -0.718055    0.000017
      7          1           0        3.120453   -1.650805    0.000135
      8          1           0        2.784635   -0.140287    0.893746
      9          1           0        2.784966   -0.140307   -0.893641
 ---------------------------------------------------------------------

 SCF Done:  E(RHF) =  -1369.82975104     A.U. after    2 cycles

 The electronic state is 1-A.
 Alpha  occ. eigenvalues --  -94.07706 -94.00865 -93.94692 -26.48542 -11.40098
 Alpha  occ. eigenvalues --  -11.29566  -8.34970  -8.28986  -8.22915  -6.32725
 Alpha  occ. eigenvalues --   -6.32424  -6.32136  -6.26802  -6.26586  -6.26415
 Alpha  occ. eigenvalues --   -6.20766  -6.20455  -6.20349  -1.58169  -1.19946
 Alpha  occ. eigenvalues --   -1.09277  -0.99805  -0.94212  -0.75896  -0.68583
 Alpha  occ. eigenvalues --   -0.66739  -0.66403  -0.62967  -0.61121  -0.57969
 Alpha  occ. eigenvalues --   -0.53501  -0.52944  -0.49498  -0.40263  -0.37267
 Alpha  occ. eigenvalues --   -0.36332
 Alpha virt. eigenvalues --    0.02523   0.03042   0.04938   0.05613   0.05860
 Alpha virt. eigenvalues --    0.07504   0.08113   0.09174   0.11054   0.11846
 Alpha virt. eigenvalues --    0.13126   0.13212   0.14038   0.14549   0.15902

 Mulliken charges:
               1
     1  F   -0.669369
     2  S    1.265448
     3  C   -1.219779
     4  S    0.115490
     5  S    0.646532
     6  C   -0.775605
     7  H    0.132453
     8  H    0.252432
     9  H    0.252399
 Sum of Mulliken charges =  -0.00000

 Dipole moment (field-independent basis, Debye):
    X=              2.3150    Y=             -1.2442    Z=             -0.0001  Tot=              2.6282

 Test job not archived.
 1\1\GINC-SE329\SP\RHF\Aug-CC-pVDZ\C2H3F1S3\OHZDE\09-Apr-2025\0\\#t hf
 aug-cc-pvdz iop(5/13=1,5/36=2,99/5=2) pseudo=read geom=check guess=(re
 ad,tcheck) scf=(maxcycle=1)\\title\\0,1\F,0,-2.161025,-1.26783,0.00032
 4\S,0,-1.705275,0.360037,0.000063\C,0,0.00506,0.311577,-0.000497\S,0,0
 .607194,1.852747,0.000227\S,0,0.810303,-1.226488,-0.000306\C,0,2.55554
 2,-0.718056,0.000017\H,0,3.120452,-1.650806,0.000135\H,0,2.784635,-0.1
 40288,0.893746\H,0,2.784966,-0.140308,-0.893641\\Version=ES64L-G16RevC
 .01\State=1-A\HF=-1369.829751\RMSD=5.277e-03\Dipole=0.9107769,-0.48952

 Normal termination of Gaussian 16 at Wed Apr  9 00:22:46 2025.
