 Gaussian 16, Revision C.01,

 ----------------------------------------------------------------------
 #t hf aug-cc-pvdz symm=none int=(grid=ultrafine) guess=(read,tcheck) s
 table=(opt,rrhf)
 ----------------------------------------------------------------------
 -----
 title
 -----
 Symbolic Z-matrix:
 Charge =  0 Multiplicity = 1

 SCF Done:  E(RHF) =  -119.295532710     A.U. after   12 cycles
 Normal termination of Gaussian 16 at Wed Apr  9 00:35:46 2025.
 Gaussian 16:  ES64L-G16RevC.01  3-Jul-2019

 ----------------------------------------------------------------------
 #t hf aug-cc-pvdz iop(5/13=1,5/36=2,99/5=2) pseudo=read geom=check gue
 ss=(read,tcheck) scf=(maxcycle=1)
 ----------------------------------------------------------------------
 -----
 title
 -----
 Structure from the checkpoint file:  "BDE49_nonexpt_506_mol1.chk"
 Charge =  0 Multiplicity = 1

                         Standard orientation:
 ---------------------------------------------------------------------
 Center     Atomic      Atomic             Coordinates (Angstroms)
 Number     Number       Type             X           Y           Z
 ---------------------------------------------------------------------
      1          1           0        1.373447   -1.387066    0.000239
      2          1           0        2.313438    0.451447    0.000227
      3          5           0        1.313895   -0.194901   -0.000327
      4          6           0       -0.100138    0.471414    0.000016
      5          7           0       -1.205942   -0.184079    0.000135
      6          1           0       -1.004737   -1.191427   -0.000005
      7          1           0       -0.209199    1.561614    0.000135
 ---------------------------------------------------------------------

 SCF Done:  E(RHF) =  -119.417381285     A.U. after    2 cycles

 The electronic state is 1-A.
 Alpha  occ. eigenvalues --  -15.52553 -11.27191  -7.61927  -1.21707  -0.86391
 Alpha  occ. eigenvalues --   -0.75557  -0.64051  -0.60321  -0.50727  -0.48147
 Alpha  occ. eigenvalues --   -0.45250
 Alpha virt. eigenvalues --    0.01041   0.03720   0.04115   0.04734   0.05993
 Alpha virt. eigenvalues --    0.07392   0.09501   0.09594   0.12523   0.13707
 Alpha virt. eigenvalues --    0.13724   0.17288   0.17388   0.18929   0.21574

 Mulliken charges:
               1
     1  H    0.064443
     2  H    0.194848
     3  B   -0.029499
     4  C   -0.790429
     5  N    0.477531
     6  H    0.090818
     7  H   -0.007711
 Sum of Mulliken charges =   0.00000

 Dipole moment (field-independent basis, Debye):
    X=              2.0874    Y=             -0.2010    Z=             -0.0015  Tot=              2.0971

 Test job not archived.
 1\1\GINC-SE073\SP\RHF\Aug-CC-pVDZ\C1H4B1N1\OHZDE\09-Apr-2025\0\\#t hf
 aug-cc-pvdz iop(5/13=1,5/36=2,99/5=2) pseudo=read geom=check guess=(re
 ad,tcheck) scf=(maxcycle=1)\\title\\0,1\H,0,1.373447,-1.387066,0.00023
 9\H,0,2.313438,0.451447,0.000227\B,0,1.313895,-0.194901,-0.000327\C,0,
 -0.100138,0.471414,0.000016\N,0,-1.205942,-0.184079,0.000135\H,0,-1.00
 4737,-1.191427,-0.000005\H,0,-0.209199,1.561614,0.000135\\Version=ES64
 L-G16RevC.01\State=1-A\HF=-119.4173813\RMSD=1.426e-02\Dipole=0.8212627
 ,-0.0790601,-0.0005727\Quadrupole=-3.0622103,2.1303958,0.9318145,0.928

 Normal termination of Gaussian 16 at Wed Apr  9 00:35:47 2025.
