 Gaussian 16, Revision C.01,

 ----------------------------------------------------------------------
 #t hf aug-cc-pvdz symm=none int=(grid=ultrafine) guess=(read,tcheck) s
 table=opt
 ----------------------------------------------------------------------
 -----
 title
 -----
 Symbolic Z-matrix:
 Charge =  0 Multiplicity = 2

 SCF Done:  E(UHF) =  -566.548292849     A.U. after   17 cycles
 Normal termination of Gaussian 16 at Tue Apr  8 23:24:56 2025.
 Gaussian 16:  ES64L-G16RevC.01  3-Jul-2019

 ----------------------------------------------------------------------
 #t hf aug-cc-pvdz iop(5/13=1,5/36=2,99/5=2) pseudo=read geom=check gue
 ss=(read,tcheck) scf=(maxcycle=1)
 ----------------------------------------------------------------------
 -----
 title
 -----
 Structure from the checkpoint file:  "BDE49_nonexpt_1269_mol3.chk"
 Charge =  0 Multiplicity = 2

                         Standard orientation:
 ---------------------------------------------------------------------
 Center     Atomic      Atomic             Coordinates (Angstroms)
 Number     Number       Type             X           Y           Z
 ---------------------------------------------------------------------
      1         15           0       -0.153537   -0.076245    0.313484
      2          8           0       -1.472970   -0.410611   -0.258385
      3          8           0        1.086070   -1.012373   -0.129311
      4          8           0        0.469703    1.373070   -0.120349
      5          1           0       -0.213654    2.049728   -0.210755
      6          1           0        1.854286   -0.506732   -0.427147
 ---------------------------------------------------------------------

 SCF Done:  E(UHF) =  -566.807165373     A.U. after    2 cycles

 The electronic state is 2-A.
 Alpha  occ. eigenvalues --  -84.44080 -20.61783 -20.61133 -20.54408  -6.89579
 Alpha  occ. eigenvalues --   -4.43247  -4.42451  -4.41716  -1.55144  -1.48893
 Alpha  occ. eigenvalues --   -1.42549  -0.87194  -0.77113  -0.68237  -0.64456
 Alpha  occ. eigenvalues --   -0.61349  -0.60247  -0.56533  -0.51319  -0.49086
 Alpha  occ. eigenvalues --   -0.38439
 Alpha virt. eigenvalues --    0.03209   0.04545   0.07863   0.08774   0.09902
 Alpha virt. eigenvalues --    0.13626   0.17275   0.18412   0.19048   0.20313
 Alpha virt. eigenvalues --    0.20910   0.23335   0.23884   0.25415   0.26667

  Beta  occ. eigenvalues --  -84.43542 -20.61221 -20.60578 -20.53123  -6.88743
  Beta  occ. eigenvalues --   -4.42966  -4.42121  -4.39686  -1.53409  -1.47311
  Beta  occ. eigenvalues --   -1.38858  -0.83889  -0.76120  -0.66159  -0.61247
  Beta  occ. eigenvalues --   -0.59002  -0.56268  -0.54353  -0.47884  -0.45909
  Beta virt. eigenvalues --    0.01711   0.04579   0.05311   0.08752   0.09204
  Beta virt. eigenvalues --    0.10188   0.16131   0.17662   0.18784   0.19393
  Beta virt. eigenvalues --    0.20479   0.21274   0.24152   0.25566   0.26759

 Mulliken charges and spin densities:
               1          2
     1  P    2.807707   0.683526
     2  O   -1.215211   0.221915
     3  O   -1.207937   0.041559
     4  O   -1.220367   0.060584
     5  H    0.419326  -0.007020
     6  H    0.416481  -0.000563
 Sum of Mulliken charges =   0.00000   1.00000

 Dipole moment (field-independent basis, Debye):
    X=              2.6247    Y=              2.5514    Z=              0.7159  Tot=              3.7298
                          Isotropic Fermi Contact Couplings
        Atom                 a.u.       MegaHertz       Gauss      10(-4) cm-1
     1  P(31)              0.89206    1615.61551     576.49179     538.91133
     2  O(17)              0.09550     -57.89469     -20.65827     -19.31159
     3  O(17)              0.11148     -67.57944     -24.11403     -22.54208
     4  O(17)              0.08630     -52.31548     -18.66746     -17.45057
     5  H(1)              -0.00258     -11.53030      -4.11430      -3.84609
     6  H(1)              -0.00033      -1.45746      -0.52006      -0.48616
 --------------------------------------------------------
       Center         ----  Spin Dipole Couplings  ----

 Normal termination of Gaussian 16 at Tue Apr  8 23:24:58 2025.
