 Gaussian 16, Revision C.01,

 ----------------------------------------------------------------------
 #t hf aug-cc-pvdz symm=none int=(grid=ultrafine) guess=(read,tcheck) s
 table=(opt,rrhf)
 ----------------------------------------------------------------------
 -----
 title
 -----
 Symbolic Z-matrix:
 Charge =  0 Multiplicity = 1

 SCF Done:  E(RHF) =  -385.319576148     A.U. after   11 cycles
 Normal termination of Gaussian 16 at Tue Apr  8 23:51:18 2025.
 Gaussian 16:  ES64L-G16RevC.01  3-Jul-2019

 ----------------------------------------------------------------------
 #t hf aug-cc-pvdz iop(5/13=1,5/36=2,99/5=2) pseudo=read geom=check gue
 ss=(read,tcheck) scf=(maxcycle=1)
 ----------------------------------------------------------------------
 -----
 title
 -----
 Structure from the checkpoint file:  "BDE49_nonexpt_1897_mol1.chk"
 Charge =  0 Multiplicity = 1

                         Standard orientation:
 ---------------------------------------------------------------------
 Center     Atomic      Atomic             Coordinates (Angstroms)
 Number     Number       Type             X           Y           Z
 ---------------------------------------------------------------------
      1         14           0        1.124403   -0.112120    0.013570
      2          6           0       -0.606801    0.647737   -0.055258
      3          1           0        1.409198   -0.652323    1.361716
      4          1           0        2.147395    0.907434   -0.329880
      5          1           0        1.217840   -1.217256   -0.973706
      6          7           0       -1.613134   -0.415953    0.109797
      7          1           0       -1.625663   -1.018553   -0.706720
      8          1           0       -2.545141   -0.022520    0.195908
      9          1           0       -0.721578    1.259672   -0.965051
     10          1           0       -0.690950    1.338467    0.790718
 ---------------------------------------------------------------------

 SCF Done:  E(RHF) =  -385.460657975     A.U. after    2 cycles

 The electronic state is 1-A.
 Alpha  occ. eigenvalues --  -69.52074 -15.49264 -11.25068  -6.19210  -3.94578
 Alpha  occ. eigenvalues --   -3.94566  -3.94552  -1.17544  -0.91122  -0.73120
 Alpha  occ. eigenvalues --   -0.68389  -0.64086  -0.57534  -0.48573  -0.48058
 Alpha  occ. eigenvalues --   -0.46800  -0.42007
 Alpha virt. eigenvalues --    0.03371   0.04469   0.04875   0.05030   0.06621
 Alpha virt. eigenvalues --    0.07500   0.07926   0.08972   0.09555   0.10881
 Alpha virt. eigenvalues --    0.12621   0.15168   0.16190   0.16266   0.17371

 Mulliken charges:
               1
     1  Si   1.059002
     2  C   -0.783103
     3  H   -0.169785
     4  H   -0.226123
     5  H   -0.216038
     6  N    0.009201
     7  H    0.113714
     8  H    0.119905
     9  H    0.064153
    10  H    0.029073
 Sum of Mulliken charges =  -0.00000

 Dipole moment (field-independent basis, Debye):
    X=             -0.9159    Y=              0.9953    Z=             -1.0352  Tot=              1.7033

 Test job not archived.
 1\1\GINC-SE333\SP\RHF\Aug-CC-pVDZ\C1H7N1Si1\OHZDE\08-Apr-2025\0\\#t hf
  aug-cc-pvdz iop(5/13=1,5/36=2,99/5=2) pseudo=read geom=check guess=(r
 ead,tcheck) scf=(maxcycle=1)\\title\\0,1\Si,0,1.124403,-0.11212,0.0135
 7\C,0,-0.606801,0.647737,-0.055258\H,0,1.409198,-0.652323,1.361716\H,0
 ,2.147395,0.907433,-0.32988\H,0,1.21784,-1.217256,-0.973706\N,0,-1.613
 134,-0.415953,0.109797\H,0,-1.625663,-1.018553,-0.70672\H,0,-2.545141,
 -0.02252,0.195908\H,0,-0.721578,1.259672,-0.965051\H,0,-0.69095,1.3384
 67,0.790718\\Version=ES64L-G16RevC.01\State=1-A\HF=-385.460658\RMSD=7.

 Normal termination of Gaussian 16 at Tue Apr  8 23:51:21 2025.
