 Gaussian 16, Revision C.01,

 ----------------------------------------------------------------------
 #t hf aug-cc-pvdz symm=none int=(grid=ultrafine) guess=(read,tcheck) s
 table=(opt,rrhf)
 ----------------------------------------------------------------------
 -----
 title
 -----
 Symbolic Z-matrix:
 Charge =  0 Multiplicity = 1

 SCF Done:  E(RHF) =  -1090.00005599     A.U. after   14 cycles
 Normal termination of Gaussian 16 at Wed Apr  9 00:09:01 2025.
 Gaussian 16:  ES64L-G16RevC.01  3-Jul-2019

 ----------------------------------------------------------------------
 #t hf aug-cc-pvdz iop(5/13=1,5/36=2,99/5=2) pseudo=read geom=check gue
 ss=(read,tcheck) scf=(maxcycle=1)
 ----------------------------------------------------------------------
 -----
 title
 -----
 Structure from the checkpoint file:  "BDE49_nonexpt_2270_mol1.chk"
 Charge =  0 Multiplicity = 1

                         Standard orientation:
 ---------------------------------------------------------------------
 Center     Atomic      Atomic             Coordinates (Angstroms)
 Number     Number       Type             X           Y           Z
 ---------------------------------------------------------------------
      1          6           0        2.006211   -0.000000    0.109177
      2          6           0        1.316640    1.202408    0.004426
      3          6           0       -0.056674    1.198465   -0.205634
      4          6           0        1.316641   -1.202408    0.004426
      5          6           0       -0.056673   -1.198465   -0.205634
      6          6           0       -0.765401   -0.000000   -0.318250
      7          9           0        3.326266    0.000001    0.313015
      8          9           0        1.976366    2.359640    0.108358
      9          9           0       -0.710852    2.362183   -0.300748
     10          9           0        1.976367   -2.359639    0.108358
     11          9           0       -0.710851   -2.362183   -0.300747
     12          8           0       -2.090975   -0.000001   -0.588227
     13         14           0       -3.380307   -0.000000    0.481273
     14          1           0       -4.571542   -0.000003   -0.381985
     15          1           0       -3.328249    1.206850    1.332395
     16          1           0       -3.328246   -1.206846    1.332400
 ---------------------------------------------------------------------

 SCF Done:  E(RHF) =  -1090.77788071     A.U. after    2 cycles

 The electronic state is 1-A.
 Alpha  occ. eigenvalues --  -69.58843 -26.51891 -26.51890 -26.51864 -26.51683
 Alpha  occ. eigenvalues --  -26.51683 -20.59548 -11.38637 -11.38615 -11.38476
 Alpha  occ. eigenvalues --  -11.38148 -11.38142 -11.36620  -6.25421  -4.00930
 Alpha  occ. eigenvalues --   -4.00759  -4.00734  -1.66320  -1.65613  -1.64872
 Alpha  occ. eigenvalues --   -1.64059  -1.63572  -1.51485  -1.21405  -1.07265
 Alpha  occ. eigenvalues --   -1.07168  -0.93005  -0.92383  -0.84653  -0.82830
 Alpha  occ. eigenvalues --   -0.80732  -0.77854  -0.75415  -0.75200  -0.75055
 Alpha  occ. eigenvalues --   -0.74156  -0.72253  -0.71313  -0.69339  -0.69107
 Alpha  occ. eigenvalues --   -0.68780  -0.67200  -0.66588  -0.63687  -0.62892
 Alpha  occ. eigenvalues --   -0.61548  -0.60015  -0.56663  -0.52968  -0.50448
 Alpha  occ. eigenvalues --   -0.48409  -0.38399  -0.37433
 Alpha virt. eigenvalues --    0.03254   0.04296   0.04885   0.05496   0.07553
 Alpha virt. eigenvalues --    0.07759   0.08140   0.08627   0.09448   0.09785
 Alpha virt. eigenvalues --    0.09899   0.10466   0.10707   0.12173   0.12432

 Mulliken charges:
               1
     1  C    1.291483
     2  C    0.774160
     3  C    1.501633
     4  C    0.774164
     5  C    1.501631
     6  C    0.559098
     7  F   -0.969514
     8  F   -0.955421
     9  F   -1.003837
    10  F   -0.955420
    11  F   -1.003837
    12  O   -2.277591
    13  Si   1.154211
    14  H   -0.111653
    15  H   -0.139554
    16  H   -0.139553
 Sum of Mulliken charges =  -0.00000

 Dipole moment (field-independent basis, Debye):
    X=             -2.1265    Y=             -0.0000    Z=              0.6963  Tot=              2.2376

 Test job not archived.
 1\1\GINC-SE341\SP\RHF\Aug-CC-pVDZ\C6H3F5O1Si1\OHZDE\09-Apr-2025\0\\#t
 hf aug-cc-pvdz iop(5/13=1,5/36=2,99/5=2) pseudo=read geom=check guess=
 (read,tcheck) scf=(maxcycle=1)\\title\\0,1\C,0,2.006211,0.,0.109177\C,
 0,1.31664,1.202408,0.004426\C,0,-0.056674,1.198465,-0.205634\C,0,1.316
 641,-1.202408,0.004426\C,0,-0.056673,-1.198465,-0.205634\C,0,-0.765401
 ,0.,-0.31825\F,0,3.326266,0.000001,0.313015\F,0,1.976366,2.35964,0.108
 358\F,0,-0.710852,2.362183,-0.300748\F,0,1.976367,-2.359639,0.108358\F
 ,0,-0.710851,-2.362183,-0.300747\O,0,-2.090975,-0.000001,-0.588227\Si,

 Normal termination of Gaussian 16 at Wed Apr  9 00:09:11 2025.
