 Gaussian 16, Revision C.01,

 ----------------------------------------------------------------------
 #t hf aug-cc-pvdz symm=none int=(grid=ultrafine) guess=(read,tcheck) s
 table=(opt,rrhf)
 ----------------------------------------------------------------------
 -----
 title
 -----
 Symbolic Z-matrix:
 Charge =  0 Multiplicity = 1

 SCF Done:  E(RHF) =  -629.886828710     A.U. after   12 cycles
 Normal termination of Gaussian 16 at Tue Apr  8 23:49:32 2025.
 Gaussian 16:  ES64L-G16RevC.01  3-Jul-2019

 ----------------------------------------------------------------------
 #t hf aug-cc-pvdz iop(5/13=1,5/36=2,99/5=2) pseudo=read geom=check gue
 ss=(read,tcheck) scf=(maxcycle=1)
 ----------------------------------------------------------------------
 -----
 title
 -----
 Structure from the checkpoint file:  "BDE49_nonexpt_1860_mol1.chk"
 Charge =  0 Multiplicity = 1

                         Standard orientation:
 ---------------------------------------------------------------------
 Center     Atomic      Atomic             Coordinates (Angstroms)
 Number     Number       Type             X           Y           Z
 ---------------------------------------------------------------------
      1         14           0       -0.810570    0.163842    0.418990
      2          6           0        1.047495   -0.243639    0.441287
      3          8           0        1.847056    0.883292    0.162147
      4          1           0        1.386650    1.408190   -0.506547
      5          8           0       -1.668584   -1.148225   -0.061151
      6          1           0       -1.179959   -1.742221   -0.642621
      7          8           0        1.180769   -1.263001   -0.557222
      8          1           0        2.121560   -1.453303   -0.658346
      9          8           0       -0.815804    1.418352   -0.660238
     10          1           0       -1.386465    0.585490    1.707855
     11          1           0       -1.633987    1.863940   -0.888783
     12          1           0        1.407708   -0.617392    1.406577
 ---------------------------------------------------------------------

 SCF Done:  E(RHF) =  -630.260026393     A.U. after    2 cycles

 The electronic state is 1-A.
 Alpha  occ. eigenvalues --  -69.58227 -20.56460 -20.56029 -20.55818 -20.55014
 Alpha  occ. eigenvalues --  -11.33014  -6.24649  -4.00160  -4.00020  -3.99942
 Alpha  occ. eigenvalues --   -1.49525  -1.45334  -1.43606  -1.42393  -0.91445
 Alpha  occ. eigenvalues --   -0.79119  -0.74234  -0.71031  -0.66060  -0.62707
 Alpha  occ. eigenvalues --   -0.62284  -0.59282  -0.57570  -0.55422  -0.50372
 Alpha  occ. eigenvalues --   -0.49480  -0.48074  -0.47832  -0.42913
 Alpha virt. eigenvalues --    0.03335   0.04152   0.04614   0.05519   0.06876
 Alpha virt. eigenvalues --    0.07075   0.07987   0.08648   0.09016   0.12847
 Alpha virt. eigenvalues --    0.13578   0.14703   0.15643   0.18309   0.18989

 Mulliken charges:
               1
     1  Si   2.549994
     2  C    1.392601
     3  O   -1.242094
     4  H    0.350558
     5  O   -1.543775
     6  H    0.523915
     7  O   -1.141984
     8  H    0.263486
     9  O   -1.376235
    10  H   -0.192402
    11  H    0.412346
    12  H    0.003592
 Sum of Mulliken charges =  -0.00000

 Dipole moment (field-independent basis, Debye):
    X=             -0.2552    Y=              0.1759    Z=             -0.4277  Tot=              0.5283

 Test job not archived.
 1\1\GINC-SE070\SP\RHF\Aug-CC-pVDZ\C1H6O4Si1\OHZDE\08-Apr-2025\0\\#t hf
  aug-cc-pvdz iop(5/13=1,5/36=2,99/5=2) pseudo=read geom=check guess=(r
 ead,tcheck) scf=(maxcycle=1)\\title\\0,1\Si,0,-0.81057,0.163842,0.4189
 9\C,0,1.047495,-0.243639,0.441287\O,0,1.847056,0.883292,0.162147\H,0,1
 .38665,1.40819,-0.506547\O,0,-1.668584,-1.148225,-0.061151\H,0,-1.1799
 59,-1.742221,-0.642621\O,0,1.180769,-1.263001,-0.557222\H,0,2.12156,-1
 .453303,-0.658346\O,0,-0.815804,1.418352,-0.660238\H,0,-1.386465,0.585
 49,1.707855\H,0,-1.633987,1.86394,-0.888783\H,0,1.407708,-0.617392,1.4

 Normal termination of Gaussian 16 at Tue Apr  8 23:49:36 2025.
