 Gaussian 16, Revision C.01,

 ----------------------------------------------------------------------
 #t hf aug-cc-pvdz symm=none int=(grid=ultrafine) guess=(read,tcheck) s
 table=(opt,rrhf)
 ----------------------------------------------------------------------
 -----
 title
 -----
 Symbolic Z-matrix:
 Charge =  0 Multiplicity = 1

 SCF Done:  E(RHF) =  -484.875272486     A.U. after   13 cycles
 Normal termination of Gaussian 16 at Wed Apr  9 00:43:09 2025.
 Gaussian 16:  ES64L-G16RevC.01  3-Jul-2019

 ----------------------------------------------------------------------
 #t hf aug-cc-pvdz iop(5/13=1,5/36=2,99/5=2) pseudo=read geom=check gue
 ss=(read,tcheck) scf=(maxcycle=1)
 ----------------------------------------------------------------------
 -----
 title
 -----
 Structure from the checkpoint file:  "BDE49_nonexpt_727_mol1.chk"
 Charge =  0 Multiplicity = 1

                         Standard orientation:
 ---------------------------------------------------------------------
 Center     Atomic      Atomic             Coordinates (Angstroms)
 Number     Number       Type             X           Y           Z
 ---------------------------------------------------------------------
      1          5           0        0.855935    0.076588   -0.017898
      2          6           0        1.033100    1.638330   -0.120265
      3          1           0        0.891405    2.050695    0.890691
      4          1           0        0.297325    2.141910   -0.753611
      5          1           0        2.035312    1.942565   -0.438856
      6         15           0       -0.841679   -0.731293   -0.315330
      7          6           0        2.108889   -0.849578    0.208739
      8          1           0        2.827046   -0.714716   -0.611024
      9          1           0        1.900452   -1.917913    0.303207
     10          1           0        2.641482   -0.527164    1.113821
     11          6           0       -2.157582    0.431592    0.309143
     12          1           0       -2.004116    0.744531    1.342539
     13          1           0       -3.133492   -0.049649    0.224279
     14          1           0       -2.170445    1.318236   -0.327846
     15          1           0       -0.845892   -1.724109    0.690531
 ---------------------------------------------------------------------

 SCF Done:  E(RHF) =  -485.084289724     A.U. after    2 cycles

 The electronic state is 1-A.
 Alpha  occ. eigenvalues --  -84.24263 -11.23880 -11.20855 -11.20641  -7.59193
 Alpha  occ. eigenvalues --   -6.71676  -4.24275  -4.24215  -4.23445  -0.99256
 Alpha  occ. eigenvalues --   -0.96763  -0.92922  -0.79914  -0.61861  -0.59059
 Alpha  occ. eigenvalues --   -0.58031  -0.56384  -0.55879  -0.54633  -0.53627
 Alpha  occ. eigenvalues --   -0.48665  -0.45497  -0.41551  -0.30868
 Alpha virt. eigenvalues --    0.03367   0.03885   0.04125   0.04483   0.06004
 Alpha virt. eigenvalues --    0.06396   0.06617   0.07599   0.08042   0.08887
 Alpha virt. eigenvalues --    0.09343   0.09735   0.10450   0.10812   0.12106

 Mulliken charges:
               1
     1  B    1.173612
     2  C   -0.417162
     3  H    0.165673
     4  H    0.014841
     5  H   -0.080611
     6  P   -0.314808
     7  C   -0.428286
     8  H    0.109400
     9  H   -0.084278
    10  H    0.087174
    11  C   -0.820061
    12  H    0.084185
    13  H    0.032526
    14  H    0.123069
    15  H    0.354727
 Sum of Mulliken charges =   0.00000

 Dipole moment (field-independent basis, Debye):
    X=              0.0287    Y=              0.8086    Z=              0.8457  Tot=              1.1704

 Test job not archived.
 1\1\GINC-SE435\SP\RHF\Aug-CC-pVDZ\C3H10B1P1\OHZDE\09-Apr-2025\0\\#t hf
  aug-cc-pvdz iop(5/13=1,5/36=2,99/5=2) pseudo=read geom=check guess=(r
 ead,tcheck) scf=(maxcycle=1)\\title\\0,1\B,0,0.855935,0.076588,-0.0178
 98\C,0,1.0331,1.63833,-0.120265\H,0,0.891405,2.050695,0.890691\H,0,0.2
 97325,2.14191,-0.753611\H,0,2.035312,1.942565,-0.438856\P,0,-0.841679,
 -0.731293,-0.31533\C,0,2.108889,-0.849578,0.208739\H,0,2.827046,-0.714
 716,-0.611024\H,0,1.900452,-1.917913,0.303207\H,0,2.641482,-0.527164,1
 .113821\C,0,-2.157582,0.431592,0.309143\H,0,-2.004116,0.744531,1.34253

 Normal termination of Gaussian 16 at Wed Apr  9 00:43:14 2025.
