 Gaussian 16, Revision C.01,

 ----------------------------------------------------------------------
 #t hf aug-cc-pvdz symm=none int=(grid=ultrafine) guess=(read,tcheck) s
 table=(opt,rrhf)
 ----------------------------------------------------------------------
 -----
 title
 -----
 Symbolic Z-matrix:
 Charge =  0 Multiplicity = 1

 SCF Done:  E(RHF) =  -159.574248825     A.U. after   12 cycles
 Normal termination of Gaussian 16 at Wed Apr  9 00:36:52 2025.
 Gaussian 16:  ES64L-G16RevC.01  3-Jul-2019

 ----------------------------------------------------------------------
 #t hf aug-cc-pvdz iop(5/13=1,5/36=2,99/5=2) pseudo=read geom=check gue
 ss=(read,tcheck) scf=(maxcycle=1)
 ----------------------------------------------------------------------
 -----
 title
 -----
 Structure from the checkpoint file:  "BDE49_nonexpt_552_mol1.chk"
 Charge =  0 Multiplicity = 1

                         Standard orientation:
 ---------------------------------------------------------------------
 Center     Atomic      Atomic             Coordinates (Angstroms)
 Number     Number       Type             X           Y           Z
 ---------------------------------------------------------------------
      1          5           0       -1.913447    0.026879    0.332167
      2          7           0       -0.727993   -0.264265   -0.327243
      3          6           0        1.679622   -0.245444    0.312378
      4          6           0        0.509152    0.513034   -0.315223
      5          1           0        0.310003    1.431349    0.240808
      6          1           0        0.767524    0.807573   -1.339851
      7          1           0        1.886466   -1.173412   -0.230295
      8          1           0        2.588971    0.361721    0.290504
      9          1           0        1.461337   -0.503979    1.351505
     10          1           0       -1.984003    1.021763    0.988775
     11          1           0       -2.833598   -0.725040    0.225151
     12          1           0       -0.666157   -1.110057   -0.879657
 ---------------------------------------------------------------------

 SCF Done:  E(RHF) =  -159.750810886     A.U. after    2 cycles

 The electronic state is 1-A.
 Alpha  occ. eigenvalues --  -15.49405 -11.26771 -11.23074  -7.57203  -1.19613
 Alpha  occ. eigenvalues --   -1.00681  -0.85580  -0.75978  -0.66998  -0.61343
 Alpha  occ. eigenvalues --   -0.59110  -0.55555  -0.53367  -0.50514  -0.46468
 Alpha  occ. eigenvalues --   -0.43279
 Alpha virt. eigenvalues --    0.03523   0.04122   0.04422   0.04887   0.05710
 Alpha virt. eigenvalues --    0.06078   0.06295   0.07116   0.09032   0.11298
 Alpha virt. eigenvalues --    0.11746   0.13053   0.14054   0.14303   0.15369

 Mulliken charges:
               1
     1  B   -0.524570
     2  N    0.375017
     3  C   -0.386607
     4  C   -0.543597
     5  H    0.046594
     6  H    0.128481
     7  H    0.142889
     8  H    0.163686
     9  H    0.145728
    10  H    0.102118
    11  H    0.266321
    12  H    0.083939
 Sum of Mulliken charges =  -0.00000

 Dipole moment (field-independent basis, Debye):
    X=              1.5411    Y=             -0.2575    Z=             -0.6867  Tot=              1.7067

 Test job not archived.
 1\1\GINC-SE072\SP\RHF\Aug-CC-pVDZ\C2H8B1N1\OHZDE\09-Apr-2025\0\\#t hf
 aug-cc-pvdz iop(5/13=1,5/36=2,99/5=2) pseudo=read geom=check guess=(re
 ad,tcheck) scf=(maxcycle=1)\\title\\0,1\B,0,-1.913447,0.026879,0.33216
 7\N,0,-0.727993,-0.264265,-0.327243\C,0,1.679622,-0.245444,0.312378\C,
 0,0.509152,0.513034,-0.315223\H,0,0.310003,1.431349,0.240808\H,0,0.767
 524,0.807573,-1.339851\H,0,1.886466,-1.173412,-0.230295\H,0,2.588971,0
 .361721,0.290504\H,0,1.461337,-0.503979,1.351505\H,0,-1.984003,1.02176
 3,0.988775\H,0,-2.833598,-0.72504,0.225151\H,0,-0.666157,-1.110057,-0.

 Normal termination of Gaussian 16 at Wed Apr  9 00:36:55 2025.
