 Gaussian 16, Revision C.01,

 ----------------------------------------------------------------------
 #t hf aug-cc-pvdz symm=none int=(grid=ultrafine) guess=(read,tcheck) s
 table=(opt,rrhf)
 ----------------------------------------------------------------------
 -----
 title
 -----
 Symbolic Z-matrix:
 Charge =  0 Multiplicity = 1

 SCF Done:  E(RHF) =  -663.519185848     A.U. after   16 cycles

 1\1\GINC-SE361\Stability\RHF\Aug-CC-pVDZ\Cl1N1O2\OHZDE\08-Apr-2025\0\\
 #t hf aug-cc-pvdz symm=none int=(grid=ultrafine) guess=(read,tcheck) s
 table=(opt,rrhf)\\title\\0,1\Cl,0,-1.264201,-0.380414,0.\O,0,0.,0.9237
 43,0.\N,0,1.285086,0.544546,0.\O,0,1.561978,-0.591841,0.\\Version=ES64
 L-G16RevC.01\HF=-663.5191858\RMSD=2.489e-09\Dipole=-0.2314934,-0.05656
 75,0.\Quadrupole=0.2118955,-0.594078,0.3821825,1.4001597,0.,0.\PG=Unkn
 own\\@
 The archive entry for this job was punched.

 Normal termination of Gaussian 16 at Tue Apr  8 23:17:48 2025.
 Gaussian 16:  ES64L-G16RevC.01  3-Jul-2019

 ----------------------------------------------------------------------
 #t hf aug-cc-pvdz iop(5/13=1,5/36=2,99/5=2) pseudo=read geom=check gue
 ss=(read,tcheck) scf=(maxcycle=1)
 ----------------------------------------------------------------------
 -----
 title
 -----
 Structure from the checkpoint file:  "BDE49_nonexpt_1055_mol1.chk"
 Charge =  0 Multiplicity = 1

                         Standard orientation:
 ---------------------------------------------------------------------
 Center     Atomic      Atomic             Coordinates (Angstroms)
 Number     Number       Type             X           Y           Z
 ---------------------------------------------------------------------
      1         17           0       -1.264201   -0.380414    0.000000
      2          8           0        0.000000    0.923743    0.000000
      3          7           0        1.285086    0.544546    0.000000
      4          8           0        1.561978   -0.591841    0.000000
 ---------------------------------------------------------------------

 SCF Done:  E(RHF) =  -663.781693536     A.U. after    2 cycles

 The electronic state is 1-A'.
 Alpha  occ. eigenvalues -- -105.65395 -20.70916 -20.66694 -15.75815 -10.69529
 Alpha  occ. eigenvalues --   -7.86483  -7.85924  -7.85912  -1.71486  -1.54737
 Alpha  occ. eigenvalues --   -1.09979  -0.95413  -0.80781  -0.78242  -0.75038
 Alpha  occ. eigenvalues --   -0.59095  -0.58645  -0.51429  -0.49093  -0.49069
 Alpha virt. eigenvalues --    0.01469   0.05269   0.09764   0.11455   0.12895
 Alpha virt. eigenvalues --    0.13023   0.14475   0.15818   0.17041   0.21321
 Alpha virt. eigenvalues --    0.22416   0.23896   0.25249   0.28371   0.29567

 Mulliken charges:
               1
     1  Cl   0.326594
     2  O   -1.012950
     3  N    1.520845
     4  O   -0.834489
 Sum of Mulliken charges =  -0.00000

 Dipole moment (field-independent basis, Debye):
    X=             -0.6536    Y=             -0.4217    Z=              0.0000  Tot=              0.7778

 Test job not archived.
 1\1\GINC-SE361\SP\RHF\Aug-CC-pVDZ\Cl1N1O2\OHZDE\08-Apr-2025\0\\#t hf a
 ug-cc-pvdz iop(5/13=1,5/36=2,99/5=2) pseudo=read geom=check guess=(rea
 d,tcheck) scf=(maxcycle=1)\\title\\0,1\Cl,0,-1.264201,-0.380414,0.\O,0
 ,0.,0.923743,0.\N,0,1.285086,0.544546,0.\O,0,1.561978,-0.591841,0.\\Ve
 rsion=ES64L-G16RevC.01\State=1-A'\HF=-663.7816935\RMSD=1.286e-02\Dipol
 e=-0.2571449,-0.1659163,0.\Quadrupole=0.1900483,-0.4326967,0.2426485,0
 .7917114,0.,0.\PG=CS [SG(Cl1N1O2)]\\@

 Normal termination of Gaussian 16 at Tue Apr  8 23:17:50 2025.
