 Gaussian 16, Revision C.01,

 ----------------------------------------------------------------------
 #t hf aug-cc-pvdz symm=none int=(grid=ultrafine) guess=(read,tcheck) s
 table=(opt,rrhf)
 ----------------------------------------------------------------------
 -----
 title
 -----
 Symbolic Z-matrix:
 Charge =  0 Multiplicity = 1

 SCF Done:  E(RHF) =  -1438.78958099     A.U. after   15 cycles
 Normal termination of Gaussian 16 at Tue Apr  8 23:49:12 2025.
 Gaussian 16:  ES64L-G16RevC.01  3-Jul-2019

 ----------------------------------------------------------------------
 #t hf aug-cc-pvdz iop(5/13=1,5/36=2,99/5=2) pseudo=read geom=check gue
 ss=(read,tcheck) scf=(maxcycle=1)
 ----------------------------------------------------------------------
 -----
 title
 -----
 Structure from the checkpoint file:  "BDE49_nonexpt_1810_mol1.chk"
 Charge =  0 Multiplicity = 1

                         Standard orientation:
 ---------------------------------------------------------------------
 Center     Atomic      Atomic             Coordinates (Angstroms)
 Number     Number       Type             X           Y           Z
 ---------------------------------------------------------------------
      1          6           0       -1.588368   -0.646043   -1.079701
      2          6           0       -2.960472   -0.577879   -0.847713
      3          6           0       -3.443006    0.103586    0.266570
      4          6           0       -2.554266    0.718576    1.148505
      5          6           0       -1.184554    0.651411    0.917211
      6          6           0       -0.682315   -0.033749   -0.200399
      7          1           0       -1.224821   -1.177448   -1.953670
      8          1           0       -3.649568   -1.053707   -1.536132
      9         14           0        1.132434   -0.180101   -0.544832
     10          1           0       -0.503929    1.138860    1.606939
     11         17           0        2.033686   -1.549895    0.728196
     12         17           0        2.087176    1.640502   -0.272842
     13          1           0       -2.930253    1.251660    2.014333
     14          1           0       -4.510582    0.158518    0.447759
     15          1           0        1.388317   -0.632199   -1.919432
 ---------------------------------------------------------------------

 SCF Done:  E(RHF) =  -1439.21298887     A.U. after    2 cycles

 The electronic state is 1-A.
 Alpha  occ. eigenvalues -- -105.56630-105.56379 -69.62441 -11.26861 -11.26588
 Alpha  occ. eigenvalues --  -11.26446 -11.25885 -11.25828 -11.25270 -10.61640
 Alpha  occ. eigenvalues --  -10.61377  -7.78529  -7.78267  -7.78215  -7.78212
 Alpha  occ. eigenvalues --   -7.77955  -7.77951  -6.28674  -4.04082  -4.03992
 Alpha  occ. eigenvalues --   -4.03883  -1.17123  -1.08250  -1.04271  -1.03500
 Alpha  occ. eigenvalues --   -1.03156  -0.85362  -0.85066  -0.75575  -0.70637
 Alpha  occ. eigenvalues --   -0.66034  -0.65247  -0.61807  -0.59171  -0.56473
 Alpha  occ. eigenvalues --   -0.56066  -0.52604  -0.52256  -0.52109  -0.48145
 Alpha  occ. eigenvalues --   -0.47976  -0.46480  -0.45516  -0.36647  -0.36257
 Alpha virt. eigenvalues --    0.02997   0.03367   0.03903   0.05269   0.05534
 Alpha virt. eigenvalues --    0.05650   0.06894   0.07403   0.08608   0.08917
 Alpha virt. eigenvalues --    0.09427   0.10408   0.11462   0.12699   0.13152

 Mulliken charges:
               1
     1  C    0.187583
     2  C    0.488962
     3  C    0.255700
     4  C    0.483201
     5  C    0.561863
     6  C   -0.837512
     7  H   -0.329340
     8  H   -0.212914
     9  Si   1.407868
    10  H   -0.317696
    11  Cl  -0.597155
    12  Cl  -0.567224
    13  H   -0.216407
    14  H   -0.206156
    15  H   -0.100772
 Sum of Mulliken charges =  -0.00000

 Dipole moment (field-independent basis, Debye):
    X=             -2.9439    Y=             -0.1392    Z=             -0.7147  Tot=              3.0326

 Test job not archived.
 1\1\GINC-SE454\SP\RHF\Aug-CC-pVDZ\C6H6Cl2Si1\OHZDE\08-Apr-2025\0\\#t h
 f aug-cc-pvdz iop(5/13=1,5/36=2,99/5=2) pseudo=read geom=check guess=(
 read,tcheck) scf=(maxcycle=1)\\title\\0,1\C,0,-1.588368,-0.646043,-1.0
 79701\C,0,-2.960472,-0.577879,-0.847713\C,0,-3.443006,0.103586,0.26657
 \C,0,-2.554266,0.718576,1.148505\C,0,-1.184554,0.651411,0.917211\C,0,-
 0.682315,-0.033749,-0.200399\H,0,-1.224821,-1.177448,-1.95367\H,0,-3.6
 49568,-1.053707,-1.536132\Si,0,1.132434,-0.180101,-0.544832\H,0,-0.503
 929,1.13886,1.606939\Cl,0,2.033686,-1.549895,0.728196\Cl,0,2.087176,1.

 Normal termination of Gaussian 16 at Tue Apr  8 23:49:19 2025.
