 Gaussian 16, Revision C.01,

 ----------------------------------------------------------------------
 #t hf aug-cc-pvdz symm=none int=(grid=ultrafine) guess=(read,tcheck) s
 table=opt
 ----------------------------------------------------------------------
 -----
 title
 -----
 Symbolic Z-matrix:
 Charge =  0 Multiplicity = 2

 SCF Done:  E(UHF) =  -800.907321273     A.U. after   22 cycles
 Normal termination of Gaussian 16 at Tue Apr  8 23:53:22 2025.
 Gaussian 16:  ES64L-G16RevC.01  3-Jul-2019

 ----------------------------------------------------------------------
 #t hf aug-cc-pvdz iop(5/13=1,5/36=2,99/5=2) pseudo=read geom=check gue
 ss=(read,tcheck) scf=(maxcycle=1)
 ----------------------------------------------------------------------
 -----
 title
 -----
 Structure from the checkpoint file:  "BDE49_nonexpt_1941_mol2.chk"
 Charge =  0 Multiplicity = 2

                         Standard orientation:
 ---------------------------------------------------------------------
 Center     Atomic      Atomic             Coordinates (Angstroms)
 Number     Number       Type             X           Y           Z
 ---------------------------------------------------------------------
      1         14           0       -1.648688   -0.431925   -0.088140
      2          6           0        0.024416    0.490398    0.004544
      3          1           0       -1.572029   -1.800039    0.475270
      4          1           0       -2.710351    0.395758    0.523621
      5          8           0        0.101356    1.691105    0.013913
      6         16           0        1.501962   -0.590804    0.007819
      7          1           0        2.375266    0.432861   -0.028603
 ---------------------------------------------------------------------

 SCF Done:  E(UHF) =  -801.103058093     A.U. after    2 cycles

 The electronic state is 2-A.
 Alpha  occ. eigenvalues --  -93.97765 -69.57013 -20.57501 -11.37801  -8.25977
 Alpha  occ. eigenvalues --   -6.24231  -6.23816  -6.23661  -6.23440  -4.00210
 Alpha  occ. eigenvalues --   -3.99297  -3.99253  -1.51208  -1.05710  -0.85240
 Alpha  occ. eigenvalues --   -0.72973  -0.65057  -0.62532  -0.58793  -0.53385
 Alpha  occ. eigenvalues --   -0.51943  -0.41127  -0.40534  -0.35676
 Alpha virt. eigenvalues --    0.03647   0.04815   0.05585   0.05692   0.06119
 Alpha virt. eigenvalues --    0.08372   0.08591   0.08796   0.11789   0.12499
 Alpha virt. eigenvalues --    0.13400   0.14172   0.14852   0.15663   0.16793

  Beta  occ. eigenvalues --  -93.97762 -69.56429 -20.56867 -11.38083  -8.25974
  Beta  occ. eigenvalues --   -6.23802  -6.23648  -6.23452  -6.23354  -3.98877
  Beta  occ. eigenvalues --   -3.98840  -3.97969  -1.49847  -1.05639  -0.83286
  Beta  occ. eigenvalues --   -0.70847  -0.64699  -0.61569  -0.56120  -0.53176
  Beta  occ. eigenvalues --   -0.51305  -0.39965  -0.39463
  Beta virt. eigenvalues --    0.00077   0.03891   0.04903   0.05686   0.06404
  Beta virt. eigenvalues --    0.06637   0.08485   0.09177   0.11070   0.12596
  Beta virt. eigenvalues --    0.12928   0.13920   0.14714   0.15788   0.16326

 Mulliken charges and spin densities:
               1          2
     1  Si   0.797387   0.986864
     2  C    0.179158  -0.145160
     3  H   -0.165952  -0.003929
     4  H   -0.139368   0.000647
     5  O   -0.993959   0.155767
     6  S   -0.070377   0.005380
     7  H    0.393111   0.000432
 Sum of Mulliken charges =  -0.00000   1.00000

 Dipole moment (field-independent basis, Debye):
    X=             -0.6151    Y=             -1.3703    Z=              0.0432  Tot=              1.5026
                          Isotropic Fermi Contact Couplings
        Atom                 a.u.       MegaHertz       Gauss      10(-4) cm-1
     1  Si(29)             0.57972    -515.21559    -183.84173    -171.85742
     2  C(13)             -0.02366     -26.60291      -9.49258      -8.87377
     3  H(1)              -0.00007      -0.30489      -0.10879      -0.10170
     4  H(1)              -0.00012      -0.52217      -0.18632      -0.17418
     5  O(17)              0.04674     -28.33243     -10.10972      -9.45068
     6  S(33)              0.00024       0.08119       0.02897       0.02708
     7  H(1)              -0.00014      -0.60938      -0.21744      -0.20327
 --------------------------------------------------------

 1\1\GINC-SE403\SP\UHF\Aug-CC-pVDZ\C1H3O1S1Si1(2)\OHZDE\08-Apr-2025\0\\
 #t hf aug-cc-pvdz iop(5/13=1,5/36=2,99/5=2) pseudo=read geom=check gue
 ss=(read,tcheck) scf=(maxcycle=1)\\title\\0,2\Si,0,-1.648688,-0.431925
 ,-0.08814\C,0,0.024416,0.490398,0.004544\H,0,-1.572029,-1.800039,0.475
 27\H,0,-2.710351,0.395758,0.523621\O,0,0.101356,1.691105,0.013913\S,0,
 1.501962,-0.590804,0.007819\H,0,2.375266,0.432861,-0.028603\\Version=E
 S64L-G16RevC.01\State=2-A\HF=-801.1030581\S2=0.773897\S2-1=0.\S2A=0.75
 0223\RMSD=5.723e-03\Dipole=-0.2420124,-0.5391107,0.017001\Quadrupole=4

 Normal termination of Gaussian 16 at Tue Apr  8 23:53:24 2025.
