 Gaussian 16, Revision C.01,

 ----------------------------------------------------------------------
 #t hf aug-cc-pvdz symm=none int=(grid=ultrafine) guess=(read,tcheck) s
 table=(opt,rrhf)
 ----------------------------------------------------------------------
 -----
 title
 -----
 Symbolic Z-matrix:
 Charge =  0 Multiplicity = 1

 SCF Done:  E(RHF) =  -421.558913628     A.U. after   15 cycles

 1\1\GINC-SE016\Stability\RHF\Aug-CC-pVDZ\C9H10O1\OHZDE\08-Apr-2025\0\\
 #t hf aug-cc-pvdz symm=none int=(grid=ultrafine) guess=(read,tcheck) s
 table=(opt,rrhf)\\title\\0,1\C,0,-2.196928,-1.370482,0.000005\C,0,-0.8
 17096,-1.183006,-0.000032\C,0,-3.050613,-0.269711,0.000038\C,0,-2.5217
 33,1.021669,0.000033\C,0,-1.145716,1.208673,-0.000005\C,0,-0.27688,0.1
 09226,-0.00004\H,0,-0.167502,-2.049537,-0.000057\H,0,-2.605142,-2.3747
 53,0.00001\C,0,2.16523,-0.802657,-0.000018\C,0,3.632511,-0.382356,0.00
 0054\H,0,3.866443,0.221465,0.878586\H,0,3.866533,0.221446,-0.878468\H,

 Normal termination of Gaussian 16 at Tue Apr  8 23:02:19 2025.
 Gaussian 16:  ES64L-G16RevC.01  3-Jul-2019

 ----------------------------------------------------------------------
 #t hf aug-cc-pvdz iop(5/13=1,5/36=2,99/5=2) pseudo=read geom=check gue
 ss=(read,tcheck) scf=(maxcycle=1)
 ----------------------------------------------------------------------
 -----
 title
 -----
 Structure from the checkpoint file:  "BDE49_expt_234_mol1.chk"
 Charge =  0 Multiplicity = 1

                         Standard orientation:
 ---------------------------------------------------------------------
 Center     Atomic      Atomic             Coordinates (Angstroms)
 Number     Number       Type             X           Y           Z
 ---------------------------------------------------------------------
      1          6           0       -2.196928   -1.370482    0.000005
      2          6           0       -0.817096   -1.183006   -0.000032
      3          6           0       -3.050613   -0.269711    0.000038
      4          6           0       -2.521733    1.021669    0.000033
      5          6           0       -1.145716    1.208673   -0.000005
      6          6           0       -0.276880    0.109226   -0.000040
      7          1           0       -0.167502   -2.049537   -0.000057
      8          1           0       -2.605142   -2.374753    0.000010
      9          6           0        2.165230   -0.802657   -0.000018
     10          6           0        3.632511   -0.382356    0.000054
     11          1           0        3.866443    0.221465    0.878586
     12          1           0        3.866533    0.221446   -0.878468
     13          1           0        4.282375   -1.260779    0.000096
     14          1           0       -4.124889   -0.416948    0.000068
     15          6           0        1.202301    0.379454   -0.000084
     16          1           0       -0.712405    2.201149   -0.000011
     17          1           0       -3.184608    1.879551    0.000058
     18          1           0        1.940270   -1.427655    0.872715
     19          1           0        1.940359   -1.427671   -0.872761
     20          8           0        1.619014    1.521107    0.000008
 ---------------------------------------------------------------------

 SCF Done:  E(RHF) =  -421.993422821     A.U. after    2 cycles

 The electronic state is 1-A.
 Alpha  occ. eigenvalues --  -20.53186 -11.34034 -11.26149 -11.25947 -11.25435
 Alpha  occ. eigenvalues --  -11.25347 -11.25274 -11.25104 -11.24875 -11.22704
 Alpha  occ. eigenvalues --   -1.46699  -1.16846  -1.06815  -1.03366  -1.02729
 Alpha  occ. eigenvalues --   -0.91146  -0.85685  -0.83794  -0.76368  -0.72313
 Alpha  occ. eigenvalues --   -0.67253  -0.65912  -0.63766  -0.63431  -0.61409
 Alpha  occ. eigenvalues --   -0.61137  -0.54674  -0.54572  -0.52904  -0.52372
 Alpha  occ. eigenvalues --   -0.51007  -0.50922  -0.48936  -0.41289  -0.35853
 Alpha  occ. eigenvalues --   -0.35412
 Alpha virt. eigenvalues --    0.02885   0.03200   0.03917   0.04435   0.04706
 Alpha virt. eigenvalues --    0.05235   0.06591   0.06592   0.07608   0.07860
 Alpha virt. eigenvalues --    0.08857   0.09867   0.09994   0.10998   0.12707

 Mulliken charges:
               1
     1  C    0.183082
     2  C    0.344566
     3  C   -0.016810
     4  C    0.356528
     5  C   -0.573107
     6  C    2.367463
     7  H   -0.382352
     8  H   -0.246900
     9  C   -0.758171
    10  C   -0.341838
    11  H    0.185025
    12  H    0.185027
    13  H    0.143414
    14  H   -0.220556
    15  C    0.266501
    16  H   -0.325384
    17  H   -0.217670
    18  H    0.286529
    19  H    0.286534
    20  O   -1.521881
 Sum of Mulliken charges =  -0.00000

 Dipole moment (field-independent basis, Debye):
    X=             -1.5152    Y=             -2.6472    Z=             -0.0001  Tot=              3.0501

 Test job not archived.
 1\1\GINC-SE016\SP\RHF\Aug-CC-pVDZ\C9H10O1\OHZDE\08-Apr-2025\0\\#t hf a
 ug-cc-pvdz iop(5/13=1,5/36=2,99/5=2) pseudo=read geom=check guess=(rea
 d,tcheck) scf=(maxcycle=1)\\title\\0,1\C,0,-2.196928,-1.370482,0.00000
 5\C,0,-0.817096,-1.183006,-0.000032\C,0,-3.050613,-0.269711,0.000038\C
 ,0,-2.521733,1.021669,0.000033\C,0,-1.145716,1.208673,-0.000005\C,0,-0
 .27688,0.109226,-0.00004\H,0,-0.167502,-2.049537,-0.000057\H,0,-2.6051
 42,-2.374753,0.00001\C,0,2.16523,-0.802657,-0.000018\C,0,3.632511,-0.3
 82356,0.000054\H,0,3.866443,0.221465,0.878586\H,0,3.866533,0.221446,-0

 Normal termination of Gaussian 16 at Tue Apr  8 23:02:30 2025.
