 Gaussian 16, Revision C.01,

 ----------------------------------------------------------------------
 #t hf aug-cc-pvdz symm=none int=(grid=ultrafine) guess=(read,tcheck) s
 table=opt
 ----------------------------------------------------------------------
 -----
 title
 -----
 Symbolic Z-matrix:
 Charge =  0 Multiplicity = 2

 SCF Done:  E(UHF) =  -622.672000520     A.U. after   16 cycles
 Normal termination of Gaussian 16 at Wed Apr  9 00:31:17 2025.
 Gaussian 16:  ES64L-G16RevC.01  3-Jul-2019

 ----------------------------------------------------------------------
 #t hf aug-cc-pvdz iop(5/13=1,5/36=2,99/5=2) pseudo=read geom=check gue
 ss=(read,tcheck) scf=(maxcycle=1)
 ----------------------------------------------------------------------
 -----
 title
 -----
 Structure from the checkpoint file:  "BDE49_nonexpt_363_mol2.chk"
 Charge =  0 Multiplicity = 2

                         Standard orientation:
 ---------------------------------------------------------------------
 Center     Atomic      Atomic             Coordinates (Angstroms)
 Number     Number       Type             X           Y           Z
 ---------------------------------------------------------------------
      1          9           0       -1.859234   -0.639843   -0.000010
      2          5           0       -1.386943    0.575082    0.000001
      3          6           0        0.107407    1.005809    0.000008
      4         17           0        1.316435   -0.375729    0.000001
      5          1           0        0.321992    1.617851    0.878622
      6          1           0        0.321997    1.617865   -0.878595
 ---------------------------------------------------------------------

 SCF Done:  E(UHF) =  -622.900544120     A.U. after    2 cycles

 The electronic state is 2-A.
 Alpha  occ. eigenvalues -- -105.56503 -26.49981 -11.31021 -10.61242  -7.78306
 Alpha  occ. eigenvalues --   -7.77778  -7.77777  -7.70515  -1.63393  -1.10217
 Alpha  occ. eigenvalues --   -0.93649  -0.79664  -0.71644  -0.68462  -0.63306
 Alpha  occ. eigenvalues --   -0.62278  -0.57375  -0.45955  -0.45512  -0.36771
 Alpha virt. eigenvalues --    0.03398   0.03723   0.05069   0.05546   0.06766
 Alpha virt. eigenvalues --    0.09117   0.10619   0.11375   0.13704   0.15478
 Alpha virt. eigenvalues --    0.16429   0.16762   0.17561   0.18589   0.19133

  Beta  occ. eigenvalues -- -105.56415 -26.49674 -11.30755 -10.61149  -7.77965
  Beta  occ. eigenvalues --   -7.77725  -7.77712  -7.68636  -1.62536  -1.09462
  Beta  occ. eigenvalues --   -0.92487  -0.78448  -0.68735  -0.68376  -0.63238
  Beta  occ. eigenvalues --   -0.59526  -0.55925  -0.45353  -0.45108
  Beta virt. eigenvalues --    0.02274   0.04012   0.04825   0.05441   0.07290
  Beta virt. eigenvalues --    0.07499   0.09305   0.13086   0.13596   0.14060
  Beta virt. eigenvalues --    0.16096   0.16544   0.17786   0.17888   0.18954

 Mulliken charges and spin densities:
               1          2
     1  F   -0.505587  -0.039169
     2  B    0.720575   0.956856
     3  C   -0.529907   0.034501
     4  Cl  -0.180575   0.063013
     5  H    0.247747  -0.007600
     6  H    0.247747  -0.007600
 Sum of Mulliken charges =  -0.00000   1.00000

 Dipole moment (field-independent basis, Debye):
    X=             -0.5195    Y=              2.0706    Z=              0.0000  Tot=              2.1347
                          Isotropic Fermi Contact Couplings
        Atom                 a.u.       MegaHertz       Gauss      10(-4) cm-1
     1  F(19)              0.06953     292.52850     104.38144      97.57700
     2  B(11)              0.31633     453.72634     161.90084     151.34682
     3  C(13)              0.11147     125.30899      44.71337      41.79858
     4  Cl(35)             0.02726      11.95386       4.26544       3.98738
     5  H(1)              -0.00124      -5.54539      -1.97873      -1.84974
     6  H(1)              -0.00124      -5.54540      -1.97874      -1.84975
 --------------------------------------------------------
       Center         ----  Spin Dipole Couplings  ----

 1\1\GINC-SE222\SP\UHF\Aug-CC-pVDZ\C1H2B1Cl1F1(2)\OHZDE\09-Apr-2025\0\\
 #t hf aug-cc-pvdz iop(5/13=1,5/36=2,99/5=2) pseudo=read geom=check gue
 ss=(read,tcheck) scf=(maxcycle=1)\\title\\0,2\F,0,-1.859234,-0.639843,
 -0.00001\B,0,-1.386943,0.575082,0.000001\C,0,0.107407,1.005809,0.00000
 8\Cl,0,1.316435,-0.375729,0.000001\H,0,0.321992,1.617851,0.878622\H,0,
 0.321997,1.617865,-0.878595\\Version=ES64L-G16RevC.01\State=2-A\HF=-62
 2.9005441\S2=0.755422\S2-1=0.\S2A=0.750015\RMSD=4.420e-03\Dipole=-0.20
 43892,0.8146205,0.0000056\Quadrupole=-2.6816667,1.0482125,1.6334542,0.

 Normal termination of Gaussian 16 at Wed Apr  9 00:31:19 2025.
