 Gaussian 16, Revision C.01,

 ----------------------------------------------------------------------
 #t hf aug-cc-pvdz symm=none int=(grid=ultrafine) guess=(read,tcheck) s
 table=opt
 ----------------------------------------------------------------------
 -----
 title
 -----
 Symbolic Z-matrix:
 Charge =  0 Multiplicity = 2

 SCF Done:  E(UHF) =  -1293.06088861     A.U. after   17 cycles

 1\1\GINC-SE110\Stability\UHF\Aug-CC-pVDZ\C2Cl2F3\OHZDE\08-Apr-2025\0\\
 #t hf aug-cc-pvdz symm=none int=(grid=ultrafine) guess=(read,tcheck) s
 table=opt\\title\\0,2\C,0,-0.28005,-0.413952,0.\C,0,0.190385,1.015824,
 0.\Cl,0,-0.256093,-1.278372,1.471253\Cl,0,-0.256093,-1.278372,-1.47125
 3\F,0,1.539425,1.107737,0.\F,0,-0.256093,1.66021,1.088396\F,0,-0.25609
 3,1.66021,-1.088396\\Version=ES64L-G16RevC.01\HF=-1293.0608886\S2=0.76
 9114\S2-1=0.\S2A=0.750298\RMSD=4.454e-09\Dipole=-0.1714627,-0.4405152,
 0.\Quadrupole=-0.5024096,-0.5038719,1.0062815,-0.1485203,0.,0.\PG=Unkn

 Normal termination of Gaussian 16 at Tue Apr  8 22:47:40 2025.
 Gaussian 16:  ES64L-G16RevC.01  3-Jul-2019

 ----------------------------------------------------------------------
 #t hf aug-cc-pvdz iop(5/13=1,5/36=2,99/5=2) pseudo=read geom=check gue
 ss=(read,tcheck) scf=(maxcycle=1)
 ----------------------------------------------------------------------
 -----
 title
 -----
 Structure from the checkpoint file:  "BDE49_expt_1633_mol2.chk"
 Charge =  0 Multiplicity = 2

                         Standard orientation:
 ---------------------------------------------------------------------
 Center     Atomic      Atomic             Coordinates (Angstroms)
 Number     Number       Type             X           Y           Z
 ---------------------------------------------------------------------
      1          6           0       -0.280050   -0.413952   -0.000000
      2          6           0        0.190385    1.015824    0.000000
      3         17           0       -0.256093   -1.278372    1.471253
      4         17           0       -0.256093   -1.278372   -1.471253
      5          9           0        1.539425    1.107737    0.000000
      6          9           0       -0.256093    1.660210    1.088396
      7          9           0       -0.256093    1.660210   -1.088396
 ---------------------------------------------------------------------

 SCF Done:  E(UHF) =  -1293.55060956     A.U. after    2 cycles

 The electronic state is 2-A'.
 Alpha  occ. eigenvalues -- -105.62392-105.62391 -26.52800 -26.52796 -26.52348
 Alpha  occ. eigenvalues --  -11.55521 -11.41191 -10.67215 -10.67212  -7.84053
 Alpha  occ. eigenvalues --   -7.84050  -7.83883  -7.83881  -7.83717  -7.83717
 Alpha  occ. eigenvalues --   -1.73651  -1.63729  -1.63216  -1.23641  -1.10729
 Alpha  occ. eigenvalues --   -1.02735  -0.90133  -0.83614  -0.83203  -0.77720
 Alpha  occ. eigenvalues --   -0.71212  -0.71137  -0.66516  -0.66087  -0.64125
 Alpha  occ. eigenvalues --   -0.63894  -0.63496  -0.62717  -0.52832  -0.52077
 Alpha  occ. eigenvalues --   -0.49701  -0.40586
 Alpha virt. eigenvalues --    0.06036   0.07604   0.08439   0.09569   0.10300
 Alpha virt. eigenvalues --    0.11307   0.12895   0.13796   0.14846   0.16549
 Alpha virt. eigenvalues --    0.16726   0.17936   0.18238   0.19654   0.21334

  Beta  occ. eigenvalues -- -105.62353-105.62353 -26.52784 -26.52780 -26.52146
  Beta  occ. eigenvalues --  -11.55765 -11.38265 -10.67172 -10.67169  -7.84294
  Beta  occ. eigenvalues --   -7.84291  -7.83690  -7.83690  -7.83485  -7.83483
  Beta  occ. eigenvalues --   -1.73498  -1.63688  -1.62795  -1.19894  -1.10296
  Beta  occ. eigenvalues --   -1.01614  -0.88558  -0.83156  -0.82611  -0.74754
  Beta  occ. eigenvalues --   -0.70869  -0.70132  -0.66168  -0.65371  -0.63746
  Beta  occ. eigenvalues --   -0.63321  -0.62255  -0.55426  -0.51957  -0.50276
  Beta  occ. eigenvalues --   -0.49540
  Beta virt. eigenvalues --    0.04108   0.06462   0.07751   0.08467   0.10100
  Beta virt. eigenvalues --    0.10957   0.11354   0.13215   0.14017   0.14919
  Beta virt. eigenvalues --    0.16840   0.17766   0.17962   0.18703   0.21204

 Mulliken charges and spin densities:
               1          2
     1  C   -0.765828   1.147912
     2  C    2.738535  -0.158038
     3  Cl   0.019730  -0.002876
     4  Cl   0.019730  -0.002876
     5  F   -0.659465   0.012737
     6  F   -0.676351   0.001570
     7  F   -0.676351   0.001570
 Sum of Mulliken charges =   0.00000   1.00000

 Dipole moment (field-independent basis, Debye):
    X=             -0.3797    Y=             -0.9497    Z=             -0.0000  Tot=              1.0228
                          Isotropic Fermi Contact Couplings
        Atom                 a.u.       MegaHertz       Gauss      10(-4) cm-1
     1  C(13)              0.32330     363.45485     129.68973     121.23549
     2  C(13)             -0.04879     -54.85425     -19.57336     -18.29741
     3  Cl(35)             0.04004      17.55693       6.26475       5.85636
     4  Cl(35)             0.04004      17.55693       6.26475       5.85636
     5  F(19)              0.03095     130.20123      46.45903      43.43045
     6  F(19)              0.00066       2.79167       0.99614       0.93120
     7  F(19)              0.00066       2.79167       0.99614       0.93120
 --------------------------------------------------------

 Normal termination of Gaussian 16 at Tue Apr  8 22:47:43 2025.
