 Gaussian 16, Revision C.01,

 ----------------------------------------------------------------------
 #t hf aug-cc-pvdz symm=none int=(grid=ultrafine) guess=(read,tcheck) s
 table=(opt,rrhf)
 ----------------------------------------------------------------------
 -----
 title
 -----
 Symbolic Z-matrix:
 Charge =  0 Multiplicity = 1

 SCF Done:  E(RHF) =  -395.506557445     A.U. after   15 cycles
 Normal termination of Gaussian 16 at Tue Apr  8 22:52:44 2025.
 Gaussian 16:  ES64L-G16RevC.01  3-Jul-2019

 ----------------------------------------------------------------------
 #t hf aug-cc-pvdz iop(5/13=1,5/36=2,99/5=2) pseudo=read geom=check gue
 ss=(read,tcheck) scf=(maxcycle=1)
 ----------------------------------------------------------------------
 -----
 title
 -----
 Structure from the checkpoint file:  "BDE49_expt_1802_mol1.chk"
 Charge =  0 Multiplicity = 1

                         Standard orientation:
 ---------------------------------------------------------------------
 Center     Atomic      Atomic             Coordinates (Angstroms)
 Number     Number       Type             X           Y           Z
 ---------------------------------------------------------------------
      1          6           0        1.550101   -0.775483   -0.000015
      2          6           0        0.370626    0.177331   -0.000153
      3          8           0       -0.800755   -0.542388   -0.000167
      4          8           0        0.429826    1.374000   -0.000124
      5          7           0       -2.079586    0.347466    0.000009
      6          8           0       -2.995591   -0.338495    0.000328
      7          6           0        2.894953   -0.053388    0.000064
      8          1           0        1.443163   -1.430150   -0.871355
      9          1           0        1.443021   -1.430080    0.871359
     10          1           0        2.997686    0.584200   -0.879748
     11          1           0        3.713765   -0.776202    0.000158
     12          1           0        2.997545    0.584270    0.879842
 ---------------------------------------------------------------------

 SCF Done:  E(RHF) =  -395.893618010     A.U. after    2 cycles

 The electronic state is 1-A.
 Alpha  occ. eigenvalues --  -20.70113 -20.61920 -20.54520 -15.77114 -11.39929
 Alpha  occ. eigenvalues --  -11.26259 -11.23764  -1.73696  -1.53552  -1.45515
 Alpha  occ. eigenvalues --   -1.07726  -1.01089  -0.90865  -0.82701  -0.78121
 Alpha  occ. eigenvalues --   -0.73510  -0.73184  -0.68456  -0.65983  -0.62964
 Alpha  occ. eigenvalues --   -0.58917  -0.56205  -0.53724  -0.51233  -0.48234
 Alpha  occ. eigenvalues --   -0.47564  -0.43977
 Alpha virt. eigenvalues --    0.03553   0.03555   0.04596   0.04700   0.05632
 Alpha virt. eigenvalues --    0.07627   0.08459   0.11713   0.11753   0.11935
 Alpha virt. eigenvalues --    0.13362   0.14222   0.15462   0.16040   0.16500

 Mulliken charges:
               1
     1  C   -0.392126
     2  C    1.559974
     3  O   -1.262556
     4  O   -1.128835
     5  N    1.508791
     6  O   -0.882270
     7  C   -0.285084
     8  H    0.204984
     9  H    0.205021
    10  H    0.172151
    11  H    0.127795
    12  H    0.172154
 Sum of Mulliken charges =  -0.00000

 Dipole moment (field-independent basis, Debye):
    X=              0.4785    Y=             -2.3159    Z=              0.0003  Tot=              2.3648

 Test job not archived.
 1\1\GINC-SE328\SP\RHF\Aug-CC-pVDZ\C3H5N1O3\OHZDE\08-Apr-2025\0\\#t hf
 aug-cc-pvdz iop(5/13=1,5/36=2,99/5=2) pseudo=read geom=check guess=(re
 ad,tcheck) scf=(maxcycle=1)\\title\\0,1\C,0,1.550101,-0.775483,-0.0000
 15\C,0,0.370626,0.177331,-0.000153\O,0,-0.800755,-0.542388,-0.000167\O
 ,0,0.429826,1.374,-0.000124\N,0,-2.079586,0.347466,0.000009\O,0,-2.995
 591,-0.338495,0.000328\C,0,2.894953,-0.053388,0.000064\H,0,1.443163,-1
 .43015,-0.871355\H,0,1.443021,-1.43008,0.871359\H,0,2.997686,0.5842,-0
 .879748\H,0,3.713765,-0.776202,0.000158\H,0,2.997545,0.58427,0.879842\

 Normal termination of Gaussian 16 at Tue Apr  8 22:52:48 2025.
