 Gaussian 16, Revision C.01,

 ----------------------------------------------------------------------
 #t hf aug-cc-pvdz symm=none int=(grid=ultrafine) guess=(read,tcheck) s
 table=(opt,rrhf)
 ----------------------------------------------------------------------
 -----
 title
 -----
 Symbolic Z-matrix:
 Charge =  0 Multiplicity = 1

 SCF Done:  E(RHF) =  -479.919181550     A.U. after   14 cycles
 Normal termination of Gaussian 16 at Tue Apr  8 23:50:55 2025.
 Gaussian 16:  ES64L-G16RevC.01  3-Jul-2019

 ----------------------------------------------------------------------
 #t hf aug-cc-pvdz iop(5/13=1,5/36=2,99/5=2) pseudo=read geom=check gue
 ss=(read,tcheck) scf=(maxcycle=1)
 ----------------------------------------------------------------------
 -----
 title
 -----
 Structure from the checkpoint file:  "BDE49_nonexpt_1885_mol1.chk"
 Charge =  0 Multiplicity = 1

                         Standard orientation:
 ---------------------------------------------------------------------
 Center     Atomic      Atomic             Coordinates (Angstroms)
 Number     Number       Type             X           Y           Z
 ---------------------------------------------------------------------
      1          6           0       -0.080073    0.614050    0.025053
      2         14           0        1.681708   -0.101032    0.002557
      3          8           0       -0.963713   -0.488319   -0.041373
      4          1           0        2.615147    1.046486    0.089185
      5          1           0        1.926489   -0.845494   -1.251028
      6          8           0       -2.327950    0.043014   -0.082401
      7          1           0       -2.697222   -0.393581    0.697502
      8          1           0        1.892049   -0.994581    1.162705
      9          1           0       -0.222731    1.281094   -0.834889
     10          1           0       -0.243894    1.198671    0.940603
 ---------------------------------------------------------------------

 SCF Done:  E(RHF) =  -480.143974463     A.U. after    2 cycles

 The electronic state is 1-A.
 Alpha  occ. eigenvalues --  -69.53482 -20.61883 -20.61482 -11.28437  -6.20621
 Alpha  occ. eigenvalues --   -3.95999  -3.95982  -3.95972  -1.57803  -1.30028
 Alpha  occ. eigenvalues --   -0.92493  -0.74575  -0.71224  -0.65667  -0.64251
 Alpha  occ. eigenvalues --   -0.58390  -0.50070  -0.49397  -0.48729  -0.46114
 Alpha  occ. eigenvalues --   -0.44344
 Alpha virt. eigenvalues --    0.03593   0.04067   0.04827   0.04995   0.07000
 Alpha virt. eigenvalues --    0.07907   0.08483   0.09200   0.09779   0.13033
 Alpha virt. eigenvalues --    0.15231   0.15898   0.16005   0.16756   0.17480

 Mulliken charges:
               1
     1  C    0.188692
     2  Si   1.022863
     3  O   -0.719397
     4  H   -0.190251
     5  H   -0.202791
     6  O   -0.435603
     7  H    0.415290
     8  H   -0.210427
     9  H    0.069057
    10  H    0.062567
 Sum of Mulliken charges =  -0.00000

 Dipole moment (field-independent basis, Debye):
    X=              0.2683    Y=              0.5787    Z=              1.3520  Tot=              1.4950

 Test job not archived.
 1\1\GINC-SE059\SP\RHF\Aug-CC-pVDZ\C1H6O2Si1\OHZDE\08-Apr-2025\0\\#t hf
  aug-cc-pvdz iop(5/13=1,5/36=2,99/5=2) pseudo=read geom=check guess=(r
 ead,tcheck) scf=(maxcycle=1)\\title\\0,1\C,0,-0.080073,0.61405,0.02505
 3\Si,0,1.681708,-0.101032,0.002557\O,0,-0.963713,-0.488319,-0.041373\H
 ,0,2.615147,1.046486,0.089185\H,0,1.926489,-0.845494,-1.251028\O,0,-2.
 32795,0.043014,-0.082401\H,0,-2.697222,-0.393581,0.697502\H,0,1.892049
 ,-0.994581,1.162705\H,0,-0.222731,1.281094,-0.834889\H,0,-0.243894,1.1
 98671,0.940603\\Version=ES64L-G16RevC.01\State=1-A\HF=-480.1439745\RMS

 Normal termination of Gaussian 16 at Tue Apr  8 23:50:57 2025.
