 Gaussian 16, Revision C.01,

 ----------------------------------------------------------------------
 #t hf aug-cc-pvdz symm=none int=(grid=ultrafine) guess=(read,tcheck) s
 table=(opt,rrhf)
 ----------------------------------------------------------------------
 -----
 title
 -----
 Symbolic Z-matrix:
 Charge =  0 Multiplicity = 1

 SCF Done:  E(RHF) =  -1453.30881039     A.U. after   15 cycles
 Normal termination of Gaussian 16 at Wed Apr  9 00:13:36 2025.
 Gaussian 16:  ES64L-G16RevC.01  3-Jul-2019

 ----------------------------------------------------------------------
 #t hf aug-cc-pvdz iop(5/13=1,5/36=2,99/5=2) pseudo=read geom=check gue
 ss=(read,tcheck) scf=(maxcycle=1)
 ----------------------------------------------------------------------
 -----
 title
 -----
 Structure from the checkpoint file:  "BDE49_nonexpt_2440_mol1.chk"
 Charge =  0 Multiplicity = 1

                         Standard orientation:
 ---------------------------------------------------------------------
 Center     Atomic      Atomic             Coordinates (Angstroms)
 Number     Number       Type             X           Y           Z
 ---------------------------------------------------------------------
      1         14           0       -2.863263   -0.013659   -0.707094
      2         14           0       -1.198397   -0.607925    0.854350
      3          6           0        0.479526    0.107321    0.302895
      4          1           0       -1.093056   -2.087250    0.949252
      5          1           0       -1.492623   -0.061287    2.197077
      6         16           0        0.663587    1.742168    0.234316
      7         16           0        1.670657   -1.085706   -0.102655
      8          1           0       -4.131785   -0.686324   -0.333582
      9          1           0       -2.462038   -0.470813   -2.058809
     10          1           0       -3.075263    1.450266   -0.724044
     11          6           0        3.115422   -0.123611   -0.633555
     12          1           0        3.878124   -0.853026   -0.907415
     13          1           0        3.465925    0.506511    0.183177
     14          1           0        2.856360    0.498426   -1.489862
 ---------------------------------------------------------------------

 SCF Done:  E(RHF) =  -1453.57700435     A.U. after    2 cycles

 The electronic state is 1-A.
 Alpha  occ. eigenvalues --  -93.98885 -93.93425 -69.54618 -69.53291 -11.34224
 Alpha  occ. eigenvalues --  -11.28084  -8.27019  -8.21597  -6.24841  -6.24626
 Alpha  occ. eigenvalues --   -6.24488  -6.21760  -6.20483  -6.19425  -6.19212
 Alpha  occ. eigenvalues --   -6.19015  -3.97122  -3.97081  -3.97068  -3.95839
 Alpha  occ. eigenvalues --   -3.95834  -3.95828  -1.14514  -1.03778  -0.93095
 Alpha  occ. eigenvalues --   -0.80744  -0.74093  -0.67771  -0.61914  -0.61442
 Alpha  occ. eigenvalues --   -0.57186  -0.53530  -0.51394  -0.49481  -0.48737
 Alpha  occ. eigenvalues --   -0.47389  -0.46354  -0.41426  -0.35495  -0.34252
 Alpha virt. eigenvalues --    0.02795   0.03419   0.03857   0.04342   0.05266
 Alpha virt. eigenvalues --    0.05847   0.06242   0.06672   0.07530   0.08207
 Alpha virt. eigenvalues --    0.08445   0.08918   0.09603   0.10182   0.10802

 Mulliken charges:
               1
     1  Si   0.283368
     2  Si   0.863667
     3  C   -1.057403
     4  H   -0.159147
     5  H   -0.131946
     6  S    0.118776
     7  S    0.523965
     8  H   -0.135372
     9  H   -0.099008
    10  H   -0.077520
    11  C   -0.746306
    12  H    0.126736
    13  H    0.247503
    14  H    0.242688
 Sum of Mulliken charges =  -0.00000

 Dipole moment (field-independent basis, Debye):
    X=              1.0179    Y=             -1.5225    Z=             -0.5262  Tot=              1.9056

 Test job not archived.
 1\1\GINC-SE132\SP\RHF\Aug-CC-pVDZ\C2H8S2Si2\OHZDE\09-Apr-2025\0\\#t hf
  aug-cc-pvdz iop(5/13=1,5/36=2,99/5=2) pseudo=read geom=check guess=(r
 ead,tcheck) scf=(maxcycle=1)\\title\\0,1\Si,0,2.863263,-0.013659,0.707
 094\Si,0,1.198397,-0.607925,-0.85435\C,0,-0.479526,0.107321,-0.302895\
 H,0,1.093056,-2.08725,-0.949252\H,0,1.492623,-0.061287,-2.197077\S,0,-
 0.663587,1.742168,-0.234316\S,0,-1.670657,-1.085706,0.102655\H,0,4.131
 785,-0.686324,0.333582\H,0,2.462038,-0.470813,2.058809\H,0,3.075263,1.
 450266,0.724044\C,0,-3.115422,-0.123611,0.633555\H,0,-3.878124,-0.8530

 Normal termination of Gaussian 16 at Wed Apr  9 00:13:42 2025.
