 Gaussian 16, Revision C.01,

 ----------------------------------------------------------------------
 #t hf aug-cc-pvdz symm=none int=(grid=ultrafine) guess=(read,tcheck) s
 table=(opt,rrhf)
 ----------------------------------------------------------------------
 -----
 title
 -----
 Symbolic Z-matrix:
 Charge =  0 Multiplicity = 1

 SCF Done:  E(RHF) =  -307.022603113     A.U. after   11 cycles

 1\1\GINC-SE455\Stability\RHF\Aug-CC-pVDZ\C4H10O2\OHZDE\08-Apr-2025\0\\
 #t hf aug-cc-pvdz symm=none int=(grid=ultrafine) guess=(read,tcheck) s
 table=(opt,rrhf)\\title\\0,1\C,0,0.644737,-0.400995,0.000001\O,0,1.719
 943,0.517456,-0.000002\C,0,-0.644737,0.400995,-0.000001\C,0,2.983223,-
 0.113711,-0.000001\H,0,0.676533,-1.048506,0.888778\H,0,0.676532,-1.048
 51,-0.888774\H,0,3.121879,-0.741716,0.892142\H,0,3.738232,0.673156,-0.
 000003\H,0,3.121879,-0.74172,-0.892142\O,0,-1.719943,-0.517456,0.00000
 2\H,0,-0.676533,1.048506,-0.888778\H,0,-0.676532,1.04851,0.888774\C,0,

 Normal termination of Gaussian 16 at Tue Apr  8 22:33:38 2025.
 Gaussian 16:  ES64L-G16RevC.01  3-Jul-2019

 ----------------------------------------------------------------------
 #t hf aug-cc-pvdz iop(5/13=1,5/36=2,99/5=2) pseudo=read geom=check gue
 ss=(read,tcheck) scf=(maxcycle=1)
 ----------------------------------------------------------------------
 -----
 title
 -----
 Structure from the checkpoint file:  "BDE49_expt_1074_mol1.chk"
 Charge =  0 Multiplicity = 1

                         Standard orientation:
 ---------------------------------------------------------------------
 Center     Atomic      Atomic             Coordinates (Angstroms)
 Number     Number       Type             X           Y           Z
 ---------------------------------------------------------------------
      1          6           0       -0.644737    0.400995    0.000001
      2          8           0       -1.719943   -0.517456   -0.000002
      3          6           0        0.644737   -0.400995   -0.000001
      4          6           0       -2.983223    0.113711   -0.000001
      5          1           0       -0.676533    1.048506    0.888778
      6          1           0       -0.676532    1.048510   -0.888774
      7          1           0       -3.121879    0.741716    0.892142
      8          1           0       -3.738232   -0.673156   -0.000003
      9          1           0       -3.121879    0.741720   -0.892142
     10          8           0        1.719943    0.517456    0.000002
     11          1           0        0.676533   -1.048506   -0.888778
     12          1           0        0.676532   -1.048510    0.888774
     13          6           0        2.983223   -0.113711    0.000001
     14          1           0        3.738232    0.673156    0.000003
     15          1           0        3.121880   -0.741716   -0.892142
     16          1           0        3.121879   -0.741719    0.892142
 ---------------------------------------------------------------------

 SCF Done:  E(RHF) =  -307.346856058     A.U. after    2 cycles

 The electronic state is 1-A.
 Alpha  occ. eigenvalues --  -20.54510 -20.54507 -11.28204 -11.28201 -11.28048
 Alpha  occ. eigenvalues --  -11.28037  -1.46707  -1.45641  -1.02964  -0.93894
 Alpha  occ. eigenvalues --   -0.88907  -0.83565  -0.69209  -0.67312  -0.65877
 Alpha  occ. eigenvalues --   -0.64481  -0.61829  -0.60013  -0.58136  -0.52299
 Alpha  occ. eigenvalues --   -0.51277  -0.48600  -0.47421  -0.41965  -0.41663
 Alpha virt. eigenvalues --    0.03892   0.04016   0.04586   0.04650   0.05858
 Alpha virt. eigenvalues --    0.06233   0.06558   0.08434   0.08652   0.09034
 Alpha virt. eigenvalues --    0.11057   0.12346   0.14711   0.15257   0.15422

 Mulliken charges:
               1
     1  C    0.503179
     2  O   -1.253461
     3  C    0.503179
     4  C    0.138313
     5  H    0.134248
     6  H    0.134250
     7  H    0.186282
     8  H   -0.029093
     9  H    0.186283
    10  O   -1.253461
    11  H    0.134248
    12  H    0.134250
    13  C    0.138314
    14  H   -0.029093
    15  H    0.186282
    16  H    0.186282
 Sum of Mulliken charges =  -0.00000

 Dipole moment (field-independent basis, Debye):
    X=              0.0000    Y=             -0.0000    Z=              0.0000  Tot=              0.0000

 Test job not archived.
 1\1\GINC-SE455\SP\RHF\Aug-CC-pVDZ\C4H10O2\OHZDE\08-Apr-2025\0\\#t hf a
 ug-cc-pvdz iop(5/13=1,5/36=2,99/5=2) pseudo=read geom=check guess=(rea
 d,tcheck) scf=(maxcycle=1)\\title\\0,1\C,0,0.644737,-0.400995,0.000001
 \O,0,1.719943,0.517456,-0.000002\C,0,-0.644737,0.400995,-0.000001\C,0,
 2.983223,-0.113711,-0.000001\H,0,0.676533,-1.048506,0.888778\H,0,0.676
 532,-1.04851,-0.888774\H,0,3.121879,-0.741716,0.892142\H,0,3.738232,0.
 673156,-0.000003\H,0,3.121879,-0.74172,-0.892142\O,0,-1.719943,-0.5174
 56,0.000002\H,0,-0.676533,1.048506,-0.888778\H,0,-0.676532,1.04851,0.8

 Normal termination of Gaussian 16 at Tue Apr  8 22:33:42 2025.
