 Gaussian 16, Revision C.01,

 ----------------------------------------------------------------------
 #t hf aug-cc-pvdz symm=none int=(grid=ultrafine) guess=(read,tcheck) s
 table=(opt,rrhf)
 ----------------------------------------------------------------------
 -----
 title
 -----
 Symbolic Z-matrix:
 Charge =  0 Multiplicity = 1

 SCF Done:  E(RHF) =  -744.692590400     A.U. after   14 cycles
 Normal termination of Gaussian 16 at Tue Apr  8 23:08:18 2025.
 Gaussian 16:  ES64L-G16RevC.01  3-Jul-2019

 ----------------------------------------------------------------------
 #t hf aug-cc-pvdz iop(5/13=1,5/36=2,99/5=2) pseudo=read geom=check gue
 ss=(read,tcheck) scf=(maxcycle=1)
 ----------------------------------------------------------------------
 -----
 title
 -----
 Structure from the checkpoint file:  "BDE49_expt_459_mol1.chk"
 Charge =  0 Multiplicity = 1

                         Standard orientation:
 ---------------------------------------------------------------------
 Center     Atomic      Atomic             Coordinates (Angstroms)
 Number     Number       Type             X           Y           Z
 ---------------------------------------------------------------------
      1          6           0        0.283101    1.206462   -0.002436
      2          6           0       -1.106369    1.204455   -0.005284
      3          6           0       -1.827056    0.000000   -0.005466
      4          6           0        0.974128    0.000000   -0.000886
      5          6           0        0.283101   -1.206462   -0.002436
      6          6           0       -1.106369   -1.204455   -0.005284
      7          1           0        0.827276    2.142303   -0.000496
      8          1           0       -1.640056    2.149169   -0.011867
      9          7           0       -3.218435    0.000000   -0.068176
     10          1           0       -3.669843   -0.837753    0.267074
     11          1           0       -3.669843    0.837752    0.267074
     12          1           0       -1.640056   -2.149169   -0.011867
     13         17           0        2.734769   -0.000000    0.005798
     14          1           0        0.827276   -2.142303   -0.000496
 ---------------------------------------------------------------------

 SCF Done:  E(RHF) =  -745.063158823     A.U. after    2 cycles

 The electronic state is 1-A.
 Alpha  occ. eigenvalues -- -105.56361 -15.51921 -11.29679 -11.29528 -11.25945
 Alpha  occ. eigenvalues --  -11.25941 -11.24685 -11.24684 -10.61142  -7.78107
 Alpha  occ. eigenvalues --   -7.77719  -7.77695  -1.23682  -1.16490  -1.07539
 Alpha  occ. eigenvalues --   -1.03300  -0.96987  -0.86434  -0.82823  -0.74096
 Alpha  occ. eigenvalues --   -0.73483  -0.66283  -0.64076  -0.62658  -0.61145
 Alpha  occ. eigenvalues --   -0.57260  -0.53807  -0.52355  -0.52292  -0.45775
 Alpha  occ. eigenvalues --   -0.45163  -0.36199  -0.31541
 Alpha virt. eigenvalues --    0.02566   0.03791   0.04491   0.05237   0.05946
 Alpha virt. eigenvalues --    0.08515   0.09232   0.09565   0.09993   0.10699
 Alpha virt. eigenvalues --    0.12396   0.13118   0.13506   0.13917   0.13974

 Mulliken charges:
               1
     1  C    0.183643
     2  C    0.962394
     3  C   -1.682526
     4  C   -0.137006
     5  C    0.183643
     6  C    0.962394
     7  H   -0.174088
     8  H   -0.295581
     9  N    0.812719
    10  H    0.005802
    11  H    0.005801
    12  H   -0.295581
    13  Cl  -0.357528
    14  H   -0.174088
 Sum of Mulliken charges =  -0.00000

 Dipole moment (field-independent basis, Debye):
    X=             -3.1454    Y=             -0.0000    Z=              0.9888  Tot=              3.2972

 Test job not archived.
 1\1\GINC-SE049\SP\RHF\Aug-CC-pVDZ\C6H6Cl1N1\OHZDE\08-Apr-2025\0\\#t hf
  aug-cc-pvdz iop(5/13=1,5/36=2,99/5=2) pseudo=read geom=check guess=(r
 ead,tcheck) scf=(maxcycle=1)\\title\\0,1\C,0,0.283101,1.206462,-0.0024
 36\C,0,-1.106369,1.204455,-0.005284\C,0,-1.827056,0.,-0.005466\C,0,0.9
 74128,0.,-0.000886\C,0,0.283101,-1.206462,-0.002436\C,0,-1.106369,-1.2
 04455,-0.005284\H,0,0.827276,2.142303,-0.000496\H,0,-1.640056,2.149169
 ,-0.011867\N,0,-3.218435,0.,-0.068176\H,0,-3.669843,-0.837753,0.267074
 \H,0,-3.669843,0.837752,0.267074\H,0,-1.640056,-2.149169,-0.011867\Cl,

 Normal termination of Gaussian 16 at Tue Apr  8 23:08:24 2025.
