 Gaussian 16, Revision C.01,

 ----------------------------------------------------------------------
 #t hf aug-cc-pvdz symm=none int=(grid=ultrafine) guess=(read,tcheck) s
 table=(opt,rrhf)
 ----------------------------------------------------------------------
 -----
 title
 -----
 Symbolic Z-matrix:
 Charge =  0 Multiplicity = 1

 SCF Done:  E(RHF) =  -1112.58033573     A.U. after   14 cycles
 Normal termination of Gaussian 16 at Tue Apr  8 23:29:04 2025.
 Gaussian 16:  ES64L-G16RevC.01  3-Jul-2019

 ----------------------------------------------------------------------
 #t hf aug-cc-pvdz iop(5/13=1,5/36=2,99/5=2) pseudo=read geom=check gue
 ss=(read,tcheck) scf=(maxcycle=1)
 ----------------------------------------------------------------------
 -----
 title
 -----
 Structure from the checkpoint file:  "BDE49_nonexpt_1255_mol1.chk"
 Charge =  0 Multiplicity = 1

                         Standard orientation:
 ---------------------------------------------------------------------
 Center     Atomic      Atomic             Coordinates (Angstroms)
 Number     Number       Type             X           Y           Z
 ---------------------------------------------------------------------
      1         17           0       -0.812658    2.092392    0.000000
      2         15           0        1.031974    1.017552    0.000000
      3          6           0        0.747606   -0.162475    1.423172
      4          6           0       -0.462835   -1.095075    1.274517
      5          6           0       -0.462995   -1.954621   -0.000000
      6          6           0        0.747606    0.585405    2.763213
      7          6           0       -1.650978   -2.924426   -0.000000
      8          1           0        1.632560    1.217724    2.873244
      9          1           0       -0.134686    1.223720    2.854613
     10          1           0        0.734775   -0.125380    3.595031
     11          1           0       -1.637252   -3.568586    0.883913
     12          1           0       -1.637252   -3.568586   -0.883913
     13          6           0       -0.462835   -1.095075   -1.274517
     14          6           0        0.747606   -0.162475   -1.423172
     15          6           0        0.747606    0.585405   -2.763213
     16          1           0        1.632560    1.217724   -2.873244
     17          1           0       -0.134686    1.223720   -2.854613
     18          1           0        0.734775   -0.125380   -3.595031
     19          1           0       -2.600336   -2.378860   -0.000000
     20          1           0        1.664145   -0.772193    1.373503
     21          1           0       -1.382250   -0.499043    1.311068
     22          1           0       -0.491456   -1.756818    2.149575
     23          1           0        0.459563   -2.553912   -0.000000
     24          1           0       -1.382250   -0.499043   -1.311068
     25          1           0       -0.491456   -1.756818   -2.149575
     26          1           0        1.664145   -0.772193   -1.373503
 ---------------------------------------------------------------------

 SCF Done:  E(RHF) =  -1113.04677532     A.U. after    2 cycles

 The electronic state is 1-A'.
 Alpha  occ. eigenvalues -- -105.54474 -84.31109 -11.25312 -11.25297 -11.23979
 Alpha  occ. eigenvalues --  -11.23404 -11.23388 -11.23272 -11.23268 -11.22707
 Alpha  occ. eigenvalues --  -10.59325  -7.76224  -7.75907  -7.75889  -6.77753
 Alpha  occ. eigenvalues --   -4.30260  -4.30128  -4.29529  -1.13371  -1.06374
 Alpha  occ. eigenvalues --   -1.05739  -1.01684  -0.93492  -0.93076  -0.87763
 Alpha  occ. eigenvalues --   -0.80357  -0.79026  -0.72959  -0.64245  -0.63374
 Alpha  occ. eigenvalues --   -0.61986  -0.61229  -0.58912  -0.56524  -0.56417
 Alpha  occ. eigenvalues --   -0.54765  -0.54728  -0.53052  -0.52983  -0.49105
 Alpha  occ. eigenvalues --   -0.48808  -0.47622  -0.47332  -0.46526  -0.46154
 Alpha  occ. eigenvalues --   -0.45458  -0.40487  -0.32791
 Alpha virt. eigenvalues --    0.02924   0.03232   0.03303   0.04228   0.05057
 Alpha virt. eigenvalues --    0.05381   0.05839   0.05982   0.06495   0.07707
 Alpha virt. eigenvalues --    0.08396   0.08732   0.09080   0.09423   0.10218

 Mulliken charges:
               1
     1  Cl  -0.618736
     2  P    1.101639
     3  C   -0.297391
     4  C   -0.294040
     5  C   -0.907884
     6  C   -0.488153
     7  C   -0.204108
     8  H    0.176642
     9  H    0.229803
    10  H    0.163190
    11  H    0.170712
    12  H    0.170712
    13  C   -0.294040
    14  C   -0.297391
    15  C   -0.488153
    16  H    0.176642
    17  H    0.229803
    18  H    0.163190
    19  H    0.238978
    20  H    0.189539
    21  H    0.174437
    22  H    0.116780
    23  H    0.107072
    24  H    0.174437
    25  H    0.116780
    26  H    0.189539
 Sum of Mulliken charges =  -0.00000

 Dipole moment (field-independent basis, Debye):
    X=              1.2301    Y=             -2.6690    Z=             -0.0000  Tot=              2.9388

 Test job not archived.
 1\1\GINC-SE100\SP\RHF\Aug-CC-pVDZ\C8H16Cl1P1\OHZDE\08-Apr-2025\0\\#t h
 f aug-cc-pvdz iop(5/13=1,5/36=2,99/5=2) pseudo=read geom=check guess=(
 read,tcheck) scf=(maxcycle=1)\\title\\0,1\Cl,0,-0.812658,-2.092392,0.\
 P,0,1.031974,-1.017552,0.\C,0,0.747606,0.162475,-1.423172\C,0,-0.46283
 5,1.095075,-1.274517\C,0,-0.462995,1.954621,0.\C,0,0.747606,-0.585405,
 -2.763213\C,0,-1.650978,2.924426,0.\H,0,1.63256,-1.217724,-2.873244\H,
 0,-0.134686,-1.22372,-2.854613\H,0,0.734775,0.12538,-3.595031\H,0,-1.6
 37252,3.568586,-0.883913\H,0,-1.637252,3.568586,0.883913\C,0,-0.462835

 Normal termination of Gaussian 16 at Tue Apr  8 23:29:17 2025.
