 Gaussian 16, Revision C.01,

 ----------------------------------------------------------------------
 #t hf aug-cc-pvdz symm=none int=(grid=ultrafine) guess=(read,tcheck) s
 table=(opt,rrhf)
 ----------------------------------------------------------------------
 -----
 title
 -----
 Symbolic Z-matrix:
 Charge =  0 Multiplicity = 1

 SCF Done:  E(RHF) =  -663.077747062     A.U. after   13 cycles
 Normal termination of Gaussian 16 at Tue Apr  8 23:37:30 2025.
 Gaussian 16:  ES64L-G16RevC.01  3-Jul-2019

 ----------------------------------------------------------------------
 #t hf aug-cc-pvdz iop(5/13=1,5/36=2,99/5=2) pseudo=read geom=check gue
 ss=(read,tcheck) scf=(maxcycle=1)
 ----------------------------------------------------------------------
 -----
 title
 -----
 Structure from the checkpoint file:  "BDE49_nonexpt_1542_mol1.chk"
 Charge =  0 Multiplicity = 1

                         Standard orientation:
 ---------------------------------------------------------------------
 Center     Atomic      Atomic             Coordinates (Angstroms)
 Number     Number       Type             X           Y           Z
 ---------------------------------------------------------------------
      1          6           0        0.933456    0.260726    0.457013
      2          7           0       -1.799779   -0.030654   -0.141654
      3          8           0       -1.555603   -1.006361   -1.140078
      4          8           0       -1.803087   -0.702151    1.124793
      5          6           0        2.041891    0.124715   -0.280971
      6          6           0        3.279334   -0.612484    0.131912
      7          1           0        2.073217    0.592998   -1.264734
      8          1           0        3.173822   -1.061320    1.121424
      9          1           0        4.141939    0.062829    0.147141
     10          1           0        3.517913   -1.404119   -0.586778
     11          1           0       -0.702000   -1.416334   -0.913878
     12          1           0       -2.733711   -0.933071    1.237874
     13         15           0       -0.499694    1.187186   -0.195437
     14          1           0        0.872902   -0.198173    1.440794
     15          1           0       -0.908787    1.794331    1.015841
 ---------------------------------------------------------------------

 SCF Done:  E(RHF) =  -663.450239896     A.U. after    2 cycles

 The electronic state is 1-A.
 Alpha  occ. eigenvalues --  -84.29987 -20.58949 -20.58681 -15.60665 -11.27301
 Alpha  occ. eigenvalues --  -11.24988 -11.24547  -6.76780  -4.29638  -4.29281
 Alpha  occ. eigenvalues --   -4.28632  -1.53474  -1.43814  -1.09775  -1.05734
 Alpha  occ. eigenvalues --   -0.96224  -0.84190  -0.76414  -0.74818  -0.66756
 Alpha  occ. eigenvalues --   -0.66008  -0.63429  -0.61437  -0.59979  -0.58971
 Alpha  occ. eigenvalues --   -0.53723  -0.50397  -0.49207  -0.47387  -0.43716
 Alpha  occ. eigenvalues --   -0.39126  -0.35190
 Alpha virt. eigenvalues --    0.03369   0.04169   0.04515   0.04577   0.06053
 Alpha virt. eigenvalues --    0.06499   0.07376   0.07545   0.09299   0.09671
 Alpha virt. eigenvalues --    0.10530   0.12014   0.13281   0.14770   0.15099

 Mulliken charges:
               1
     1  C    0.067973
     2  N    1.283238
     3  O   -1.174581
     4  O   -1.208783
     5  C    0.094542
     6  C   -0.778110
     7  H   -0.112653
     8  H    0.109920
     9  H    0.248329
    10  H    0.242534
    11  H    0.377339
    12  H    0.353113
    13  P    0.367055
    14  H   -0.253869
    15  H    0.383954
 Sum of Mulliken charges =  -0.00000

 Dipole moment (field-independent basis, Debye):
    X=              2.6351    Y=             -0.6188    Z=              1.2371  Tot=              2.9761

 Test job not archived.
 1\1\GINC-SE368\SP\RHF\Aug-CC-pVDZ\C3H8N1O2P1\OHZDE\08-Apr-2025\0\\#t h
 f aug-cc-pvdz iop(5/13=1,5/36=2,99/5=2) pseudo=read geom=check guess=(
 read,tcheck) scf=(maxcycle=1)\\title\\0,1\C,0,0.933456,0.260726,0.4570
 13\N,0,-1.799779,-0.030654,-0.141654\O,0,-1.555603,-1.006361,-1.140078
 \O,0,-1.803087,-0.702151,1.124793\C,0,2.041891,0.124715,-0.280971\C,0,
 3.279334,-0.612484,0.131912\H,0,2.073217,0.592998,-1.264734\H,0,3.1738
 22,-1.06132,1.121424\H,0,4.141939,0.062829,0.147141\H,0,3.517913,-1.40
 4119,-0.586778\H,0,-0.702,-1.416334,-0.913878\H,0,-2.733711,-0.933071,

 Normal termination of Gaussian 16 at Tue Apr  8 23:37:34 2025.
