 Gaussian 16, Revision C.01,

 ----------------------------------------------------------------------
 #t hf aug-cc-pvdz symm=none int=(grid=ultrafine) guess=(read,tcheck) s
 table=opt
 ----------------------------------------------------------------------
 -----
 title
 -----
 Symbolic Z-matrix:
 Charge =  0 Multiplicity = 2

 SCF Done:  E(UHF) =  -1565.97106695     A.U. after   20 cycles

 1\1\GINC-SE045\Stability\UHF\Aug-CC-pVDZ\C1Cl3O2\OHZDE\08-Apr-2025\0\\
 #t hf aug-cc-pvdz symm=none int=(grid=ultrafine) guess=(read,tcheck) s
 table=opt\\title\\0,2\O,0,-1.880697,0.,1.241775\O,0,-0.570607,0.,1.345
 31\C,0,0.098617,0.,0.048508\Cl,0,1.814092,0.,0.476159\Cl,0,-0.347672,1
 .461396,-0.855366\Cl,0,-0.347672,-1.461396,-0.855366\\Version=ES64L-G1
 6RevC.01\HF=-1565.971067\S2=0.761508\S2-1=0.\S2A=0.750101\RMSD=5.593e-
 09\Dipole=0.1858494,0.,-0.2433263\Quadrupole=0.165488,1.0686116,-1.234
 0997,0.,0.9592383,0.\PG=Unknown\\@

 Normal termination of Gaussian 16 at Tue Apr  8 22:52:43 2025.
 Gaussian 16:  ES64L-G16RevC.01  3-Jul-2019

 ----------------------------------------------------------------------
 #t hf aug-cc-pvdz iop(5/13=1,5/36=2,99/5=2) pseudo=read geom=check gue
 ss=(read,tcheck) scf=(maxcycle=1)
 ----------------------------------------------------------------------
 -----
 title
 -----
 Structure from the checkpoint file:  "BDE49_expt_1798_mol2.chk"
 Charge =  0 Multiplicity = 2

                         Standard orientation:
 ---------------------------------------------------------------------
 Center     Atomic      Atomic             Coordinates (Angstroms)
 Number     Number       Type             X           Y           Z
 ---------------------------------------------------------------------
      1          8           0        2.043622   -0.950071   -0.000000
      2          8           0        1.444709    0.219697   -0.000000
      3          6           0       -0.010417    0.109407    0.000000
      4         17           0       -0.545964    1.794319    0.000000
      5         17           0       -0.545964   -0.744614    1.461396
      6         17           0       -0.545964   -0.744614   -1.461396
 ---------------------------------------------------------------------

 SCF Done:  E(UHF) =  -1566.36992742     A.U. after    2 cycles

 The electronic state is 2-A".
 Alpha  occ. eigenvalues -- -105.61829-105.61484-105.61484 -20.70851 -20.70330
 Alpha  occ. eigenvalues --  -11.51760 -10.66692 -10.66356 -10.66348  -7.83643
 Alpha  occ. eigenvalues --   -7.83321  -7.83312  -7.83182  -7.83181  -7.82846
 Alpha  occ. eigenvalues --   -7.82845  -7.82844  -7.82843  -1.74152  -1.33966
 Alpha  occ. eigenvalues --   -1.19133  -1.09600  -1.09474  -0.86857  -0.79515
 Alpha  occ. eigenvalues --   -0.74857  -0.73629  -0.66919  -0.63765  -0.56038
 Alpha  occ. eigenvalues --   -0.54223  -0.52880  -0.51664  -0.50839  -0.49335
 Alpha  occ. eigenvalues --   -0.49122  -0.47752
 Alpha virt. eigenvalues --    0.05794   0.07878   0.08151   0.08854   0.10879
 Alpha virt. eigenvalues --    0.12016   0.12433   0.13847   0.14481   0.15003
 Alpha virt. eigenvalues --    0.17055   0.18388   0.18507   0.18570   0.20773

  Beta  occ. eigenvalues -- -105.61836-105.61479-105.61479 -20.69660 -20.66746
  Beta  occ. eigenvalues --  -11.51836 -10.66699 -10.66352 -10.66344  -7.83662
  Beta  occ. eigenvalues --   -7.83292  -7.83283  -7.83195  -7.83183  -7.82849
  Beta  occ. eigenvalues --   -7.82848  -7.82840  -7.82838  -1.68300  -1.27419
  Beta  occ. eigenvalues --   -1.15834  -1.09454  -1.09387  -0.85767  -0.73934
  Beta  occ. eigenvalues --   -0.72000  -0.69988  -0.63038  -0.58589  -0.54212
  Beta  occ. eigenvalues --   -0.52766  -0.51994  -0.49565  -0.48975  -0.48720
  Beta  occ. eigenvalues --   -0.47753
  Beta virt. eigenvalues --    0.05798   0.06763   0.07921   0.08180   0.08884
  Beta virt. eigenvalues --    0.10946   0.12053   0.13177   0.13916   0.14972
  Beta virt. eigenvalues --    0.15106   0.17382   0.18392   0.18512   0.18721

 Mulliken charges and spin densities:
               1          2
     1  O   -0.196513   0.970203
     2  O   -0.446499   0.039236
     3  C   -0.034508  -0.008426
     4  Cl   0.222795  -0.004554
     5  Cl   0.227363   0.001771
     6  Cl   0.227363   0.001771
 Sum of Mulliken charges =  -0.00000   1.00000

 Dipole moment (field-independent basis, Debye):
    X=             -0.6721    Y=              0.0912    Z=              0.0000  Tot=              0.6782
                          Isotropic Fermi Contact Couplings
        Atom                 a.u.       MegaHertz       Gauss      10(-4) cm-1
     1  O(17)              0.26698    -161.84364     -57.74983     -53.98523
     2  O(17)              0.06654     -40.33577     -14.39280     -13.45456
     3  C(13)             -0.01500     -16.85735      -6.01512      -5.62301
     4  Cl(35)            -0.00328      -1.44008      -0.51386      -0.48036
     5  Cl(35)            -0.00465      -2.04032      -0.72804      -0.68058
     6  Cl(35)            -0.00465      -2.04032      -0.72804      -0.68058
 --------------------------------------------------------
       Center         ----  Spin Dipole Couplings  ----

 Normal termination of Gaussian 16 at Tue Apr  8 22:52:46 2025.
