 Gaussian 16, Revision C.01,

 ----------------------------------------------------------------------
 #t hf aug-cc-pvdz symm=none int=(grid=ultrafine) guess=(read,tcheck) s
 table=(opt,rrhf)
 ----------------------------------------------------------------------
 -----
 title
 -----
 Symbolic Z-matrix:
 Charge =  0 Multiplicity = 1

 SCF Done:  E(RHF) =  -368.138408345     A.U. after   12 cycles

 1\1\GINC-SE341\Stability\RHF\Aug-CC-pVDZ\C2H6Si1\OHZDE\08-Apr-2025\0\\
 #t hf aug-cc-pvdz symm=none int=(grid=ultrafine) guess=(read,tcheck) s
 table=(opt,rrhf)\\title\\0,1\Si,0,1.081925,0.077537,0.\C,0,-0.684154,-
 0.527658,0.\C,0,-1.746001,0.281609,0.\H,0,-0.861363,-1.60306,0.000001\
 H,0,-1.643697,1.36332,-0.000001\H,0,-2.764211,-0.098589,0.\H,0,1.08868
 5,1.559249,-0.000001\H,0,1.80728,-0.415072,-1.196547\H,0,1.807279,-0.4
 1507,1.196548\\Version=ES64L-G16RevC.01\HF=-368.1384083\RMSD=2.870e-09
 \Dipole=-0.2849203,-0.0415919,0.\Quadrupole=0.7846927,0.9358097,-1.720

 Normal termination of Gaussian 16 at Tue Apr  8 23:57:20 2025.
 Gaussian 16:  ES64L-G16RevC.01  3-Jul-2019

 ----------------------------------------------------------------------
 #t hf aug-cc-pvdz iop(5/13=1,5/36=2,99/5=2) pseudo=read geom=check gue
 ss=(read,tcheck) scf=(maxcycle=1)
 ----------------------------------------------------------------------
 -----
 title
 -----
 Structure from the checkpoint file:  "BDE49_nonexpt_2044_mol1.chk"
 Charge =  0 Multiplicity = 1

                         Standard orientation:
 ---------------------------------------------------------------------
 Center     Atomic      Atomic             Coordinates (Angstroms)
 Number     Number       Type             X           Y           Z
 ---------------------------------------------------------------------
      1         14           0        1.081925    0.077537    0.000000
      2          6           0       -0.684154   -0.527658    0.000000
      3          6           0       -1.746001    0.281609    0.000000
      4          1           0       -0.861363   -1.603060    0.000001
      5          1           0       -1.643697    1.363320   -0.000001
      6          1           0       -2.764211   -0.098590    0.000000
      7          1           0        1.088685    1.559249   -0.000001
      8          1           0        1.807280   -0.415072   -1.196547
      9          1           0        1.807279   -0.415070    1.196548
 ---------------------------------------------------------------------

 SCF Done:  E(RHF) =  -368.258075689     A.U. after    2 cycles

 The electronic state is 1-A.
 Alpha  occ. eigenvalues --  -69.52780 -11.25446 -11.23422  -6.19867  -3.95258
 Alpha  occ. eigenvalues --   -3.95236  -3.95229  -1.04329  -0.81010  -0.72390
 Alpha  occ. eigenvalues --   -0.63849  -0.57844  -0.49390  -0.48488  -0.46395
 Alpha  occ. eigenvalues --   -0.38722
 Alpha virt. eigenvalues --    0.03651   0.04181   0.04445   0.05767   0.06174
 Alpha virt. eigenvalues --    0.07370   0.08255   0.09300   0.10207   0.10451
 Alpha virt. eigenvalues --    0.14302   0.14526   0.14851   0.15620   0.17382

 Mulliken charges:
               1
     1  Si   1.028769
     2  C   -0.251058
     3  C    0.150991
     4  H   -0.157214
     5  H   -0.062520
     6  H   -0.050662
     7  H   -0.226536
     8  H   -0.215885
     9  H   -0.215884
 Sum of Mulliken charges =  -0.00000

 Dipole moment (field-independent basis, Debye):
    X=             -0.7128    Y=             -0.0978    Z=              0.0000  Tot=              0.7194

 Test job not archived.
 1\1\GINC-SE341\SP\RHF\Aug-CC-pVDZ\C2H6Si1\OHZDE\08-Apr-2025\0\\#t hf a
 ug-cc-pvdz iop(5/13=1,5/36=2,99/5=2) pseudo=read geom=check guess=(rea
 d,tcheck) scf=(maxcycle=1)\\title\\0,1\Si,0,1.081925,0.077537,0.\C,0,-
 0.684154,-0.527658,0.\C,0,-1.746001,0.281609,0.\H,0,-0.861363,-1.60306
 ,0.000001\H,0,-1.643697,1.36332,-0.000001\H,0,-2.764211,-0.098589,0.\H
 ,0,1.088685,1.559249,-0.000001\H,0,1.80728,-0.415072,-1.196547\H,0,1.8
 07279,-0.41507,1.196548\\Version=ES64L-G16RevC.01\State=1-A\HF=-368.25
 80757\RMSD=9.497e-03\Dipole=-0.2804229,-0.0384682,0.\Quadrupole=0.8710

 Normal termination of Gaussian 16 at Tue Apr  8 23:57:22 2025.
