 Gaussian 16, Revision C.01,

 ----------------------------------------------------------------------
 #t hf aug-cc-pvdz symm=none int=(grid=ultrafine) guess=(read,tcheck) s
 table=(opt,rrhf)
 ----------------------------------------------------------------------
 -----
 title
 -----
 Symbolic Z-matrix:
 Charge =  0 Multiplicity = 1

 SCF Done:  E(RHF) =  -417.356453263     A.U. after   11 cycles
 Normal termination of Gaussian 16 at Tue Apr  8 23:34:00 2025.
 Gaussian 16:  ES64L-G16RevC.01  3-Jul-2019

 ----------------------------------------------------------------------
 #t hf aug-cc-pvdz iop(5/13=1,5/36=2,99/5=2) pseudo=read geom=check gue
 ss=(read,tcheck) scf=(maxcycle=1)
 ----------------------------------------------------------------------
 -----
 title
 -----
 Structure from the checkpoint file:  "BDE49_nonexpt_1464_mol1.chk"
 Charge =  0 Multiplicity = 1

                         Standard orientation:
 ---------------------------------------------------------------------
 Center     Atomic      Atomic             Coordinates (Angstroms)
 Number     Number       Type             X           Y           Z
 ---------------------------------------------------------------------
      1         15           0        0.559344   -0.139421   -0.000101
      2          8           0       -1.088730    0.154287    0.000126
      3          1           0       -1.556248   -0.685479   -0.000505
      4          1           0        0.938064    0.770517    1.024879
      5          1           0        0.937865    0.771975   -1.023866
 ---------------------------------------------------------------------

 SCF Done:  E(RHF) =  -417.477052049     A.U. after    2 cycles

 The electronic state is 1-A.
 Alpha  occ. eigenvalues --  -84.31794 -20.56888  -6.78289  -4.31181  -4.30230
 Alpha  occ. eigenvalues --   -4.29834  -1.45331  -0.86068  -0.65742  -0.57393
 Alpha  occ. eigenvalues --   -0.57330  -0.45806  -0.35338
 Alpha virt. eigenvalues --    0.03741   0.04900   0.07265   0.08117   0.09887
 Alpha virt. eigenvalues --    0.10532   0.17292   0.18525   0.21417   0.21827
 Alpha virt. eigenvalues --    0.22839   0.23225   0.24339   0.31466   0.35374

 Mulliken charges:
               1
     1  P    0.345851
     2  O   -1.137130
     3  H    0.382568
     4  H    0.204398
     5  H    0.204314
 Sum of Mulliken charges =   0.00000

 Dipole moment (field-independent basis, Debye):
    X=              0.0759    Y=             -0.8881    Z=             -0.0006  Tot=              0.8914

 Test job not archived.
 1\1\GINC-SE108\SP\RHF\Aug-CC-pVDZ\H3O1P1\OHZDE\08-Apr-2025\0\\#t hf au
 g-cc-pvdz iop(5/13=1,5/36=2,99/5=2) pseudo=read geom=check guess=(read
 ,tcheck) scf=(maxcycle=1)\\title\\0,1\P,0,0.559344,-0.139421,-0.000101
 \O,0,-1.08873,0.154287,0.000126\H,0,-1.556248,-0.685479,-0.000505\H,0,
 0.938064,0.770516,1.024879\H,0,0.937865,0.771974,-1.023866\\Version=ES
 64L-G16RevC.01\State=1-A\HF=-417.477052\RMSD=2.579e-02\Dipole=0.029859
 9,-0.3494114,-0.0002366\Quadrupole=0.6270893,-0.7069693,0.0798801,2.89
 42945,0.0022284,-0.0005477\PG=C01 [X(H3O1P1)]\\@

 Normal termination of Gaussian 16 at Tue Apr  8 23:34:01 2025.
