 Gaussian 16, Revision C.01,

 ----------------------------------------------------------------------
 #t hf aug-cc-pvdz symm=none int=(grid=ultrafine) guess=(read,tcheck) s
 table=(opt,rrhf)
 ----------------------------------------------------------------------
 -----
 title
 -----
 Symbolic Z-matrix:
 Charge =  0 Multiplicity = 1

 SCF Done:  E(RHF) =  -909.231749089     A.U. after   11 cycles
 Normal termination of Gaussian 16 at Tue Apr  8 22:30:45 2025.
 Gaussian 16:  ES64L-G16RevC.01  3-Jul-2019

 ----------------------------------------------------------------------
 #t hf aug-cc-pvdz iop(5/13=1,5/36=2,99/5=2) pseudo=read geom=check gue
 ss=(read,tcheck) scf=(maxcycle=1)
 ----------------------------------------------------------------------
 -----
 title
 -----
 Structure from the checkpoint file:  "BDE49_expt_1020_mol1.chk"
 Charge =  0 Multiplicity = 1

                         Standard orientation:
 ---------------------------------------------------------------------
 Center     Atomic      Atomic             Coordinates (Angstroms)
 Number     Number       Type             X           Y           Z
 ---------------------------------------------------------------------
      1          6           0       -1.315395   -0.234974   -0.000007
      2          6           0        0.000000    0.591252    0.000001
      3          9           0       -1.384729   -1.008464    1.087682
      4          9           0       -1.384712   -1.008470   -1.087692
      5          9           0       -2.355883    0.602245   -0.000018
      6          6           0        1.315395   -0.234974    0.000007
      7          9           0       -0.000006    1.374253    1.099867
      8          9           0        0.000006    1.374255   -1.099864
      9          9           0        1.384723   -1.008469   -1.087679
     10          9           0        1.384717   -1.008465    1.087695
     11          9           0        2.355883    0.602245    0.000008
 ---------------------------------------------------------------------

 SCF Done:  E(RHF) =  -910.056030195     A.U. after    2 cycles

 The electronic state is 1-A.
 Alpha  occ. eigenvalues --  -26.54702 -26.54700 -26.54698 -26.54697 -26.54540
 Alpha  occ. eigenvalues --  -26.54540 -26.54502 -26.54499 -11.57211 -11.57168
 Alpha  occ. eigenvalues --  -11.50942  -1.76565  -1.75557  -1.71198  -1.66344
 Alpha  occ. eigenvalues --   -1.65639  -1.65602  -1.65592  -1.64508  -1.12349
 Alpha  occ. eigenvalues --   -1.02373  -0.94541  -0.89854  -0.87726  -0.86645
 Alpha  occ. eigenvalues --   -0.85147  -0.84310  -0.84082  -0.80168  -0.74494
 Alpha  occ. eigenvalues --   -0.73500  -0.73039  -0.71787  -0.71563  -0.71224
 Alpha  occ. eigenvalues --   -0.70602  -0.68402  -0.68217  -0.66662  -0.66653
 Alpha  occ. eigenvalues --   -0.66627  -0.65558  -0.65375  -0.62949  -0.56551
 Alpha virt. eigenvalues --    0.07278   0.07648   0.07869   0.08624   0.10850
 Alpha virt. eigenvalues --    0.11224   0.11259   0.12941   0.13465   0.15114
 Alpha virt. eigenvalues --    0.19956   0.20841   0.21157   0.21164   0.24364

 Mulliken charges:
               1
     1  C    2.299389
     2  C    1.312561
     3  F   -0.715722
     4  F   -0.715722
     5  F   -0.712998
     6  C    2.299389
     7  F   -0.811226
     8  F   -0.811227
     9  F   -0.715722
    10  F   -0.715722
    11  F   -0.712998
 Sum of Mulliken charges =  -0.00000

 Dipole moment (field-independent basis, Debye):
    X=              0.0000    Y=             -0.1191    Z=              0.0000  Tot=              0.1191

 Test job not archived.
 1\1\GINC-SE097\SP\RHF\Aug-CC-pVDZ\C3F8\OHZDE\08-Apr-2025\0\\#t hf aug-
 cc-pvdz iop(5/13=1,5/36=2,99/5=2) pseudo=read geom=check guess=(read,t
 check) scf=(maxcycle=1)\\title\\0,1\C,0,1.315395,-0.234974,0.000007\C,
 0,0.,0.591252,-0.000001\F,0,1.384729,-1.008464,-1.087682\F,0,1.384712,
 -1.00847,1.087692\F,0,2.355883,0.602245,0.000018\C,0,-1.315395,-0.2349
 74,-0.000007\F,0,0.000006,1.374253,-1.099867\F,0,-0.000006,1.374255,1.
 099864\F,0,-1.384723,-1.008469,1.087679\F,0,-1.384717,-1.008465,-1.087
 695\F,0,-2.355883,0.602245,-0.000008\\Version=ES64L-G16RevC.01\State=1

 Normal termination of Gaussian 16 at Tue Apr  8 22:30:51 2025.
