 Gaussian 16, Revision C.01,

 ----------------------------------------------------------------------
 #t hf aug-cc-pvdz symm=none int=(grid=ultrafine) guess=(read,tcheck) s
 table=(opt,rrhf)
 ----------------------------------------------------------------------
 -----
 title
 -----
 Symbolic Z-matrix:
 Charge =  0 Multiplicity = 1

 SCF Done:  E(RHF) =  -870.538933517     A.U. after   14 cycles
 Normal termination of Gaussian 16 at Tue Apr  8 22:43:29 2025.
 Gaussian 16:  ES64L-G16RevC.01  3-Jul-2019

 ----------------------------------------------------------------------
 #t hf aug-cc-pvdz iop(5/13=1,5/36=2,99/5=2) pseudo=read geom=check gue
 ss=(read,tcheck) scf=(maxcycle=1)
 ----------------------------------------------------------------------
 -----
 title
 -----
 Structure from the checkpoint file:  "BDE49_expt_1476_mol1.chk"
 Charge =  0 Multiplicity = 1

                         Standard orientation:
 ---------------------------------------------------------------------
 Center     Atomic      Atomic             Coordinates (Angstroms)
 Number     Number       Type             X           Y           Z
 ---------------------------------------------------------------------
      1          8           0       -0.753472    0.525311    0.000000
      2         17           0       -1.570949   -1.001832    0.000000
      3          6           0        0.619094    0.396384    0.000000
      4          9           0        1.074791    1.644735    0.000000
      5          9           0        1.074791   -0.241792    1.080402
      6          9           0        1.074791   -0.241792   -1.080402
 ---------------------------------------------------------------------

 SCF Done:  E(RHF) =  -870.987770730     A.U. after    2 cycles

 The electronic state is 1-A'.
 Alpha  occ. eigenvalues -- -105.66617 -26.53560 -26.53339 -26.53335 -20.68207
 Alpha  occ. eigenvalues --  -11.59905 -10.70790  -7.87784  -7.87186  -7.87154
 Alpha  occ. eigenvalues --   -1.76105  -1.65043  -1.64566  -1.54929  -1.08988
 Alpha  occ. eigenvalues --   -0.96105  -0.85534  -0.85335  -0.83773  -0.72301
 Alpha  occ. eigenvalues --   -0.72170  -0.67137  -0.66953  -0.65781  -0.64686
 Alpha  occ. eigenvalues --   -0.62360  -0.61958  -0.51600  -0.49189
 Alpha virt. eigenvalues --    0.03443   0.08185   0.09128   0.09470   0.09901
 Alpha virt. eigenvalues --    0.13859   0.14407   0.14599   0.20635   0.22368
 Alpha virt. eigenvalues --    0.24555   0.25379   0.26683   0.30218   0.30402

 Mulliken charges:
               1
     1  O   -1.166824
     2  Cl   0.386954
     3  C    2.712411
     4  F   -0.647499
     5  F   -0.642521
     6  F   -0.642521
 Sum of Mulliken charges =  -0.00000

 Dipole moment (field-independent basis, Debye):
    X=             -0.5661    Y=             -0.6413    Z=              0.0000  Tot=              0.8554

 Test job not archived.
 1\1\GINC-SE273\SP\RHF\Aug-CC-pVDZ\C1Cl1F3O1\OHZDE\08-Apr-2025\0\\#t hf
  aug-cc-pvdz iop(5/13=1,5/36=2,99/5=2) pseudo=read geom=check guess=(r
 ead,tcheck) scf=(maxcycle=1)\\title\\0,1\O,0,-0.753472,0.525311,0.\Cl,
 0,-1.570949,-1.001832,0.\C,0,0.619094,0.396384,0.\F,0,1.074791,1.64473
 5,0.\F,0,1.074791,-0.241792,1.080402\F,0,1.074791,-0.241792,-1.080402\
 \Version=ES64L-G16RevC.01\State=1-A'\HF=-870.9877707\RMSD=4.221e-03\Di
 pole=-0.2227147,-0.2523049,0.\Quadrupole=0.4062829,0.4123526,-0.818635
 5,1.3579752,0.,0.\PG=CS [SG(C1Cl1F1O1),X(F2)]\\@

 Normal termination of Gaussian 16 at Tue Apr  8 22:43:32 2025.
