 Gaussian 16, Revision C.01,

 ----------------------------------------------------------------------
 #t hf aug-cc-pvdz symm=none int=(grid=ultrafine) guess=(read,tcheck) s
 table=(opt,rrhf)
 ----------------------------------------------------------------------
 -----
 title
 -----
 Symbolic Z-matrix:
 Charge =  0 Multiplicity = 1

 SCF Done:  E(RHF) =  -804.722655702     A.U. after   15 cycles
 Normal termination of Gaussian 16 at Tue Apr  8 23:53:35 2025.
 Gaussian 16:  ES64L-G16RevC.01  3-Jul-2019

 ----------------------------------------------------------------------
 #t hf aug-cc-pvdz iop(5/13=1,5/36=2,99/5=2) pseudo=read geom=check gue
 ss=(read,tcheck) scf=(maxcycle=1)
 ----------------------------------------------------------------------
 -----
 title
 -----
 Structure from the checkpoint file:  "BDE49_nonexpt_1939_mol1.chk"
 Charge =  0 Multiplicity = 1

                         Standard orientation:
 ---------------------------------------------------------------------
 Center     Atomic      Atomic             Coordinates (Angstroms)
 Number     Number       Type             X           Y           Z
 ---------------------------------------------------------------------
      1         14           0       -2.044411   -0.235179   -0.264001
      2          6           0       -0.595868    0.159357    0.915848
      3          6           0        0.704949    0.308672    0.191884
      4         16           0        1.692672   -0.961930   -0.108334
      5          1           0       -3.297105   -0.238354    0.526452
      6          1           0       -1.838726   -1.556401   -0.890773
      7          6           0        1.038734    1.706964   -0.258952
      8          1           0        1.224712    2.334613    0.621285
      9          1           0        0.192728    2.157503   -0.789891
     10          1           0        1.920384    1.721631   -0.895727
     11          1           0       -2.138366    0.805351   -1.314045
     12          1           0       -0.549965   -0.668195    1.626878
     13          1           0       -0.861545    1.077284    1.452507
 ---------------------------------------------------------------------

 SCF Done:  E(RHF) =  -804.941647115     A.U. after    2 cycles

 The electronic state is 1-A.
 Alpha  occ. eigenvalues --  -93.91968 -69.54523 -11.33683 -11.25570 -11.25079
 Alpha  occ. eigenvalues --   -8.20220  -6.21551  -6.18041  -6.17846  -6.17629
 Alpha  occ. eigenvalues --   -3.96930  -3.96916  -3.96903  -1.13250  -0.97351
 Alpha  occ. eigenvalues --   -0.97161  -0.76024  -0.71796  -0.63178  -0.62493
 Alpha  occ. eigenvalues --   -0.60209  -0.54871  -0.51796  -0.49563  -0.49481
 Alpha  occ. eigenvalues --   -0.48863  -0.37993  -0.34085
 Alpha virt. eigenvalues --    0.02881   0.03706   0.03949   0.04683   0.05321
 Alpha virt. eigenvalues --    0.06459   0.06796   0.07277   0.08361   0.08692
 Alpha virt. eigenvalues --    0.09572   0.10382   0.10713   0.12242   0.13765

 Mulliken charges:
               1
     1  Si   0.983137
     2  C   -0.530553
     3  C   -0.289208
     4  S    0.058952
     5  H   -0.172709
     6  H   -0.120545
     7  C   -0.593487
     8  H    0.287588
     9  H    0.218198
    10  H    0.163625
    11  H   -0.181081
    12  H    0.121091
    13  H    0.054991
 Sum of Mulliken charges =  -0.00000

 Dipole moment (field-independent basis, Debye):
    X=             -2.0663    Y=              2.5652    Z=              0.8340  Tot=              3.3979

 Test job not archived.
 1\1\GINC-SE339\SP\RHF\Aug-CC-pVDZ\C3H8S1Si1\OHZDE\08-Apr-2025\0\\#t hf
  aug-cc-pvdz iop(5/13=1,5/36=2,99/5=2) pseudo=read geom=check guess=(r
 ead,tcheck) scf=(maxcycle=1)\\title\\0,1\Si,0,-2.044411,-0.235179,-0.2
 64001\C,0,-0.595868,0.159357,0.915848\C,0,0.704949,0.308672,0.191884\S
 ,0,1.692672,-0.96193,-0.108334\H,0,-3.297105,-0.238354,0.526452\H,0,-1
 .838726,-1.556401,-0.890773\C,0,1.038734,1.706964,-0.258952\H,0,1.2247
 12,2.334613,0.621285\H,0,0.192728,2.157503,-0.789891\H,0,1.920384,1.72
 1631,-0.895727\H,0,-2.138366,0.805351,-1.314045\H,0,-0.549965,-0.66819

 Normal termination of Gaussian 16 at Tue Apr  8 23:53:39 2025.
