 Gaussian 16, Revision C.01,

 ----------------------------------------------------------------------
 #t hf aug-cc-pvdz symm=none int=(grid=ultrafine) guess=(read,tcheck) s
 table=opt
 ----------------------------------------------------------------------
 -----
 title
 -----
 Symbolic Z-matrix:
 Charge =  0 Multiplicity = 2

 SCF Done:  E(UHF) =  -904.154266629     A.U. after   21 cycles
 Normal termination of Gaussian 16 at Tue Apr  8 23:44:28 2025.
 Gaussian 16:  ES64L-G16RevC.01  3-Jul-2019

 ----------------------------------------------------------------------
 #t hf aug-cc-pvdz iop(5/13=1,5/36=2,99/5=2) pseudo=read geom=check gue
 ss=(read,tcheck) scf=(maxcycle=1)
 ----------------------------------------------------------------------
 -----
 title
 -----
 Structure from the checkpoint file:  "BDE49_nonexpt_173_mol2.chk"
 Charge =  0 Multiplicity = 2

                         Standard orientation:
 ---------------------------------------------------------------------
 Center     Atomic      Atomic             Coordinates (Angstroms)
 Number     Number       Type             X           Y           Z
 ---------------------------------------------------------------------
      1         17           0       -2.316556   -0.084075    0.092049
      2          5           0       -0.730921   -0.800787    0.024473
      3         15           0        0.880954   -0.052648   -0.515999
      4          6           0        2.198920   -1.014718    0.365974
      5          6           0        1.015012    1.656241    0.209895
      6          1           0        2.078538   -2.072054    0.125817
      7          1           0        2.156142   -0.889179    1.449326
      8          1           0        3.177676   -0.689994    0.006662
      9          1           0        0.172692    2.254537   -0.141099
     10          1           0        1.936585    2.123469   -0.144546
     11          1           0        1.016518    1.647016    1.301416
 ---------------------------------------------------------------------

 SCF Done:  E(UHF) =  -904.385453861     A.U. after    2 cycles

 The electronic state is 2-A.
 Alpha  occ. eigenvalues -- -105.57617 -84.26589 -11.25002 -11.24851 -10.62601
 Alpha  occ. eigenvalues --   -7.79497  -7.79249  -7.79175  -7.67267  -6.73981
 Alpha  occ. eigenvalues --   -4.26584  -4.26355  -4.25640  -1.08505  -1.02060
 Alpha  occ. eigenvalues --   -0.95260  -0.79677  -0.65279  -0.60027  -0.59787
 Alpha  occ. eigenvalues --   -0.57899  -0.57214  -0.52341  -0.50449  -0.49397
 Alpha  occ. eigenvalues --   -0.46377  -0.34595  -0.30319
 Alpha virt. eigenvalues --    0.02822   0.04232   0.04408   0.04918   0.05901
 Alpha virt. eigenvalues --    0.06487   0.06590   0.07409   0.07457   0.09045
 Alpha virt. eigenvalues --    0.09549   0.12496   0.13549   0.14747   0.15027

  Beta  occ. eigenvalues -- -105.57552 -84.26576 -11.24927 -11.24847 -10.62526
  Beta  occ. eigenvalues --   -7.79450  -7.79181  -7.78972  -7.65342  -6.73958
  Beta  occ. eigenvalues --   -4.26477  -4.26351  -4.25669  -1.07577  -1.01801
  Beta  occ. eigenvalues --   -0.95116  -0.78024  -0.62927  -0.59923  -0.59466
  Beta  occ. eigenvalues --   -0.57467  -0.57164  -0.50303  -0.49682  -0.47190
  Beta  occ. eigenvalues --   -0.45527  -0.31808
  Beta virt. eigenvalues --    0.02981   0.03854   0.04382   0.04860   0.06425
  Beta virt. eigenvalues --    0.06532   0.06798   0.07163   0.07460   0.08682
  Beta virt. eigenvalues --    0.09657   0.10155   0.12747   0.14790   0.15279

 Mulliken charges and spin densities:
               1          2
     1  Cl  -0.272235   0.001037
     2  B    0.474968   1.054081
     3  P    0.913299  -0.047476
     4  C   -0.861531  -0.006351
     5  C   -0.905841   0.016765
     6  H    0.088976  -0.006271
     7  H    0.118259  -0.002962
     8  H    0.122666  -0.007522
     9  H    0.072636  -0.001456
    10  H    0.124969   0.003771
    11  H    0.123834  -0.003614
 Sum of Mulliken charges =   0.00000   1.00000

 Dipole moment (field-independent basis, Debye):
    X=              2.0381    Y=              0.7794    Z=              0.7834  Tot=              2.3184
                          Isotropic Fermi Contact Couplings
        Atom                 a.u.       MegaHertz       Gauss      10(-4) cm-1
     1  Cl(35)             0.05390      23.63201       8.43249       7.88279
     2  B(11)              0.26977     386.95250     138.07428     129.07346
     3  P(31)              0.01301      23.56800       8.40965       7.86144
     4  C(13)              0.00332       3.73645       1.33326       1.24635
     5  C(13)              0.01418      15.93651       5.68654       5.31585
     6  H(1)              -0.00001      -0.05257      -0.01876      -0.01754
     7  H(1)              -0.00010      -0.42725      -0.15245      -0.14252
     8  H(1)              -0.00064      -2.83888      -1.01298      -0.94695

 1\1\GINC-SE455\SP\UHF\Aug-CC-pVDZ\C2H6B1Cl1P1(2)\OHZDE\08-Apr-2025\0\\
 #t hf aug-cc-pvdz iop(5/13=1,5/36=2,99/5=2) pseudo=read geom=check gue
 ss=(read,tcheck) scf=(maxcycle=1)\\title\\0,2\Cl,0,-2.316556,-0.084075
 ,0.092049\B,0,-0.730921,-0.800787,0.024473\P,0,0.880954,-0.052648,-0.5
 15999\C,0,2.19892,-1.014718,0.365974\C,0,1.015012,1.656241,0.209895\H,
 0,2.078538,-2.072054,0.125817\H,0,2.156142,-0.889179,1.449326\H,0,3.17
 7676,-0.689994,0.006662\H,0,0.172692,2.254537,-0.141099\H,0,1.936585,2
 .123469,-0.144546\H,0,1.016518,1.647016,1.301416\\Version=ES64L-G16Rev

 Normal termination of Gaussian 16 at Tue Apr  8 23:44:33 2025.
