 Gaussian 16, Revision C.01,

 ----------------------------------------------------------------------
 #t hf aug-cc-pvdz symm=none int=(grid=ultrafine) guess=(read,tcheck) s
 table=(opt,rrhf)
 ----------------------------------------------------------------------
 -----
 title
 -----
 Symbolic Z-matrix:
 Charge =  0 Multiplicity = 1

 SCF Done:  E(RHF) =  -1255.35989117     A.U. after   16 cycles
 Normal termination of Gaussian 16 at Tue Apr  8 23:06:35 2025.
 Gaussian 16:  ES64L-G16RevC.01  3-Jul-2019

 ----------------------------------------------------------------------
 #t hf aug-cc-pvdz iop(5/13=1,5/36=2,99/5=2) pseudo=read geom=check gue
 ss=(read,tcheck) scf=(maxcycle=1)
 ----------------------------------------------------------------------
 -----
 title
 -----
 Structure from the checkpoint file:  "BDE49_expt_1961_mol1.chk"
 Charge =  0 Multiplicity = 1

                         Standard orientation:
 ---------------------------------------------------------------------
 Center     Atomic      Atomic             Coordinates (Angstroms)
 Number     Number       Type             X           Y           Z
 ---------------------------------------------------------------------
      1         16           0        0.685382   -1.704002    0.804303
      2         16           0       -0.685382   -1.704002   -0.804303
      3          6           0       -1.837114   -0.392934   -0.398180
      4          6           0       -1.700950    0.857566   -1.009649
      5          6           0       -2.900279   -0.626442    0.481018
      6          6           0       -3.813313    0.387956    0.751299
      7          6           0       -2.622382    1.867495   -0.739704
      8          6           0       -3.676284    1.635030    0.141169
      9          1           0       -4.392223    2.421914    0.350112
     10          1           0       -4.635837    0.203868    1.433246
     11          1           0       -3.004063   -1.599475    0.945451
     12          1           0       -0.877492    1.030572   -1.691518
     13          1           0       -2.514787    2.835115   -1.216800
     14          6           0        1.837114   -0.392934    0.398180
     15          6           0        2.900279   -0.626442   -0.481018
     16          6           0        3.813313    0.387956   -0.751300
     17          6           0        3.676284    1.635030   -0.141169
     18          6           0        2.622382    1.867495    0.739704
     19          6           0        1.700950    0.857566    1.009649
     20          1           0        0.877492    1.030572    1.691518
     21          1           0        4.392223    2.421914   -0.350112
     22          1           0        2.514787    2.835115    1.216800
     23          1           0        3.004063   -1.599475   -0.945451
     24          1           0        4.635836    0.203868   -1.433246
 ---------------------------------------------------------------------

 SCF Done:  E(RHF) =  -1255.95079478     A.U. after    2 cycles

 The electronic state is 1-A.
 Alpha  occ. eigenvalues --  -93.97446 -93.97445 -11.27651 -11.27649 -11.25591
 Alpha  occ. eigenvalues --  -11.25589 -11.25567 -11.25567 -11.25548 -11.25548
 Alpha  occ. eigenvalues --  -11.25189 -11.25187 -11.25173 -11.25173  -8.25291
 Alpha  occ. eigenvalues --   -8.25269  -6.23091  -6.23059  -6.22894  -6.22885
 Alpha  occ. eigenvalues --   -6.22663  -6.22663  -1.17511  -1.16926  -1.09840
 Alpha  occ. eigenvalues --   -1.04896  -1.02798  -1.02743  -0.99371  -0.91204
 Alpha  occ. eigenvalues --   -0.84672  -0.84654  -0.82703  -0.80224  -0.72103
 Alpha  occ. eigenvalues --   -0.71059  -0.65629  -0.65616  -0.64976  -0.64214
 Alpha  occ. eigenvalues --   -0.61050  -0.61035  -0.59592  -0.57021  -0.54692
 Alpha  occ. eigenvalues --   -0.52494  -0.51873  -0.51852  -0.51154  -0.49227
 Alpha  occ. eigenvalues --   -0.47008  -0.38116  -0.36711  -0.36349  -0.35714
 Alpha  occ. eigenvalues --   -0.35307  -0.33705
 Alpha virt. eigenvalues --    0.02937   0.03203   0.03757   0.04056   0.04546
 Alpha virt. eigenvalues --    0.04690   0.05686   0.05918   0.06130   0.06854
 Alpha virt. eigenvalues --    0.07285   0.09003   0.09014   0.09616   0.10086

 Mulliken charges:
               1
     1  S   -0.168610
     2  S   -0.168611
     3  C    0.909298
     4  C   -0.017373
     5  C   -0.340565
     6  C    0.439729
     7  C    0.229132
     8  C    0.083002
     9  H   -0.210273
    10  H   -0.216356
    11  H   -0.206506
    12  H   -0.258164
    13  H   -0.243314
    14  C    0.909297
    15  C   -0.340563
    16  C    0.439729
    17  C    0.083003
    18  C    0.229129
    19  C   -0.017370
    20  H   -0.258164
    21  H   -0.210273
    22  H   -0.243314
    23  H   -0.206507
    24  H   -0.216358
 Sum of Mulliken charges =  -0.00000

 Dipole moment (field-independent basis, Debye):
    X=              0.0000    Y=              2.8434    Z=             -0.0000  Tot=              2.8434

 Test job not archived.
 1\1\GINC-SE087\SP\RHF\Aug-CC-pVDZ\C12H10S2\OHZDE\08-Apr-2025\0\\#t hf
 aug-cc-pvdz iop(5/13=1,5/36=2,99/5=2) pseudo=read geom=check guess=(re
 ad,tcheck) scf=(maxcycle=1)\\title\\0,1\S,0,0.685382,-1.704002,0.80430
 3\S,0,-0.685382,-1.704002,-0.804303\C,0,-1.837114,-0.392934,-0.39818\C
 ,0,-1.70095,0.857566,-1.009649\C,0,-2.900279,-0.626442,0.481018\C,0,-3
 .813313,0.387956,0.751299\C,0,-2.622382,1.867495,-0.739704\C,0,-3.6762
 84,1.63503,0.141169\H,0,-4.392223,2.421914,0.350112\H,0,-4.635837,0.20
 3868,1.433246\H,0,-3.004063,-1.599475,0.945451\H,0,-0.877492,1.030572,

 Normal termination of Gaussian 16 at Tue Apr  8 23:07:00 2025.
