 Gaussian 16, Revision C.01,

 ----------------------------------------------------------------------
 #t hf aug-cc-pvdz symm=none int=(grid=ultrafine) guess=(read,tcheck) s
 table=(opt,rrhf)
 ----------------------------------------------------------------------
 -----
 title
 -----
 Symbolic Z-matrix:
 Charge =  0 Multiplicity = 1

 SCF Done:  E(RHF) =  -627.357906552     A.U. after   15 cycles
 Normal termination of Gaussian 16 at Tue Apr  8 23:35:46 2025.
 Gaussian 16:  ES64L-G16RevC.01  3-Jul-2019

 ----------------------------------------------------------------------
 #t hf aug-cc-pvdz iop(5/13=1,5/36=2,99/5=2) pseudo=read geom=check gue
 ss=(read,tcheck) scf=(maxcycle=1)
 ----------------------------------------------------------------------
 -----
 title
 -----
 Structure from the checkpoint file:  "BDE49_nonexpt_1499_mol1.chk"
 Charge =  0 Multiplicity = 1

                         Standard orientation:
 ---------------------------------------------------------------------
 Center     Atomic      Atomic             Coordinates (Angstroms)
 Number     Number       Type             X           Y           Z
 ---------------------------------------------------------------------
      1          6           0        1.386178    0.240162   -0.227529
      2          7           0       -1.391043   -0.200295    0.233505
      3          6           0       -1.515076    0.977971    1.089847
      4          1           0       -2.571958    1.146683    1.321349
      5          1           0       -1.109428    1.881920    0.619664
      6          1           0       -0.988607    0.808985    2.031530
      7          8           0        1.089230    1.263943   -0.802746
      8          6           0        2.814183   -0.086920    0.172921
      9          6           0       -2.272561   -0.181869   -0.933541
     10          1           0       -2.154869   -1.106739   -1.500885
     11          1           0       -2.064516    0.663260   -1.603265
     12          1           0       -3.315763   -0.113014   -0.605590
     13          1           0        3.040331   -1.146237    0.021488
     14          1           0        2.945735    0.128837    1.238437
     15          1           0        3.506587    0.531647   -0.399926
     16         15           0        0.058873   -1.066298    0.104859
     17          1           0        0.376504   -1.206423    1.481562
 ---------------------------------------------------------------------

 SCF Done:  E(RHF) =  -627.700488126     A.U. after    2 cycles

 The electronic state is 1-A.
 Alpha  occ. eigenvalues --  -84.29891 -20.54213 -15.49833 -11.33951 -11.26097
 Alpha  occ. eigenvalues --  -11.25989 -11.25007  -6.76683  -4.29758  -4.29077
 Alpha  occ. eigenvalues --   -4.28672  -1.47366  -1.21565  -1.02374  -0.96678
 Alpha  occ. eigenvalues --   -0.92920  -0.82402  -0.73596  -0.66555  -0.65214
 Alpha  occ. eigenvalues --   -0.63956  -0.62441  -0.60918  -0.59630  -0.55739
 Alpha  occ. eigenvalues --   -0.54652  -0.53483  -0.52055  -0.50383  -0.43139
 Alpha  occ. eigenvalues --   -0.38532  -0.33390
 Alpha virt. eigenvalues --    0.03430   0.04248   0.04722   0.05286   0.05383
 Alpha virt. eigenvalues --    0.06051   0.06410   0.07045   0.07422   0.08872
 Alpha virt. eigenvalues --    0.09790   0.10915   0.11137   0.12543   0.13377

 Mulliken charges:
               1
     1  C    0.896586
     2  N    0.344039
     3  C   -0.519768
     4  H    0.064187
     5  H    0.237203
     6  H    0.053667
     7  O   -1.285343
     8  C   -0.703517
     9  C   -0.508843
    10  H    0.087173
    11  H    0.220506
    12  H    0.098340
    13  H    0.236637
    14  H    0.239862
    15  H    0.157525
    16  P    0.020860
    17  H    0.360885
 Sum of Mulliken charges =  -0.00000

 Dipole moment (field-independent basis, Debye):
    X=              0.2522    Y=             -1.0385    Z=              1.3792  Tot=              1.7448

 Test job not archived.
 1\1\GINC-SE361\SP\RHF\Aug-CC-pVDZ\C4H10N1O1P1\OHZDE\08-Apr-2025\0\\#t
 hf aug-cc-pvdz iop(5/13=1,5/36=2,99/5=2) pseudo=read geom=check guess=
 (read,tcheck) scf=(maxcycle=1)\\title\\0,1\C,0,1.386178,0.240162,-0.22
 7529\N,0,-1.391043,-0.200295,0.233505\C,0,-1.515076,0.977971,1.089847\
 H,0,-2.571958,1.146683,1.321349\H,0,-1.109428,1.88192,0.619664\H,0,-0.
 988607,0.808985,2.03153\O,0,1.08923,1.263943,-0.802746\C,0,2.814183,-0
 .08692,0.172921\C,0,-2.272561,-0.181869,-0.933541\H,0,-2.154869,-1.106
 739,-1.500885\H,0,-2.064516,0.66326,-1.603265\H,0,-3.315763,-0.113014,

 Normal termination of Gaussian 16 at Tue Apr  8 23:35:52 2025.
