 Gaussian 16, Revision C.01,

 ----------------------------------------------------------------------
 #t hf aug-cc-pvdz symm=none int=(grid=ultrafine) guess=(read,tcheck) s
 table=(opt,rrhf)
 ----------------------------------------------------------------------
 -----
 title
 -----
 Symbolic Z-matrix:
 Charge =  0 Multiplicity = 1

 SCF Done:  E(RHF) =  -249.508375600     A.U. after   12 cycles
 Normal termination of Gaussian 16 at Wed Apr  9 00:41:48 2025.
 Gaussian 16:  ES64L-G16RevC.01  3-Jul-2019

 ----------------------------------------------------------------------
 #t hf aug-cc-pvdz iop(5/13=1,5/36=2,99/5=2) pseudo=read geom=check gue
 ss=(read,tcheck) scf=(maxcycle=1)
 ----------------------------------------------------------------------
 -----
 title
 -----
 Structure from the checkpoint file:  "BDE49_nonexpt_6_mol1.chk"
 Charge =  0 Multiplicity = 1

                         Standard orientation:
 ---------------------------------------------------------------------
 Center     Atomic      Atomic             Coordinates (Angstroms)
 Number     Number       Type             X           Y           Z
 ---------------------------------------------------------------------
      1          5           0        0.782988    0.415406    0.338385
      2          5           0       -0.782960    0.415340   -0.338427
      3          9           0       -1.744563   -0.354779    0.173140
      4          9           0        1.744556   -0.354787   -0.173130
      5          1           0       -1.109036    1.116243   -1.256548
      6          1           0        1.108961    1.116126    1.256674
 ---------------------------------------------------------------------

 SCF Done:  E(RHF) =  -249.738079756     A.U. after    2 cycles

 The electronic state is 1-A.
 Alpha  occ. eigenvalues --  -26.47537 -26.47537  -7.66251  -7.66247  -1.60141
 Alpha  occ. eigenvalues --   -1.59990  -0.80717  -0.76579  -0.69507  -0.68443
 Alpha  occ. eigenvalues --   -0.65821  -0.65184  -0.63887  -0.55715  -0.43769
 Alpha virt. eigenvalues --    0.03679   0.03853   0.04025   0.04904   0.07175
 Alpha virt. eigenvalues --    0.07358   0.07888   0.09843   0.10282   0.10824
 Alpha virt. eigenvalues --    0.14690   0.15111   0.24234   0.24259   0.25272

 Mulliken charges:
               1
     1  B    0.661643
     2  B    0.661601
     3  F   -0.633719
     4  F   -0.633710
     5  H   -0.027906
     6  H   -0.027909
 Sum of Mulliken charges =  -0.00000

 Dipole moment (field-independent basis, Debye):
    X=              0.0002    Y=              0.9630    Z=             -0.0001  Tot=              0.9630

 Test job not archived.
 1\1\GINC-SE455\SP\RHF\Aug-CC-pVDZ\B2F2H2\OHZDE\09-Apr-2025\0\\#t hf au
 g-cc-pvdz iop(5/13=1,5/36=2,99/5=2) pseudo=read geom=check guess=(read
 ,tcheck) scf=(maxcycle=1)\\title\\0,1\B,0,-0.782988,0.415406,-0.338385
 \B,0,0.78296,0.41534,0.338427\F,0,1.744563,-0.354779,-0.17314\F,0,-1.7
 44556,-0.354787,0.17313\H,0,1.109036,1.116243,1.256548\H,0,-1.108961,1
 .116126,-1.256674\\Version=ES64L-G16RevC.01\State=1-A\HF=-249.7380798\
 RMSD=1.206e-02\Dipole=-0.0000742,0.378891,0.0000559\Quadrupole=-2.6715
 567,1.4129701,1.2585866,-0.0003561,0.2325625,-0.0001204\PG=C01 [X(B2F2

 Normal termination of Gaussian 16 at Wed Apr  9 00:41:50 2025.
