 Gaussian 16, Revision C.01,

 ----------------------------------------------------------------------
 #t hf aug-cc-pvdz symm=none int=(grid=ultrafine) guess=(read,tcheck) s
 table=(opt,rrhf)
 ----------------------------------------------------------------------
 -----
 title
 -----
 Symbolic Z-matrix:
 Charge =  0 Multiplicity = 1

 SCF Done:  E(RHF) =  -987.161488856     A.U. after   11 cycles
 Normal termination of Gaussian 16 at Tue Apr  8 23:45:15 2025.
 Gaussian 16:  ES64L-G16RevC.01  3-Jul-2019

 ----------------------------------------------------------------------
 #t hf aug-cc-pvdz iop(5/13=1,5/36=2,99/5=2) pseudo=read geom=check gue
 ss=(read,tcheck) scf=(maxcycle=1)
 ----------------------------------------------------------------------
 -----
 title
 -----
 Structure from the checkpoint file:  "BDE49_nonexpt_1757_mol1.chk"
 Charge =  0 Multiplicity = 1

                         Standard orientation:
 ---------------------------------------------------------------------
 Center     Atomic      Atomic             Coordinates (Angstroms)
 Number     Number       Type             X           Y           Z
 ---------------------------------------------------------------------
      1         14           0       -0.324797   -0.076975    0.000001
      2          6           0       -1.292083    1.486659    0.000001
      3         17           0        1.701018    0.238508   -0.000004
      4          9           0       -0.674172   -0.962523   -1.275611
      5          9           0       -0.674167   -0.962520    1.275616
      6          1           0       -2.362743    1.265101    0.000010
      7          1           0       -1.059930    2.081673   -0.886302
      8          1           0       -1.059916    2.081682    0.886294
 ---------------------------------------------------------------------

 SCF Done:  E(RHF) =  -987.496245118     A.U. after    2 cycles

 The electronic state is 1-A.
 Alpha  occ. eigenvalues -- -105.57778 -69.66969 -26.47659 -26.47658 -11.25346
 Alpha  occ. eigenvalues --  -10.62860  -7.79740  -7.79419  -7.79416  -6.32837
 Alpha  occ. eigenvalues --   -4.08202  -4.08130  -4.07930  -1.60426  -1.58062
 Alpha  occ. eigenvalues --   -1.07909  -0.99150  -0.78946  -0.71575  -0.68920
 Alpha  occ. eigenvalues --   -0.68505  -0.65109  -0.63208  -0.60971  -0.59191
 Alpha  occ. eigenvalues --   -0.58406  -0.52284  -0.49703  -0.48851
 Alpha virt. eigenvalues --    0.03167   0.04975   0.04991   0.06060   0.07970
 Alpha virt. eigenvalues --    0.08141   0.10129   0.13521   0.13995   0.14466
 Alpha virt. eigenvalues --    0.15339   0.16870   0.17834   0.18992   0.19207

 Mulliken charges:
               1
     1  Si   2.714081
     2  C   -0.569094
     3  Cl  -0.550295
     4  F   -0.877856
     5  F   -0.877857
     6  H    0.054306
     7  H    0.053358
     8  H    0.053358
 Sum of Mulliken charges =  -0.00000

 Dipole moment (field-independent basis, Debye):
    X=             -1.2169    Y=              2.1275    Z=              0.0000  Tot=              2.4510

 Test job not archived.
 1\1\GINC-SE342\SP\RHF\Aug-CC-pVDZ\C1H3Cl1F2Si1\OHZDE\08-Apr-2025\0\\#t
  hf aug-cc-pvdz iop(5/13=1,5/36=2,99/5=2) pseudo=read geom=check guess
 =(read,tcheck) scf=(maxcycle=1)\\title\\0,1\Si,0,-0.324797,-0.076975,0
 .000001\C,0,-1.292082,1.48666,0.000001\Cl,0,1.701018,0.238507,-0.00000
 4\F,0,-0.674172,-0.962523,-1.275611\F,0,-0.674167,-0.96252,1.275616\H,
 0,-2.362742,1.265102,0.00001\H,0,-1.059929,2.081673,-0.886302\H,0,-1.0
 59915,2.081682,0.886294\\Version=ES64L-G16RevC.01\State=1-A\HF=-987.49
 62451\RMSD=4.326e-03\Dipole=-0.4787808,0.8370321,0.0000008\Quadrupole=

 Normal termination of Gaussian 16 at Tue Apr  8 23:45:17 2025.
