 Gaussian 16, Revision C.01,

 ----------------------------------------------------------------------
 #t hf aug-cc-pvdz symm=none int=(grid=ultrafine) guess=(read,tcheck) s
 table=(opt,rrhf)
 ----------------------------------------------------------------------
 -----
 title
 -----
 Symbolic Z-matrix:
 Charge =  0 Multiplicity = 1

 SCF Done:  E(RHF) =  -538.245595766     A.U. after   12 cycles
 Normal termination of Gaussian 16 at Tue Apr  8 23:57:51 2025.
 Gaussian 16:  ES64L-G16RevC.01  3-Jul-2019

 ----------------------------------------------------------------------
 #t hf aug-cc-pvdz iop(5/13=1,5/36=2,99/5=2) pseudo=read geom=check gue
 ss=(read,tcheck) scf=(maxcycle=1)
 ----------------------------------------------------------------------
 -----
 title
 -----
 Structure from the checkpoint file:  "BDE49_nonexpt_2050_mol1.chk"
 Charge =  0 Multiplicity = 1

                         Standard orientation:
 ---------------------------------------------------------------------
 Center     Atomic      Atomic             Coordinates (Angstroms)
 Number     Number       Type             X           Y           Z
 ---------------------------------------------------------------------
      1         14           0       -1.911575    0.314314   -0.267513
      2          6           0       -0.200366   -0.540898   -0.266533
      3          8           0       -0.162906   -1.496384    0.831131
      4          7           0        0.931766    0.344801   -0.360033
      5          6           0        2.194611   -0.345963   -0.621407
      6          1           0        2.081226   -0.994936   -1.492863
      7          1           0        2.531557   -0.962942    0.224948
      8          1           0        2.970629    0.390364   -0.845686
      9          6           0        1.058974    1.319008    0.717008
     10          1           0        0.126619    1.875815    0.840569
     11          1           0        1.839181    2.040636    0.463204
     12          1           0        1.325211    0.871373    1.690279
     13          1           0       -0.168267   -1.185908   -1.149230
     14          1           0       -0.348581   -1.024857    1.650246
     15          1           0       -2.237858    0.750848    1.114899
     16          1           0       -2.923899   -0.682228   -0.682520
     17          1           0       -1.972197    1.486020   -1.171890
 ---------------------------------------------------------------------

 SCF Done:  E(RHF) =  -538.543200501     A.U. after    2 cycles

 The electronic state is 1-A.
 Alpha  occ. eigenvalues --  -69.52914 -20.55049 -15.49567 -11.30248 -11.26261
 Alpha  occ. eigenvalues --  -11.25319  -6.20064  -3.95424  -3.95419  -3.95397
 Alpha  occ. eigenvalues --   -1.44390  -1.22324  -0.96877  -0.95471  -0.83030
 Alpha  occ. eigenvalues --   -0.74939  -0.69688  -0.66569  -0.64191  -0.61057
 Alpha  occ. eigenvalues --   -0.58055  -0.55529  -0.54745  -0.53266  -0.50009
 Alpha  occ. eigenvalues --   -0.48861  -0.48251  -0.42583  -0.39698
 Alpha virt. eigenvalues --    0.03554   0.04039   0.04359   0.04837   0.05464
 Alpha virt. eigenvalues --    0.06088   0.06403   0.06813   0.07248   0.09145
 Alpha virt. eigenvalues --    0.09699   0.10385   0.10442   0.11836   0.13473

 Mulliken charges:
               1
     1  Si   0.628309
     2  C    0.188128
     3  O   -1.257717
     4  N    0.415012
     5  C   -0.353989
     6  H    0.096653
     7  H    0.257167
     8  H    0.101979
     9  C   -0.418480
    10  H    0.051280
    11  H    0.088269
    12  H    0.207488
    13  H   -0.018361
    14  H    0.359874
    15  H   -0.103775
    16  H   -0.169142
    17  H   -0.072697
 Sum of Mulliken charges =  -0.00000

 Dipole moment (field-independent basis, Debye):
    X=              0.5522    Y=              1.0973    Z=              0.5520  Tot=              1.3467

 Test job not archived.
 1\1\GINC-SE069\SP\RHF\Aug-CC-pVDZ\C3H11N1O1Si1\OHZDE\08-Apr-2025\0\\#t
  hf aug-cc-pvdz iop(5/13=1,5/36=2,99/5=2) pseudo=read geom=check guess
 =(read,tcheck) scf=(maxcycle=1)\\title\\0,1\Si,0,-1.911575,0.314314,-0
 .267513\C,0,-0.200366,-0.540898,-0.266533\O,0,-0.162906,-1.496384,0.83
 1131\N,0,0.931766,0.344801,-0.360033\C,0,2.194611,-0.345963,-0.621407\
 H,0,2.081226,-0.994936,-1.492863\H,0,2.531557,-0.962942,0.224948\H,0,2
 .970629,0.390365,-0.845686\C,0,1.058974,1.319008,0.717008\H,0,0.126619
 ,1.875815,0.840569\H,0,1.839181,2.040636,0.463204\H,0,1.325211,0.87137

 Normal termination of Gaussian 16 at Tue Apr  8 23:57:57 2025.
