 Gaussian 16, Revision C.01,

 ----------------------------------------------------------------------
 #t hf aug-cc-pvdz symm=none int=(grid=ultrafine) guess=(read,tcheck) s
 table=(opt,rrhf)
 ----------------------------------------------------------------------
 -----
 title
 -----
 Symbolic Z-matrix:
 Charge =  0 Multiplicity = 1

 SCF Done:  E(RHF) =  -508.950321531     A.U. after   15 cycles
 Normal termination of Gaussian 16 at Wed Apr  9 00:39:21 2025.
 Gaussian 16:  ES64L-G16RevC.01  3-Jul-2019

 ----------------------------------------------------------------------
 #t hf aug-cc-pvdz iop(5/13=1,5/36=2,99/5=2) pseudo=read geom=check gue
 ss=(read,tcheck) scf=(maxcycle=1)
 ----------------------------------------------------------------------
 -----
 title
 -----
 Structure from the checkpoint file:  "BDE49_nonexpt_589_mol1.chk"
 Charge =  0 Multiplicity = 1

                         Standard orientation:
 ---------------------------------------------------------------------
 Center     Atomic      Atomic             Coordinates (Angstroms)
 Number     Number       Type             X           Y           Z
 ---------------------------------------------------------------------
      1          6           0       -0.307712   -0.341863    0.000002
      2          5           0        2.238875   -0.001052    0.000010
      3          9           0        2.281407    1.331447   -0.000003
      4          9           0        3.405682   -0.651193   -0.000017
      5          6           0       -1.298272   -1.331768    0.000010
      6          6           0       -0.694121    1.004359   -0.000006
      7          6           0       -2.645267   -0.987303    0.000011
      8          6           0       -3.029233    0.351217    0.000004
      9          6           0       -2.045261    1.337204   -0.000004
     10          1           0       -2.327580    2.384092   -0.000010
     11          1           0        0.054543    1.783499   -0.000012
     12          1           0       -3.394755   -1.770659    0.000018
     13          1           0       -4.078325    0.621738    0.000005
     14          1           0       -1.008155   -2.378179    0.000016
     15          7           0        1.046530   -0.743185    0.000001
     16          1           0        1.169575   -1.746306   -0.000004
 ---------------------------------------------------------------------

 SCF Done:  E(RHF) =  -509.446519922     A.U. after    2 cycles

 The electronic state is 1-A.
 Alpha  occ. eigenvalues --  -26.47668 -26.47277 -15.52995 -11.30106 -11.25360
 Alpha  occ. eigenvalues --  -11.25195 -11.24795 -11.24292 -11.24136  -7.72675
 Alpha  occ. eigenvalues --   -1.62558  -1.58720  -1.24940  -1.14709  -1.02722
 Alpha  occ. eigenvalues --   -1.01332  -0.86487  -0.85482  -0.80463  -0.76443
 Alpha  occ. eigenvalues --   -0.75739  -0.71818  -0.69680  -0.69151  -0.64999
 Alpha  occ. eigenvalues --   -0.63367  -0.63264  -0.62037  -0.61518  -0.60257
 Alpha  occ. eigenvalues --   -0.57360  -0.53345  -0.51156  -0.48862  -0.35617
 Alpha  occ. eigenvalues --   -0.33058
 Alpha virt. eigenvalues --    0.03060   0.03606   0.03928   0.05012   0.05200
 Alpha virt. eigenvalues --    0.05478   0.06944   0.07674   0.09432   0.09549
 Alpha virt. eigenvalues --    0.10363   0.10511   0.12168   0.13045   0.13459

 Mulliken charges:
               1
     1  C   -1.409834
     2  B    1.224960
     3  F   -0.706866
     4  F   -0.788869
     5  C    0.378570
     6  C    0.557549
     7  C    0.454480
     8  C   -0.024922
     9  C    0.334506
    10  H   -0.227936
    11  H   -0.302564
    12  H   -0.219894
    13  H   -0.219106
    14  H   -0.328839
    15  N    1.425577
    16  H   -0.146815
 Sum of Mulliken charges =  -0.00000

 Dipole moment (field-independent basis, Debye):
    X=             -1.6591    Y=             -1.1625    Z=              0.0001  Tot=              2.0259

 Test job not archived.
 1\1\GINC-SE162\SP\RHF\Aug-CC-pVDZ\C6H6B1F2N1\OHZDE\09-Apr-2025\0\\#t h
 f aug-cc-pvdz iop(5/13=1,5/36=2,99/5=2) pseudo=read geom=check guess=(
 read,tcheck) scf=(maxcycle=1)\\title\\0,1\C,0,0.307712,-0.341863,-0.00
 0002\B,0,-2.238875,-0.001052,-0.00001\F,0,-2.281407,1.331447,0.000003\
 F,0,-3.405682,-0.651193,0.000017\C,0,1.298272,-1.331768,-0.00001\C,0,0
 .694121,1.004359,0.000006\C,0,2.645267,-0.987303,-0.000011\C,0,3.02923
 3,0.351217,-0.000004\C,0,2.045261,1.337204,0.000004\H,0,2.32758,2.3840
 92,0.00001\H,0,-0.054543,1.783499,0.000012\H,0,3.394755,-1.770659,-0.0

 Normal termination of Gaussian 16 at Wed Apr  9 00:39:28 2025.
