 Gaussian 16, Revision C.01,

 ----------------------------------------------------------------------
 #t hf aug-cc-pvdz symm=none int=(grid=ultrafine) guess=(read,tcheck) s
 table=(opt,rrhf)
 ----------------------------------------------------------------------
 -----
 title
 -----
 Symbolic Z-matrix:
 Charge =  0 Multiplicity = 1

 SCF Done:  E(RHF) =  -596.499371612     A.U. after   12 cycles
 Normal termination of Gaussian 16 at Tue Apr  8 23:52:45 2025.
 Gaussian 16:  ES64L-G16RevC.01  3-Jul-2019

 ----------------------------------------------------------------------
 #t hf aug-cc-pvdz iop(5/13=1,5/36=2,99/5=2) pseudo=read geom=check gue
 ss=(read,tcheck) scf=(maxcycle=1)
 ----------------------------------------------------------------------
 -----
 title
 -----
 Structure from the checkpoint file:  "BDE49_nonexpt_1902_mol1.chk"
 Charge =  0 Multiplicity = 1

                         Standard orientation:
 ---------------------------------------------------------------------
 Center     Atomic      Atomic             Coordinates (Angstroms)
 Number     Number       Type             X           Y           Z
 ---------------------------------------------------------------------
      1          6           0       -0.952404   -0.708049   -0.705840
      2         14           0        0.756869   -1.087067    0.024868
      3          7           0        1.808616    0.276728   -0.095213
      4          1           0        1.364201   -2.168155   -0.789815
      5          1           0        0.595913   -1.624116    1.409115
      6          7           0       -1.770501    0.282218    0.008689
      7          6           0        1.397553    1.601394    0.360755
      8          1           0        1.773691    1.829023    1.371201
      9          1           0        0.308387    1.674183    0.372182
     10          1           0        1.785631    2.374039   -0.316214
     11          6           0       -2.857767    0.780701   -0.826736
     12          1           0       -3.568060   -0.014036   -1.123192
     13          1           0       -2.451923    1.230810   -1.735558
     14          1           0       -3.415126    1.550672   -0.286738
     15          6           0        3.253913    0.113337   -0.159794
     16          1           0        3.511495   -0.872020   -0.554929
     17          1           0        3.737514    0.222165    0.824175
     18          1           0        3.693723    0.866038   -0.827407
     19          6           0       -2.286609   -0.233536    1.271116
     20          1           0       -1.467334   -0.546111    1.920034
     21          1           0       -2.959124   -1.101346    1.131401
     22          1           0       -2.846932    0.550333    1.786509
     23          1           0       -1.497350   -1.664603   -0.847461
     24          1           0       -0.755785   -0.323637   -1.712787
 ---------------------------------------------------------------------

 SCF Done:  E(RHF) =  -596.867325676     A.U. after    2 cycles

 The electronic state is 1-A.
 Alpha  occ. eigenvalues --  -69.52669 -15.48984 -15.46619 -11.25385 -11.25114
 Alpha  occ. eigenvalues --  -11.25061 -11.24698 -11.24018  -6.19503  -3.94896
 Alpha  occ. eigenvalues --   -3.94865  -3.94814  -1.21950  -1.18580  -0.95805
 Alpha  occ. eigenvalues --   -0.95591  -0.95113  -0.86677  -0.82136  -0.72120
 Alpha  occ. eigenvalues --   -0.65912  -0.65434  -0.64075  -0.62934  -0.62451
 Alpha  occ. eigenvalues --   -0.59987  -0.55543  -0.54719  -0.54281  -0.52651
 Alpha  occ. eigenvalues --   -0.52461  -0.52197  -0.50340  -0.47204  -0.45472
 Alpha  occ. eigenvalues --   -0.38872  -0.36861
 Alpha virt. eigenvalues --    0.03770   0.04053   0.04290   0.04420   0.05305
 Alpha virt. eigenvalues --    0.05309   0.05526   0.05629   0.05964   0.07761
 Alpha virt. eigenvalues --    0.07881   0.08276   0.08606   0.09356   0.10745

 Mulliken charges:
               1
     1  C   -0.790388
     2  Si   0.920269
     3  N    0.141192
     4  H   -0.119147
     5  H   -0.184590
     6  N    0.301821
     7  C   -0.358939
     8  H    0.175319
     9  H   -0.081532
    10  H    0.122467
    11  C   -0.430635
    12  H    0.295177
    13  H    0.034956
    14  H    0.113160
    15  C   -0.521219
    16  H   -0.010743
    17  H    0.201243
    18  H    0.152678
    19  C   -0.432908
    20  H    0.039084
    21  H    0.209761
    22  H    0.123369
    23  H   -0.008806
    24  H    0.108411
 Sum of Mulliken charges =  -0.00000

 Dipole moment (field-independent basis, Debye):
    X=             -0.6107    Y=              0.1766    Z=             -0.0937  Tot=              0.6426

 Test job not archived.
 1\1\GINC-SE345\SP\RHF\Aug-CC-pVDZ\C5H16N2Si1\OHZDE\08-Apr-2025\0\\#t h
 f aug-cc-pvdz iop(5/13=1,5/36=2,99/5=2) pseudo=read geom=check guess=(
 read,tcheck) scf=(maxcycle=1)\\title\\0,1\C,0,-0.952404,-0.708049,-0.7
 0584\Si,0,0.756869,-1.087067,0.024868\N,0,1.808616,0.276728,-0.095213\
 H,0,1.364201,-2.168155,-0.789815\H,0,0.595913,-1.624116,1.409115\N,0,-
 1.770501,0.282218,0.008689\C,0,1.397553,1.601394,0.360755\H,0,1.773691
 ,1.829023,1.371201\H,0,0.308387,1.674183,0.372182\H,0,1.785631,2.37403
 9,-0.316214\C,0,-2.857767,0.780701,-0.826736\H,0,-3.56806,-0.014036,-1

 Normal termination of Gaussian 16 at Tue Apr  8 23:52:58 2025.
