 Gaussian 16, Revision C.01,

 ----------------------------------------------------------------------
 #t hf aug-cc-pvdz symm=none int=(grid=ultrafine) guess=(read,tcheck) s
 table=(opt,rrhf)
 ----------------------------------------------------------------------
 -----
 title
 -----
 Symbolic Z-matrix:
 Charge =  0 Multiplicity = 1

 SCF Done:  E(RHF) =  -869.654368896     A.U. after   19 cycles
 Normal termination of Gaussian 16 at Tue Apr  8 23:16:14 2025.
 Gaussian 16:  ES64L-G16RevC.01  3-Jul-2019

 ----------------------------------------------------------------------
 #t hf aug-cc-pvdz iop(5/13=1,5/36=2,99/5=2) pseudo=read geom=check gue
 ss=(read,tcheck) scf=(maxcycle=1)
 ----------------------------------------------------------------------
 -----
 title
 -----
 Structure from the checkpoint file:  "BDE49_nonexpt_1002_mol1.chk"
 Charge =  0 Multiplicity = 1

                         Standard orientation:
 ---------------------------------------------------------------------
 Center     Atomic      Atomic             Coordinates (Angstroms)
 Number     Number       Type             X           Y           Z
 ---------------------------------------------------------------------
      1          6           0       -3.637479   -0.388544   -0.034508
      2          6           0       -3.209926    0.939707   -0.015874
      3          6           0       -1.852862    1.232515    0.005946
      4          6           0       -2.703896   -1.423223   -0.031396
      5          6           0       -1.343589   -1.133405   -0.009722
      6          6           0       -0.909204    0.196066    0.009267
      7          1           0       -4.697299   -0.616496   -0.051550
      8          1           0       -3.936141    1.744300   -0.018232
      9          1           0       -1.499267    2.255743    0.020860
     10          1           0       -3.034809   -2.455006   -0.046681
     11          1           0       -0.621664   -1.941059   -0.009655
     12          6           0        0.532087    0.583413    0.034457
     13         16           0        1.723521   -0.817984    0.081183
     14          7           0        3.308258    0.328334   -0.090888
     15          8           0        4.309910   -0.251191   -0.070839
     16          8           0        0.915622    1.721535    0.032530
 ---------------------------------------------------------------------

 SCF Done:  E(RHF) =  -870.169586218     A.U. after    2 cycles

 The electronic state is 1-A.
 Alpha  occ. eigenvalues --  -93.98842 -20.68087 -20.55831 -15.72632 -11.39093
 Alpha  occ. eigenvalues --  -11.27479 -11.27297 -11.27154 -11.26826 -11.26378
 Alpha  occ. eigenvalues --  -11.26213  -8.26890  -6.24615  -6.24492  -6.24267
 Alpha  occ. eigenvalues --   -1.69353  -1.50239  -1.18300  -1.09109  -1.05397
 Alpha  occ. eigenvalues --   -1.04146  -0.95762  -0.88823  -0.85868  -0.79629
 Alpha  occ. eigenvalues --   -0.74937  -0.73513  -0.72240  -0.68689  -0.67456
 Alpha  occ. eigenvalues --   -0.66941  -0.64073  -0.62371  -0.60260  -0.58966
 Alpha  occ. eigenvalues --   -0.54836  -0.52688  -0.52286  -0.42146  -0.40534
 Alpha  occ. eigenvalues --   -0.40154  -0.36969  -0.36721
 Alpha virt. eigenvalues --    0.02842   0.03390   0.03575   0.04329   0.05090
 Alpha virt. eigenvalues --    0.05488   0.05979   0.06730   0.09003   0.09339
 Alpha virt. eigenvalues --    0.09715   0.09898   0.11272   0.12220   0.12554

 Mulliken charges:
               1
     1  C   -0.105374
     2  C    0.565795
     3  C   -0.601267
     4  C    0.181690
     5  C    0.154832
     6  C    2.370410
     7  H   -0.208400
     8  H   -0.209771
     9  H   -0.324505
    10  H   -0.227125
    11  H   -0.136496
    12  C   -0.209168
    13  S    0.284781
    14  N    0.764148
    15  O   -0.922187
    16  O   -1.377364
 Sum of Mulliken charges =  -0.00000

 Dipole moment (field-independent basis, Debye):
    X=             -3.0099    Y=             -1.9724    Z=             -0.0237  Tot=              3.5986

 Test job not archived.
 1\1\GINC-SE460\SP\RHF\Aug-CC-pVDZ\C7H5N1O2S1\OHZDE\08-Apr-2025\0\\#t h
 f aug-cc-pvdz iop(5/13=1,5/36=2,99/5=2) pseudo=read geom=check guess=(
 read,tcheck) scf=(maxcycle=1)\\title\\0,1\C,0,-3.637479,-0.388544,-0.0
 34508\C,0,-3.209926,0.939707,-0.015874\C,0,-1.852862,1.232515,0.005946
 \C,0,-2.703896,-1.423223,-0.031396\C,0,-1.343589,-1.133405,-0.009722\C
 ,0,-0.909204,0.196066,0.009267\H,0,-4.697299,-0.616496,-0.05155\H,0,-3
 .936141,1.7443,-0.018232\H,0,-1.499267,2.255743,0.02086\H,0,-3.034809,
 -2.455006,-0.046681\H,0,-0.621664,-1.941059,-0.009655\C,0,0.532087,0.5

 Normal termination of Gaussian 16 at Tue Apr  8 23:16:23 2025.
