 Gaussian 16, Revision C.01,

 ----------------------------------------------------------------------
 #t hf aug-cc-pvdz symm=none int=(grid=ultrafine) guess=(read,tcheck) s
 table=(opt,rrhf)
 ----------------------------------------------------------------------
 -----
 title
 -----
 Symbolic Z-matrix:
 Charge =  0 Multiplicity = 1

 SCF Done:  E(RHF) =  -787.577069071     A.U. after   12 cycles
 Normal termination of Gaussian 16 at Tue Apr  8 23:41:42 2025.
 Gaussian 16:  ES64L-G16RevC.01  3-Jul-2019

 ----------------------------------------------------------------------
 #t hf aug-cc-pvdz iop(5/13=1,5/36=2,99/5=2) pseudo=read geom=check gue
 ss=(read,tcheck) scf=(maxcycle=1)
 ----------------------------------------------------------------------
 -----
 title
 -----
 Structure from the checkpoint file:  "BDE49_nonexpt_1655_mol1.chk"
 Charge =  0 Multiplicity = 1

                         Standard orientation:
 ---------------------------------------------------------------------
 Center     Atomic      Atomic             Coordinates (Angstroms)
 Number     Number       Type             X           Y           Z
 ---------------------------------------------------------------------
      1         15           0       -2.401837   -0.094301   -0.358143
      2         14           0       -0.362838   -0.060940    0.668164
      3          6           0        0.805511    1.397018    0.307888
      4          6           0        0.796168   -1.405127   -0.014770
      5          6           0        2.150982   -0.670308   -0.175172
      6          1           0        0.435065   -1.748477   -0.990517
      7          1           0        0.871413   -2.288194    0.623501
      8          6           0        1.880274    0.780956   -0.621876
      9          1           0        2.810290   -1.185481   -0.880583
     10          1           0        2.672881   -0.654214    0.789120
     11          1           0        2.800822    1.372776   -0.625609
     12          1           0        1.508354    0.772587   -1.653575
     13          1           0        1.261568    1.725913    1.248620
     14          1           0        0.319088    2.268730   -0.134236
     15          1           0       -1.922815    0.428595   -1.589399
     16          1           0       -2.804671    1.175539    0.134590
     17          1           0       -0.642321   -0.215322    2.119519
 ---------------------------------------------------------------------

 SCF Done:  E(RHF) =  -787.832500965     A.U. after    2 cycles

 The electronic state is 1-A.
 Alpha  occ. eigenvalues --  -84.25878 -69.52541 -11.23544 -11.23497 -11.21809
 Alpha  occ. eigenvalues --  -11.21720  -6.73138  -6.19590  -4.25502  -4.25364
 Alpha  occ. eigenvalues --   -4.24833  -3.94916  -3.94881  -3.94836  -1.08785
 Alpha  occ. eigenvalues --   -0.96432  -0.89510  -0.84678  -0.78074  -0.67821
 Alpha  occ. eigenvalues --   -0.63875  -0.61683  -0.58574  -0.53421  -0.50579
 Alpha  occ. eigenvalues --   -0.50018  -0.48668  -0.47383  -0.44770  -0.43467
 Alpha  occ. eigenvalues --   -0.40544  -0.33687
 Alpha virt. eigenvalues --    0.03527   0.03799   0.03860   0.04135   0.06163
 Alpha virt. eigenvalues --    0.06192   0.06371   0.06546   0.06722   0.08991
 Alpha virt. eigenvalues --    0.09191   0.10122   0.10191   0.11462   0.12317

 Mulliken charges:
               1
     1  P   -1.201691
     2  Si   1.465529
     3  C   -0.534709
     4  C   -0.478634
     5  C   -0.327878
     6  H    0.151842
     7  H    0.038760
     8  C   -0.300420
     9  H    0.113241
    10  H    0.117565
    11  H    0.111158
    12  H    0.116094
    13  H    0.045968
    14  H    0.131813
    15  H    0.391740
    16  H    0.324239
    17  H   -0.164616
 Sum of Mulliken charges =  -0.00000

 Dipole moment (field-independent basis, Debye):
    X=              0.9962    Y=              0.3774    Z=             -0.2197  Tot=              1.0877

 Test job not archived.
 1\1\GINC-SE250\SP\RHF\Aug-CC-pVDZ\C4H11P1Si1\OHZDE\08-Apr-2025\0\\#t h
 f aug-cc-pvdz iop(5/13=1,5/36=2,99/5=2) pseudo=read geom=check guess=(
 read,tcheck) scf=(maxcycle=1)\\title\\0,1\P,0,-2.401837,-0.094302,-0.3
 58143\Si,0,-0.362838,-0.06094,0.668164\C,0,0.805511,1.397018,0.307888\
 C,0,0.796168,-1.405127,-0.01477\C,0,2.150982,-0.670308,-0.175172\H,0,0
 .435065,-1.748477,-0.990517\H,0,0.871413,-2.288194,0.623501\C,0,1.8802
 74,0.780956,-0.621876\H,0,2.81029,-1.185481,-0.880583\H,0,2.672881,-0.
 654214,0.78912\H,0,2.800822,1.372776,-0.625609\H,0,1.508354,0.772587,-

 Normal termination of Gaussian 16 at Tue Apr  8 23:41:48 2025.
