 Gaussian 16, Revision C.01,

 ----------------------------------------------------------------------
 #t hf aug-cc-pvdz symm=none int=(grid=ultrafine) guess=(read,tcheck) s
 table=(opt,rrhf)
 ----------------------------------------------------------------------
 -----
 title
 -----
 Symbolic Z-matrix:
 Charge =  0 Multiplicity = 1

 SCF Done:  E(RHF) =  -685.971132481     A.U. after   16 cycles
 Normal termination of Gaussian 16 at Tue Apr  8 23:36:24 2025.
 Gaussian 16:  ES64L-G16RevC.01  3-Jul-2019

 ----------------------------------------------------------------------
 #t hf aug-cc-pvdz iop(5/13=1,5/36=2,99/5=2) pseudo=read geom=check gue
 ss=(read,tcheck) scf=(maxcycle=1)
 ----------------------------------------------------------------------
 -----
 title
 -----
 Structure from the checkpoint file:  "BDE49_nonexpt_1485_mol1.chk"
 Charge =  0 Multiplicity = 1

                         Standard orientation:
 ---------------------------------------------------------------------
 Center     Atomic      Atomic             Coordinates (Angstroms)
 Number     Number       Type             X           Y           Z
 ---------------------------------------------------------------------
      1          6           0       -1.633591    1.180176   -0.103604
      2          6           0       -0.250113    1.351826   -0.082133
      3          6           0       -2.201493   -0.091767   -0.007795
      4          6           0       -1.340280   -1.190967    0.115857
      5          6           0        0.038281   -1.025200    0.154708
      6          6           0        0.601097    0.253921    0.063560
      7         15           0        2.418795    0.537986    0.098835
      8          8           0        3.008290   -0.988797   -0.270970
      9          1           0        3.416309   -0.975766   -1.141747
     10          1           0       -2.278208    2.046897   -0.209720
     11          1           0        0.166134    2.349759   -0.183524
     12          1           0       -1.759497   -2.190183    0.188079
     13          1           0        0.691180   -1.885681    0.246100
     14          6           0       -3.697197   -0.288794   -0.056997
     15          1           0       -4.226809    0.664518   -0.006904
     16          1           0       -4.042706   -0.910910    0.773703
     17          1           0       -3.999086   -0.789278   -0.982965
     18          1           0        2.584211    0.396063    1.500643
 ---------------------------------------------------------------------

 SCF Done:  E(RHF) =  -686.370627459     A.U. after    2 cycles

 The electronic state is 1-A.
 Alpha  occ. eigenvalues --  -84.31280 -20.56345 -11.25343 -11.24869 -11.24484
 Alpha  occ. eigenvalues --  -11.24136 -11.24049 -11.23987 -11.23847  -6.77723
 Alpha  occ. eigenvalues --   -4.30802  -4.30231  -4.29632  -1.44849  -1.15962
 Alpha  occ. eigenvalues --   -1.05397  -1.01758  -0.94914  -0.85448  -0.83957
 Alpha  occ. eigenvalues --   -0.79094  -0.68952  -0.66400  -0.64654  -0.62705
 Alpha  occ. eigenvalues --   -0.59842  -0.58639  -0.57205  -0.56790  -0.55187
 Alpha  occ. eigenvalues --   -0.51558  -0.50086  -0.49872  -0.44969  -0.36151
 Alpha  occ. eigenvalues --   -0.34782  -0.31760
 Alpha virt. eigenvalues --    0.03560   0.03732   0.03824   0.04786   0.05103
 Alpha virt. eigenvalues --    0.05459   0.06244   0.07796   0.07869   0.09178
 Alpha virt. eigenvalues --    0.09414   0.09903   0.10681   0.11144   0.12937

 Mulliken charges:
               1
     1  C    0.667305
     2  C   -0.700185
     3  C    0.179865
     4  C    0.748490
     5  C   -0.134319
     6  C    0.305586
     7  P    0.828040
     8  O   -1.258529
     9  H    0.439832
    10  H   -0.299726
    11  H   -0.248533
    12  H   -0.300155
    13  H   -0.320966
    14  C   -0.716488
    15  H    0.054476
    16  H    0.190129
    17  H    0.248959
    18  H    0.316221
 Sum of Mulliken charges =   0.00000

 Dipole moment (field-independent basis, Debye):
    X=             -1.0517    Y=              0.0620    Z=             -0.8099  Tot=              1.3288

 Test job not archived.
 1\1\GINC-SE120\SP\RHF\Aug-CC-pVDZ\C7H9O1P1\OHZDE\08-Apr-2025\0\\#t hf
 aug-cc-pvdz iop(5/13=1,5/36=2,99/5=2) pseudo=read geom=check guess=(re
 ad,tcheck) scf=(maxcycle=1)\\title\\0,1\C,0,-1.633591,1.180176,-0.1036
 04\C,0,-0.250113,1.351826,-0.082133\C,0,-2.201493,-0.091767,-0.007795\
 C,0,-1.34028,-1.190967,0.115857\C,0,0.038281,-1.0252,0.154708\C,0,0.60
 1097,0.253921,0.06356\P,0,2.418795,0.537986,0.098835\O,0,3.00829,-0.98
 8797,-0.27097\H,0,3.416309,-0.975766,-1.141747\H,0,-2.278208,2.046897,
 -0.20972\H,0,0.166134,2.349759,-0.183524\H,0,-1.759497,-2.190183,0.188

 Normal termination of Gaussian 16 at Tue Apr  8 23:36:33 2025.
