 Gaussian 16, Revision C.01,

 ----------------------------------------------------------------------
 #t hf aug-cc-pvdz symm=none int=(grid=ultrafine) guess=(read,tcheck) s
 table=(opt,rrhf)
 ----------------------------------------------------------------------
 -----
 title
 -----
 Symbolic Z-matrix:
 Charge =  0 Multiplicity = 1

 SCF Done:  E(RHF) =  -786.223429761     A.U. after   15 cycles
 Normal termination of Gaussian 16 at Wed Apr  9 00:46:21 2025.
 Gaussian 16:  ES64L-G16RevC.01  3-Jul-2019

 ----------------------------------------------------------------------
 #t hf aug-cc-pvdz iop(5/13=1,5/36=2,99/5=2) pseudo=read geom=check gue
 ss=(read,tcheck) scf=(maxcycle=1)
 ----------------------------------------------------------------------
 -----
 title
 -----
 Structure from the checkpoint file:  "BDE49_nonexpt_745_mol1.chk"
 Charge =  0 Multiplicity = 1

                         Standard orientation:
 ---------------------------------------------------------------------
 Center     Atomic      Atomic             Coordinates (Angstroms)
 Number     Number       Type             X           Y           Z
 ---------------------------------------------------------------------
      1          6           0       -2.482808   -1.483337    0.329436
      2          6           0       -1.186087   -1.510904   -0.172867
      3          6           0       -3.103949   -0.260248    0.566757
      4          6           0       -2.423106    0.920747    0.289450
      5          6           0       -1.122383    0.914785   -0.227906
      6          6           0       -0.486801   -0.327914   -0.456399
      7          1           0       -3.001706   -2.412356    0.537451
      8          1           0       -0.705961   -2.466948   -0.349342
      9          5           0        2.282788   -0.101670    0.434661
     10          8           0        3.619399   -0.328335    0.335778
     11          8           0        1.764018    0.351939    1.612567
     12          1           0       -2.911311    1.873852    0.465890
     13          1           0       -4.113379   -0.224694    0.960637
     14          6           0       -0.436191    2.225558   -0.540173
     15          1           0       -1.120905    3.064505   -0.405034
     16          1           0       -0.070943    2.245574   -1.571351
     17          1           0        0.429841    2.399919    0.106728
     18          1           0        0.800505    0.383129    1.609444
     19          1           0        4.075438   -0.172352    1.171831
     20         15           0        1.214176   -0.364819   -1.186252
     21          1           0        1.372462   -1.770948   -1.222318
 ---------------------------------------------------------------------

 SCF Done:  E(RHF) =  -786.721443724     A.U. after    2 cycles

 The electronic state is 1-A.
 Alpha  occ. eigenvalues --  -84.25794 -20.56501 -20.56090 -11.26082 -11.25612
 Alpha  occ. eigenvalues --  -11.25201 -11.25024 -11.24761 -11.24731 -11.24083
 Alpha  occ. eigenvalues --   -7.65614  -6.73091  -4.26206  -4.25718  -4.25167
 Alpha  occ. eigenvalues --   -1.48770  -1.44597  -1.16564  -1.05686  -1.02991
 Alpha  occ. eigenvalues --   -0.94658  -0.88346  -0.83034  -0.80050  -0.76561
 Alpha  occ. eigenvalues --   -0.73085  -0.69373  -0.66483  -0.63432  -0.62113
 Alpha  occ. eigenvalues --   -0.59322  -0.58826  -0.57876  -0.56851  -0.56024
 Alpha  occ. eigenvalues --   -0.54633  -0.51028  -0.50908  -0.49692  -0.47917
 Alpha  occ. eigenvalues --   -0.43998  -0.37657  -0.34723  -0.31103
 Alpha virt. eigenvalues --    0.03128   0.03343   0.03483   0.04418   0.05081
 Alpha virt. eigenvalues --    0.05306   0.06651   0.06788   0.07393   0.07732
 Alpha virt. eigenvalues --    0.08811   0.09260   0.09655   0.09964   0.10490

 Mulliken charges:
               1
     1  C    0.155678
     2  C   -0.104482
     3  C    0.096477
     4  C    0.739135
     5  C    0.320626
     6  C    0.172083
     7  H   -0.228214
     8  H   -0.291330
     9  B    2.149950
    10  O   -1.388229
    11  O   -1.375489
    12  H   -0.303139
    13  H   -0.229062
    14  C   -0.750973
    15  H   -0.022538
    16  H    0.345629
    17  H    0.195776
    18  H    0.796123
    19  H    0.504823
    20  P   -0.859746
    21  H    0.076902
 Sum of Mulliken charges =  -0.00000

 Dipole moment (field-independent basis, Debye):
    X=             -1.4265    Y=              0.2790    Z=              1.2389  Tot=              1.9099

 Test job not archived.
 1\1\GINC-SE212\SP\RHF\Aug-CC-pVDZ\C7H10B1O2P1\OHZDE\09-Apr-2025\0\\#t
 hf aug-cc-pvdz iop(5/13=1,5/36=2,99/5=2) pseudo=read geom=check guess=
 (read,tcheck) scf=(maxcycle=1)\\title\\0,1\C,0,-2.482808,-1.483337,0.3
 29436\C,0,-1.186087,-1.510904,-0.172867\C,0,-3.103949,-0.260248,0.5667
 57\C,0,-2.423106,0.920747,0.28945\C,0,-1.122383,0.914785,-0.227906\C,0
 ,-0.486801,-0.327914,-0.456399\H,0,-3.001706,-2.412356,0.537451\H,0,-0
 .705961,-2.466948,-0.349342\B,0,2.282788,-0.10167,0.434661\O,0,3.61939
 9,-0.328335,0.335778\O,0,1.764018,0.351939,1.612567\H,0,-2.911311,1.87

 Normal termination of Gaussian 16 at Wed Apr  9 00:46:37 2025.
