 Gaussian 16, Revision C.01,

 ----------------------------------------------------------------------
 #t hf aug-cc-pvdz symm=none int=(grid=ultrafine) guess=(read,tcheck) s
 table=(opt,rrhf)
 ----------------------------------------------------------------------
 -----
 title
 -----
 Symbolic Z-matrix:
 Charge =  0 Multiplicity = 1

 SCF Done:  E(RHF) =  -602.172151612     A.U. after   14 cycles
 Normal termination of Gaussian 16 at Tue Apr  8 23:14:47 2025.
 Gaussian 16:  ES64L-G16RevC.01  3-Jul-2019

 ----------------------------------------------------------------------
 #t hf aug-cc-pvdz iop(5/13=1,5/36=2,99/5=2) pseudo=read geom=check gue
 ss=(read,tcheck) scf=(maxcycle=1)
 ----------------------------------------------------------------------
 -----
 title
 -----
 Structure from the checkpoint file:  "BDE49_nonexpt_1000_mol1.chk"
 Charge =  0 Multiplicity = 1

                         Standard orientation:
 ---------------------------------------------------------------------
 Center     Atomic      Atomic             Coordinates (Angstroms)
 Number     Number       Type             X           Y           Z
 ---------------------------------------------------------------------
      1         16           0        1.267822   -0.090780   -0.000081
      2          7           0       -0.580278    0.003576   -0.000038
      3          8           0       -1.085596    1.099100   -0.000082
      4          8           0       -1.119352   -1.076296    0.000117
      5          1           0        1.416381    1.245002    0.001289
 ---------------------------------------------------------------------

 SCF Done:  E(RHF) =  -602.420890203     A.U. after    2 cycles

 The electronic state is 1-A.
 Alpha  occ. eigenvalues --  -94.05030 -20.61991 -20.61931 -15.82637  -8.32774
 Alpha  occ. eigenvalues --   -6.30582  -6.30376  -6.30107  -1.70612  -1.54975
 Alpha  occ. eigenvalues --   -1.12837  -0.92497  -0.80100  -0.77428  -0.77295
 Alpha  occ. eigenvalues --   -0.60617  -0.51359  -0.48568  -0.47986  -0.45020
 Alpha virt. eigenvalues --    0.01973   0.03866   0.04866   0.09296   0.10033
 Alpha virt. eigenvalues --    0.10918   0.14150   0.15812   0.16508   0.17909
 Alpha virt. eigenvalues --    0.19069   0.21672   0.23887   0.26422   0.27312

 Mulliken charges:
               1
     1  S    0.079485
     2  N    1.741569
     3  O   -1.111419
     4  O   -1.090100
     5  H    0.380465
 Sum of Mulliken charges =  -0.00000

 Dipole moment (field-independent basis, Debye):
    X=              3.1167    Y=              0.9756    Z=              0.0010  Tot=              3.2659

 Test job not archived.
 1\1\GINC-SE071\SP\RHF\Aug-CC-pVDZ\H1N1O2S1\OHZDE\08-Apr-2025\0\\#t hf
 aug-cc-pvdz iop(5/13=1,5/36=2,99/5=2) pseudo=read geom=check guess=(re
 ad,tcheck) scf=(maxcycle=1)\\title\\0,1\S,0,1.267822,-0.090779,-0.0000
 81\N,0,-0.580278,0.003576,-0.000038\O,0,-1.085596,1.0991,-0.000082\O,0
 ,-1.119352,-1.076296,0.000117\H,0,1.416381,1.245003,0.001289\\Version=
 ES64L-G16RevC.01\State=1-A\HF=-602.4208902\RMSD=1.599e-02\Dipole=1.226
 2115,0.3838491,0.0003886\Quadrupole=0.8864433,-0.3589185,-0.5275248,1.
 4617454,0.0015704,0.0030399\PG=C01 [X(H1N1O2S1)]\\@

 Normal termination of Gaussian 16 at Tue Apr  8 23:14:48 2025.
