 Gaussian 16, Revision C.01,

 ----------------------------------------------------------------------
 #t hf aug-cc-pvdz symm=none int=(grid=ultrafine) guess=(read,tcheck) s
 table=opt
 ----------------------------------------------------------------------
 -----
 title
 -----
 Symbolic Z-matrix:
 Charge =  0 Multiplicity = 2

 SCF Done:  E(UHF) =  -586.791241316     A.U. after   18 cycles
 Normal termination of Gaussian 16 at Tue Apr  8 22:46:30 2025.
 Gaussian 16:  ES64L-G16RevC.01  3-Jul-2019

 ----------------------------------------------------------------------
 #t hf aug-cc-pvdz iop(5/13=1,5/36=2,99/5=2) pseudo=read geom=check gue
 ss=(read,tcheck) scf=(maxcycle=1)
 ----------------------------------------------------------------------
 -----
 title
 -----
 Structure from the checkpoint file:  "BDE49_expt_1597_mol2.chk"
 Charge =  0 Multiplicity = 2

                         Standard orientation:
 ---------------------------------------------------------------------
 Center     Atomic      Atomic             Coordinates (Angstroms)
 Number     Number       Type             X           Y           Z
 ---------------------------------------------------------------------
      1         16           0       -0.212621    0.000000   -0.274190
      2          8           0       -0.737716    1.281284    0.207361
      3          8           0       -0.737718   -1.281283    0.207361
      4          6           0        1.585044   -0.000001    0.094345
      5          1           0        2.009484    0.903201   -0.338876
      6          1           0        2.009482   -0.903203   -0.338875
      7          1           0        1.676178   -0.000001    1.180952
 ---------------------------------------------------------------------

 SCF Done:  E(UHF) =  -587.038518512     A.U. after    2 cycles

 The electronic state is 2-A.
 Alpha  occ. eigenvalues --  -94.17543 -20.58216 -20.58211 -11.31483  -8.43524
 Alpha  occ. eigenvalues --   -6.41869  -6.41301  -6.41001  -1.57338  -1.47212
 Alpha  occ. eigenvalues --   -1.07551  -0.88920  -0.70997  -0.68776  -0.68743
 Alpha  occ. eigenvalues --   -0.63655  -0.62107  -0.55228  -0.51159  -0.50049
 Alpha  occ. eigenvalues --   -0.41507
 Alpha virt. eigenvalues --    0.02935   0.04854   0.04952   0.07543   0.10668
 Alpha virt. eigenvalues --    0.11259   0.11317   0.13609   0.14723   0.15694
 Alpha virt. eigenvalues --    0.20054   0.20810   0.21360   0.22723   0.24785

  Beta  occ. eigenvalues --  -94.17169 -20.56739 -20.56733 -11.31015  -8.43045
  Beta  occ. eigenvalues --   -6.41270  -6.41023  -6.40070  -1.54176  -1.43135
  Beta  occ. eigenvalues --   -1.04912  -0.83864  -0.67178  -0.66926  -0.66086
  Beta  occ. eigenvalues --   -0.61832  -0.57795  -0.48635  -0.48531  -0.43668
  Beta virt. eigenvalues --   -0.00346   0.03730   0.04880   0.05097   0.07852
  Beta virt. eigenvalues --    0.10875   0.11401   0.11536   0.13862   0.14806
  Beta virt. eigenvalues --    0.16207   0.20876   0.21803   0.22056   0.23594

 Mulliken charges and spin densities:
               1          2
     1  S    2.663773   0.275276
     2  O   -1.277846   0.291236
     3  O   -1.277845   0.291237
     4  C   -0.835468   0.167556
     5  H    0.232931  -0.015756
     6  H    0.232930  -0.015756
     7  H    0.261524   0.006207
 Sum of Mulliken charges =   0.00000   1.00000

 Dipole moment (field-independent basis, Debye):
    X=              3.9857    Y=             -0.0000    Z=             -0.9766  Tot=              4.1036
                          Isotropic Fermi Contact Couplings
        Atom                 a.u.       MegaHertz       Gauss      10(-4) cm-1
     1  S(33)              0.45084     154.85135      55.25481      51.65285
     2  O(17)              0.09562     -57.96686     -20.68402     -19.33566
     3  O(17)              0.09562     -57.96691     -20.68404     -19.33568
     4  C(13)              0.07625      85.71711      30.58600      28.59215
     5  H(1)              -0.00337     -15.07405      -5.37879      -5.02816
     6  H(1)              -0.00337     -15.07404      -5.37879      -5.02816
     7  H(1)               0.00333      14.89127       5.31358       4.96719
 --------------------------------------------------------

 Normal termination of Gaussian 16 at Tue Apr  8 22:46:32 2025.
