 Gaussian 16, Revision C.01,

 ----------------------------------------------------------------------
 #t hf aug-cc-pvdz symm=none int=(grid=ultrafine) guess=(read,tcheck) s
 table=(opt,rrhf)
 ----------------------------------------------------------------------
 -----
 title
 -----
 Symbolic Z-matrix:
 Charge =  0 Multiplicity = 1

 SCF Done:  E(RHF) =  -430.534678887     A.U. after   16 cycles
 Normal termination of Gaussian 16 at Tue Apr  8 22:38:01 2025.
 Gaussian 16:  ES64L-G16RevC.01  3-Jul-2019

 ----------------------------------------------------------------------
 #t hf aug-cc-pvdz iop(5/13=1,5/36=2,99/5=2) pseudo=read geom=check gue
 ss=(read,tcheck) scf=(maxcycle=1)
 ----------------------------------------------------------------------
 -----
 title
 -----
 Structure from the checkpoint file:  "BDE49_expt_1188_mol1.chk"
 Charge =  0 Multiplicity = 1

                         Standard orientation:
 ---------------------------------------------------------------------
 Center     Atomic      Atomic             Coordinates (Angstroms)
 Number     Number       Type             X           Y           Z
 ---------------------------------------------------------------------
      1          7           0       -1.916157   -1.174868    0.000040
      2          6           0       -2.477494    0.036670    0.000034
      3          6           0       -1.717677    1.205963   -0.000008
      4          7           0       -0.385032    1.171083   -0.000038
      5          6           0        0.183177   -0.039370   -0.000033
      6          6           0       -0.582402   -1.208169    0.000005
      7          1           0       -0.091930   -2.174178   -0.000003
      8          1           0       -3.562471    0.078317    0.000066
      9          1           0       -2.189728    2.183475   -0.000011
     10          6           0        1.692012   -0.133736   -0.000099
     11          8           0        2.257599   -1.213928    0.000040
     12          7           0        2.316483    1.067529    0.000013
     13          1           0        1.768172    1.913165    0.000020
     14          1           0        3.322409    1.096291    0.000107
 ---------------------------------------------------------------------

 SCF Done:  E(RHF) =  -430.962086910     A.U. after    2 cycles

 The electronic state is 1-A.
 Alpha  occ. eigenvalues --  -20.51920 -15.55442 -15.54392 -15.53216 -11.37353
 Alpha  occ. eigenvalues --  -11.30750 -11.30625 -11.30582 -11.30259  -1.46726
 Alpha  occ. eigenvalues --   -1.32569  -1.24766  -1.22417  -1.08369  -0.95576
 Alpha  occ. eigenvalues --   -0.93521  -0.85617  -0.79203  -0.77087  -0.73981
 Alpha  occ. eigenvalues --   -0.70233  -0.66105  -0.63267  -0.62737  -0.59263
 Alpha  occ. eigenvalues --   -0.58651  -0.56421  -0.48879  -0.47476  -0.44435
 Alpha  occ. eigenvalues --   -0.43402  -0.38159
 Alpha virt. eigenvalues --    0.02681   0.02734   0.03827   0.04199   0.05640
 Alpha virt. eigenvalues --    0.06653   0.06668   0.09023   0.10084   0.10242
 Alpha virt. eigenvalues --    0.10583   0.11338   0.11604   0.12931   0.13895

 Mulliken charges:
               1
     1  N    1.024269
     2  C   -0.546657
     3  C   -0.102901
     4  N    1.197445
     5  C   -0.369658
     6  C   -0.696858
     7  H   -0.142192
     8  H   -0.098201
     9  H   -0.153951
    10  C    0.417030
    11  O   -1.378133
    12  N    0.670248
    13  H    0.076471
    14  H    0.103086
 Sum of Mulliken charges =  -0.00000

 Dipole moment (field-independent basis, Debye):
    X=             -1.6230    Y=              3.6045    Z=             -0.0001  Tot=              3.9531

 Test job not archived.
 1\1\GINC-SE334\SP\RHF\Aug-CC-pVDZ\C5H5N3O1\OHZDE\08-Apr-2025\0\\#t hf
 aug-cc-pvdz iop(5/13=1,5/36=2,99/5=2) pseudo=read geom=check guess=(re
 ad,tcheck) scf=(maxcycle=1)\\title\\0,1\N,0,1.916157,-1.174868,-0.0000
 4\C,0,2.477494,0.03667,-0.000034\C,0,1.717677,1.205963,0.000008\N,0,0.
 385032,1.171083,0.000038\C,0,-0.183177,-0.03937,0.000033\C,0,0.582402,
 -1.208169,-0.000005\H,0,0.09193,-2.174178,0.000003\H,0,3.562471,0.0783
 17,-0.000066\H,0,2.189728,2.183475,0.000011\C,0,-1.692012,-0.133736,0.
 000099\O,0,-2.257599,-1.213928,-0.00004\N,0,-2.316483,1.067529,-0.0000

 Normal termination of Gaussian 16 at Tue Apr  8 22:38:07 2025.
