 Gaussian 16, Revision C.01,

 ----------------------------------------------------------------------
 #t hf aug-cc-pvdz symm=none int=(grid=ultrafine) guess=(read,tcheck) s
 table=(opt,rrhf)
 ----------------------------------------------------------------------
 -----
 title
 -----
 Symbolic Z-matrix:
 Charge =  0 Multiplicity = 1

 SCF Done:  E(RHF) =  -930.495299430     A.U. after   15 cycles
 Normal termination of Gaussian 16 at Tue Apr  8 23:31:14 2025.
 Gaussian 16:  ES64L-G16RevC.01  3-Jul-2019

 ----------------------------------------------------------------------
 #t hf aug-cc-pvdz iop(5/13=1,5/36=2,99/5=2) pseudo=read geom=check gue
 ss=(read,tcheck) scf=(maxcycle=1)
 ----------------------------------------------------------------------
 -----
 title
 -----
 Structure from the checkpoint file:  "BDE49_nonexpt_1396_mol1.chk"
 Charge =  0 Multiplicity = 1

                         Standard orientation:
 ---------------------------------------------------------------------
 Center     Atomic      Atomic             Coordinates (Angstroms)
 Number     Number       Type             X           Y           Z
 ---------------------------------------------------------------------
      1          6           0       -0.091721   -1.102952    1.376665
      2          6           0       -0.091721    0.241243    1.257818
      3         15           0        0.199888   -2.219695   -0.000000
      4          6           0       -0.091721   -1.102952   -1.376665
      5          6           0       -0.091721    0.241243   -1.257818
      6          6           0       -0.030347    0.975423    0.000000
      7          1           0       -0.142915   -1.549499    2.365217
      8          1           0       -0.152971    0.858044    2.148256
      9         16           0        0.061494    2.633228    0.000000
     10          1           0       -1.007074   -2.965361    0.000000
     11          1           0       -0.152971    0.858044   -2.148256
     12          1           0       -0.142915   -1.549499   -2.365217
 ---------------------------------------------------------------------

 SCF Done:  E(RHF) =  -930.790175208     A.U. after    2 cycles

 The electronic state is 1-A'.
 Alpha  occ. eigenvalues --  -93.92301 -84.30516 -11.33132 -11.28667 -11.28649
 Alpha  occ. eigenvalues --  -11.27468 -11.27462  -8.20444  -6.77786  -6.18256
 Alpha  occ. eigenvalues --   -6.18074  -6.17859  -4.30594  -4.30527  -4.29532
 Alpha  occ. eigenvalues --   -1.16853  -1.05963  -1.05382  -0.92500  -0.84386
 Alpha  occ. eigenvalues --   -0.82621  -0.69347  -0.66417  -0.66288  -0.62139
 Alpha  occ. eigenvalues --   -0.55442  -0.51857  -0.50640  -0.48562  -0.40655
 Alpha  occ. eigenvalues --   -0.40559  -0.34712  -0.31460
 Alpha virt. eigenvalues --    0.00525   0.02878   0.03289   0.04586   0.05586
 Alpha virt. eigenvalues --    0.06111   0.07241   0.08136   0.08796   0.09708
 Alpha virt. eigenvalues --    0.10055   0.11631   0.12457   0.12747   0.13302

 Mulliken charges:
               1
     1  C   -0.336920
     2  C    0.243397
     3  P    0.867539
     4  C   -0.336920
     5  C    0.243397
     6  C   -0.423959
     7  H   -0.235788
     8  H   -0.172963
     9  S   -0.069141
    10  H    0.630109
    11  H   -0.172963
    12  H   -0.235788
 Sum of Mulliken charges =   0.00000

 Dipole moment (field-independent basis, Debye):
    X=             -0.6763    Y=             -4.5456    Z=             -0.0000  Tot=              4.5956

 Test job not archived.
 1\1\GINC-SE128\SP\RHF\Aug-CC-pVDZ\C5H5P1S1\OHZDE\08-Apr-2025\0\\#t hf
 aug-cc-pvdz iop(5/13=1,5/36=2,99/5=2) pseudo=read geom=check guess=(re
 ad,tcheck) scf=(maxcycle=1)\\title\\0,1\C,0,-0.091721,-1.102952,1.3766
 65\C,0,-0.091721,0.241243,1.257818\P,0,0.199888,-2.219695,0.\C,0,-0.09
 1721,-1.102952,-1.376665\C,0,-0.091721,0.241243,-1.257818\C,0,-0.03034
 7,0.975423,0.\H,0,-0.142915,-1.549499,2.365217\H,0,-0.152971,0.858044,
 2.148256\S,0,0.061494,2.633228,0.\H,0,-1.007074,-2.965361,0.\H,0,-0.15
 2971,0.858044,-2.148256\H,0,-0.142915,-1.549499,-2.365217\\Version=ES6

 Normal termination of Gaussian 16 at Tue Apr  8 23:31:19 2025.
