 Gaussian 16, Revision C.01,

 ----------------------------------------------------------------------
 #t hf aug-cc-pvdz symm=none int=(grid=ultrafine) guess=(read,tcheck) s
 table=(opt,rrhf)
 ----------------------------------------------------------------------
 -----
 title
 -----
 Symbolic Z-matrix:
 Charge =  0 Multiplicity = 1

 SCF Done:  E(RHF) =  -608.673718757     A.U. after   15 cycles
 Normal termination of Gaussian 16 at Wed Apr  9 00:06:34 2025.
 Gaussian 16:  ES64L-G16RevC.01  3-Jul-2019

 ----------------------------------------------------------------------
 #t hf aug-cc-pvdz iop(5/13=1,5/36=2,99/5=2) pseudo=read geom=check gue
 ss=(read,tcheck) scf=(maxcycle=1)
 ----------------------------------------------------------------------
 -----
 title
 -----
 Structure from the checkpoint file:  "BDE49_nonexpt_2240_mol1.chk"
 Charge =  0 Multiplicity = 1

                         Standard orientation:
 ---------------------------------------------------------------------
 Center     Atomic      Atomic             Coordinates (Angstroms)
 Number     Number       Type             X           Y           Z
 ---------------------------------------------------------------------
      1          8           0        0.364090   -0.849281   -0.276203
      2          7           0        1.340580    0.112003    0.001549
      3          8           0        0.967385    1.085089    0.629677
      4          8           0        2.430876   -0.143193   -0.415942
      5         14           0       -1.241640   -0.569079    0.302157
      6          6           0       -2.056298    0.872777   -0.544681
      7          1           0       -1.583568    1.817046   -0.270700
      8          1           0       -3.109595    0.916557   -0.248489
      9          1           0       -2.018812    0.761141   -1.631444
     10          1           0       -1.202047   -0.434928    1.769181
     11          1           0       -1.848095   -1.854311   -0.091761
 ---------------------------------------------------------------------

 SCF Done:  E(RHF) =  -609.016071415     A.U. after    2 cycles

 The electronic state is 1-A.
 Alpha  occ. eigenvalues --  -69.58831 -20.63809 -20.62448 -20.61777 -15.86697
 Alpha  occ. eigenvalues --  -11.24063  -6.25441  -4.00912  -4.00744  -4.00707
 Alpha  occ. eigenvalues --   -1.73880  -1.56127  -1.50704  -0.99194  -0.96395
 Alpha  occ. eigenvalues --   -0.84399  -0.80698  -0.79569  -0.72207  -0.62098
 Alpha  occ. eigenvalues --   -0.59820  -0.57516  -0.56638  -0.53773  -0.50821
 Alpha  occ. eigenvalues --   -0.50089  -0.48929  -0.47823
 Alpha virt. eigenvalues --    0.03122   0.04135   0.04486   0.05091   0.06064
 Alpha virt. eigenvalues --    0.07418   0.07633   0.08049   0.10683   0.11889
 Alpha virt. eigenvalues --    0.13876   0.14338   0.14692   0.15534   0.16462

 Mulliken charges:
               1
     1  O   -1.471848
     2  N    2.779269
     3  O   -1.146816
     4  O   -1.108856
     5  Si   1.833051
     6  C   -0.670183
     7  H    0.103199
     8  H    0.019531
     9  H    0.092707
    10  H   -0.216493
    11  H   -0.213563
 Sum of Mulliken charges =  -0.00000

 Dipole moment (field-independent basis, Debye):
    X=             -3.4150    Y=             -0.1585    Z=             -0.0363  Tot=              3.4189

 Test job not archived.
 1\1\GINC-SE252\SP\RHF\Aug-CC-pVDZ\C1H5N1O3Si1\OHZDE\09-Apr-2025\0\\#t
 hf aug-cc-pvdz iop(5/13=1,5/36=2,99/5=2) pseudo=read geom=check guess=
 (read,tcheck) scf=(maxcycle=1)\\title\\0,1\O,0,0.36409,-0.849281,-0.27
 6203\N,0,1.34058,0.112003,0.001549\O,0,0.967385,1.085089,0.629677\O,0,
 2.430876,-0.143193,-0.415942\Si,0,-1.24164,-0.569079,0.302157\C,0,-2.0
 56298,0.872777,-0.544681\H,0,-1.583568,1.817046,-0.2707\H,0,-3.109595,
 0.916557,-0.248489\H,0,-2.018812,0.761141,-1.631444\H,0,-1.202047,-0.4
 34928,1.769181\H,0,-1.848095,-1.854311,-0.091761\\Version=ES64L-G16Rev

 Normal termination of Gaussian 16 at Wed Apr  9 00:06:38 2025.
