 Gaussian 16, Revision C.01,

 ----------------------------------------------------------------------
 #t hf aug-cc-pvdz symm=none int=(grid=ultrafine) guess=(read,tcheck) s
 table=(opt,rrhf)
 ----------------------------------------------------------------------
 -----
 title
 -----
 Symbolic Z-matrix:
 Charge =  0 Multiplicity = 1

 SCF Done:  E(RHF) =  -1646.53437710     A.U. after   15 cycles

 1\1\GINC-SE457\Stability\RHF\Aug-CC-pVDZ\C7H5Cl3\OHZDE\08-Apr-2025\0\\
 #t hf aug-cc-pvdz symm=none int=(grid=ultrafine) guess=(read,tcheck) s
 table=(opt,rrhf)\\title\\0,1\C,0,-0.301904,-1.208867,0.360729\C,0,1.05
 0681,-1.192097,0.042712\C,0,1.748497,0.000001,-0.120966\C,0,1.050679,1
 .192098,0.042712\C,0,-0.301905,1.208867,0.360729\C,0,-0.982906,-0.0000
 01,0.521354\H,0,-0.81809,-2.153124,0.477125\Cl,0,1.90636,-2.708616,-0.
 153265\C,0,-2.442023,-0.000002,0.867351\H,0,-0.818092,2.153123,0.47712
 5\H,0,-2.727125,-0.889032,1.424882\Cl,0,-3.497262,-0.000001,-0.627924\

 Normal termination of Gaussian 16 at Tue Apr  8 22:49:42 2025.
 Gaussian 16:  ES64L-G16RevC.01  3-Jul-2019

 ----------------------------------------------------------------------
 #t hf aug-cc-pvdz iop(5/13=1,5/36=2,99/5=2) pseudo=read geom=check gue
 ss=(read,tcheck) scf=(maxcycle=1)
 ----------------------------------------------------------------------
 -----
 title
 -----
 Structure from the checkpoint file:  "BDE49_expt_1697_mol1.chk"
 Charge =  0 Multiplicity = 1

                         Standard orientation:
 ---------------------------------------------------------------------
 Center     Atomic      Atomic             Coordinates (Angstroms)
 Number     Number       Type             X           Y           Z
 ---------------------------------------------------------------------
      1          6           0       -0.301904   -1.208867    0.360729
      2          6           0        1.050681   -1.192097    0.042712
      3          6           0        1.748497    0.000001   -0.120966
      4          6           0        1.050679    1.192098    0.042712
      5          6           0       -0.301905    1.208867    0.360729
      6          6           0       -0.982906   -0.000001    0.521354
      7          1           0       -0.818091   -2.153124    0.477125
      8         17           0        1.906359   -2.708616   -0.153265
      9          6           0       -2.442023   -0.000002    0.867351
     10          1           0       -0.818092    2.153123    0.477125
     11          1           0       -2.727125   -0.889031    1.424882
     12         17           0       -3.497262   -0.000000   -0.627924
     13          1           0       -2.727126    0.889028    1.424883
     14         17           0        1.906357    2.708618   -0.153265
     15          1           0        2.800994    0.000000   -0.366031
 ---------------------------------------------------------------------

 SCF Done:  E(RHF) =  -1647.03382147     A.U. after    2 cycles

 The electronic state is 1-A.
 Alpha  occ. eigenvalues -- -105.58807-105.58807-105.56665 -11.33483 -11.33475
 Alpha  occ. eigenvalues --  -11.32956 -11.29047 -11.28193 -11.27799 -11.27794
 Alpha  occ. eigenvalues --  -10.63597 -10.63597 -10.61425  -7.80567  -7.80565
 Alpha  occ. eigenvalues --   -7.80161  -7.80160  -7.80144  -7.80143  -7.78362
 Alpha  occ. eigenvalues --   -7.77987  -7.77980  -1.22216  -1.14101  -1.13940
 Alpha  occ. eigenvalues --   -1.07597  -1.02780  -1.00479  -0.93902  -0.84539
 Alpha  occ. eigenvalues --   -0.83534  -0.73452  -0.72089  -0.66201  -0.62935
 Alpha  occ. eigenvalues --   -0.62804  -0.62083  -0.60061  -0.57166  -0.55662
 Alpha  occ. eigenvalues --   -0.54680  -0.52783  -0.48764  -0.47653  -0.47502
 Alpha  occ. eigenvalues --   -0.45675  -0.45572  -0.37159  -0.36365
 Alpha virt. eigenvalues --    0.03128   0.03887   0.04195   0.05302   0.05992
 Alpha virt. eigenvalues --    0.06677   0.07573   0.07705   0.08940   0.09416
 Alpha virt. eigenvalues --    0.09580   0.10949   0.12439   0.12555   0.13747

 Mulliken charges:
               1
     1  C    0.244708
     2  C   -0.233036
     3  C    0.345527
     4  C   -0.233025
     5  C    0.244708
     6  C    1.639206
     7  H   -0.219339
     8  Cl  -0.315343
     9  C   -0.881028
    10  H   -0.219340
    11  H    0.064506
    12  Cl  -0.064941
    13  H    0.064507
    14  Cl  -0.315343
    15  H   -0.121767
 Sum of Mulliken charges =  -0.00000

 Dipole moment (field-independent basis, Debye):
    X=             -0.3192    Y=             -0.0000    Z=              1.9969  Tot=              2.0223

 Test job not archived.
 1\1\GINC-SE457\SP\RHF\Aug-CC-pVDZ\C7H5Cl3\OHZDE\08-Apr-2025\0\\#t hf a
 ug-cc-pvdz iop(5/13=1,5/36=2,99/5=2) pseudo=read geom=check guess=(rea
 d,tcheck) scf=(maxcycle=1)\\title\\0,1\C,0,-0.301904,-1.208867,0.36072
 9\C,0,1.050681,-1.192097,0.042712\C,0,1.748497,0.000001,-0.120966\C,0,
 1.050679,1.192098,0.042712\C,0,-0.301905,1.208867,0.360729\C,0,-0.9829
 06,-0.000001,0.521354\H,0,-0.81809,-2.153124,0.477125\Cl,0,1.90636,-2.
 708616,-0.153265\C,0,-2.442023,-0.000002,0.867351\H,0,-0.818092,2.1531
 23,0.477125\H,0,-2.727125,-0.889032,1.424882\Cl,0,-3.497262,-0.000001,

 Normal termination of Gaussian 16 at Tue Apr  8 22:49:51 2025.
