 Gaussian 16, Revision C.01,

 ----------------------------------------------------------------------
 #t hf aug-cc-pvdz symm=none int=(grid=ultrafine) guess=(read,tcheck) s
 table=(opt,rrhf)
 ----------------------------------------------------------------------
 -----
 title
 -----
 Symbolic Z-matrix:
 Charge =  0 Multiplicity = 1

 SCF Done:  E(RHF) =  -1290.33552423     A.U. after   17 cycles
 Normal termination of Gaussian 16 at Wed Apr  9 00:28:15 2025.
 Gaussian 16:  ES64L-G16RevC.01  3-Jul-2019

 ----------------------------------------------------------------------
 #t hf aug-cc-pvdz iop(5/13=1,5/36=2,99/5=2) pseudo=read geom=check gue
 ss=(read,tcheck) scf=(maxcycle=1)
 ----------------------------------------------------------------------
 -----
 title
 -----
 Structure from the checkpoint file:  "BDE49_nonexpt_2719_mol1.chk"
 Charge =  0 Multiplicity = 1

                         Standard orientation:
 ---------------------------------------------------------------------
 Center     Atomic      Atomic             Coordinates (Angstroms)
 Number     Number       Type             X           Y           Z
 ---------------------------------------------------------------------
      1          6           0       -3.152824    0.399572    0.565491
      2          8           0       -2.541870    0.721243    1.538335
      3         16           0       -2.519675   -0.803324   -0.680966
      4         16           0       -0.654866   -1.264631    0.066826
      5          6           0        0.313232    0.217965   -0.473624
      6          8           0       -0.221197    1.165480   -0.978346
      7          6           0       -4.505091    0.941185    0.160010
      8          1           0       -4.344169    1.851217   -0.425220
      9          1           0       -5.067222    1.198886    1.058221
     10          1           0       -5.069936    0.235323   -0.451170
     11          6           0        1.772156    0.136857   -0.177417
     12          6           0        2.513064    1.322518   -0.274595
     13          6           0        3.877027    1.315823   -0.014044
     14          6           0        4.514777    0.126096    0.338270
     15          6           0        3.784978   -1.057654    0.427929
     16          6           0        2.417720   -1.055001    0.171434
     17          1           0        1.999543    2.234078   -0.552849
     18          1           0        4.444661    2.236383   -0.085413
     19          1           0        5.579934    0.121249    0.540183
     20          1           0        4.280834   -1.983855    0.693496
     21          1           0        1.863311   -1.983970    0.228366
 ---------------------------------------------------------------------

 SCF Done:  E(RHF) =  -1290.94862408     A.U. after    2 cycles

 The electronic state is 1-A.
 Alpha  occ. eigenvalues --  -93.99151 -93.99098 -20.55845 -20.55730 -11.38563
 Alpha  occ. eigenvalues --  -11.38374 -11.27191 -11.27093 -11.26845 -11.26567
 Alpha  occ. eigenvalues --  -11.26479 -11.26089 -11.25943  -8.27172  -8.27118
 Alpha  occ. eigenvalues --   -6.24966  -6.24903  -6.24742  -6.24685  -6.24529
 Alpha  occ. eigenvalues --   -6.24480  -1.50232  -1.49983  -1.18027  -1.11985
 Alpha  occ. eigenvalues --   -1.06437  -1.04088  -1.03669  -0.95353  -0.88305
 Alpha  occ. eigenvalues --   -0.85495  -0.78915  -0.75208  -0.72587  -0.68253
 Alpha  occ. eigenvalues --   -0.67286  -0.65874  -0.65226  -0.64021  -0.62938
 Alpha  occ. eigenvalues --   -0.62126  -0.61008  -0.58699  -0.56873  -0.54631
 Alpha  occ. eigenvalues --   -0.53013  -0.52464  -0.51928  -0.49165  -0.43138
 Alpha  occ. eigenvalues --   -0.42625  -0.39205  -0.38172  -0.36504  -0.36437
 Alpha virt. eigenvalues --    0.02971   0.03576   0.03680   0.04457   0.05065
 Alpha virt. eigenvalues --    0.05325   0.05752   0.06474   0.07103   0.08440
 Alpha virt. eigenvalues --    0.08846   0.09276   0.10112   0.10506   0.10790

 Mulliken charges:
               1
     1  C    0.980772
     2  O   -1.198920
     3  S    0.116468
     4  S   -0.048173
     5  C   -0.143221
     6  O   -1.353357
     7  C   -0.527560
     8  H    0.302168
     9  H    0.191306
    10  H    0.221912
    11  C    2.351924
    12  C   -0.386295
    13  C    0.513700
    14  C   -0.075975
    15  C    0.183042
    16  C    0.031893
    17  H   -0.330506
    18  H   -0.211089
    19  H   -0.208348
    20  H   -0.239587
    21  H   -0.170155
 Sum of Mulliken charges =   0.00000

 Dipole moment (field-independent basis, Debye):
    X=              1.1067    Y=             -0.2704    Z=             -0.3702  Tot=              1.1979

 Test job not archived.
 1\1\GINC-SE462\SP\RHF\Aug-CC-pVDZ\C9H8O2S2\OHZDE\09-Apr-2025\0\\#t hf
 aug-cc-pvdz iop(5/13=1,5/36=2,99/5=2) pseudo=read geom=check guess=(re
 ad,tcheck) scf=(maxcycle=1)\\title\\0,1\C,0,-3.152824,0.399572,0.56549
 1\O,0,-2.54187,0.721243,1.538335\S,0,-2.519675,-0.803324,-0.680966\S,0
 ,-0.654866,-1.264631,0.066826\C,0,0.313232,0.217965,-0.473624\O,0,-0.2
 21197,1.16548,-0.978346\C,0,-4.505091,0.941185,0.16001\H,0,-4.344169,1
 .851217,-0.42522\H,0,-5.067222,1.198886,1.058221\H,0,-5.069936,0.23532
 3,-0.45117\C,0,1.772156,0.136857,-0.177417\C,0,2.513064,1.322518,-0.27

 Normal termination of Gaussian 16 at Wed Apr  9 00:28:30 2025.
