 Gaussian 16, Revision C.01,

 ----------------------------------------------------------------------
 #t hf aug-cc-pvdz symm=none int=(grid=ultrafine) guess=(read,tcheck) s
 table=(opt,rrhf)
 ----------------------------------------------------------------------
 -----
 title
 -----
 Symbolic Z-matrix:
 Charge =  0 Multiplicity = 1

 SCF Done:  E(RHF) =  -252.838457311     A.U. after   14 cycles
 Normal termination of Gaussian 16 at Tue Apr  8 23:19:50 2025.
 Gaussian 16:  ES64L-G16RevC.01  3-Jul-2019

 ----------------------------------------------------------------------
 #t hf aug-cc-pvdz iop(5/13=1,5/36=2,99/5=2) pseudo=read geom=check gue
 ss=(read,tcheck) scf=(maxcycle=1)
 ----------------------------------------------------------------------
 -----
 title
 -----
 Structure from the checkpoint file:  "BDE49_nonexpt_1121_mol1.chk"
 Charge =  0 Multiplicity = 1

                         Standard orientation:
 ---------------------------------------------------------------------
 Center     Atomic      Atomic             Coordinates (Angstroms)
 Number     Number       Type             X           Y           Z
 ---------------------------------------------------------------------
      1          9           0        1.395341   -0.594714    0.136129
      2          8           0        0.726427    0.590968   -0.370181
      3          6           0       -0.533674    0.624897    0.289336
      4          6           0       -1.464676   -0.505330   -0.114896
      5          1           0       -0.372447    0.668005    1.371299
      6          1           0       -1.604610   -0.519372   -1.197832
      7          1           0       -2.439794   -0.375775    0.362544
      8          1           0       -1.054505   -1.466645    0.196355
      9          1           0       -0.908029    1.601067   -0.042718
 ---------------------------------------------------------------------

 SCF Done:  E(RHF) =  -253.090023078     A.U. after    2 cycles

 The electronic state is 1-A.
 Alpha  occ. eigenvalues --  -26.49054 -20.66960 -11.31475 -11.24335  -1.64192
 Alpha  occ. eigenvalues --   -1.36144  -1.03319  -0.86776  -0.71104  -0.70810
 Alpha  occ. eigenvalues --   -0.67527  -0.61224  -0.59175  -0.56816  -0.54550
 Alpha  occ. eigenvalues --   -0.51990  -0.47684
 Alpha virt. eigenvalues --    0.03435   0.04391   0.04559   0.05851   0.07575
 Alpha virt. eigenvalues --    0.10948   0.11976   0.13528   0.13725   0.15737
 Alpha virt. eigenvalues --    0.16533   0.16749   0.18108   0.19903   0.22659

 Mulliken charges:
               1
     1  F   -0.437957
     2  O   -0.459984
     3  C    0.514413
     4  C   -0.430880
     5  H    0.166444
     6  H    0.180631
     7  H    0.183838
     8  H    0.197232
     9  H    0.086263
 Sum of Mulliken charges =  -0.00000

 Dipole moment (field-independent basis, Debye):
    X=             -2.5375    Y=              0.6939    Z=              0.6047  Tot=              2.6993

 Test job not archived.
 1\1\GINC-SE424\SP\RHF\Aug-CC-pVDZ\C2H5F1O1\OHZDE\08-Apr-2025\0\\#t hf
 aug-cc-pvdz iop(5/13=1,5/36=2,99/5=2) pseudo=read geom=check guess=(re
 ad,tcheck) scf=(maxcycle=1)\\title\\0,1\F,0,1.395341,-0.594714,0.13612
 9\O,0,0.726427,0.590968,-0.370181\C,0,-0.533674,0.624897,0.289336\C,0,
 -1.464676,-0.50533,-0.114896\H,0,-0.372447,0.668005,1.371299\H,0,-1.60
 461,-0.519372,-1.197832\H,0,-2.439794,-0.375775,0.362544\H,0,-1.054505
 ,-1.466645,0.196355\H,0,-0.908029,1.601067,-0.042718\\Version=ES64L-G1
 6RevC.01\State=1-A\HF=-253.0900231\RMSD=7.699e-03\Dipole=-0.9983411,0.

 Normal termination of Gaussian 16 at Tue Apr  8 23:19:52 2025.
