 Gaussian 16, Revision C.01,

 ----------------------------------------------------------------------
 #t hf aug-cc-pvdz symm=none int=(grid=ultrafine) guess=(read,tcheck) s
 table=(opt,rrhf)
 ----------------------------------------------------------------------
 -----
 title
 -----
 Symbolic Z-matrix:
 Charge =  0 Multiplicity = 1

 SCF Done:  E(RHF) =  -923.023525243     A.U. after   13 cycles
 Normal termination of Gaussian 16 at Tue Apr  8 23:05:59 2025.
 Gaussian 16:  ES64L-G16RevC.01  3-Jul-2019

 ----------------------------------------------------------------------
 #t hf aug-cc-pvdz iop(5/13=1,5/36=2,99/5=2) pseudo=read geom=check gue
 ss=(read,tcheck) scf=(maxcycle=1)
 ----------------------------------------------------------------------
 -----
 title
 -----
 Structure from the checkpoint file:  "BDE49_expt_391_mol1.chk"
 Charge =  0 Multiplicity = 1

                         Standard orientation:
 ---------------------------------------------------------------------
 Center     Atomic      Atomic             Coordinates (Angstroms)
 Number     Number       Type             X           Y           Z
 ---------------------------------------------------------------------
      1          6           0        1.426986    1.467504    0.000000
      2         16           0        0.847443   -0.226754    0.000000
      3          1           0        1.072934    1.961663   -0.903148
      4          1           0        2.515770    1.400800    0.000001
      5          1           0        1.072933    1.961663    0.903148
      6          6           0       -1.014815    0.035083    0.000000
      7          9           0       -1.378198    0.725537    1.087224
      8          9           0       -1.620360   -1.146083   -0.000001
      9          9           0       -1.378197    0.725538   -1.087224
     10          8           0        1.168564   -0.841032    1.263620
     11          8           0        1.168565   -0.841032   -1.263619
 ---------------------------------------------------------------------

 SCF Done:  E(RHF) =  -923.582690312     A.U. after    2 cycles

 The electronic state is 1-A.
 Alpha  occ. eigenvalues --  -94.23072 -26.54827 -26.54825 -26.54579 -20.57097
 Alpha  occ. eigenvalues --  -20.57095 -11.56811 -11.31660  -8.48422  -6.46521
 Alpha  occ. eigenvalues --   -6.46285  -6.46227  -1.75800  -1.65723  -1.65613
 Alpha  occ. eigenvalues --   -1.59136  -1.47392  -1.10815  -1.01658  -0.91568
 Alpha  occ. eigenvalues --   -0.85102  -0.85063  -0.81465  -0.73017  -0.72740
 Alpha  occ. eigenvalues --   -0.70027  -0.68973  -0.68859  -0.67685  -0.67409
 Alpha  occ. eigenvalues --   -0.65886  -0.63635  -0.62711  -0.52574  -0.52176
 Alpha  occ. eigenvalues --   -0.49553  -0.46908
 Alpha virt. eigenvalues --    0.02847   0.04882   0.05045   0.07663   0.09453
 Alpha virt. eigenvalues --    0.10582   0.10665   0.11673   0.12491   0.14582
 Alpha virt. eigenvalues --    0.14956   0.15682   0.15814   0.17877   0.19740

 Mulliken charges:
               1
     1  C   -0.780101
     2  S    3.297847
     3  H    0.242240
     4  H    0.267006
     5  H    0.242241
     6  C    1.939915
     7  F   -0.729803
     8  F   -0.685862
     9  F   -0.729803
    10  O   -1.531840
    11  O   -1.531840
 Sum of Mulliken charges =  -0.00000

 Dipole moment (field-independent basis, Debye):
    X=              0.2422    Y=              4.1337    Z=             -0.0000  Tot=              4.1408

 Test job not archived.
 1\1\GINC-SE120\SP\RHF\Aug-CC-pVDZ\C2H3F3O2S1\OHZDE\08-Apr-2025\0\\#t h
 f aug-cc-pvdz iop(5/13=1,5/36=2,99/5=2) pseudo=read geom=check guess=(
 read,tcheck) scf=(maxcycle=1)\\title\\0,1\C,0,1.426986,1.467504,0.\S,0
 ,0.847443,-0.226754,0.\H,0,1.072934,1.961663,-0.903148\H,0,2.51577,1.4
 008,0.000001\H,0,1.072933,1.961663,0.903148\C,0,-1.014815,0.035083,0.\
 F,0,-1.378198,0.725537,1.087224\F,0,-1.62036,-1.146083,-0.000001\F,0,-
 1.378197,0.725538,-1.087224\O,0,1.168564,-0.841032,1.26362\O,0,1.16856
 5,-0.841032,-1.263619\\Version=ES64L-G16RevC.01\State=1-A\HF=-923.5826

 Normal termination of Gaussian 16 at Tue Apr  8 23:06:05 2025.
