 Gaussian 16, Revision C.01,

 ----------------------------------------------------------------------
 #t hf aug-cc-pvdz symm=none int=(grid=ultrafine) guess=(read,tcheck) s
 table=(opt,rrhf)
 ----------------------------------------------------------------------
 -----
 title
 -----
 Symbolic Z-matrix:
 Charge =  0 Multiplicity = 1

 SCF Done:  E(RHF) =  -840.987698646     A.U. after   17 cycles
 Normal termination of Gaussian 16 at Wed Apr  9 00:24:48 2025.
 Gaussian 16:  ES64L-G16RevC.01  3-Jul-2019

 ----------------------------------------------------------------------
 #t hf aug-cc-pvdz iop(5/13=1,5/36=2,99/5=2) pseudo=read geom=check gue
 ss=(read,tcheck) scf=(maxcycle=1)
 ----------------------------------------------------------------------
 -----
 title
 -----
 Structure from the checkpoint file:  "BDE49_nonexpt_2695_mol1.chk"
 Charge =  0 Multiplicity = 1

                         Standard orientation:
 ---------------------------------------------------------------------
 Center     Atomic      Atomic             Coordinates (Angstroms)
 Number     Number       Type             X           Y           Z
 ---------------------------------------------------------------------
      1          9           0       -2.398221   -1.601263    0.639308
      2         16           0       -2.478807   -0.246044   -0.355134
      3          6           0       -0.866709    0.418309   -0.098415
      4          6           0        0.263020   -0.412666   -0.135770
      5          6           0        1.527401    0.154957    0.002598
      6          6           0        1.660107    1.548841    0.122752
      7          6           0       -0.744415    1.798641    0.059561
      8          1           0       -1.626938    2.421580    0.131655
      9          6           0        0.534866    2.355499    0.139318
     10          1           0        0.646820    3.428060    0.248482
     11          1           0        2.656679    1.963253    0.210984
     12          1           0        0.127180   -1.477568   -0.255694
     13          8           0        2.690277   -0.548348    0.010811
     14          6           0        2.628208   -1.965458   -0.105365
     15          1           0        2.185508   -2.269291   -1.060062
     16          1           0        2.059240   -2.409100    0.718486
     17          1           0        3.659326   -2.310828   -0.060029
 ---------------------------------------------------------------------

 SCF Done:  E(RHF) =  -841.485520199     A.U. after    2 cycles

 The electronic state is 1-A.
 Alpha  occ. eigenvalues --  -94.03864 -26.46636 -20.58408 -11.32397 -11.30385
 Alpha  occ. eigenvalues --  -11.29380 -11.26355 -11.25881 -11.25748 -11.25350
 Alpha  occ. eigenvalues --   -8.31136  -6.28937  -6.28645  -6.28355  -1.56323
 Alpha  occ. eigenvalues --   -1.50896  -1.17903  -1.07896  -1.03653  -0.98397
 Alpha  occ. eigenvalues --   -0.94854  -0.84606  -0.82902  -0.73875  -0.70001
 Alpha  occ. eigenvalues --   -0.68943  -0.66683  -0.65908  -0.64770  -0.64383
 Alpha  occ. eigenvalues --   -0.62476  -0.60169  -0.56896  -0.54896  -0.54132
 Alpha  occ. eigenvalues --   -0.52724  -0.49201  -0.48567  -0.41224  -0.35161
 Alpha  occ. eigenvalues --   -0.33001
 Alpha virt. eigenvalues --    0.03328   0.03377   0.04216   0.04759   0.05339
 Alpha virt. eigenvalues --    0.05787   0.06255   0.08112   0.08908   0.09200
 Alpha virt. eigenvalues --    0.10333   0.10721   0.12148   0.12377   0.13281

 Mulliken charges:
               1
     1  F   -0.687906
     2  S    0.625348
     3  C    0.757216
     4  C   -0.470718
     5  C    2.058598
     6  C   -0.231588
     7  C   -0.252074
     8  H   -0.205467
     9  C    0.684188
    10  H   -0.208673
    11  H   -0.263429
    12  H   -0.352157
    13  O   -1.884287
    14  C    0.096770
    15  H    0.188548
    16  H    0.190477
    17  H   -0.044847
 Sum of Mulliken charges =  -0.00000

 Dipole moment (field-independent basis, Debye):
    X=              1.8599    Y=              0.5237    Z=             -0.5385  Tot=              2.0059

 Test job not archived.
 1\1\GINC-SE455\SP\RHF\Aug-CC-pVDZ\C7H7F1O1S1\OHZDE\09-Apr-2025\0\\#t h
 f aug-cc-pvdz iop(5/13=1,5/36=2,99/5=2) pseudo=read geom=check guess=(
 read,tcheck) scf=(maxcycle=1)\\title\\0,1\F,0,-2.398221,-1.601263,0.63
 9308\S,0,-2.478807,-0.246044,-0.355134\C,0,-0.866709,0.418309,-0.09841
 5\C,0,0.26302,-0.412666,-0.13577\C,0,1.527401,0.154957,0.002598\C,0,1.
 660107,1.548841,0.122752\C,0,-0.744415,1.798641,0.059561\H,0,-1.626938
 ,2.42158,0.131655\C,0,0.534866,2.355499,0.139318\H,0,0.64682,3.42806,0
 .248482\H,0,2.656679,1.963253,0.210984\H,0,0.12718,-1.477568,-0.255694

 Normal termination of Gaussian 16 at Wed Apr  9 00:24:57 2025.
