 Gaussian 16, Revision C.01,

 ----------------------------------------------------------------------
 #t hf aug-cc-pvdz symm=none int=(grid=ultrafine) guess=(read,tcheck) s
 table=(opt,rrhf)
 ----------------------------------------------------------------------
 -----
 title
 -----
 Symbolic Z-matrix:
 Charge =  0 Multiplicity = 1

 SCF Done:  E(RHF) =  -744.688557068     A.U. after   14 cycles
 Normal termination of Gaussian 16 at Tue Apr  8 22:51:10 2025.
 Gaussian 16:  ES64L-G16RevC.01  3-Jul-2019

 ----------------------------------------------------------------------
 #t hf aug-cc-pvdz iop(5/13=1,5/36=2,99/5=2) pseudo=read geom=check gue
 ss=(read,tcheck) scf=(maxcycle=1)
 ----------------------------------------------------------------------
 -----
 title
 -----
 Structure from the checkpoint file:  "BDE49_expt_1728_mol1.chk"
 Charge =  0 Multiplicity = 1

                         Standard orientation:
 ---------------------------------------------------------------------
 Center     Atomic      Atomic             Coordinates (Angstroms)
 Number     Number       Type             X           Y           Z
 ---------------------------------------------------------------------
      1          6           0        2.004844   -1.139734   -0.172619
      2          6           0        0.674016   -1.193821    0.232026
      3          7           0        2.673022   -0.000008   -0.374135
      4          6           0        2.004853    1.139726   -0.172630
      5          6           0        0.674026    1.193827    0.232014
      6          6           0       -0.016952    0.000007    0.443087
      7          1           0        2.562769   -2.056718   -0.340134
      8          1           0        0.186525   -2.151483    0.376827
      9          1           0        2.562785    2.056703   -0.340153
     10          1           0        0.186542    2.151494    0.376807
     11          6           0       -1.447894    0.000015    0.888667
     12         17           0       -2.598634   -0.000006   -0.534329
     13          1           0       -1.695177    0.890007    1.462945
     14          1           0       -1.695179   -0.889960    1.462972
 ---------------------------------------------------------------------

 SCF Done:  E(RHF) =  -745.056962959     A.U. after    2 cycles

 The electronic state is 1-A.
 Alpha  occ. eigenvalues -- -105.56483 -15.51351 -11.32561 -11.28964 -11.28963
 Alpha  occ. eigenvalues --  -11.28530 -11.25902 -11.25891 -10.61240  -7.78177
 Alpha  occ. eigenvalues --   -7.77801  -7.77794  -1.26785  -1.14743  -1.07069
 Alpha  occ. eigenvalues --   -1.04795  -0.94252  -0.89003  -0.84279  -0.72934
 Alpha  occ. eigenvalues --   -0.71826  -0.67197  -0.63068  -0.61598  -0.61459
 Alpha  occ. eigenvalues --   -0.58406  -0.55379  -0.54089  -0.47006  -0.45356
 Alpha  occ. eigenvalues --   -0.45281  -0.40448  -0.36677
 Alpha virt. eigenvalues --    0.03153   0.03623   0.03645   0.05191   0.05840
 Alpha virt. eigenvalues --    0.05962   0.07655   0.07913   0.09433   0.09846
 Alpha virt. eigenvalues --    0.11435   0.12089   0.12102   0.12813   0.14112

 Mulliken charges:
               1
     1  C   -1.217552
     2  C    0.832143
     3  N    1.117078
     4  C   -1.217545
     5  C    0.832151
     6  C    0.956602
     7  H   -0.181791
     8  H   -0.236774
     9  H   -0.181793
    10  H   -0.236774
    11  C   -0.588533
    12  Cl  -0.072030
    13  H    0.097407
    14  H    0.097411
 Sum of Mulliken charges =  -0.00000

 Dipole moment (field-independent basis, Debye):
    X=             -1.0165    Y=              0.0000    Z=              2.2759  Tot=              2.4925

 Test job not archived.
 1\1\GINC-SE092\SP\RHF\Aug-CC-pVDZ\C6H6Cl1N1\OHZDE\08-Apr-2025\0\\#t hf
  aug-cc-pvdz iop(5/13=1,5/36=2,99/5=2) pseudo=read geom=check guess=(r
 ead,tcheck) scf=(maxcycle=1)\\title\\0,1\C,0,2.004844,-1.139734,-0.172
 619\C,0,0.674016,-1.193821,0.232026\N,0,2.673022,-0.000008,-0.374135\C
 ,0,2.004853,1.139726,-0.17263\C,0,0.674026,1.193827,0.232014\C,0,-0.01
 6952,0.000007,0.443087\H,0,2.562769,-2.056718,-0.340134\H,0,0.186525,-
 2.151483,0.376827\H,0,2.562785,2.056703,-0.340153\H,0,0.186542,2.15149
 4,0.376807\C,0,-1.447894,0.000015,0.888667\Cl,0,-2.598634,-0.000006,-0

 Normal termination of Gaussian 16 at Tue Apr  8 22:51:16 2025.
