 Gaussian 16, Revision C.01,

 ----------------------------------------------------------------------
 #t hf aug-cc-pvdz symm=none int=(grid=ultrafine) guess=(read,tcheck) s
 table=(opt,rrhf)
 ----------------------------------------------------------------------
 -----
 title
 -----
 Symbolic Z-matrix:
 Charge =  0 Multiplicity = 1

 SCF Done:  E(RHF) =  -779.211823707     A.U. after   11 cycles

 1\1\GINC-SE457\Stability\RHF\Aug-CC-pVDZ\F2H4Si2\OHZDE\08-Apr-2025\0\\
 #t hf aug-cc-pvdz symm=none int=(grid=ultrafine) guess=(read,tcheck) s
 table=(opt,rrhf)\\title\\0,1\Si,0,-1.290487,1.178755,0.\Si,0,0.662582,
 -0.133092,0.\F,0,0.662582,-1.089376,1.289864\F,0,0.662582,-1.089376,-1
 .289864\H,0,1.945884,0.594482,0.\H,0,-2.483906,0.303131,0.\H,0,-1.2988
 96,2.035934,-1.208218\H,0,-1.298896,2.035934,1.208218\\Version=ES64L-G
 16RevC.01\HF=-779.2118237\RMSD=2.423e-09\Dipole=-0.182697,0.8129909,0.
 \Quadrupole=1.7138277,-0.3250239,-1.3888038,0.8403658,0.,0.\PG=Unknown

 Normal termination of Gaussian 16 at Tue Apr  8 23:56:20 2025.
 Gaussian 16:  ES64L-G16RevC.01  3-Jul-2019

 ----------------------------------------------------------------------
 #t hf aug-cc-pvdz iop(5/13=1,5/36=2,99/5=2) pseudo=read geom=check gue
 ss=(read,tcheck) scf=(maxcycle=1)
 ----------------------------------------------------------------------
 -----
 title
 -----
 Structure from the checkpoint file:  "BDE49_nonexpt_2019_mol1.chk"
 Charge =  0 Multiplicity = 1

                         Standard orientation:
 ---------------------------------------------------------------------
 Center     Atomic      Atomic             Coordinates (Angstroms)
 Number     Number       Type             X           Y           Z
 ---------------------------------------------------------------------
      1         14           0       -1.290487    1.178755    0.000000
      2         14           0        0.662582   -0.133092   -0.000000
      3          9           0        0.662582   -1.089376    1.289864
      4          9           0        0.662582   -1.089376   -1.289864
      5          1           0        1.945884    0.594482   -0.000000
      6          1           0       -2.483906    0.303131    0.000000
      7          1           0       -1.298896    2.035934   -1.208218
      8          1           0       -1.298896    2.035934    1.208218
 ---------------------------------------------------------------------

 SCF Done:  E(RHF) =  -779.460728769     A.U. after    2 cycles

 The electronic state is 1-A'.
 Alpha  occ. eigenvalues --  -69.62969 -69.54520 -26.46434 -26.46433  -6.29160
 Alpha  occ. eigenvalues --   -6.21796  -4.04550  -4.04387  -4.04205  -3.97149
 Alpha  occ. eigenvalues --   -3.97137  -3.97135  -1.58807  -1.56541  -0.81154
 Alpha  occ. eigenvalues --   -0.75245  -0.69718  -0.67995  -0.66511  -0.63622
 Alpha  occ. eigenvalues --   -0.61736  -0.56614  -0.51022  -0.50991  -0.43501
 Alpha virt. eigenvalues --    0.03569   0.04443   0.05395   0.05502   0.07096
 Alpha virt. eigenvalues --    0.07482   0.07641   0.08472   0.08582   0.10301
 Alpha virt. eigenvalues --    0.12735   0.13367   0.15180   0.15964   0.17740

 Mulliken charges:
               1
     1  Si   0.247508
     2  Si   1.938446
     3  F   -0.794165
     4  F   -0.794165
     5  H   -0.189972
     6  H   -0.117490
     7  H   -0.145081
     8  H   -0.145081
 Sum of Mulliken charges =  -0.00000

 Dipole moment (field-independent basis, Debye):
    X=             -0.4757    Y=              1.9014    Z=              0.0000  Tot=              1.9600

 Test job not archived.
 1\1\GINC-SE457\SP\RHF\Aug-CC-pVDZ\F2H4Si2\OHZDE\08-Apr-2025\0\\#t hf a
 ug-cc-pvdz iop(5/13=1,5/36=2,99/5=2) pseudo=read geom=check guess=(rea
 d,tcheck) scf=(maxcycle=1)\\title\\0,1\Si,0,-1.290487,1.178755,0.\Si,0
 ,0.662582,-0.133092,0.\F,0,0.662582,-1.089376,1.289864\F,0,0.662582,-1
 .089376,-1.289864\H,0,1.945884,0.594482,0.\H,0,-2.483906,0.303131,0.\H
 ,0,-1.298896,2.035934,-1.208218\H,0,-1.298896,2.035934,1.208218\\Versi
 on=ES64L-G16RevC.01\State=1-A'\HF=-779.4607288\RMSD=3.372e-03\Dipole=-
 0.1871647,0.748069,0.\Quadrupole=1.638331,-0.3180363,-1.3202947,0.7064

 Normal termination of Gaussian 16 at Tue Apr  8 23:56:22 2025.
