 Gaussian 16, Revision C.01,

 ----------------------------------------------------------------------
 #t hf aug-cc-pvdz symm=none int=(grid=ultrafine) guess=(read,tcheck) s
 table=(opt,rrhf)
 ----------------------------------------------------------------------
 -----
 title
 -----
 Symbolic Z-matrix:
 Charge =  0 Multiplicity = 1

 SCF Done:  E(RHF) =  -731.359471730     A.U. after   12 cycles
 Normal termination of Gaussian 16 at Wed Apr  9 00:20:32 2025.
 Gaussian 16:  ES64L-G16RevC.01  3-Jul-2019

 ----------------------------------------------------------------------
 #t hf aug-cc-pvdz iop(5/13=1,5/36=2,99/5=2) pseudo=read geom=check gue
 ss=(read,tcheck) scf=(maxcycle=1)
 ----------------------------------------------------------------------
 -----
 title
 -----
 Structure from the checkpoint file:  "BDE49_nonexpt_260_mol1.chk"
 Charge =  0 Multiplicity = 1

                         Standard orientation:
 ---------------------------------------------------------------------
 Center     Atomic      Atomic             Coordinates (Angstroms)
 Number     Number       Type             X           Y           Z
 ---------------------------------------------------------------------
      1         17           0        2.394170    0.003225    0.067491
      2          8           0       -0.015449   -1.226566   -0.039862
      3          7           0       -0.101985    1.196405   -0.109383
      4          6           0       -2.128136   -0.058336    0.414135
      5          6           0       -1.563851    1.251905   -0.141388
      6          6           0       -1.439941   -1.263932   -0.220787
      7          5           0        0.600096   -0.014042   -0.037849
      8          1           0       -1.787049   -2.195406    0.229380
      9          1           0       -1.650746   -1.307659   -1.295777
     10          1           0       -3.205037   -0.113414    0.230168
     11          1           0       -1.975131   -0.090963    1.497649
     12          1           0        0.388441    2.075341   -0.143013
     13          1           0       -1.916760    2.093774    0.461935
     14          1           0       -1.926031    1.413583   -1.165636
 ---------------------------------------------------------------------

 SCF Done:  E(RHF) =  -731.717190138     A.U. after    2 cycles

 The electronic state is 1-A.
 Alpha  occ. eigenvalues -- -105.53891 -20.55079 -15.49805 -11.30195 -11.28278
 Alpha  occ. eigenvalues --  -11.25053 -10.58871  -7.75770  -7.75491  -7.75481
 Alpha  occ. eigenvalues --   -7.66480  -1.47139  -1.20978  -1.07039  -1.02722
 Alpha  occ. eigenvalues --   -0.93434  -0.84632  -0.76179  -0.70436  -0.67232
 Alpha  occ. eigenvalues --   -0.65078  -0.62673  -0.61192  -0.56606  -0.56099
 Alpha  occ. eigenvalues --   -0.51888  -0.49210  -0.47599  -0.45193  -0.44671
 Alpha  occ. eigenvalues --   -0.42618
 Alpha virt. eigenvalues --    0.02972   0.03690   0.03937   0.04513   0.06083
 Alpha virt. eigenvalues --    0.06262   0.06424   0.06909   0.07286   0.09445
 Alpha virt. eigenvalues --    0.11462   0.12962   0.13499   0.14210   0.14712

 Mulliken charges:
               1
     1  Cl  -0.442668
     2  O   -1.256929
     3  N    0.533448
     4  C   -0.472491
     5  C   -0.495149
     6  C    0.766599
     7  B    0.659163
     8  H    0.031924
     9  H    0.169118
    10  H    0.163727
    11  H    0.157604
    12  H    0.028194
    13  H    0.067147
    14  H    0.090313
 Sum of Mulliken charges =  -0.00000

 Dipole moment (field-independent basis, Debye):
    X=             -4.0303    Y=              1.4784    Z=             -0.2325  Tot=              4.2992

 Test job not archived.
 1\1\GINC-SE143\SP\RHF\Aug-CC-pVDZ\C3H7B1Cl1N1O1\OHZDE\09-Apr-2025\0\\#
 t hf aug-cc-pvdz iop(5/13=1,5/36=2,99/5=2) pseudo=read geom=check gues
 s=(read,tcheck) scf=(maxcycle=1)\\title\\0,1\Cl,0,2.39417,0.003225,0.0
 67491\O,0,-0.015449,-1.226566,-0.039862\N,0,-0.101985,1.196405,-0.1093
 83\C,0,-2.128136,-0.058336,0.414135\C,0,-1.563851,1.251905,-0.141388\C
 ,0,-1.439941,-1.263932,-0.220787\B,0,0.600096,-0.014042,-0.037849\H,0,
 -1.787049,-2.195406,0.22938\H,0,-1.650746,-1.307659,-1.295777\H,0,-3.2
 05037,-0.113414,0.230168\H,0,-1.975131,-0.090963,1.497649\H,0,0.388441

 Normal termination of Gaussian 16 at Wed Apr  9 00:20:38 2025.
