 Gaussian 16, Revision C.01,

 ----------------------------------------------------------------------
 #t hf aug-cc-pvdz symm=none int=(grid=ultrafine) guess=(read,tcheck) s
 table=(opt,rrhf)
 ----------------------------------------------------------------------
 -----
 title
 -----
 Symbolic Z-matrix:
 Charge =  0 Multiplicity = 1

 SCF Done:  E(RHF) =  -271.207996446     A.U. after   12 cycles

 1\1\GINC-SE009\Stability\RHF\Aug-CC-pVDZ\C5H12O1\OHZDE\08-Apr-2025\0\\
 #t hf aug-cc-pvdz symm=none int=(grid=ultrafine) guess=(read,tcheck) s
 table=(opt,rrhf)\\title\\0,1\C,0,2.928052,-0.378828,-0.122899\C,0,1.46
 9162,-0.384006,0.340667\H,0,3.476719,-1.235146,0.278633\H,0,3.446756,0
 .529228,0.201489\H,0,2.995264,-0.424803,-1.214382\C,0,0.664842,0.80344
 5,-0.199902\H,0,1.432381,-0.372035,1.437227\H,0,0.980248,-1.310006,0.0
 26182\C,0,-0.798495,0.791449,0.217472\H,0,0.710346,0.813088,-1.294988\
 H,0,1.111662,1.744825,0.143005\O,0,-1.423899,-0.356623,-0.333222\H,0,-

 Normal termination of Gaussian 16 at Tue Apr  8 22:41:56 2025.
 Gaussian 16:  ES64L-G16RevC.01  3-Jul-2019

 ----------------------------------------------------------------------
 #t hf aug-cc-pvdz iop(5/13=1,5/36=2,99/5=2) pseudo=read geom=check gue
 ss=(read,tcheck) scf=(maxcycle=1)
 ----------------------------------------------------------------------
 -----
 title
 -----
 Structure from the checkpoint file:  "BDE49_expt_1375_mol1.chk"
 Charge =  0 Multiplicity = 1

                         Standard orientation:
 ---------------------------------------------------------------------
 Center     Atomic      Atomic             Coordinates (Angstroms)
 Number     Number       Type             X           Y           Z
 ---------------------------------------------------------------------
      1          6           0        2.928052   -0.378828   -0.122899
      2          6           0        1.469162   -0.384006    0.340667
      3          1           0        3.476719   -1.235146    0.278633
      4          1           0        3.446756    0.529228    0.201489
      5          1           0        2.995264   -0.424803   -1.214382
      6          6           0        0.664842    0.803445   -0.199902
      7          1           0        1.432381   -0.372035    1.437227
      8          1           0        0.980248   -1.310006    0.026182
      9          6           0       -0.798495    0.791449    0.217472
     10          1           0        0.710346    0.813088   -1.294988
     11          1           0        1.111662    1.744825    0.143005
     12          8           0       -1.423899   -0.356623   -0.333222
     13          1           0       -1.305936    1.701954   -0.138687
     14          1           0       -0.884303    0.776093    1.316936
     15          6           0       -2.783753   -0.470642    0.025746
     16          1           0       -2.910798   -0.555965    1.115156
     17          1           0       -3.169969   -1.374653   -0.446541
     18          1           0       -3.370032    0.391897   -0.324752
 ---------------------------------------------------------------------

 SCF Done:  E(RHF) =  -271.504476687     A.U. after    2 cycles

 The electronic state is 1-A.
 Alpha  occ. eigenvalues --  -20.53942 -11.27919 -11.27856 -11.22394 -11.22014
 Alpha  occ. eigenvalues --  -11.21836  -1.45595  -1.07049  -0.98637  -0.91443
 Alpha  occ. eigenvalues --   -0.85283  -0.78919  -0.66804  -0.66033  -0.63570
 Alpha  occ. eigenvalues --   -0.61420  -0.58064  -0.56701  -0.53113  -0.52244
 Alpha  occ. eigenvalues --   -0.49156  -0.47695  -0.46945  -0.46056  -0.41208
 Alpha virt. eigenvalues --    0.03716   0.03902   0.04032   0.04341   0.05892
 Alpha virt. eigenvalues --    0.06053   0.06298   0.07081   0.07846   0.08865
 Alpha virt. eigenvalues --    0.09239   0.10135   0.12825   0.13722   0.14375

 Mulliken charges:
               1
     1  C   -0.399713
     2  C   -0.228874
     3  H    0.119773
     4  H    0.162723
     5  H    0.172756
     6  C   -0.350643
     7  H    0.097334
     8  H    0.158204
     9  C    0.470831
    10  H    0.141688
    11  H    0.156355
    12  O   -1.216980
    13  H    0.098259
    14  H    0.139917
    15  C    0.173203
    16  H    0.166186
    17  H   -0.035226
    18  H    0.174205
 Sum of Mulliken charges =   0.00000

 Dipole moment (field-independent basis, Debye):
    X=             -0.6237    Y=              0.7511    Z=              0.7157  Tot=              1.2105

 Test job not archived.
 1\1\GINC-SE009\SP\RHF\Aug-CC-pVDZ\C5H12O1\OHZDE\08-Apr-2025\0\\#t hf a
 ug-cc-pvdz iop(5/13=1,5/36=2,99/5=2) pseudo=read geom=check guess=(rea
 d,tcheck) scf=(maxcycle=1)\\title\\0,1\C,0,2.928052,-0.378828,-0.12289
 9\C,0,1.469162,-0.384006,0.340667\H,0,3.476719,-1.235146,0.278633\H,0,
 3.446756,0.529228,0.201489\H,0,2.995264,-0.424803,-1.214382\C,0,0.6648
 42,0.803445,-0.199902\H,0,1.432381,-0.372035,1.437227\H,0,0.980248,-1.
 310006,0.026182\C,0,-0.798495,0.791449,0.217472\H,0,0.710346,0.813088,
 -1.294988\H,0,1.111662,1.744825,0.143005\O,0,-1.423899,-0.356623,-0.33

 Normal termination of Gaussian 16 at Tue Apr  8 22:42:01 2025.
