 Gaussian 16, Revision C.01,

 ----------------------------------------------------------------------
 #t hf aug-cc-pvdz symm=none int=(grid=ultrafine) guess=(read,tcheck) s
 table=(opt,rrhf)
 ----------------------------------------------------------------------
 -----
 title
 -----
 Symbolic Z-matrix:
 Charge =  0 Multiplicity = 1

 SCF Done:  E(RHF) =  -798.236664204     A.U. after   12 cycles
 Normal termination of Gaussian 16 at Tue Apr  8 23:40:30 2025.
 Gaussian 16:  ES64L-G16RevC.01  3-Jul-2019

 ----------------------------------------------------------------------
 #t hf aug-cc-pvdz iop(5/13=1,5/36=2,99/5=2) pseudo=read geom=check gue
 ss=(read,tcheck) scf=(maxcycle=1)
 ----------------------------------------------------------------------
 -----
 title
 -----
 Structure from the checkpoint file:  "BDE49_nonexpt_1597_mol1.chk"
 Charge =  0 Multiplicity = 1

                         Standard orientation:
 ---------------------------------------------------------------------
 Center     Atomic      Atomic             Coordinates (Angstroms)
 Number     Number       Type             X           Y           Z
 ---------------------------------------------------------------------
      1          8           0       -0.091224    0.328008   -0.275631
      2         15           0       -1.595377   -0.106905   -0.050339
      3          8           0       -1.990814   -1.442346   -0.505460
      4          6           0        0.993367   -0.529918    0.172950
      5          6           0        2.308234    0.021606   -0.365102
      6          6           0        2.579349    1.440560    0.147373
      7          1           0        1.756656    2.112318   -0.102760
      8          1           0        3.496063    1.842702   -0.292308
      9          1           0        2.700961    1.444473    1.236128
     10          6           0        3.448154   -0.941585   -0.006514
     11          1           0        2.214748    0.057399   -1.457161
     12          1           0        3.565342   -1.027915    1.078940
     13          1           0        4.396882   -0.582163   -0.412365
     14          1           0        3.271950   -1.944202   -0.406732
     15          1           0        0.808391   -1.542557   -0.194275
     16          1           0        0.991813   -0.540381    1.268094
     17          8           0       -1.787164    0.168454    1.513309
     18          1           0       -2.531915   -0.329557    1.870058
     19          8           0       -2.385384    1.106819   -0.721312
     20          1           0       -2.678168    0.882011   -1.612023
 ---------------------------------------------------------------------

 SCF Done:  E(RHF) =  -798.751247540     A.U. after    2 cycles

 The electronic state is 1-A.
 Alpha  occ. eigenvalues --  -84.45559 -20.59490 -20.59380 -20.57816 -20.50593
 Alpha  occ. eigenvalues --  -11.30465 -11.24611 -11.23388 -11.22546  -6.90428
 Alpha  occ. eigenvalues --   -4.44636  -4.43980  -4.43930  -1.55986  -1.47912
 Alpha  occ. eigenvalues --   -1.47461  -1.38913  -1.09673  -0.95232  -0.93986
 Alpha  occ. eigenvalues --   -0.84827  -0.79495  -0.73785  -0.71991  -0.68277
 Alpha  occ. eigenvalues --   -0.66490  -0.63985  -0.62175  -0.60722  -0.58310
 Alpha  occ. eigenvalues --   -0.56803  -0.55843  -0.54772  -0.53836  -0.53105
 Alpha  occ. eigenvalues --   -0.50287  -0.49160  -0.48416  -0.47423  -0.45991
 Alpha  occ. eigenvalues --   -0.45384
 Alpha virt. eigenvalues --    0.03613   0.03675   0.03830   0.04322   0.05304
 Alpha virt. eigenvalues --    0.06082   0.06835   0.07154   0.07786   0.08608
 Alpha virt. eigenvalues --    0.09565   0.10862   0.11498   0.13078   0.14136

 Mulliken charges:
               1
     1  O   -2.017924
     2  P    4.405809
     3  O   -1.403238
     4  C    1.064341
     5  C   -1.669988
     6  C    0.010499
     7  H    0.162873
     8  H    0.136364
     9  H    0.222222
    10  C   -0.046146
    11  H    0.193639
    12  H    0.234992
    13  H    0.145760
    14  H    0.160990
    15  H    0.056367
    16  H    0.129507
    17  O   -1.239516
    18  H    0.319144
    19  O   -1.197467
    20  H    0.331770
 Sum of Mulliken charges =  -0.00000

 Dipole moment (field-independent basis, Debye):
    X=              1.0788    Y=              0.6475    Z=              0.4042  Tot=              1.3215

 Test job not archived.
 1\1\GINC-SE247\SP\RHF\Aug-CC-pVDZ\C4H11O4P1\OHZDE\08-Apr-2025\0\\#t hf
  aug-cc-pvdz iop(5/13=1,5/36=2,99/5=2) pseudo=read geom=check guess=(r
 ead,tcheck) scf=(maxcycle=1)\\title\\0,1\O,0,-0.091224,0.328008,-0.275
 631\P,0,-1.595377,-0.106905,-0.050339\O,0,-1.990814,-1.442346,-0.50546
 \C,0,0.993367,-0.529918,0.17295\C,0,2.308234,0.021606,-0.365102\C,0,2.
 579349,1.44056,0.147373\H,0,1.756656,2.112318,-0.10276\H,0,3.496063,1.
 842702,-0.292308\H,0,2.700961,1.444473,1.236128\C,0,3.448154,-0.941585
 ,-0.006514\H,0,2.214748,0.057399,-1.457161\H,0,3.565342,-1.027915,1.07

 Normal termination of Gaussian 16 at Tue Apr  8 23:40:40 2025.
