 Gaussian 16, Revision C.01,

 ----------------------------------------------------------------------
 #t hf aug-cc-pvdz symm=none int=(grid=ultrafine) guess=(read,tcheck) s
 table=(opt,rrhf)
 ----------------------------------------------------------------------
 -----
 title
 -----
 Symbolic Z-matrix:
 Charge =  0 Multiplicity = 1

 SCF Done:  E(RHF) =  -2255.09016411     A.U. after   12 cycles
 Normal termination of Gaussian 16 at Wed Apr  9 00:09:40 2025.
 Gaussian 16:  ES64L-G16RevC.01  3-Jul-2019

 ----------------------------------------------------------------------
 #t hf aug-cc-pvdz iop(5/13=1,5/36=2,99/5=2) pseudo=read geom=check gue
 ss=(read,tcheck) scf=(maxcycle=1)
 ----------------------------------------------------------------------
 -----
 title
 -----
 Structure from the checkpoint file:  "BDE49_nonexpt_2330_mol1.chk"
 Charge =  0 Multiplicity = 1

                         Standard orientation:
 ---------------------------------------------------------------------
 Center     Atomic      Atomic             Coordinates (Angstroms)
 Number     Number       Type             X           Y           Z
 ---------------------------------------------------------------------
      1         14           0        1.305826   -0.000003    0.394216
      2         14           0       -1.034730   -0.000001    0.301429
      3          9           0       -1.620887   -0.000007    1.784992
      4         17           0       -1.712112   -1.679987   -0.650568
      5          9           0        1.816476   -1.281442    1.183425
      6         17           0        2.135754    0.000009   -1.469805
      7         17           0       -1.712110    1.679994   -0.650554
      8          9           0        1.816477    1.281426    1.183442
 ---------------------------------------------------------------------

 SCF Done:  E(RHF) =  -2255.65096804     A.U. after    2 cycles

 The electronic state is 1-A.
 Alpha  occ. eigenvalues -- -105.60147-105.60147-105.60105 -69.70074 -69.69871
 Alpha  occ. eigenvalues --  -26.50029 -26.50028 -26.49961 -10.65192 -10.65181
 Alpha  occ. eigenvalues --  -10.65167  -7.82076  -7.82070  -7.82050  -7.81738
 Alpha  occ. eigenvalues --   -7.81737  -7.81734  -7.81731  -7.81717  -7.81711
 Alpha  occ. eigenvalues --   -6.35866  -6.35672  -4.11216  -4.11144  -4.11031
 Alpha  occ. eigenvalues --   -4.10966  -4.10952  -4.10777  -1.62728  -1.61385
 Alpha  occ. eigenvalues --   -1.60376  -1.11783  -1.09997  -1.08299  -0.83212
 Alpha  occ. eigenvalues --   -0.78949  -0.73629  -0.72035  -0.70920  -0.69193
 Alpha  occ. eigenvalues --   -0.68650  -0.67125  -0.66890  -0.65288  -0.61399
 Alpha  occ. eigenvalues --   -0.58421  -0.55980  -0.53500  -0.52122  -0.51913
 Alpha  occ. eigenvalues --   -0.51153  -0.49987  -0.47001
 Alpha virt. eigenvalues --    0.04776   0.05025   0.05317   0.05322   0.07703
 Alpha virt. eigenvalues --    0.07993   0.08038   0.09330   0.09723   0.10494
 Alpha virt. eigenvalues --    0.12209   0.13177   0.14526   0.15592   0.15918

 Mulliken charges:
               1
     1  Si   2.281957
     2  Si   1.703085
     3  F   -0.848540
     4  Cl  -0.495574
     5  F   -0.819295
     6  Cl  -0.506764
     7  Cl  -0.495574
     8  F   -0.819294
 Sum of Mulliken charges =  -0.00000

 Dipole moment (field-independent basis, Debye):
    X=             -0.1999    Y=             -0.0000    Z=             -0.6371  Tot=              0.6677

 Test job not archived.
 1\1\GINC-SE252\SP\RHF\Aug-CC-pVDZ\Cl3F3Si2\OHZDE\09-Apr-2025\0\\#t hf
 aug-cc-pvdz iop(5/13=1,5/36=2,99/5=2) pseudo=read geom=check guess=(re
 ad,tcheck) scf=(maxcycle=1)\\title\\0,1\Si,0,1.305826,-0.000003,0.3942
 16\Si,0,-1.03473,-0.000001,0.301429\F,0,-1.620887,-0.000007,1.784992\C
 l,0,-1.712112,-1.679987,-0.650568\F,0,1.816476,-1.281442,1.183425\Cl,0
 ,2.135754,0.000009,-1.469805\Cl,0,-1.71211,1.679994,-0.650554\F,0,1.81
 6477,1.281426,1.183442\\Version=ES64L-G16RevC.01\State=1-A\HF=-2255.65
 0968\RMSD=2.522e-03\Dipole=-0.0786283,0.,-0.2506467\Quadrupole=-0.3801

 Normal termination of Gaussian 16 at Wed Apr  9 00:09:45 2025.
