 Gaussian 16, Revision C.01,

 ----------------------------------------------------------------------
 #t hf aug-cc-pvdz symm=none int=(grid=ultrafine) guess=(read,tcheck) s
 table=(opt,rrhf)
 ----------------------------------------------------------------------
 -----
 title
 -----
 Symbolic Z-matrix:
 Charge =  0 Multiplicity = 1

 SCF Done:  E(RHF) =  -807.443172758     A.U. after   12 cycles

 1\1\GINC-SE365\Stability\RHF\Aug-CC-pVDZ\B2Cl1F3\OHZDE\08-Apr-2025\0\\
 #t hf aug-cc-pvdz symm=none int=(grid=ultrafine) guess=(read,tcheck) s
 table=(opt,rrhf)\\title\\0,1\B,0,1.180725,-0.04275,-0.00001\B,0,-0.449
 389,0.454424,-0.000138\F,0,-0.814545,1.723492,-0.000399\F,0,1.840216,-
 0.256546,1.128062\Cl,0,-1.732273,-0.761376,0.000204\F,0,1.840103,-0.25
 7498,-1.127968\\Version=ES64L-G16RevC.01\HF=-807.4431728\RMSD=7.729e-0
 9\Dipole=-0.0738881,0.0525153,-0.000058\Quadrupole=-1.7386554,0.938906
 8,0.7997486,1.4251444,-0.0004288,-0.0007083\PG=Unknown\\@

 Normal termination of Gaussian 16 at Tue Apr  8 23:51:18 2025.
 Gaussian 16:  ES64L-G16RevC.01  3-Jul-2019

 ----------------------------------------------------------------------
 #t hf aug-cc-pvdz iop(5/13=1,5/36=2,99/5=2) pseudo=read geom=check gue
 ss=(read,tcheck) scf=(maxcycle=1)
 ----------------------------------------------------------------------
 -----
 title
 -----
 Structure from the checkpoint file:  "BDE49_nonexpt_18_mol1.chk"
 Charge =  0 Multiplicity = 1

                         Standard orientation:
 ---------------------------------------------------------------------
 Center     Atomic      Atomic             Coordinates (Angstroms)
 Number     Number       Type             X           Y           Z
 ---------------------------------------------------------------------
      1          5           0        1.180725   -0.042750   -0.000010
      2          5           0       -0.449389    0.454424   -0.000138
      3          9           0       -0.814545    1.723492   -0.000399
      4          9           0        1.840216   -0.256546    1.128062
      5         17           0       -1.732273   -0.761377    0.000204
      6          9           0        1.840103   -0.257498   -1.127968
 ---------------------------------------------------------------------

 SCF Done:  E(RHF) =  -807.832927806     A.U. after    2 cycles

 The electronic state is 1-A.
 Alpha  occ. eigenvalues -- -105.59115 -26.50711 -26.49855 -26.49855 -10.64146
 Alpha  occ. eigenvalues --   -7.81026  -7.80752  -7.80712  -7.73833  -7.73809
 Alpha  occ. eigenvalues --   -1.65014  -1.63832  -1.60967  -1.09762  -0.83927
 Alpha  occ. eigenvalues --   -0.80547  -0.76075  -0.75322  -0.71458  -0.70188
 Alpha  occ. eigenvalues --   -0.69100  -0.65020  -0.64284  -0.63894  -0.52738
 Alpha  occ. eigenvalues --   -0.51224  -0.48158
 Alpha virt. eigenvalues --    0.04225   0.04587   0.04609   0.05120   0.07730
 Alpha virt. eigenvalues --    0.07759   0.08100   0.08809   0.11745   0.13263
 Alpha virt. eigenvalues --    0.13777   0.16269   0.17562   0.21636   0.23766

 Mulliken charges:
               1
     1  B    1.507639
     2  B    0.621886
     3  F   -0.574394
     4  F   -0.597266
     5  Cl  -0.360629
     6  F   -0.597236
 Sum of Mulliken charges =  -0.00000

 Dipole moment (field-independent basis, Debye):
    X=             -0.1005    Y=              0.2274    Z=             -0.0002  Tot=              0.2486

 Test job not archived.
 1\1\GINC-SE365\SP\RHF\Aug-CC-pVDZ\B2Cl1F3\OHZDE\08-Apr-2025\0\\#t hf a
 ug-cc-pvdz iop(5/13=1,5/36=2,99/5=2) pseudo=read geom=check guess=(rea
 d,tcheck) scf=(maxcycle=1)\\title\\0,1\B,0,1.180725,-0.04275,-0.00001\
 B,0,-0.449389,0.454424,-0.000138\F,0,-0.814545,1.723492,-0.000399\F,0,
 1.840216,-0.256546,1.128062\Cl,0,-1.732273,-0.761376,0.000204\F,0,1.84
 0103,-0.257498,-1.127968\\Version=ES64L-G16RevC.01\State=1-A\HF=-807.8
 329278\RMSD=1.021e-02\Dipole=-0.0395217,0.0894669,-0.0000626\Quadrupol
 e=-1.6250891,0.902148,0.7229411,1.2446554,-0.0003724,-0.0006433\PG=C01

 Normal termination of Gaussian 16 at Tue Apr  8 23:51:20 2025.
