 Gaussian 16, Revision C.01,

 ----------------------------------------------------------------------
 #t hf aug-cc-pvdz symm=none int=(grid=ultrafine) guess=(read,tcheck) s
 table=opt
 ----------------------------------------------------------------------
 -----
 title
 -----
 Symbolic Z-matrix:
 Charge =  0 Multiplicity = 2

 SCF Done:  E(UHF) =  -517.292366701     A.U. after   20 cycles
 Normal termination of Gaussian 16 at Tue Apr  8 23:48:26 2025.
 Gaussian 16:  ES64L-G16RevC.01  3-Jul-2019

 ----------------------------------------------------------------------
 #t hf aug-cc-pvdz iop(5/13=1,5/36=2,99/5=2) pseudo=read geom=check gue
 ss=(read,tcheck) scf=(maxcycle=1)
 ----------------------------------------------------------------------
 -----
 title
 -----
 Structure from the checkpoint file:  "BDE49_nonexpt_1816_mol2.chk"
 Charge =  0 Multiplicity = 2

                         Standard orientation:
 ---------------------------------------------------------------------
 Center     Atomic      Atomic             Coordinates (Angstroms)
 Number     Number       Type             X           Y           Z
 ---------------------------------------------------------------------
      1          6           0        0.023082    0.308264    0.007383
      2          8           0       -0.300584    1.471791    0.023378
      3         14           0        1.832249   -0.294535   -0.085442
      4          8           0       -0.857936   -0.719144   -0.008025
      5          6           0       -2.255269   -0.353213    0.003886
      6          1           0       -2.800961   -1.293094   -0.026715
      7          1           0       -2.494176    0.262026   -0.864806
      8          1           0       -2.495025    0.202483    0.911531
      9          1           0        2.064703   -1.580447    0.610456
     10          1           0        2.735263    0.781036    0.375277
 ---------------------------------------------------------------------

 SCF Done:  E(UHF) =  -517.545868995     A.U. after    2 cycles

 The electronic state is 2-A.
 Alpha  occ. eigenvalues --  -69.55954 -20.59533 -20.54752 -11.38156 -11.30048
 Alpha  occ. eigenvalues --   -6.23161  -3.99154  -3.98228  -3.98191  -1.54357
 Alpha  occ. eigenvalues --   -1.45697  -0.98703  -0.83259  -0.76295  -0.68568
 Alpha  occ. eigenvalues --   -0.67264  -0.66124  -0.57629  -0.56288  -0.52803
 Alpha  occ. eigenvalues --   -0.50964  -0.46616  -0.43370  -0.35141
 Alpha virt. eigenvalues --    0.03610   0.04277   0.05163   0.05322   0.06309
 Alpha virt. eigenvalues --    0.06671   0.07188   0.09097   0.10539   0.12116
 Alpha virt. eigenvalues --    0.13522   0.13679   0.15090   0.15712   0.16138

  Beta  occ. eigenvalues --  -69.55372 -20.59533 -20.54389 -11.38286 -11.30051
  Beta  occ. eigenvalues --   -6.22289  -3.97818  -3.97778  -3.96906  -1.54183
  Beta  occ. eigenvalues --   -1.45080  -0.98597  -0.81696  -0.74761  -0.68204
  Beta  occ. eigenvalues --   -0.67148  -0.64570  -0.57388  -0.55236  -0.52591
  Beta  occ. eigenvalues --   -0.50325  -0.45363  -0.42536
  Beta virt. eigenvalues --    0.01006   0.03679   0.04541   0.05215   0.05853
  Beta virt. eigenvalues --    0.06546   0.06726   0.08075   0.09438   0.11401
  Beta virt. eigenvalues --    0.12913   0.13764   0.14778   0.15711   0.16237

 Mulliken charges and spin densities:
               1          2
     1  C    1.120009  -0.074411
     2  O   -0.991162   0.086780
     3  Si   0.595727   1.002920
     4  O   -1.076884  -0.008815
     5  C    0.287631   0.004246
     6  H   -0.003528   0.000006
     7  H    0.155203   0.000265
     8  H    0.158819  -0.000246
     9  H   -0.118723  -0.008320
    10  H   -0.127091  -0.002425
 Sum of Mulliken charges =   0.00000   1.00000

 Dipole moment (field-independent basis, Debye):
    X=             -0.3895    Y=             -1.7599    Z=              0.0840  Tot=              1.8044
                          Isotropic Fermi Contact Couplings
        Atom                 a.u.       MegaHertz       Gauss      10(-4) cm-1
     1  C(13)             -0.01079     -12.12686      -4.32717      -4.04509
     2  O(17)              0.02819     -17.09075      -6.09840      -5.70086
     3  Si(29)             0.56950    -506.12824    -180.59914    -168.82621
     4  O(17)             -0.00323       1.95784       0.69861       0.65307
     5  C(13)             -0.00046      -0.51743      -0.18463      -0.17259
     6  H(1)               0.00003       0.15281       0.05453       0.05097
     7  H(1)               0.00021       0.96067       0.34279       0.32044
     8  H(1)               0.00005       0.20672       0.07376       0.06895

 Normal termination of Gaussian 16 at Tue Apr  8 23:48:30 2025.
