 Gaussian 16, Revision C.01,

 ----------------------------------------------------------------------
 #t hf aug-cc-pvdz symm=none int=(grid=ultrafine) guess=(read,tcheck) s
 table=(opt,rrhf)
 ----------------------------------------------------------------------
 -----
 title
 -----
 Symbolic Z-matrix:
 Charge =  0 Multiplicity = 1

 SCF Done:  E(RHF) =  -472.325280799     A.U. after   12 cycles
 Normal termination of Gaussian 16 at Tue Apr  8 23:38:06 2025.
 Gaussian 16:  ES64L-G16RevC.01  3-Jul-2019

 ----------------------------------------------------------------------
 #t hf aug-cc-pvdz iop(5/13=1,5/36=2,99/5=2) pseudo=read geom=check gue
 ss=(read,tcheck) scf=(maxcycle=1)
 ----------------------------------------------------------------------
 -----
 title
 -----
 Structure from the checkpoint file:  "BDE49_nonexpt_1565_mol1.chk"
 Charge =  0 Multiplicity = 1

                         Standard orientation:
 ---------------------------------------------------------------------
 Center     Atomic      Atomic             Coordinates (Angstroms)
 Number     Number       Type             X           Y           Z
 ---------------------------------------------------------------------
      1         15           0        1.106213   -0.018638   -0.004018
      2          7           0       -0.501878    0.593031    0.138186
      3          8           0       -1.550373   -0.357822   -0.134043
      4          1           0       -2.013061   -0.407521    0.710433
      5          1           0        0.979807   -0.969704   -1.058381
      6          1           0        1.014969   -0.999614    1.012638
      7          1           0       -0.658772    1.367779   -0.499367
 ---------------------------------------------------------------------

 SCF Done:  E(RHF) =  -472.503088957     A.U. after    2 cycles

 The electronic state is 1-A.
 Alpha  occ. eigenvalues --  -84.29793 -20.58950 -15.55691  -6.76642  -4.29439
 Alpha  occ. eigenvalues --   -4.28733  -4.28274  -1.48265  -1.12181  -0.85409
 Alpha  occ. eigenvalues --   -0.70588  -0.68076  -0.61339  -0.52936  -0.48675
 Alpha  occ. eigenvalues --   -0.44193  -0.35810
 Alpha virt. eigenvalues --    0.03670   0.05385   0.05604   0.07318   0.08372
 Alpha virt. eigenvalues --    0.10148   0.10599   0.14724   0.16734   0.17612
 Alpha virt. eigenvalues --    0.19323   0.19440   0.21538   0.22107   0.23255

 Mulliken charges:
               1
     1  P   -0.289027
     2  N    0.263421
     3  O   -0.968030
     4  H    0.306642
     5  H    0.297319
     6  H    0.289996
     7  H    0.099678
 Sum of Mulliken charges =  -0.00000

 Dipole moment (field-independent basis, Debye):
    X=             -0.2413    Y=              0.0055    Z=              0.3225  Tot=              0.4028

 Test job not archived.
 1\1\GINC-SE060\SP\RHF\Aug-CC-pVDZ\H4N1O1P1\OHZDE\08-Apr-2025\0\\#t hf
 aug-cc-pvdz iop(5/13=1,5/36=2,99/5=2) pseudo=read geom=check guess=(re
 ad,tcheck) scf=(maxcycle=1)\\title\\0,1\P,0,1.106213,-0.018638,-0.0040
 18\N,0,-0.501878,0.593031,0.138186\O,0,-1.550373,-0.357822,-0.134043\H
 ,0,-2.013061,-0.407521,0.710433\H,0,0.979807,-0.969704,-1.058381\H,0,1
 .014969,-0.999614,1.012638\H,0,-0.658772,1.367779,-0.499367\\Version=E
 S64L-G16RevC.01\State=1-A\HF=-472.503089\RMSD=2.351e-02\Dipole=-0.0949
 37,0.0021534,0.126872\Quadrupole=-0.0756695,-0.1721973,0.2478668,-1.44

 Normal termination of Gaussian 16 at Tue Apr  8 23:38:08 2025.
