 Gaussian 16, Revision C.01,

 ----------------------------------------------------------------------
 #t hf aug-cc-pvdz symm=none int=(grid=ultrafine) guess=(read,tcheck) s
 table=(opt,rrhf)
 ----------------------------------------------------------------------
 -----
 title
 -----
 Symbolic Z-matrix:
 Charge =  0 Multiplicity = 1

 SCF Done:  E(RHF) =  -720.582746792     A.U. after   12 cycles
 Normal termination of Gaussian 16 at Wed Apr  9 00:13:50 2025.
 Gaussian 16:  ES64L-G16RevC.01  3-Jul-2019

 ----------------------------------------------------------------------
 #t hf aug-cc-pvdz iop(5/13=1,5/36=2,99/5=2) pseudo=read geom=check gue
 ss=(read,tcheck) scf=(maxcycle=1)
 ----------------------------------------------------------------------
 -----
 title
 -----
 Structure from the checkpoint file:  "BDE49_nonexpt_2456_mol1.chk"
 Charge =  0 Multiplicity = 1

                         Standard orientation:
 ---------------------------------------------------------------------
 Center     Atomic      Atomic             Coordinates (Angstroms)
 Number     Number       Type             X           Y           Z
 ---------------------------------------------------------------------
      1         14           0        2.193436    0.356122   -0.394149
      2         14           0        0.370974   -0.669241    0.704572
      3          5           0       -1.430710   -0.025397   -0.031972
      4          1           0        0.509790   -0.387987    2.158627
      5          1           0        0.515023   -2.143865    0.522619
      6          1           0        2.150716    0.063732   -1.849032
      7          1           0        3.490528   -0.128530    0.138350
      8          8           0       -2.172112   -0.846631   -0.825482
      9          6           0       -1.999845    1.407323    0.262255
     10          1           0        2.139290    1.829160   -0.220576
     11          1           0       -1.788890   -1.718603   -0.962209
     12          1           0       -1.290453    2.186192   -0.042170
     13          1           0       -2.145104    1.549497    1.340183
     14          1           0       -2.953135    1.590157   -0.241534
 ---------------------------------------------------------------------

 SCF Done:  E(RHF) =  -720.798111389     A.U. after    2 cycles

 The electronic state is 1-A.
 Alpha  occ. eigenvalues --  -69.52618 -69.51217 -20.57130 -11.20695  -7.62271
 Alpha  occ. eigenvalues --   -6.19796  -6.18614  -3.95150  -3.95147  -3.95140
 Alpha  occ. eigenvalues --   -3.93948  -3.93937  -3.93886  -1.46960  -0.95838
 Alpha  occ. eigenvalues --   -0.78343  -0.75627  -0.70331  -0.61094  -0.56844
 Alpha  occ. eigenvalues --   -0.56605  -0.52976  -0.52351  -0.50192  -0.49144
 Alpha  occ. eigenvalues --   -0.47270  -0.42384  -0.38727
 Alpha virt. eigenvalues --    0.03269   0.03634   0.04405   0.04477   0.06058
 Alpha virt. eigenvalues --    0.06470   0.06960   0.07137   0.07575   0.08558
 Alpha virt. eigenvalues --    0.09006   0.09594   0.09630   0.10160   0.10377

 Mulliken charges:
               1
     1  Si   0.459361
     2  Si   0.071814
     3  B    1.196365
     4  H   -0.103577
     5  H   -0.148275
     6  H   -0.117717
     7  H   -0.150363
     8  O   -1.365897
     9  C   -0.455776
    10  H   -0.111036
    11  H    0.629094
    12  H    0.097227
    13  H    0.074163
    14  H   -0.075383
 Sum of Mulliken charges =  -0.00000

 Dipole moment (field-independent basis, Debye):
    X=             -0.0031    Y=             -0.5870    Z=              0.0845  Tot=              0.5930

 Test job not archived.
 1\1\GINC-SE336\SP\RHF\Aug-CC-pVDZ\C1H9B1O1Si2\OHZDE\09-Apr-2025\0\\#t
 hf aug-cc-pvdz iop(5/13=1,5/36=2,99/5=2) pseudo=read geom=check guess=
 (read,tcheck) scf=(maxcycle=1)\\title\\0,1\Si,0,2.193436,0.356122,-0.3
 94149\Si,0,0.370974,-0.669241,0.704572\B,0,-1.43071,-0.025397,-0.03197
 2\H,0,0.50979,-0.387987,2.158627\H,0,0.515023,-2.143865,0.522619\H,0,2
 .150716,0.063732,-1.849032\H,0,3.490528,-0.12853,0.13835\O,0,-2.172112
 ,-0.846631,-0.825482\C,0,-1.999845,1.407323,0.262255\H,0,2.13929,1.829
 16,-0.220576\H,0,-1.78889,-1.718603,-0.962209\H,0,-1.290453,2.186192,-

 Normal termination of Gaussian 16 at Wed Apr  9 00:13:55 2025.
