 Gaussian 16, Revision C.01,

 ----------------------------------------------------------------------
 #t hf aug-cc-pvdz symm=none int=(grid=ultrafine) guess=(read,tcheck) s
 table=(opt,rrhf)
 ----------------------------------------------------------------------
 -----
 title
 -----
 Symbolic Z-matrix:
 Charge =  0 Multiplicity = 1

 SCF Done:  E(RHF) =  -938.596761391     A.U. after   13 cycles
 Normal termination of Gaussian 16 at Tue Apr  8 23:43:28 2025.
 Gaussian 16:  ES64L-G16RevC.01  3-Jul-2019

 ----------------------------------------------------------------------
 #t hf aug-cc-pvdz iop(5/13=1,5/36=2,99/5=2) pseudo=read geom=check gue
 ss=(read,tcheck) scf=(maxcycle=1)
 ----------------------------------------------------------------------
 -----
 title
 -----
 Structure from the checkpoint file:  "BDE49_nonexpt_1678_mol1.chk"
 Charge =  0 Multiplicity = 1

                         Standard orientation:
 ---------------------------------------------------------------------
 Center     Atomic      Atomic             Coordinates (Angstroms)
 Number     Number       Type             X           Y           Z
 ---------------------------------------------------------------------
      1         14           0        0.526278    0.219294    0.354896
      2         15           0       -1.735465    0.134996    0.396848
      3          6           0       -2.011094   -1.671185    0.000016
      4          1           0       -1.544438   -1.989924   -0.935423
      5          1           0       -3.085753   -1.857722   -0.067100
      6          1           0       -1.619569   -2.283473    0.815631
      7          8           0        1.122551   -0.413253    1.768503
      8          6           0        1.426327   -0.739010   -0.982553
      9          6           0       -2.138128    0.928949   -1.244809
     10          1           0       -1.802347    1.967225   -1.221428
     11          1           0       -3.221541    0.924292   -1.387503
     12          1           0       -1.672240    0.426177   -2.096349
     13          6           0        2.954856   -0.540061   -0.978626
     14          1           0        1.013033   -0.454608   -1.957039
     15          1           0        1.192760   -1.800993   -0.848173
     16          1           0        3.225508    0.503822   -1.167043
     17          1           0        3.437561   -1.140708   -1.754913
     18          1           0        3.386754   -0.827972   -0.017295
     19          1           0        0.745706   -0.078611    2.586903
     20          8           0        0.813948    1.849586    0.245108
     21          1           0        1.724896    2.154615    0.255418
 ---------------------------------------------------------------------

 SCF Done:  E(RHF) =  -939.003766178     A.U. after    2 cycles

 The electronic state is 1-A.
 Alpha  occ. eigenvalues --  -84.24808 -69.56813 -20.54382 -20.54275 -11.23579
 Alpha  occ. eigenvalues --  -11.23395 -11.23392 -11.22026  -6.72026  -6.23148
 Alpha  occ. eigenvalues --   -4.24450  -4.24396  -4.23828  -3.98610  -3.98481
 Alpha  occ. eigenvalues --   -3.98380  -1.44078  -1.41806  -1.02732  -1.00353
 Alpha  occ. eigenvalues --   -0.93665  -0.85673  -0.77584  -0.72047  -0.69881
 Alpha  occ. eigenvalues --   -0.61822  -0.59657  -0.59345  -0.58527  -0.58026
 Alpha  occ. eigenvalues --   -0.55917  -0.55741  -0.54496  -0.53612  -0.51931
 Alpha  occ. eigenvalues --   -0.50339  -0.48364  -0.45470  -0.44961  -0.39742
 Alpha  occ. eigenvalues --   -0.30280
 Alpha virt. eigenvalues --    0.03420   0.03720   0.04010   0.04176   0.05613
 Alpha virt. eigenvalues --    0.05828   0.06458   0.06615   0.06849   0.08240
 Alpha virt. eigenvalues --    0.08846   0.09196   0.09343   0.09859   0.10786

 Mulliken charges:
               1
     1  Si   4.150013
     2  P    0.140590
     3  C   -0.738707
     4  H    0.113512
     5  H    0.047730
     6  H    0.043804
     7  O   -1.652585
     8  C   -0.662400
     9  C   -0.741928
    10  H    0.057502
    11  H    0.062433
    12  H    0.094369
    13  C   -0.450700
    14  H    0.030143
    15  H    0.074708
    16  H    0.094700
    17  H    0.114094
    18  H    0.121498
    19  H    0.368521
    20  O   -1.626100
    21  H    0.358802
 Sum of Mulliken charges =   0.00000

 Dipole moment (field-independent basis, Debye):
    X=              0.5757    Y=             -0.2897    Z=             -0.8122  Tot=              1.0368

 Test job not archived.
 1\1\GINC-SE396\SP\RHF\Aug-CC-pVDZ\C4H13O2P1Si1\OHZDE\08-Apr-2025\0\\#t
  hf aug-cc-pvdz iop(5/13=1,5/36=2,99/5=2) pseudo=read geom=check guess
 =(read,tcheck) scf=(maxcycle=1)\\title\\0,1\Si,0,0.526278,0.219294,0.3
 54896\P,0,-1.735465,0.134996,0.396848\C,0,-2.011094,-1.671185,0.000016
 \H,0,-1.544438,-1.989924,-0.935423\H,0,-3.085753,-1.857722,-0.0671\H,0
 ,-1.619569,-2.283473,0.815631\O,0,1.122551,-0.413253,1.768503\C,0,1.42
 6327,-0.73901,-0.982553\C,0,-2.138128,0.928949,-1.244809\H,0,-1.802347
 ,1.967225,-1.221428\H,0,-3.221541,0.924292,-1.387503\H,0,-1.67224,0.42

 Normal termination of Gaussian 16 at Tue Apr  8 23:43:39 2025.
