 Gaussian 16, Revision C.01,

 ----------------------------------------------------------------------
 #t hf aug-cc-pvdz symm=none int=(grid=ultrafine) guess=(read,tcheck) s
 table=(opt,rrhf)
 ----------------------------------------------------------------------
 -----
 title
 -----
 Symbolic Z-matrix:
 Charge =  0 Multiplicity = 1

 SCF Done:  E(RHF) =  -218.286665669     A.U. after   13 cycles
 Normal termination of Gaussian 16 at Wed Apr  9 00:46:55 2025.
 Gaussian 16:  ES64L-G16RevC.01  3-Jul-2019

 ----------------------------------------------------------------------
 #t hf aug-cc-pvdz iop(5/13=1,5/36=2,99/5=2) pseudo=read geom=check gue
 ss=(read,tcheck) scf=(maxcycle=1)
 ----------------------------------------------------------------------
 -----
 title
 -----
 Structure from the checkpoint file:  "BDE49_nonexpt_83_mol1.chk"
 Charge =  0 Multiplicity = 1

                         Standard orientation:
 ---------------------------------------------------------------------
 Center     Atomic      Atomic             Coordinates (Angstroms)
 Number     Number       Type             X           Y           Z
 ---------------------------------------------------------------------
      1          5           0       -1.822194    0.938536    0.000008
      2          5           0       -1.210373   -0.611951   -0.000043
      3          8           0        0.146762   -0.956985    0.000072
      4          6           0        1.080733   -0.060610    0.000197
      5          7           0        1.943532    0.708200   -0.000222
      6          1           0       -2.092726    1.501864    1.016107
      7          1           0       -2.092661    1.501959   -1.016057
      8          1           0       -1.914995   -1.574609   -0.000077
 ---------------------------------------------------------------------

 SCF Done:  E(RHF) =  -218.496483758     A.U. after    2 cycles

 The electronic state is 1-A.
 Alpha  occ. eigenvalues --  -20.65870 -15.52426 -11.35831  -7.66565  -7.61909
 Alpha  occ. eigenvalues --   -1.58741  -1.24559  -0.90585  -0.77679  -0.70270
 Alpha  occ. eigenvalues --   -0.67900  -0.62647  -0.60944  -0.52503  -0.51015
 Alpha  occ. eigenvalues --   -0.49154  -0.46971
 Alpha virt. eigenvalues --    0.01761   0.03283   0.03372   0.03891   0.05608
 Alpha virt. eigenvalues --    0.05818   0.06809   0.08466   0.09346   0.09438
 Alpha virt. eigenvalues --    0.12348   0.12657   0.13038   0.13312   0.13982

 Mulliken charges:
               1
     1  B   -0.764110
     2  B    0.497382
     3  O   -0.894445
     4  C   -0.329915
     5  N    0.755517
     6  H    0.285267
     7  H    0.285276
     8  H    0.165030
 Sum of Mulliken charges =  -0.00000

 Dipole moment (field-independent basis, Debye):
    X=             -3.9749    Y=             -1.7297    Z=              0.0008  Tot=              4.3349

 Test job not archived.
 1\1\GINC-SE460\SP\RHF\Aug-CC-pVDZ\C1H3B2N1O1\OHZDE\09-Apr-2025\0\\#t h
 f aug-cc-pvdz iop(5/13=1,5/36=2,99/5=2) pseudo=read geom=check guess=(
 read,tcheck) scf=(maxcycle=1)\\title\\0,1\B,0,-1.822194,0.938537,0.000
 008\B,0,-1.210373,-0.611951,-0.000043\O,0,0.146762,-0.956985,0.000072\
 C,0,1.080733,-0.060611,0.000197\N,0,1.943532,0.708199,-0.000222\H,0,-2
 .092725,1.501865,1.016107\H,0,-2.09266,1.50196,-1.016057\H,0,-1.914996
 ,-1.574608,-0.000077\\Version=ES64L-G16RevC.01\State=1-A\HF=-218.49648
 38\RMSD=2.002e-02\Dipole=-1.5638466,-0.6804968,0.0003051\Quadrupole=-2

 Normal termination of Gaussian 16 at Wed Apr  9 00:46:58 2025.
