 Gaussian 16, Revision C.01,

 ----------------------------------------------------------------------
 #t hf aug-cc-pvdz symm=none int=(grid=ultrafine) guess=(read,tcheck) s
 table=(opt,rrhf)
 ----------------------------------------------------------------------
 -----
 title
 -----
 Symbolic Z-matrix:
 Charge =  0 Multiplicity = 1

 SCF Done:  E(RHF) =  -1601.90187666     A.U. after   16 cycles
 Normal termination of Gaussian 16 at Wed Apr  9 00:13:19 2025.
 Gaussian 16:  ES64L-G16RevC.01  3-Jul-2019

 ----------------------------------------------------------------------
 #t hf aug-cc-pvdz iop(5/13=1,5/36=2,99/5=2) pseudo=read geom=check gue
 ss=(read,tcheck) scf=(maxcycle=1)
 ----------------------------------------------------------------------
 -----
 title
 -----
 Structure from the checkpoint file:  "BDE49_nonexpt_2433_mol1.chk"
 Charge =  0 Multiplicity = 1

                         Standard orientation:
 ---------------------------------------------------------------------
 Center     Atomic      Atomic             Coordinates (Angstroms)
 Number     Number       Type             X           Y           Z
 ---------------------------------------------------------------------
      1         14           0       -1.093741   -1.294599   -0.652677
      2         14           0        0.856451   -1.148831    0.676087
      3          6           0        1.844446    0.390228    0.033364
      4          1           0        1.714340   -2.351637    0.570304
      5          1           0        0.550164   -0.877671    2.098459
      6          8           0        1.288513    1.427747   -0.244784
      7         16           0        3.633030    0.182895   -0.121622
      8          1           0        3.860034    1.441116   -0.547334
      9          6           0       -2.502675   -0.120174   -0.023523
     10          1           0       -1.642723   -2.666243   -0.627976
     11          1           0       -0.730850   -0.908284   -2.036027
     12          8           0       -3.589356   -0.570672    0.234656
     13         16           0       -2.206763    1.657716    0.146612
     14          1           0       -0.893062    1.644047   -0.163025
 ---------------------------------------------------------------------

 SCF Done:  E(RHF) =  -1602.30150425     A.U. after    2 cycles

 The electronic state is 1-A.
 Alpha  occ. eigenvalues --  -93.99254 -93.97002 -69.57077 -69.56556 -20.58465
 Alpha  occ. eigenvalues --  -20.56533 -11.39294 -11.37457  -8.27467  -8.25194
 Alpha  occ. eigenvalues --   -6.25295  -6.25135  -6.24944  -6.24271  -6.23714
 Alpha  occ. eigenvalues --   -6.23011  -6.22880  -6.22676  -3.99628  -3.99584
 Alpha  occ. eigenvalues --   -3.99578  -3.99055  -3.99032  -3.99028  -1.51807
 Alpha  occ. eigenvalues --   -1.49964  -1.07528  -1.05438  -0.86869  -0.82734
 Alpha  occ. eigenvalues --   -0.75790  -0.71565  -0.66492  -0.65344  -0.63290
 Alpha  occ. eigenvalues --   -0.61342  -0.58952  -0.57083  -0.54629  -0.52999
 Alpha  occ. eigenvalues --   -0.52254  -0.50843  -0.45490  -0.41567  -0.41063
 Alpha  occ. eigenvalues --   -0.39303  -0.38805
 Alpha virt. eigenvalues --    0.02984   0.03572   0.04026   0.05079   0.05201
 Alpha virt. eigenvalues --    0.05923   0.06553   0.07019   0.07387   0.07681
 Alpha virt. eigenvalues --    0.07907   0.08697   0.08858   0.09430   0.10241

 Mulliken charges:
               1
     1  Si   0.500529
     2  Si   0.753962
     3  C    0.191955
     4  H   -0.144466
     5  H   -0.088787
     6  O   -1.106698
     7  S   -0.026681
     8  H    0.392979
     9  C    0.228091
    10  H   -0.109764
    11  H   -0.020780
    12  O   -1.059064
    13  S    0.039397
    14  H    0.449327
 Sum of Mulliken charges =  -0.00000

 Dipole moment (field-independent basis, Debye):
    X=              3.9416    Y=             -1.4799    Z=             -0.4859  Tot=              4.2382

 Test job not archived.
 1\1\GINC-SE435\SP\RHF\Aug-CC-pVDZ\C2H6O2S2Si2\OHZDE\09-Apr-2025\0\\#t
 hf aug-cc-pvdz iop(5/13=1,5/36=2,99/5=2) pseudo=read geom=check guess=
 (read,tcheck) scf=(maxcycle=1)\\title\\0,1\Si,0,1.093741,-1.294599,0.6
 52677\Si,0,-0.856451,-1.148831,-0.676087\C,0,-1.844446,0.390228,-0.033
 364\H,0,-1.71434,-2.351637,-0.570304\H,0,-0.550164,-0.877671,-2.098459
 \O,0,-1.288513,1.427747,0.244784\S,0,-3.63303,0.182895,0.121622\H,0,-3
 .860034,1.441116,0.547334\C,0,2.502675,-0.120174,0.023523\H,0,1.642723
 ,-2.666243,0.627976\H,0,0.73085,-0.908284,2.036027\O,0,3.589356,-0.570

 Normal termination of Gaussian 16 at Wed Apr  9 00:13:25 2025.
