 Gaussian 16, Revision C.01,

 ----------------------------------------------------------------------
 #t hf aug-cc-pvdz symm=none int=(grid=ultrafine) guess=(read,tcheck) s
 table=(opt,rrhf)
 ----------------------------------------------------------------------
 -----
 title
 -----
 Symbolic Z-matrix:
 Charge =  0 Multiplicity = 1

 SCF Done:  E(RHF) =  -508.575204662     A.U. after   12 cycles
 Normal termination of Gaussian 16 at Wed Apr  9 00:47:27 2025.
 Gaussian 16:  ES64L-G16RevC.01  3-Jul-2019

 ----------------------------------------------------------------------
 #t hf aug-cc-pvdz iop(5/13=1,5/36=2,99/5=2) pseudo=read geom=check gue
 ss=(read,tcheck) scf=(maxcycle=1)
 ----------------------------------------------------------------------
 -----
 title
 -----
 Structure from the checkpoint file:  "BDE49_nonexpt_827_mol1.chk"
 Charge =  0 Multiplicity = 1

                         Standard orientation:
 ---------------------------------------------------------------------
 Center     Atomic      Atomic             Coordinates (Angstroms)
 Number     Number       Type             X           Y           Z
 ---------------------------------------------------------------------
      1         14           0        0.380133   -0.011037    0.000005
      2          5           0       -1.497197   -0.798830   -0.000006
      3          8           0       -2.564062    0.042671   -0.000037
      4          6           0        1.310146   -0.618066   -1.535478
      5          1           0        0.831279   -0.274130   -2.457414
      6          1           0        1.350990   -1.711031   -1.570686
      7          6           0        1.310100   -0.618003    1.535542
      8          1           0        1.350943   -1.710966    1.570796
      9          1           0        0.831206   -0.274028    2.457449
     10          1           0        2.340307   -0.246967    1.539726
     11          1           0        2.340354   -0.247031   -1.539646
     12          6           0        0.340706    1.877534   -0.000034
     13          1           0        1.351015    2.299276   -0.000026
     14          1           0       -0.182700    2.259859    0.881308
     15          1           0       -0.182672    2.259823   -0.881408
     16          1           0       -3.414899   -0.409895   -0.000041
     17          1           0       -1.704920   -1.986392    0.000011
 ---------------------------------------------------------------------

 SCF Done:  E(RHF) =  -508.845585163     A.U. after    2 cycles

 The electronic state is 1-A.
 Alpha  occ. eigenvalues --  -69.49150 -20.56847 -11.20402 -11.20398 -11.19999
 Alpha  occ. eigenvalues --   -7.60977  -6.16326  -3.91660  -3.91654  -3.91625
 Alpha  occ. eigenvalues --   -1.46484  -0.96696  -0.91929  -0.91745  -0.76848
 Alpha  occ. eigenvalues --   -0.65862  -0.63662  -0.57409  -0.56011  -0.55830
 Alpha  occ. eigenvalues --   -0.54133  -0.53762  -0.53138  -0.52828  -0.51923
 Alpha  occ. eigenvalues --   -0.43130  -0.42966  -0.38315
 Alpha virt. eigenvalues --    0.02844   0.03564   0.03761   0.03995   0.06095
 Alpha virt. eigenvalues --    0.06202   0.06350   0.06892   0.06984   0.09011
 Alpha virt. eigenvalues --    0.09291   0.09474   0.10128   0.10493   0.10969

 Mulliken charges:
               1
     1  Si   2.122575
     2  B    0.317113
     3  O   -1.144617
     4  C   -0.533758
     5  H   -0.056765
     6  H   -0.034325
     7  C   -0.533755
     8  H   -0.034326
     9  H   -0.056766
    10  H    0.014411
    11  H    0.014413
    12  C   -0.654284
    13  H   -0.018788
    14  H   -0.037456
    15  H   -0.037457
    16  H    0.552292
    17  H    0.121493
 Sum of Mulliken charges =  -0.00000

 Dipole moment (field-independent basis, Debye):
    X=             -1.0616    Y=             -0.7907    Z=             -0.0000  Tot=              1.3237

 Test job not archived.
 1\1\GINC-SE150\SP\RHF\Aug-CC-pVDZ\C3H11B1O1Si1\OHZDE\09-Apr-2025\0\\#t
  hf aug-cc-pvdz iop(5/13=1,5/36=2,99/5=2) pseudo=read geom=check guess
 =(read,tcheck) scf=(maxcycle=1)\\title\\0,1\Si,0,0.380133,-0.011037,0.
 000005\B,0,-1.497197,-0.79883,-0.000006\O,0,-2.564062,0.042671,-0.0000
 37\C,0,1.310146,-0.618066,-1.535478\H,0,0.831279,-0.27413,-2.457414\H,
 0,1.35099,-1.711031,-1.570686\C,0,1.3101,-0.618003,1.535542\H,0,1.3509
 43,-1.710966,1.570796\H,0,0.831206,-0.274028,2.457449\H,0,2.340307,-0.
 246967,1.539726\H,0,2.340354,-0.247031,-1.539646\C,0,0.340706,1.877534

 Normal termination of Gaussian 16 at Wed Apr  9 00:47:34 2025.
