 Gaussian 16, Revision C.01,

 ----------------------------------------------------------------------
 #t hf aug-cc-pvdz symm=none int=(grid=ultrafine) guess=(read,tcheck) s
 table=opt
 ----------------------------------------------------------------------
 -----
 title
 -----
 Symbolic Z-matrix:
 Charge =  0 Multiplicity = 2

 SCF Done:  E(UHF) =  -257.858588026     A.U. after   16 cycles
 Normal termination of Gaussian 16 at Wed Apr  9 00:30:52 2025.
 Gaussian 16:  ES64L-G16RevC.01  3-Jul-2019

 ----------------------------------------------------------------------
 #t hf aug-cc-pvdz iop(5/13=1,5/36=2,99/5=2) pseudo=read geom=check gue
 ss=(read,tcheck) scf=(maxcycle=1)
 ----------------------------------------------------------------------
 -----
 title
 -----
 Structure from the checkpoint file:  "BDE49_nonexpt_353_mol2.chk"
 Charge =  0 Multiplicity = 2

                         Standard orientation:
 ---------------------------------------------------------------------
 Center     Atomic      Atomic             Coordinates (Angstroms)
 Number     Number       Type             X           Y           Z
 ---------------------------------------------------------------------
      1          9           0       -2.023946   -0.198115   -0.000000
      2          7           0        0.367595   -0.083633   -0.000000
      3          5           0       -0.825603   -0.792240   -0.000000
      4          6           0        1.665308   -0.744301   -0.000000
      5          1           0        2.246215   -0.466193   -0.887451
      6          1           0        1.524117   -1.824992   -0.000001
      7          1           0        2.246214   -0.466194    0.887452
      8          6           0        0.414127    1.379287   -0.000000
      9          1           0       -0.600341    1.775296    0.000001
     10          1           0        0.938771    1.750915   -0.887632
     11          1           0        0.938772    1.750915    0.887632
 ---------------------------------------------------------------------

 SCF Done:  E(UHF) =  -258.114119059     A.U. after    2 cycles

 The electronic state is 2-A.
 Alpha  occ. eigenvalues --  -26.45424 -15.50549 -11.27216 -11.27123  -7.66206
 Alpha  occ. eigenvalues --   -1.58397  -1.22682  -0.98016  -0.91317  -0.75656
 Alpha  occ. eigenvalues --   -0.71225  -0.67413  -0.66209  -0.62959  -0.61957
 Alpha  occ. eigenvalues --   -0.56706  -0.56233  -0.54635  -0.41831  -0.36036
 Alpha virt. eigenvalues --    0.03427   0.04531   0.04736   0.05554   0.06511
 Alpha virt. eigenvalues --    0.06531   0.06661   0.07232   0.09167   0.10298
 Alpha virt. eigenvalues --    0.14341   0.14668   0.14680   0.14774   0.16751

  Beta  occ. eigenvalues --  -26.45075 -15.50593 -11.27171 -11.27022  -7.64093
  Beta  occ. eigenvalues --   -1.57401  -1.22486  -0.97763  -0.90302  -0.74551
  Beta  occ. eigenvalues --   -0.69940  -0.66312  -0.65437  -0.62901  -0.60806
  Beta  occ. eigenvalues --   -0.56708  -0.55740  -0.54513  -0.42583
  Beta virt. eigenvalues --    0.03226   0.04566   0.04643   0.05143   0.06486
  Beta virt. eigenvalues --    0.06683   0.06703   0.07236   0.07814   0.10179
  Beta virt. eigenvalues --    0.12691   0.14412   0.14783   0.16057   0.16498

 Mulliken charges and spin densities:
               1          2
     1  F   -0.682862  -0.007570
     2  N    0.429603  -0.060258
     3  B    0.446028   1.092848
     4  C   -0.530623   0.029244
     5  H    0.178792  -0.002010
     6  H    0.011323  -0.015518
     7  H    0.178792  -0.002010
     8  C   -0.372634  -0.020658
     9  H   -0.017329  -0.006115
    10  H    0.179454  -0.003977
    11  H    0.179455  -0.003977
 Sum of Mulliken charges =  -0.00000   1.00000

 Dipole moment (field-independent basis, Debye):
    X=              2.2596    Y=              0.8998    Z=             -0.0000  Tot=              2.4321
                          Isotropic Fermi Contact Couplings
        Atom                 a.u.       MegaHertz       Gauss      10(-4) cm-1
     1  F(19)              0.08889     373.99506     133.45074     124.75132
     2  N(14)              0.07185      23.21434       8.28345       7.74347
     3  B(11)              0.42601     611.05724     218.04042     203.82675
     4  C(13)              0.01217      13.68464       4.88302       4.56470
     5  H(1)              -0.00067      -3.00508      -1.07229      -1.00239
     6  H(1)              -0.00057      -2.54012      -0.90638      -0.84729
     7  H(1)              -0.00067      -3.00508      -1.07229      -1.00239
     8  C(13)              0.01535      17.25683       6.15767       5.75626

 Normal termination of Gaussian 16 at Wed Apr  9 00:30:55 2025.
