 Gaussian 16, Revision C.01,

 ----------------------------------------------------------------------
 #t hf aug-cc-pvdz symm=none int=(grid=ultrafine) guess=(read,tcheck) s
 table=opt
 ----------------------------------------------------------------------
 -----
 title
 -----
 Symbolic Z-matrix:
 Charge =  0 Multiplicity = 2

 SCF Done:  E(UHF) =  -529.512029031     A.U. after   19 cycles
 Normal termination of Gaussian 16 at Tue Apr  8 23:38:07 2025.
 Gaussian 16:  ES64L-G16RevC.01  3-Jul-2019

 ----------------------------------------------------------------------
 #t hf aug-cc-pvdz iop(5/13=1,5/36=2,99/5=2) pseudo=read geom=check gue
 ss=(read,tcheck) scf=(maxcycle=1)
 ----------------------------------------------------------------------
 -----
 title
 -----
 Structure from the checkpoint file:  "BDE49_nonexpt_1575_mol2.chk"
 Charge =  0 Multiplicity = 2

                         Standard orientation:
 ---------------------------------------------------------------------
 Center     Atomic      Atomic             Coordinates (Angstroms)
 Number     Number       Type             X           Y           Z
 ---------------------------------------------------------------------
      1          6           0       -0.476422    0.132500   -0.000009
      2         15           0        1.375431   -0.143454   -0.000003
      3          8           0       -1.053784    1.188155   -0.000002
      4          8           0       -1.113960   -1.065077    0.000006
      5          1           0       -2.066972   -0.878855    0.000011
      6          1           0        1.635990    1.251043    0.000047
 ---------------------------------------------------------------------

 SCF Done:  E(UHF) =  -529.730942748     A.U. after    2 cycles

 The electronic state is 2-A.
 Alpha  occ. eigenvalues --  -84.31457 -20.61364 -20.56384 -11.40825  -6.78683
 Alpha  occ. eigenvalues --   -4.30980  -4.30698  -4.30087  -1.56141  -1.47373
 Alpha  occ. eigenvalues --   -0.95506  -0.81269  -0.72345  -0.66330  -0.64361
 Alpha  occ. eigenvalues --   -0.55888  -0.50656  -0.48749  -0.39988  -0.36693
 Alpha virt. eigenvalues --    0.03702   0.05058   0.07591   0.09297   0.09429
 Alpha virt. eigenvalues --    0.11252   0.11268   0.13417   0.15421   0.15553
 Alpha virt. eigenvalues --    0.18507   0.19254   0.20555   0.20583   0.22317

  Beta  occ. eigenvalues --  -84.30780 -20.61402 -20.55768 -11.41207  -6.77825
  Beta  occ. eigenvalues --   -4.30174  -4.29662  -4.27674  -1.55924  -1.46402
  Beta  occ. eigenvalues --   -0.92244  -0.78823  -0.71962  -0.65392  -0.63588
  Beta  occ. eigenvalues --   -0.55520  -0.47855  -0.47401  -0.38611
  Beta virt. eigenvalues --    0.00792   0.03762   0.05132   0.07785   0.09381
  Beta virt. eigenvalues --    0.11268   0.11312   0.11646   0.13756   0.16656
  Beta virt. eigenvalues --    0.18907   0.19122   0.19898   0.20639   0.21552

 Mulliken charges and spin densities:
               1          2
     1  C    1.078707  -0.187937
     2  P    0.384347   1.202035
     3  O   -1.001316   0.150165
     4  O   -1.009664  -0.003383
     5  H    0.334019  -0.000105
     6  H    0.213907  -0.160775
 Sum of Mulliken charges =  -0.00000   1.00000

 Dipole moment (field-independent basis, Debye):
    X=              0.4782    Y=             -1.0541    Z=              0.0000  Tot=              1.1575
                          Isotropic Fermi Contact Couplings
        Atom                 a.u.       MegaHertz       Gauss      10(-4) cm-1
     1  C(13)             -0.05729     -64.40584     -22.98160     -21.48347
     2  P(31)              0.19055     345.11205     123.14456     115.11699
     3  O(17)              0.04597     -27.86786      -9.94395      -9.29572
     4  O(17)             -0.01198       7.26242       2.59141       2.42248
     5  H(1)              -0.00058      -2.59647      -0.92648      -0.86609
     6  H(1)              -0.01498     -66.96076     -23.89326     -22.33570
 --------------------------------------------------------
       Center         ----  Spin Dipole Couplings  ----

 Normal termination of Gaussian 16 at Tue Apr  8 23:38:09 2025.
