 Gaussian 16, Revision C.01,

 ----------------------------------------------------------------------
 #t hf aug-cc-pvdz symm=none int=(grid=ultrafine) guess=(read,tcheck) s
 table=opt
 ----------------------------------------------------------------------
 -----
 title
 -----
 Symbolic Z-matrix:
 Charge =  0 Multiplicity = 2

 SCF Done:  E(UHF) =  -749.607702180     A.U. after   14 cycles
 Normal termination of Gaussian 16 at Tue Apr  8 23:48:13 2025.
 Gaussian 16:  ES64L-G16RevC.01  3-Jul-2019

 ----------------------------------------------------------------------
 #t hf aug-cc-pvdz iop(5/13=1,5/36=2,99/5=2) pseudo=read geom=check gue
 ss=(read,tcheck) scf=(maxcycle=1)
 ----------------------------------------------------------------------
 -----
 title
 -----
 Structure from the checkpoint file:  "BDE49_nonexpt_1809_mol2.chk"
 Charge =  0 Multiplicity = 2

                         Standard orientation:
 ---------------------------------------------------------------------
 Center     Atomic      Atomic             Coordinates (Angstroms)
 Number     Number       Type             X           Y           Z
 ---------------------------------------------------------------------
      1         14           0       -1.041174   -0.000002   -0.101779
      2         17           0        1.038154   -0.000007    0.016115
      3          1           0       -1.535964    1.223928    0.575451
      4          1           0       -1.536207   -1.223795    0.575513
 ---------------------------------------------------------------------

 SCF Done:  E(UHF) =  -749.714554505     A.U. after    2 cycles

 The electronic state is 2-A.
 Alpha  occ. eigenvalues -- -105.56421 -69.59510 -10.61429  -7.78350  -7.78051
 Alpha  occ. eigenvalues --   -7.77961  -6.26244  -4.02082  -4.01330  -4.01159
 Alpha  occ. eigenvalues --   -1.06052  -0.75094  -0.54680  -0.54634  -0.50263
 Alpha  occ. eigenvalues --   -0.46339  -0.36078
 Alpha virt. eigenvalues --    0.03824   0.04735   0.05759   0.06305   0.08529
 Alpha virt. eigenvalues --    0.11449   0.13989   0.14443   0.15492   0.16408
 Alpha virt. eigenvalues --    0.17743   0.18383   0.23247   0.23644   0.26866

  Beta  occ. eigenvalues -- -105.56331 -69.58925 -10.61331  -7.78210  -7.77911
  Beta  occ. eigenvalues --   -7.77785  -6.25328  -4.00947  -4.00782  -3.99944
  Beta  occ. eigenvalues --   -1.05224  -0.70713  -0.53632  -0.53283  -0.48160
  Beta  occ. eigenvalues --   -0.45789
  Beta virt. eigenvalues --    0.01045   0.04175   0.05067   0.05876   0.07812
  Beta virt. eigenvalues --    0.08866   0.12260   0.14720   0.15987   0.16514
  Beta virt. eigenvalues --    0.17022   0.18726   0.20692   0.24335   0.25660

 Mulliken charges and spin densities:
               1          2
     1  Si   0.892981   0.873890
     2  Cl  -0.525611   0.033677
     3  H   -0.183693   0.046211
     4  H   -0.183677   0.046221
 Sum of Mulliken charges =  -0.00000   1.00000

 Dipole moment (field-independent basis, Debye):
    X=             -1.6617    Y=             -0.0001    Z=             -0.0269  Tot=              1.6619
                          Isotropic Fermi Contact Couplings
        Atom                 a.u.       MegaHertz       Gauss      10(-4) cm-1
     1  Si(29)             0.73619    -654.27159    -233.46037    -218.24151
     2  Cl(35)             0.05155      22.60418       8.06573       7.53994
     3  H(1)               0.01261      56.36135      20.11113      18.80012
     4  H(1)               0.01261      56.37777      20.11699      18.80560
 --------------------------------------------------------
       Center         ----  Spin Dipole Couplings  ----
                      3XX-RR        3YY-RR        3ZZ-RR
 --------------------------------------------------------

 Normal termination of Gaussian 16 at Tue Apr  8 23:48:14 2025.
