 Gaussian 16, Revision C.01,

 ----------------------------------------------------------------------
 #t hf aug-cc-pvdz symm=none int=(grid=ultrafine) guess=(read,tcheck) s
 table=(opt,rrhf)
 ----------------------------------------------------------------------
 -----
 title
 -----
 Symbolic Z-matrix:
 Charge =  0 Multiplicity = 1

 SCF Done:  E(RHF) =  -491.142447686     A.U. after   13 cycles
 Normal termination of Gaussian 16 at Wed Apr  9 00:34:24 2025.
 Gaussian 16:  ES64L-G16RevC.01  3-Jul-2019

 ----------------------------------------------------------------------
 #t hf aug-cc-pvdz iop(5/13=1,5/36=2,99/5=2) pseudo=read geom=check gue
 ss=(read,tcheck) scf=(maxcycle=1)
 ----------------------------------------------------------------------
 -----
 title
 -----
 Structure from the checkpoint file:  "BDE49_nonexpt_418_mol1.chk"
 Charge =  0 Multiplicity = 1

                         Standard orientation:
 ---------------------------------------------------------------------
 Center     Atomic      Atomic             Coordinates (Angstroms)
 Number     Number       Type             X           Y           Z
 ---------------------------------------------------------------------
      1          9           0       -1.961385    0.947730   -0.708810
      2          5           0       -1.274295   -0.035507   -0.155029
      3          9           0       -1.894952   -1.197689    0.002629
      4          6           0        0.236399    0.122568    0.315648
      5          8           0        0.908813   -0.361401   -0.851939
      6          8           0        0.515025   -0.691470    1.447170
      7          6           0        2.337668   -0.357744   -0.819900
      8          1           0        2.742404    0.652382   -0.943460
      9          1           0        2.660833   -0.972366   -1.659586
     10          1           0        2.709624   -0.790813    0.112360
     11          6           0        0.631131    1.543199    0.700925
     12          1           0        0.518662    2.213554   -0.152493
     13          1           0        1.664571    1.570488    1.051117
     14          1           0       -0.004252    1.900935    1.513483
     15          1           0        0.164763   -1.572181    1.267482
 ---------------------------------------------------------------------

 SCF Done:  E(RHF) =  -491.622370697     A.U. after    2 cycles

 The electronic state is 1-A.
 Alpha  occ. eigenvalues --  -26.48688 -26.48640 -20.56572 -20.56185 -11.34352
 Alpha  occ. eigenvalues --  -11.28856 -11.23982  -7.72398  -1.63859  -1.59877
 Alpha  occ. eigenvalues --   -1.50243  -1.43730  -1.03391  -0.95703  -0.84445
 Alpha  occ. eigenvalues --   -0.80263  -0.75715  -0.75169  -0.71153  -0.69322
 Alpha  occ. eigenvalues --   -0.66183  -0.65208  -0.64020  -0.63344  -0.60325
 Alpha  occ. eigenvalues --   -0.59039  -0.57301  -0.55502  -0.53642  -0.47764
 Alpha  occ. eigenvalues --   -0.46106  -0.44220
 Alpha virt. eigenvalues --    0.03478   0.04050   0.04180   0.04521   0.06132
 Alpha virt. eigenvalues --    0.06561   0.06598   0.06980   0.09024   0.09827
 Alpha virt. eigenvalues --    0.10851   0.13154   0.13481   0.14109   0.14602

 Mulliken charges:
               1
     1  F   -0.720430
     2  B    1.373565
     3  F   -0.712596
     4  C    2.111379
     5  O   -1.576889
     6  O   -1.402309
     7  C    0.204625
     8  H    0.128348
     9  H   -0.020002
    10  H    0.175763
    11  C   -0.317392
    12  H    0.216216
    13  H    0.151274
    14  H    0.126791
    15  H    0.261658
 Sum of Mulliken charges =  -0.00000

 Dipole moment (field-independent basis, Debye):
    X=              1.5319    Y=              0.2606    Z=              0.1421  Tot=              1.5604

 Test job not archived.
 1\1\GINC-SE059\SP\RHF\Aug-CC-pVDZ\C3H7B1F2O2\OHZDE\09-Apr-2025\0\\#t h
 f aug-cc-pvdz iop(5/13=1,5/36=2,99/5=2) pseudo=read geom=check guess=(
 read,tcheck) scf=(maxcycle=1)\\title\\0,1\F,0,-1.961385,0.94773,-0.708
 81\B,0,-1.274295,-0.035507,-0.155029\F,0,-1.894952,-1.197689,0.002629\
 C,0,0.236399,0.122568,0.315648\O,0,0.908813,-0.361401,-0.851939\O,0,0.
 515025,-0.69147,1.44717\C,0,2.337668,-0.357744,-0.8199\H,0,2.742404,0.
 652382,-0.94346\H,0,2.660833,-0.972366,-1.659586\H,0,2.709624,-0.79081
 3,0.11236\C,0,0.631131,1.543199,0.700925\H,0,0.518662,2.213554,-0.1524

 Normal termination of Gaussian 16 at Wed Apr  9 00:34:30 2025.
