 Gaussian 16, Revision C.01,

 ----------------------------------------------------------------------
 #t hf aug-cc-pvdz symm=none int=(grid=ultrafine) guess=(read,tcheck) s
 table=(opt,rrhf)
 ----------------------------------------------------------------------
 -----
 title
 -----
 Symbolic Z-matrix:
 Charge =  0 Multiplicity = 1

 SCF Done:  E(RHF) =  -1416.94933101     A.U. after   11 cycles

 1\1\GINC-SE186\Stability\RHF\Aug-CC-pVDZ\C1H1Cl3\OHZDE\08-Apr-2025\0\\
 #t hf aug-cc-pvdz symm=none int=(grid=ultrafine) guess=(read,tcheck) s
 table=(opt,rrhf)\\title\\0,1\C,0,-0.000022,0.000013,0.4564\Cl,0,1.0931
 73,1.300806,-0.083871\H,0,0.000005,0.000001,1.538684\Cl,0,0.579974,-1.
 597099,-0.083858\Cl,0,-1.673139,0.296288,-0.083864\\Version=ES64L-G16R
 evC.01\HF=-1416.949331\RMSD=6.314e-09\Dipole=-0.0000413,0.0000213,0.48
 13538\Quadrupole=-0.5899807,-0.590304,1.1802847,-0.0000085,0.0000048,-
 0.0000003\PG=Unknown\\@

 Normal termination of Gaussian 16 at Tue Apr  8 22:37:22 2025.
 Gaussian 16:  ES64L-G16RevC.01  3-Jul-2019

 ----------------------------------------------------------------------
 #t hf aug-cc-pvdz iop(5/13=1,5/36=2,99/5=2) pseudo=read geom=check gue
 ss=(read,tcheck) scf=(maxcycle=1)
 ----------------------------------------------------------------------
 -----
 title
 -----
 Structure from the checkpoint file:  "BDE49_expt_116_mol1.chk"
 Charge =  0 Multiplicity = 1

                         Standard orientation:
 ---------------------------------------------------------------------
 Center     Atomic      Atomic             Coordinates (Angstroms)
 Number     Number       Type             X           Y           Z
 ---------------------------------------------------------------------
      1          6           0        0.000022   -0.000013    0.456400
      2         17           0       -1.086723   -1.306199   -0.083871
      3          1           0       -0.000005   -0.000001    1.538684
      4         17           0       -0.587869    1.594210   -0.083858
      5         17           0        1.674585   -0.288006   -0.083864
 ---------------------------------------------------------------------

 SCF Done:  E(RHF) =  -1417.21524756     A.U. after    2 cycles

 The electronic state is 1-A.
 Alpha  occ. eigenvalues -- -105.60007-105.60007-105.60006 -11.44782 -10.64845
 Alpha  occ. eigenvalues --  -10.64844 -10.64843  -7.81793  -7.81793  -7.81787
 Alpha  occ. eigenvalues --   -7.81360  -7.81356  -7.81356  -7.81352  -7.81351
 Alpha  occ. eigenvalues --   -7.81351  -1.21332  -1.07271  -1.07271  -0.87100
 Alpha  occ. eigenvalues --   -0.69126  -0.63769  -0.63768  -0.51579  -0.51578
 Alpha  occ. eigenvalues --   -0.48019  -0.48019  -0.47661  -0.46363
 Alpha virt. eigenvalues --    0.03875   0.06779   0.08095   0.08095   0.10480
 Alpha virt. eigenvalues --    0.13338   0.13338   0.14494   0.14494   0.15407
 Alpha virt. eigenvalues --    0.16668   0.18141   0.18141   0.18831   0.20810

 Mulliken charges:
               1
     1  C   -0.885437
     2  Cl   0.143647
     3  H    0.454489
     4  Cl   0.143644
     5  Cl   0.143655
 Sum of Mulliken charges =  -0.00000

 Dipole moment (field-independent basis, Debye):
    X=              0.0001    Y=             -0.0001    Z=              1.2229  Tot=              1.2229

 Test job not archived.
 1\1\GINC-SE186\SP\RHF\Aug-CC-pVDZ\C1H1Cl3\OHZDE\08-Apr-2025\0\\#t hf a
 ug-cc-pvdz iop(5/13=1,5/36=2,99/5=2) pseudo=read geom=check guess=(rea
 d,tcheck) scf=(maxcycle=1)\\title\\0,1\C,0,-0.000022,0.000013,0.4564\C
 l,0,1.093173,1.300806,-0.083871\H,0,0.000005,0.000001,1.538684\Cl,0,0.
 579974,-1.597099,-0.083858\Cl,0,-1.673139,0.296288,-0.083864\\Version=
 ES64L-G16RevC.01\State=1-A\HF=-1417.2152476\RMSD=3.705e-03\Dipole=-0.0
 000418,0.0000214,0.4811104\Quadrupole=-0.5766561,-0.576985,1.1536411,-
 0.000009,0.0000057,-0.0000009\PG=C01 [X(C1H1Cl3)]\\@

 Normal termination of Gaussian 16 at Tue Apr  8 22:37:25 2025.
