 Gaussian 16, Revision C.01,

 ----------------------------------------------------------------------
 #t hf aug-cc-pvdz symm=none int=(grid=ultrafine) guess=(read,tcheck) s
 table=(opt,rrhf)
 ----------------------------------------------------------------------
 -----
 title
 -----
 Symbolic Z-matrix:
 Charge =  0 Multiplicity = 1

 SCF Done:  E(RHF) =  -384.632512549     A.U. after   14 cycles
 Normal termination of Gaussian 16 at Tue Apr  8 23:07:15 2025.
 Gaussian 16:  ES64L-G16RevC.01  3-Jul-2019

 ----------------------------------------------------------------------
 #t hf aug-cc-pvdz iop(5/13=1,5/36=2,99/5=2) pseudo=read geom=check gue
 ss=(read,tcheck) scf=(maxcycle=1)
 ----------------------------------------------------------------------
 -----
 title
 -----
 Structure from the checkpoint file:  "BDE49_expt_457_mol1.chk"
 Charge =  0 Multiplicity = 1

                         Standard orientation:
 ---------------------------------------------------------------------
 Center     Atomic      Atomic             Coordinates (Angstroms)
 Number     Number       Type             X           Y           Z
 ---------------------------------------------------------------------
      1          6           0        0.726488    1.207427   -0.000384
      2          6           0       -0.664607    1.204679   -0.005306
      3          6           0       -1.383677   -0.000000   -0.006251
      4          6           0        1.405780    0.000000    0.001825
      5          6           0        0.726489   -1.207427   -0.000384
      6          6           0       -0.664607   -1.204679   -0.005309
      7          1           0        1.284925    2.135421    0.002284
      8          1           0       -1.200017    2.148345   -0.013184
      9          1           0       -1.200017   -2.148345   -0.013194
     10          1           0        1.284926   -2.135420    0.002283
     11          7           0       -2.781158   -0.000003   -0.075353
     12          1           0       -3.223006   -0.834057    0.283235
     13          1           0       -3.223005    0.834078    0.283175
     14          9           0        2.763235    0.000000    0.008635
 ---------------------------------------------------------------------

 SCF Done:  E(RHF) =  -385.018218769     A.U. after    2 cycles

 The electronic state is 1-A.
 Alpha  occ. eigenvalues --  -26.46435 -15.51455 -11.32023 -11.29013 -11.25333
 Alpha  occ. eigenvalues --  -11.25323 -11.24720 -11.24717  -1.59084  -1.23066
 Alpha  occ. eigenvalues --   -1.14223  -1.03237  -0.99710  -0.86926  -0.83878
 Alpha  occ. eigenvalues --   -0.74306  -0.73873  -0.71873  -0.66622  -0.66132
 Alpha  occ. eigenvalues --   -0.63280  -0.61153  -0.58450  -0.58247  -0.55774
 Alpha  occ. eigenvalues --   -0.51153  -0.47686  -0.36069  -0.31504
 Alpha virt. eigenvalues --    0.02723   0.03795   0.04433   0.05144   0.05785
 Alpha virt. eigenvalues --    0.08514   0.09365   0.10051   0.10825   0.11781
 Alpha virt. eigenvalues --    0.12602   0.13305   0.13726   0.14020   0.14194

 Mulliken charges:
               1
     1  C   -0.167216
     2  C    0.853203
     3  C   -1.294771
     4  C    1.088118
     5  C   -0.167203
     6  C    0.853222
     7  H   -0.191355
     8  H   -0.267728
     9  H   -0.267723
    10  H   -0.191356
    11  N    0.721392
    12  H    0.012355
    13  H    0.012345
    14  F   -0.993283
 Sum of Mulliken charges =   0.00000

 Dipole moment (field-independent basis, Debye):
    X=             -2.5176    Y=              0.0000    Z=              1.0524  Tot=              2.7287

 Test job not archived.
 1\1\GINC-SE070\SP\RHF\Aug-CC-pVDZ\C6H6F1N1\OHZDE\08-Apr-2025\0\\#t hf
 aug-cc-pvdz iop(5/13=1,5/36=2,99/5=2) pseudo=read geom=check guess=(re
 ad,tcheck) scf=(maxcycle=1)\\title\\0,1\C,0,0.726488,1.207427,-0.00038
 4\C,0,-0.664607,1.204679,-0.005306\C,0,-1.383677,0.,-0.006251\C,0,1.40
 578,0.,0.001825\C,0,0.726489,-1.207427,-0.000384\C,0,-0.664607,-1.2046
 79,-0.005309\H,0,1.284925,2.135421,0.002284\H,0,-1.200017,2.148345,-0.
 013184\H,0,-1.200017,-2.148345,-0.013194\H,0,1.284926,-2.13542,0.00228
 3\N,0,-2.781158,-0.000003,-0.075353\H,0,-3.223006,-0.834057,0.283235\H

 Normal termination of Gaussian 16 at Tue Apr  8 23:07:20 2025.
