 Gaussian 16, Revision C.01,

 ----------------------------------------------------------------------
 #t hf aug-cc-pvdz symm=none int=(grid=ultrafine) guess=(read,tcheck) s
 table=opt
 ----------------------------------------------------------------------
 -----
 title
 -----
 Symbolic Z-matrix:
 Charge =  0 Multiplicity = 2

 SCF Done:  E(UHF) =  -612.666403957     A.U. after   14 cycles
 Normal termination of Gaussian 16 at Wed Apr  9 00:34:49 2025.
 Gaussian 16:  ES64L-G16RevC.01  3-Jul-2019

 ----------------------------------------------------------------------
 #t hf aug-cc-pvdz iop(5/13=1,5/36=2,99/5=2) pseudo=read geom=check gue
 ss=(read,tcheck) scf=(maxcycle=1)
 ----------------------------------------------------------------------
 -----
 title
 -----
 Structure from the checkpoint file:  "BDE49_nonexpt_457_mol2.chk"
 Charge =  0 Multiplicity = 2

                         Standard orientation:
 ---------------------------------------------------------------------
 Center     Atomic      Atomic             Coordinates (Angstroms)
 Number     Number       Type             X           Y           Z
 ---------------------------------------------------------------------
      1          1           0        2.973898   -0.000084    0.798474
      2          5           0        2.032591   -0.000077    0.087797
      3         14           0        0.067684   -0.000005    0.011846
      4          9           0       -0.418701   -1.293010   -0.772970
      5          9           0       -0.727646    0.000012    1.389992
      6          9           0       -0.418590    1.293057   -0.772946
 ---------------------------------------------------------------------

 SCF Done:  E(UHF) =  -612.987334126     A.U. after    2 cycles

 The electronic state is 2-A.
 Alpha  occ. eigenvalues --  -69.67583 -26.48153 -26.48151 -26.47826  -7.67193
 Alpha  occ. eigenvalues --   -6.33452  -4.08781  -4.08760  -4.08472  -1.61901
 Alpha  occ. eigenvalues --   -1.58688  -1.58359  -0.83347  -0.74944  -0.72964
 Alpha  occ. eigenvalues --   -0.72818  -0.67942  -0.66932  -0.66831  -0.64103
 Alpha  occ. eigenvalues --   -0.63907  -0.62277  -0.53391  -0.37389
 Alpha virt. eigenvalues --   -0.00765   0.03996   0.05445   0.05692   0.07314
 Alpha virt. eigenvalues --    0.07675   0.08043   0.08112   0.12266   0.15717
 Alpha virt. eigenvalues --    0.19753   0.20069   0.21047   0.22893   0.23183

  Beta  occ. eigenvalues --  -69.67588 -26.48168 -26.48167 -26.47716  -7.65499
  Beta  occ. eigenvalues --   -6.33461  -4.08780  -4.08729  -4.08496  -1.61846
  Beta  occ. eigenvalues --   -1.58738  -1.58158  -0.82468  -0.73016  -0.72712
  Beta  occ. eigenvalues --   -0.72187  -0.66952  -0.66571  -0.65302  -0.64109
  Beta  occ. eigenvalues --   -0.63654  -0.62180  -0.51874
  Beta virt. eigenvalues --    0.00747   0.02546   0.04178   0.05563   0.07784
  Beta virt. eigenvalues --    0.07923   0.08067   0.08210   0.08487   0.12740
  Beta virt. eigenvalues --    0.16034   0.20262   0.21336   0.22772   0.23911

 Mulliken charges and spin densities:
               1          2
     1  H    0.392925  -0.049372
     2  B   -0.911959   1.127807
     3  Si   3.050836  -0.063820
     4  F   -0.855511   0.005934
     5  F   -0.820781  -0.026484
     6  F   -0.855510   0.005935
 Sum of Mulliken charges =  -0.00000   1.00000

 Dipole moment (field-independent basis, Debye):
    X=              2.2045    Y=             -0.0001    Z=              0.6144  Tot=              2.2886
                          Isotropic Fermi Contact Couplings
        Atom                 a.u.       MegaHertz       Gauss      10(-4) cm-1
     1  H(1)              -0.01213     -54.21285     -19.34449     -18.08346
     2  B(11)              0.19092     273.85410      97.71795      91.34790
     3  Si(29)            -0.02320      20.62035       7.35786       6.87821
     4  F(19)             -0.00552     -23.20989      -8.28186      -7.74199
     5  F(19)              0.02563     107.84520      38.48185      35.97329
     6  F(19)             -0.00552     -23.20967      -8.28179      -7.74191
 --------------------------------------------------------
       Center         ----  Spin Dipole Couplings  ----

 Normal termination of Gaussian 16 at Wed Apr  9 00:34:51 2025.
