 Gaussian 16, Revision C.01,

 ----------------------------------------------------------------------
 #t hf aug-cc-pvdz symm=none int=(grid=ultrafine) guess=(read,tcheck) s
 table=(opt,rrhf)
 ----------------------------------------------------------------------
 -----
 title
 -----
 Symbolic Z-matrix:
 Charge =  0 Multiplicity = 1

 SCF Done:  E(RHF) =  -263.170603944     A.U. after   12 cycles
 Normal termination of Gaussian 16 at Wed Apr  9 00:34:45 2025.
 Gaussian 16:  ES64L-G16RevC.01  3-Jul-2019

 ----------------------------------------------------------------------
 #t hf aug-cc-pvdz iop(5/13=1,5/36=2,99/5=2) pseudo=read geom=check gue
 ss=(read,tcheck) scf=(maxcycle=1)
 ----------------------------------------------------------------------
 -----
 title
 -----
 Structure from the checkpoint file:  "BDE49_nonexpt_456_mol1.chk"
 Charge =  0 Multiplicity = 1

                         Standard orientation:
 ---------------------------------------------------------------------
 Center     Atomic      Atomic             Coordinates (Angstroms)
 Number     Number       Type             X           Y           Z
 ---------------------------------------------------------------------
      1          1           0        2.302237   -0.520584    0.564066
      2          1           0        1.337333   -1.265655   -1.115860
      3          5           0        1.318476   -0.690365   -0.078837
      4          6           0       -0.041499   -0.033229    0.396149
      5          9           0        0.073289    1.228491   -0.199142
      6          9           0       -1.157468   -0.638621   -0.122160
      7          1           0       -0.225351    0.128609    1.460809
 ---------------------------------------------------------------------

 SCF Done:  E(RHF) =  -263.418633180     A.U. after    2 cycles

 The electronic state is 1-A.
 Alpha  occ. eigenvalues --  -26.47695 -26.47386 -11.39936  -7.63264  -1.62976
 Alpha  occ. eigenvalues --   -1.56776  -0.95827  -0.78932  -0.75045  -0.72808
 Alpha  occ. eigenvalues --   -0.65947  -0.63800  -0.60134  -0.58420  -0.52532
 Alpha  occ. eigenvalues --   -0.49116
 Alpha virt. eigenvalues --    0.02457   0.03546   0.04585   0.05140   0.07727
 Alpha virt. eigenvalues --    0.08676   0.10032   0.11420   0.12745   0.14714
 Alpha virt. eigenvalues --    0.16072   0.20095   0.23246   0.23816   0.25284

 Mulliken charges:
               1
     1  H    0.134455
     2  H    0.131651
     3  B   -0.036269
     4  C    1.166297
     5  F   -0.690689
     6  F   -0.713489
     7  H    0.008043
 Sum of Mulliken charges =  -0.00000

 Dipole moment (field-independent basis, Debye):
    X=              1.3110    Y=             -0.8964    Z=              1.4078  Tot=              2.1223

 Test job not archived.
 1\1\GINC-SE367\SP\RHF\Aug-CC-pVDZ\C1H3B1F2\OHZDE\09-Apr-2025\0\\#t hf
 aug-cc-pvdz iop(5/13=1,5/36=2,99/5=2) pseudo=read geom=check guess=(re
 ad,tcheck) scf=(maxcycle=1)\\title\\0,1\H,0,2.302238,-0.520582,0.56406
 6\H,0,1.337335,-1.265654,-1.11586\B,0,1.318477,-0.690364,-0.078837\C,0
 ,-0.041499,-0.033229,0.396149\F,0,0.073288,1.228491,-0.199142\F,0,-1.1
 57467,-0.638623,-0.12216\H,0,-0.225351,0.128608,1.460809\\Version=ES64
 L-G16RevC.01\State=1-A\HF=-263.4186332\RMSD=4.240e-03\Dipole=0.5157693
 ,-0.3526744,0.553885\Quadrupole=-0.8125983,-0.5062903,1.3188886,-0.793

 Normal termination of Gaussian 16 at Wed Apr  9 00:34:47 2025.
