 Gaussian 16, Revision C.01,

 ----------------------------------------------------------------------
 #t hf aug-cc-pvdz symm=none int=(grid=ultrafine) guess=(read,tcheck) s
 table=(opt,rrhf)
 ----------------------------------------------------------------------
 -----
 title
 -----
 Symbolic Z-matrix:
 Charge =  0 Multiplicity = 1

 SCF Done:  E(RHF) =  -643.085929788     A.U. after   15 cycles
 Normal termination of Gaussian 16 at Tue Apr  8 23:36:48 2025.
 Gaussian 16:  ES64L-G16RevC.01  3-Jul-2019

 ----------------------------------------------------------------------
 #t hf aug-cc-pvdz iop(5/13=1,5/36=2,99/5=2) pseudo=read geom=check gue
 ss=(read,tcheck) scf=(maxcycle=1)
 ----------------------------------------------------------------------
 -----
 title
 -----
 Structure from the checkpoint file:  "BDE49_nonexpt_1511_mol1.chk"
 Charge =  0 Multiplicity = 1

                         Standard orientation:
 ---------------------------------------------------------------------
 Center     Atomic      Atomic             Coordinates (Angstroms)
 Number     Number       Type             X           Y           Z
 ---------------------------------------------------------------------
      1          6           0       -0.406297    1.104126   -0.171632
      2          6           0       -1.780356    1.308151   -0.093189
      3          6           0       -2.612831    0.204058    0.068566
      4          7           0       -2.157532   -1.050158    0.160904
      5          6           0       -0.837674   -1.230344    0.088876
      6          6           0        0.093931   -0.196397   -0.075804
      7          1           0       -2.200884    2.305210   -0.157268
      8          1           0       -3.690450    0.327202    0.130289
      9          1           0        0.277978    1.936353   -0.291714
     10          7           0        2.600081    0.837319    0.354252
     11          1           0       -0.500906   -2.261524    0.176650
     12         15           0        1.885183   -0.569949   -0.297762
     13          1           0        1.954383   -1.502950    0.776729
     14          1           0        3.508056    1.067247   -0.020332
     15          1           0        2.535595    1.030008    1.345083
 ---------------------------------------------------------------------

 SCF Done:  E(RHF) =  -643.440587559     A.U. after    2 cycles

 The electronic state is 1-A.
 Alpha  occ. eigenvalues --  -84.30198 -15.50627 -15.50568 -11.28244 -11.27946
 Alpha  occ. eigenvalues --  -11.26366 -11.25080 -11.24896  -6.76884  -4.29780
 Alpha  occ. eigenvalues --   -4.29573  -4.28602  -1.25849  -1.17833  -1.09123
 Alpha  occ. eigenvalues --   -1.04132  -0.89696  -0.87203  -0.81754  -0.72744
 Alpha  occ. eigenvalues --   -0.71493  -0.69373  -0.63849  -0.60359  -0.59355
 Alpha  occ. eigenvalues --   -0.58054  -0.56400  -0.51817  -0.45873  -0.44489
 Alpha  occ. eigenvalues --   -0.41176  -0.37981  -0.31847
 Alpha virt. eigenvalues --    0.02912   0.03752   0.04481   0.05199   0.05620
 Alpha virt. eigenvalues --    0.06386   0.07091   0.07810   0.08392   0.09215
 Alpha virt. eigenvalues --    0.10102   0.10793   0.11435   0.12577   0.12943

 Mulliken charges:
               1
     1  C    0.198182
     2  C    0.447849
     3  C   -0.824415
     4  N    0.921366
     5  C   -0.899751
     6  C    0.452129
     7  H   -0.201058
     8  H   -0.169188
     9  H   -0.258070
    10  N    0.045494
    11  H   -0.220725
    12  P    0.207822
    13  H    0.339100
    14  H    0.011419
    15  H   -0.050154
 Sum of Mulliken charges =   0.00000

 Dipole moment (field-independent basis, Debye):
    X=              2.2913    Y=              2.2366    Z=              0.8297  Tot=              3.3077

 Test job not archived.
 1\1\GINC-SE227\SP\RHF\Aug-CC-pVDZ\C5H7N2P1\OHZDE\08-Apr-2025\0\\#t hf
 aug-cc-pvdz iop(5/13=1,5/36=2,99/5=2) pseudo=read geom=check guess=(re
 ad,tcheck) scf=(maxcycle=1)\\title\\0,1\C,0,-0.406297,1.104126,-0.1716
 32\C,0,-1.780356,1.308151,-0.093189\C,0,-2.612831,0.204058,0.068566\N,
 0,-2.157532,-1.050158,0.160904\C,0,-0.837674,-1.230344,0.088876\C,0,0.
 093931,-0.196397,-0.075804\H,0,-2.200884,2.30521,-0.157268\H,0,-3.6904
 5,0.327202,0.130289\H,0,0.277978,1.936353,-0.291714\N,0,2.600081,0.837
 319,0.354252\H,0,-0.500906,-2.261524,0.17665\P,0,1.885183,-0.569949,-0

 Normal termination of Gaussian 16 at Tue Apr  8 23:36:54 2025.
