 Gaussian 16, Revision C.01,

 ----------------------------------------------------------------------
 #t hf aug-cc-pvdz symm=none int=(grid=ultrafine) guess=(read,tcheck) s
 table=(opt,rrhf)
 ----------------------------------------------------------------------
 -----
 title
 -----
 Symbolic Z-matrix:
 Charge =  0 Multiplicity = 1

 SCF Done:  E(RHF) =  -289.261488288     A.U. after   12 cycles

 1\1\GINC-SE398\Stability\RHF\Aug-CC-pVDZ\C6H13N1\OHZDE\08-Apr-2025\0\\
 #t hf aug-cc-pvdz symm=none int=(grid=ultrafine) guess=(read,tcheck) s
 table=(opt,rrhf)\\title\\0,1\N,0,-0.339353,-1.238423,0.111006\C,0,1.09
 0952,-1.280483,-0.20996\C,0,1.88158,-0.060062,0.288689\C,0,1.224488,1.
 240668,-0.19387\C,0,-0.268797,1.271446,0.16522\C,0,-0.993454,0.003933,
 -0.329998\H,0,1.333493,1.315177,-1.283831\H,0,1.736672,2.110797,0.2286
 62\H,0,-0.743592,2.164623,-0.256835\H,0,-0.383939,1.337685,1.256082\H,
 0,1.182913,-1.34941,-1.30156\H,0,1.50697,-2.20672,0.19718\H,0,2.921268

 Normal termination of Gaussian 16 at Tue Apr  8 22:38:11 2025.
 Gaussian 16:  ES64L-G16RevC.01  3-Jul-2019

 ----------------------------------------------------------------------
 #t hf aug-cc-pvdz iop(5/13=1,5/36=2,99/5=2) pseudo=read geom=check gue
 ss=(read,tcheck) scf=(maxcycle=1)
 ----------------------------------------------------------------------
 -----
 title
 -----
 Structure from the checkpoint file:  "BDE49_expt_1189_mol1.chk"
 Charge =  0 Multiplicity = 1

                         Standard orientation:
 ---------------------------------------------------------------------
 Center     Atomic      Atomic             Coordinates (Angstroms)
 Number     Number       Type             X           Y           Z
 ---------------------------------------------------------------------
      1          7           0       -0.339353   -1.238423    0.111006
      2          6           0        1.090952   -1.280483   -0.209960
      3          6           0        1.881580   -0.060062    0.288689
      4          6           0        1.224488    1.240668   -0.193870
      5          6           0       -0.268797    1.271446    0.165220
      6          6           0       -0.993454    0.003933   -0.329998
      7          1           0        1.333493    1.315177   -1.283831
      8          1           0        1.736672    2.110797    0.228662
      9          1           0       -0.743592    2.164623   -0.256835
     10          1           0       -0.383939    1.337685    1.256082
     11          1           0        1.182913   -1.349410   -1.301560
     12          1           0        1.506970   -2.206720    0.197180
     13          1           0        2.921268   -0.117473   -0.052657
     14          1           0        1.907183   -0.072754    1.386319
     15          1           0       -0.459252   -1.331560    1.117542
     16          6           0       -2.464101   -0.023266    0.079224
     17          1           0       -0.941883   -0.000894   -1.428324
     18          1           0       -2.563857   -0.015429    1.170725
     19          1           0       -2.946851   -0.927228   -0.297957
     20          1           0       -2.997663    0.848734   -0.308212
 ---------------------------------------------------------------------

 SCF Done:  E(RHF) =  -289.580673589     A.U. after    2 cycles

 The electronic state is 1-A.
 Alpha  occ. eigenvalues --  -15.47551 -11.25291 -11.24853 -11.22562 -11.22334
 Alpha  occ. eigenvalues --  -11.22226 -11.21887  -1.20650  -1.05512  -1.03615
 Alpha  occ. eigenvalues --   -0.93927  -0.86322  -0.82042  -0.78067  -0.65944
 Alpha  occ. eigenvalues --   -0.63885  -0.63400  -0.61018  -0.59027  -0.55678
 Alpha  occ. eigenvalues --   -0.53266  -0.52566  -0.51823  -0.49550  -0.48104
 Alpha  occ. eigenvalues --   -0.46385  -0.45656  -0.38399
 Alpha virt. eigenvalues --    0.03679   0.03806   0.03942   0.04206   0.05431
 Alpha virt. eigenvalues --    0.05576   0.05783   0.06268   0.06501   0.09130
 Alpha virt. eigenvalues --    0.09504   0.09628   0.09870   0.13149   0.13960

 Mulliken charges:
               1
     1  N    0.715924
     2  C   -0.529809
     3  C   -0.208785
     4  C   -0.235729
     5  C   -0.016056
     6  C   -1.508627
     7  H    0.124435
     8  H    0.124741
     9  H    0.119445
    10  H    0.152048
    11  H    0.137556
    12  H    0.026234
    13  H    0.118841
    14  H    0.130967
    15  H    0.371384
    16  C   -0.073434
    17  H    0.039235
    18  H    0.171941
    19  H    0.180491
    20  H    0.159198
 Sum of Mulliken charges =   0.00000

 Dipole moment (field-independent basis, Debye):
    X=              0.5932    Y=              1.0371    Z=              0.4781  Tot=              1.2869

 Test job not archived.
 1\1\GINC-SE398\SP\RHF\Aug-CC-pVDZ\C6H13N1\OHZDE\08-Apr-2025\0\\#t hf a
 ug-cc-pvdz iop(5/13=1,5/36=2,99/5=2) pseudo=read geom=check guess=(rea
 d,tcheck) scf=(maxcycle=1)\\title\\0,1\N,0,-0.339353,-1.238423,0.11100
 6\C,0,1.090952,-1.280483,-0.20996\C,0,1.88158,-0.060062,0.288689\C,0,1
 .224488,1.240668,-0.19387\C,0,-0.268797,1.271446,0.16522\C,0,-0.993454
 ,0.003933,-0.329998\H,0,1.333493,1.315177,-1.283831\H,0,1.736672,2.110
 797,0.228662\H,0,-0.743592,2.164623,-0.256835\H,0,-0.383939,1.337685,1
 .256082\H,0,1.182913,-1.34941,-1.30156\H,0,1.50697,-2.20672,0.19718\H,

 Normal termination of Gaussian 16 at Tue Apr  8 22:38:19 2025.
