 Gaussian 16, Revision C.01,

 ----------------------------------------------------------------------
 #t hf aug-cc-pvdz symm=none int=(grid=ultrafine) guess=(read,tcheck) s
 table=(opt,rrhf)
 ----------------------------------------------------------------------
 -----
 title
 -----
 Symbolic Z-matrix:
 Charge =  0 Multiplicity = 1

 SCF Done:  E(RHF) =  -950.245732489     A.U. after   15 cycles
 Normal termination of Gaussian 16 at Tue Apr  8 23:42:40 2025.
 Gaussian 16:  ES64L-G16RevC.01  3-Jul-2019

 ----------------------------------------------------------------------
 #t hf aug-cc-pvdz iop(5/13=1,5/36=2,99/5=2) pseudo=read geom=check gue
 ss=(read,tcheck) scf=(maxcycle=1)
 ----------------------------------------------------------------------
 -----
 title
 -----
 Structure from the checkpoint file:  "BDE49_nonexpt_1686_mol1.chk"
 Charge =  0 Multiplicity = 1

                         Standard orientation:
 ---------------------------------------------------------------------
 Center     Atomic      Atomic             Coordinates (Angstroms)
 Number     Number       Type             X           Y           Z
 ---------------------------------------------------------------------
      1          6           0       -2.208510    0.089422    0.260245
      2         15           0       -0.863585    1.294045   -0.158864
      3         14           0        0.908092   -0.147065   -0.003672
      4          7           0        2.268714    0.680389   -0.608957
      5          8           0       -2.293816   -1.035593   -0.187572
      6          1           0       -3.014571    0.493266    0.907186
      7          8           0        1.246409   -0.640217    1.527486
      8          1           0        2.222310    1.118614   -1.518464
      9          1           0        3.190766    0.301807   -0.437161
     10          1           0       -0.836566    1.948132    1.095859
     11          1           0        1.581159    0.016874    2.142575
     12          8           0        0.421133   -1.433725   -0.873400
     13          1           0       -0.522355   -1.653421   -0.786515
 ---------------------------------------------------------------------

 SCF Done:  E(RHF) =  -950.639840296     A.U. after    2 cycles

 The electronic state is 1-A.
 Alpha  occ. eigenvalues --  -84.27790 -69.60457 -20.56880 -20.55726 -20.53724
 Alpha  occ. eigenvalues --  -15.49308 -11.36773  -6.75277  -6.26519  -4.27785
 Alpha  occ. eigenvalues --   -4.27605  -4.26972  -4.01984  -4.01937  -4.01852
 Alpha  occ. eigenvalues --   -1.49766  -1.45259  -1.42377  -1.15832  -0.94511
 Alpha  occ. eigenvalues --   -0.80560  -0.77439  -0.71255  -0.69563  -0.68126
 Alpha  occ. eigenvalues --   -0.66904  -0.60896  -0.58694  -0.55781  -0.55060
 Alpha  occ. eigenvalues --   -0.52214  -0.50917  -0.48150  -0.46115  -0.39878
 Alpha  occ. eigenvalues --   -0.34890
 Alpha virt. eigenvalues --    0.02780   0.03854   0.05155   0.05608   0.06493
 Alpha virt. eigenvalues --    0.07264   0.07678   0.08259   0.08364   0.08805
 Alpha virt. eigenvalues --    0.09133   0.11813   0.12030   0.13246   0.13515

 Mulliken charges:
               1
     1  C    0.442801
     2  P   -0.527933
     3  Si   2.924851
     4  N    0.000524
     5  O   -1.061893
     6  H    0.042609
     7  O   -1.482478
     8  H   -0.002180
     9  H   -0.041004
    10  H    0.403937
    11  H    0.362826
    12  O   -1.636913
    13  H    0.574853
 Sum of Mulliken charges =  -0.00000

 Dipole moment (field-independent basis, Debye):
    X=              1.0268    Y=              3.4203    Z=              1.2109  Tot=              3.7708

 Test job not archived.
 1\1\GINC-SE435\SP\RHF\Aug-CC-pVDZ\C1H6N1O3P1Si1\OHZDE\08-Apr-2025\0\\#
 t hf aug-cc-pvdz iop(5/13=1,5/36=2,99/5=2) pseudo=read geom=check gues
 s=(read,tcheck) scf=(maxcycle=1)\\title\\0,1\C,0,-2.20851,0.089422,0.2
 60245\P,0,-0.863585,1.294045,-0.158864\Si,0,0.908092,-0.147065,-0.0036
 72\N,0,2.268714,0.680389,-0.608957\O,0,-2.293816,-1.035593,-0.187572\H
 ,0,-3.014571,0.493267,0.907186\O,0,1.246409,-0.640217,1.527486\H,0,2.2
 2231,1.118614,-1.518464\H,0,3.190766,0.301807,-0.437161\H,0,-0.836566,
 1.948132,1.095859\H,0,1.581159,0.016874,2.142575\O,0,0.421133,-1.43372

 Normal termination of Gaussian 16 at Tue Apr  8 23:42:45 2025.
