 Gaussian 16, Revision C.01,

 ----------------------------------------------------------------------
 #t hf aug-cc-pvdz symm=none int=(grid=ultrafine) guess=(read,tcheck) s
 table=opt
 ----------------------------------------------------------------------
 -----
 title
 -----
 Symbolic Z-matrix:
 Charge =  0 Multiplicity = 2

 SCF Done:  E(UHF) =  -1233.81681161     A.U. after   15 cycles
 Normal termination of Gaussian 16 at Tue Apr  8 23:44:13 2025.
 Gaussian 16:  ES64L-G16RevC.01  3-Jul-2019

 ----------------------------------------------------------------------
 #t hf aug-cc-pvdz iop(5/13=1,5/36=2,99/5=2) pseudo=read geom=check gue
 ss=(read,tcheck) scf=(maxcycle=1)
 ----------------------------------------------------------------------
 -----
 title
 -----
 Structure from the checkpoint file:  "BDE49_nonexpt_171_mol2.chk"
 Charge =  0 Multiplicity = 2

                         Standard orientation:
 ---------------------------------------------------------------------
 Center     Atomic      Atomic             Coordinates (Angstroms)
 Number     Number       Type             X           Y           Z
 ---------------------------------------------------------------------
      1         17           0       -2.342230   -0.411167    0.000005
      2          5           0       -1.169564    0.835961   -0.000006
      3         14           0        0.811544    0.972339   -0.000001
      4         17           0        1.875245   -0.837180   -0.000002
      5          1           0        1.212481    1.714669   -1.212488
      6          1           0        1.212475    1.714664    1.212492
 ---------------------------------------------------------------------

 SCF Done:  E(UHF) =  -1234.02246443     A.U. after    2 cycles

 The electronic state is 2-A.
 Alpha  occ. eigenvalues -- -105.59996-105.56049 -69.58595 -10.65011 -10.61032
 Alpha  occ. eigenvalues --   -7.81885  -7.81663  -7.81576  -7.77975  -7.77606
 Alpha  occ. eigenvalues --   -7.77591  -7.69281  -6.25387  -4.00753  -4.00682
 Alpha  occ. eigenvalues --   -4.00633  -1.11041  -1.05497  -0.78427  -0.67659
 Alpha  occ. eigenvalues --   -0.56053  -0.55015  -0.54674  -0.52077  -0.51929
 Alpha  occ. eigenvalues --   -0.46825  -0.46024  -0.34142
 Alpha virt. eigenvalues --    0.02019   0.03858   0.04297   0.04944   0.06126
 Alpha virt. eigenvalues --    0.07095   0.07516   0.07671   0.09330   0.11711
 Alpha virt. eigenvalues --    0.13192   0.14383   0.15077   0.15516   0.16856

  Beta  occ. eigenvalues -- -105.59939-105.55993 -69.58538 -10.64946 -10.60971
  Beta  occ. eigenvalues --   -7.81877  -7.81611  -7.81346  -7.77802  -7.77556
  Beta  occ. eigenvalues --   -7.77536  -7.67526  -6.25282  -4.00773  -4.00573
  Beta  occ. eigenvalues --   -4.00500  -1.10202  -1.05028  -0.76554  -0.65241
  Beta  occ. eigenvalues --   -0.54634  -0.53994  -0.53517  -0.52020  -0.49739
  Beta  occ. eigenvalues --   -0.45996  -0.45433
  Beta virt. eigenvalues --    0.02470   0.03569   0.04304   0.04341   0.06585
  Beta virt. eigenvalues --    0.07102   0.07145   0.07719   0.07842   0.09557
  Beta virt. eigenvalues --    0.12496   0.13614   0.15109   0.15627   0.16269

 Mulliken charges and spin densities:
               1          2
     1  Cl  -0.225081   0.006311
     2  B   -0.175511   1.007386
     3  Si   1.204398  -0.024032
     4  Cl  -0.555275   0.023612
     5  H   -0.124264  -0.006639
     6  H   -0.124265  -0.006639
 Sum of Mulliken charges =  -0.00000   1.00000

 Dipole moment (field-independent basis, Debye):
    X=             -0.6919    Y=              1.2799    Z=             -0.0000  Tot=              1.4549
                          Isotropic Fermi Contact Couplings
        Atom                 a.u.       MegaHertz       Gauss      10(-4) cm-1
     1  Cl(35)             0.04220      18.50449       6.60286       6.17243
     2  B(11)              0.23643     339.12911     121.00970     113.12129
     3  Si(29)             0.12923    -114.85360     -40.98262     -38.31104
     4  Cl(35)             0.03671      16.09667       5.74369       5.36927
     5  H(1)              -0.00223      -9.98353      -3.56237      -3.33015
     6  H(1)              -0.00223      -9.98343      -3.56234      -3.33011
 --------------------------------------------------------
       Center         ----  Spin Dipole Couplings  ----

 Normal termination of Gaussian 16 at Tue Apr  8 23:44:15 2025.
