 Gaussian 16, Revision C.01,

 ----------------------------------------------------------------------
 #t hf aug-cc-pvdz symm=none int=(grid=ultrafine) guess=(read,tcheck) s
 table=(opt,rrhf)
 ----------------------------------------------------------------------
 -----
 title
 -----
 Symbolic Z-matrix:
 Charge =  0 Multiplicity = 1

 SCF Done:  E(RHF) =  -500.786351741     A.U. after   14 cycles
 Normal termination of Gaussian 16 at Tue Apr  8 22:47:28 2025.
 Gaussian 16:  ES64L-G16RevC.01  3-Jul-2019

 ----------------------------------------------------------------------
 #t hf aug-cc-pvdz iop(5/13=1,5/36=2,99/5=2) pseudo=read geom=check gue
 ss=(read,tcheck) scf=(maxcycle=1)
 ----------------------------------------------------------------------
 -----
 title
 -----
 Structure from the checkpoint file:  "BDE49_expt_1433_mol1.chk"
 Charge =  0 Multiplicity = 1

                         Standard orientation:
 ---------------------------------------------------------------------
 Center     Atomic      Atomic             Coordinates (Angstroms)
 Number     Number       Type             X           Y           Z
 ---------------------------------------------------------------------
      1          6           0       -2.070615   -0.650982    0.378028
      2          8           0       -1.553652    0.280363   -0.586582
      3          6           0        0.819016    0.409115    0.007264
      4          6           0        1.207344   -0.537815   -0.945809
      5          6           0        1.691752    0.702361    1.057446
      6          6           0        2.931937    0.072734    1.152079
      7          6           0        3.311029   -0.866536    0.196382
      8          6           0        2.443282   -1.171451   -0.851808
      9          1           0        0.527003   -0.779452   -1.754173
     10          1           0        2.730641   -1.905393   -1.596918
     11          1           0        1.398249    1.427936    1.810424
     12          1           0        3.597038    0.310338    1.975093
     13          1           0        4.272944   -1.361472    0.269747
     14          6           0       -0.512568    1.138637   -0.124375
     15          6           0       -0.434191    2.294036   -1.122245
     16          1           0       -0.775896    1.547019    0.861501
     17          1           0        0.346263    3.001746   -0.833594
     18          1           0       -1.392788    2.815859   -1.164530
     19          1           0       -0.202937    1.912353   -2.119444
     20          6           0       -2.648901   -1.817460   -0.413108
     21          6           0       -3.118446    0.020506    1.267858
     22          1           0       -1.242418   -1.015592    1.000337
     23          1           0       -3.954922    0.375954    0.659975
     24          1           0       -2.701274    0.874708    1.806916
     25          1           0       -3.503432   -0.683918    2.010935
     26          1           0       -3.422728   -1.458419   -1.097151
     27          1           0       -3.094224   -2.558479    0.256080
     28          1           0       -1.870133   -2.304968   -1.002803
 ---------------------------------------------------------------------

 SCF Done:  E(RHF) =  -501.314895692     A.U. after    2 cycles

 The electronic state is 1-A.
 Alpha  occ. eigenvalues --  -20.53539 -11.29117 -11.28309 -11.24276 -11.24224
 Alpha  occ. eigenvalues --  -11.24178 -11.24030 -11.23980 -11.23624 -11.22327
 Alpha  occ. eigenvalues --  -11.22321 -11.22021  -1.45044  -1.15558  -1.07282
 Alpha  occ. eigenvalues --   -1.03124  -1.01396  -0.98083  -0.93653  -0.86538
 Alpha  occ. eigenvalues --   -0.83523  -0.80981  -0.78449  -0.71178  -0.68648
 Alpha  occ. eigenvalues --   -0.65545  -0.63444  -0.62760  -0.62037  -0.59574
 Alpha  occ. eigenvalues --   -0.58550  -0.57009  -0.56137  -0.54579  -0.54038
 Alpha  occ. eigenvalues --   -0.52309  -0.51396  -0.50721  -0.50085  -0.49096
 Alpha  occ. eigenvalues --   -0.48495  -0.45451  -0.41266  -0.34458  -0.33750
 Alpha virt. eigenvalues --    0.03071   0.03245   0.03826   0.03944   0.04714
 Alpha virt. eigenvalues --    0.04882   0.05472   0.05970   0.06538   0.07143
 Alpha virt. eigenvalues --    0.07832   0.08377   0.08947   0.09312   0.09653

 Mulliken charges:
               1
     1  C   -0.132387
     2  O   -1.705957
     3  C    1.214029
     4  C    0.145959
     5  C    0.175507
     6  C    0.081696
     7  C    0.248422
     8  C   -0.005910
     9  H   -0.357498
    10  H   -0.250097
    11  H   -0.348477
    12  H   -0.250595
    13  H   -0.228865
    14  C    0.396104
    15  C   -0.524526
    16  H    0.151699
    17  H    0.171989
    18  H    0.116458
    19  H    0.218846
    20  C   -0.235288
    21  C   -0.260835
    22  H    0.337642
    23  H    0.239432
    24  H    0.130081
    25  H    0.164086
    26  H    0.203819
    27  H    0.179090
    28  H    0.125575
 Sum of Mulliken charges =  -0.00000

 Dipole moment (field-independent basis, Debye):
    X=              0.1854    Y=             -0.0930    Z=              1.0730  Tot=              1.0929

 Test job not archived.
 1\1\GINC-SE086\SP\RHF\Aug-CC-pVDZ\C11H16O1\OHZDE\08-Apr-2025\0\\#t hf
 aug-cc-pvdz iop(5/13=1,5/36=2,99/5=2) pseudo=read geom=check guess=(re
 ad,tcheck) scf=(maxcycle=1)\\title\\0,1\C,0,-2.070615,-0.650982,0.3780
 28\O,0,-1.553652,0.280363,-0.586582\C,0,0.819016,0.409115,0.007264\C,0
 ,1.207344,-0.537815,-0.945809\C,0,1.691752,0.702361,1.057446\C,0,2.931
 937,0.072734,1.152079\C,0,3.311029,-0.866536,0.196382\C,0,2.443282,-1.
 171451,-0.851808\H,0,0.527003,-0.779452,-1.754173\H,0,2.730641,-1.9053
 93,-1.596918\H,0,1.398249,1.427936,1.810424\H,0,3.597038,0.310338,1.97

 Normal termination of Gaussian 16 at Tue Apr  8 22:47:55 2025.
