 Gaussian 16, Revision C.01,

 ----------------------------------------------------------------------
 #t hf aug-cc-pvdz symm=none int=(grid=ultrafine) guess=(read,tcheck) s
 table=(opt,rrhf)
 ----------------------------------------------------------------------
 -----
 title
 -----
 Symbolic Z-matrix:
 Charge =  0 Multiplicity = 1

 SCF Done:  E(RHF) =  -687.466740420     A.U. after   17 cycles
 Normal termination of Gaussian 16 at Wed Apr  9 00:05:48 2025.
 Gaussian 16:  ES64L-G16RevC.01  3-Jul-2019

 ----------------------------------------------------------------------
 #t hf aug-cc-pvdz iop(5/13=1,5/36=2,99/5=2) pseudo=read geom=check gue
 ss=(read,tcheck) scf=(maxcycle=1)
 ----------------------------------------------------------------------
 -----
 title
 -----
 Structure from the checkpoint file:  "BDE49_nonexpt_2203_mol1.chk"
 Charge =  0 Multiplicity = 1

                         Standard orientation:
 ---------------------------------------------------------------------
 Center     Atomic      Atomic             Coordinates (Angstroms)
 Number     Number       Type             X           Y           Z
 ---------------------------------------------------------------------
      1          6           0       -2.101585    1.091891    0.000014
      2          6           0       -1.606326   -0.216839    0.000016
      3          6           0       -0.224593   -0.458333    0.000009
      4          6           0       -1.202810    2.154791    0.000004
      5          6           0        0.167549    1.926734   -0.000003
      6          6           0        0.661107    0.617860   -0.000001
      7          1           0       -1.574880    3.172431    0.000001
      8          1           0        0.876757    2.744989   -0.000010
      9          8           0        2.013540    0.461208   -0.000009
     10         14           0        2.963722   -0.909693    0.000004
     11          1           0       -3.169812    1.264104    0.000018
     12          1           0        0.137200   -1.479237    0.000010
     13          6           0       -2.512060   -1.325550    0.000024
     14          7           0       -3.241526   -2.221230   -0.000057
     15          1           0        4.346002   -0.404427   -0.000003
     16          1           0        2.693646   -1.723282   -1.205879
     17          1           0        2.693648   -1.723257    1.205904
 ---------------------------------------------------------------------

 SCF Done:  E(RHF) =  -687.894029398     A.U. after    2 cycles

 The electronic state is 1-A.
 Alpha  occ. eigenvalues --  -69.58234 -20.58010 -15.51957 -11.33981 -11.30302
 Alpha  occ. eigenvalues --  -11.28752 -11.27738 -11.27435 -11.27314 -11.26833
 Alpha  occ. eigenvalues --   -6.24831  -4.00336  -4.00180  -4.00157  -1.49793
 Alpha  occ. eigenvalues --   -1.23964  -1.18532  -1.06837  -1.04444  -0.91002
 Alpha  occ. eigenvalues --   -0.88209  -0.80458  -0.75304  -0.71445  -0.69570
 Alpha  occ. eigenvalues --   -0.66401  -0.64238  -0.62725  -0.61020  -0.58169
 Alpha  occ. eigenvalues --   -0.56728  -0.56222  -0.53844  -0.51094  -0.50581
 Alpha  occ. eigenvalues --   -0.49042  -0.48187  -0.37870  -0.35111
 Alpha virt. eigenvalues --    0.02819   0.03049   0.03760   0.04811   0.04883
 Alpha virt. eigenvalues --    0.05289   0.05346   0.06896   0.08486   0.08748
 Alpha virt. eigenvalues --    0.09106   0.09874   0.10016   0.10351   0.12077

 Mulliken charges:
               1
     1  C    0.187275
     2  C    2.422167
     3  C    0.250115
     4  C    0.490778
     5  C   -0.146049
     6  C    1.230507
     7  H   -0.207741
     8  H   -0.261756
     9  O   -2.284617
    10  Si   1.308774
    11  H   -0.277948
    12  H   -0.307639
    13  C   -3.066238
    14  N    1.103371
    15  H   -0.174314
    16  H   -0.133343
    17  H   -0.133342
 Sum of Mulliken charges =  -0.00000

 Dipole moment (field-independent basis, Debye):
    X=              3.6391    Y=              3.5283    Z=              0.0002  Tot=              5.0687

 Test job not archived.
 1\1\GINC-SE419\SP\RHF\Aug-CC-pVDZ\C7H7N1O1Si1\OHZDE\09-Apr-2025\0\\#t
 hf aug-cc-pvdz iop(5/13=1,5/36=2,99/5=2) pseudo=read geom=check guess=
 (read,tcheck) scf=(maxcycle=1)\\title\\0,1\C,0,-2.101585,1.091891,0.00
 0014\C,0,-1.606326,-0.216839,0.000016\C,0,-0.224593,-0.458333,0.000009
 \C,0,-1.20281,2.154791,0.000004\C,0,0.167549,1.926734,-0.000003\C,0,0.
 661107,0.61786,-0.000001\H,0,-1.57488,3.172431,0.000001\H,0,0.876757,2
 .744989,-0.00001\O,0,2.01354,0.461208,-0.000009\Si,0,2.963722,-0.90969
 3,0.000004\H,0,-3.169812,1.264104,0.000018\H,0,0.1372,-1.479237,0.0000

 Normal termination of Gaussian 16 at Wed Apr  9 00:05:57 2025.
