 Gaussian 16, Revision C.01,

 ----------------------------------------------------------------------
 #t hf aug-cc-pvdz symm=none int=(grid=ultrafine) guess=(read,tcheck) s
 table=(opt,rrhf)
 ----------------------------------------------------------------------
 -----
 title
 -----
 Symbolic Z-matrix:
 Charge =  0 Multiplicity = 1

 SCF Done:  E(RHF) =  -655.284379930     A.U. after   13 cycles
 Normal termination of Gaussian 16 at Tue Apr  8 22:48:02 2025.
 Gaussian 16:  ES64L-G16RevC.01  3-Jul-2019

 ----------------------------------------------------------------------
 #t hf aug-cc-pvdz iop(5/13=1,5/36=2,99/5=2) pseudo=read geom=check gue
 ss=(read,tcheck) scf=(maxcycle=1)
 ----------------------------------------------------------------------
 -----
 title
 -----
 Structure from the checkpoint file:  "BDE49_expt_1664_mol1.chk"
 Charge =  0 Multiplicity = 1

                         Standard orientation:
 ---------------------------------------------------------------------
 Center     Atomic      Atomic             Coordinates (Angstroms)
 Number     Number       Type             X           Y           Z
 ---------------------------------------------------------------------
      1          6           0        0.261755   -0.411031    0.001888
      2          6           0       -1.105510   -0.466327   -0.698658
      3          6           0       -2.257871    0.286114   -0.030285
      4          1           0       -1.365086   -1.529932   -0.780984
      5          1           0       -0.973705   -0.101410   -1.721343
      6          1           0       -2.499913   -0.122803    0.953583
      7          1           0       -3.157974    0.210525   -0.645555
      8          1           0       -2.021077    1.345099    0.089470
      9          6           0        1.303267   -1.202665   -0.786487
     10          1           0        1.024513   -2.261772   -0.794559
     11          1           0        2.291214   -1.110516   -0.332508
     12          1           0        1.362973   -0.854179   -1.819002
     13          6           0        0.214377   -0.853799    1.462129
     14          1           0       -0.147546   -1.886453    1.515167
     15          1           0       -0.449597   -0.224979    2.054910
     16          1           0        1.209343   -0.815537    1.908569
     17         17           0        0.837103    1.366954   -0.007016
 ---------------------------------------------------------------------

 SCF Done:  E(RHF) =  -655.580696946     A.U. after    2 cycles

 The electronic state is 1-A.
 Alpha  occ. eigenvalues -- -105.53692 -11.31471 -11.24409 -11.23908 -11.23883
 Alpha  occ. eigenvalues --  -11.22761 -10.58498  -7.75414  -7.75090  -7.75086
 Alpha  occ. eigenvalues --   -1.14188  -1.01911  -0.98678  -0.95532  -0.87268
 Alpha  occ. eigenvalues --   -0.74823  -0.64771  -0.64255  -0.61541  -0.59692
 Alpha  occ. eigenvalues --   -0.56743  -0.55357  -0.53024  -0.51681  -0.49649
 Alpha  occ. eigenvalues --   -0.49005  -0.47455  -0.43171  -0.43105
 Alpha virt. eigenvalues --    0.03451   0.03759   0.03938   0.04705   0.06015
 Alpha virt. eigenvalues --    0.06126   0.06677   0.07104   0.08008   0.09380
 Alpha virt. eigenvalues --    0.09911   0.11421   0.13123   0.13765   0.14436

 Mulliken charges:
               1
     1  C   -1.642389
     2  C    0.048979
     3  C   -0.352799
     4  H    0.189550
     5  H    0.125392
     6  H    0.170267
     7  H    0.108144
     8  H    0.207592
     9  C    0.142354
    10  H    0.246318
    11  H    0.163480
    12  H    0.194898
    13  C    0.019383
    14  H    0.244172
    15  H    0.170464
    16  H    0.175689
    17  Cl  -0.211495
 Sum of Mulliken charges =  -0.00000

 Dipole moment (field-independent basis, Debye):
    X=             -0.9115    Y=             -2.4745    Z=             -0.0064  Tot=              2.6370

 Test job not archived.
 1\1\GINC-SE072\SP\RHF\Aug-CC-pVDZ\C5H11Cl1\OHZDE\08-Apr-2025\0\\#t hf
 aug-cc-pvdz iop(5/13=1,5/36=2,99/5=2) pseudo=read geom=check guess=(re
 ad,tcheck) scf=(maxcycle=1)\\title\\0,1\C,0,0.261755,-0.411031,0.00188
 8\C,0,-1.10551,-0.466327,-0.698658\C,0,-2.257871,0.286114,-0.030285\H,
 0,-1.365086,-1.529932,-0.780984\H,0,-0.973705,-0.10141,-1.721343\H,0,-
 2.499913,-0.122803,0.953583\H,0,-3.157974,0.210525,-0.645555\H,0,-2.02
 1077,1.345099,0.08947\C,0,1.303267,-1.202665,-0.786487\H,0,1.024513,-2
 .261772,-0.794559\H,0,2.291214,-1.110515,-0.332508\H,0,1.362973,-0.854

 Normal termination of Gaussian 16 at Tue Apr  8 22:48:08 2025.
