 Gaussian 16, Revision C.01,

 ----------------------------------------------------------------------
 #t hf aug-cc-pvdz symm=none int=(grid=ultrafine) guess=(read,tcheck) s
 table=opt
 ----------------------------------------------------------------------
 -----
 title
 -----
 Symbolic Z-matrix:
 Charge =  0 Multiplicity = 2

 SCF Done:  E(UHF) =  -544.107781067     A.U. after   20 cycles
 Normal termination of Gaussian 16 at Wed Apr  9 00:31:29 2025.
 Gaussian 16:  ES64L-G16RevC.01  3-Jul-2019

 ----------------------------------------------------------------------
 #t hf aug-cc-pvdz iop(5/13=1,5/36=2,99/5=2) pseudo=read geom=check gue
 ss=(read,tcheck) scf=(maxcycle=1)
 ----------------------------------------------------------------------
 -----
 title
 -----
 Structure from the checkpoint file:  "BDE49_nonexpt_362_mol2.chk"
 Charge =  0 Multiplicity = 2

                         Standard orientation:
 ---------------------------------------------------------------------
 Center     Atomic      Atomic             Coordinates (Angstroms)
 Number     Number       Type             X           Y           Z
 ---------------------------------------------------------------------
      1          9           0       -2.341134   -0.215592    0.164315
      2          5           0       -1.179946   -0.837084    0.112991
      3         15           0        0.420681   -0.038425   -0.555691
      4          6           0        1.747450   -0.959151    0.361747
      5          6           0        0.454204    1.652318    0.234477
      6          1           0        1.658945   -2.021510    0.127414
      7          1           0        1.686435   -0.831282    1.444225
      8          1           0        2.724560   -0.614690    0.016746
      9          1           0       -0.427045    2.208483   -0.090746
     10          1           0        1.340585    2.190616   -0.108855
     11          1           0        0.466308    1.611506    1.325453
 ---------------------------------------------------------------------

 SCF Done:  E(UHF) =  -544.352252826     A.U. after    2 cycles

 The electronic state is 2-A.
 Alpha  occ. eigenvalues --  -84.26409 -26.48496 -11.24811 -11.24561  -7.68604
 Alpha  occ. eigenvalues --   -6.73752  -4.26336  -4.26096  -4.25421  -1.61563
 Alpha  occ. eigenvalues --   -1.01943  -0.95009  -0.81074  -0.75293  -0.68718
 Alpha  occ. eigenvalues --   -0.66464  -0.60488  -0.59644  -0.57305  -0.56987
 Alpha  occ. eigenvalues --   -0.50769  -0.46491  -0.35786  -0.29937
 Alpha virt. eigenvalues --    0.03062   0.04236   0.04452   0.04847   0.06377
 Alpha virt. eigenvalues --    0.06557   0.06715   0.07460   0.07990   0.09873
 Alpha virt. eigenvalues --    0.10000   0.12247   0.13879   0.15114   0.15166

  Beta  occ. eigenvalues --  -84.26308 -26.48164 -11.24772 -11.24572  -7.66826
  Beta  occ. eigenvalues --   -6.73614  -4.26045  -4.25950  -4.25272  -1.60679
  Beta  occ. eigenvalues --   -1.01551  -0.94923  -0.79278  -0.74198  -0.66375
  Beta  occ. eigenvalues --   -0.65728  -0.59934  -0.59536  -0.57145  -0.56915
  Beta  occ. eigenvalues --   -0.47148  -0.46079  -0.32235
  Beta virt. eigenvalues --    0.03050   0.03879   0.04422   0.04800   0.06410
  Beta virt. eigenvalues --    0.06553   0.07019   0.07330   0.07484   0.09379
  Beta virt. eigenvalues --    0.10871   0.10988   0.12577   0.15023   0.15487

 Mulliken charges and spin densities:
               1          2
     1  F   -0.564680  -0.034956
     2  B    0.883857   1.013144
     3  P    0.677209   0.053604
     4  C   -0.810304  -0.014384
     5  C   -0.830936   0.001468
     6  H    0.104985  -0.007951
     7  H    0.107609   0.000458
     8  H    0.131679  -0.011395
     9  H    0.064509  -0.001222
    10  H    0.133888   0.001263
    11  H    0.102184  -0.000029
 Sum of Mulliken charges =  -0.00000   1.00000

 Dipole moment (field-independent basis, Debye):
    X=              1.5636    Y=              0.7873    Z=              0.7512  Tot=              1.9050
                          Isotropic Fermi Contact Couplings
        Atom                 a.u.       MegaHertz       Gauss      10(-4) cm-1
     1  F(19)              0.06068     255.32331      91.10571      85.16669
     2  B(11)              0.26803     384.45568     137.18335     128.24061
     3  P(31)              0.06362     115.22667      41.11574      38.43548
     4  C(13)              0.00063       0.71215       0.25411       0.23755
     5  C(13)              0.00743       8.35081       2.97978       2.78553
     6  H(1)              -0.00004      -0.15663      -0.05589      -0.05225
     7  H(1)               0.00029       1.29630       0.46255       0.43240
     8  H(1)              -0.00069      -3.06928      -1.09520      -1.02380

 Normal termination of Gaussian 16 at Wed Apr  9 00:31:33 2025.
