 Gaussian 16, Revision C.01,

 ----------------------------------------------------------------------
 #t hf aug-cc-pvdz symm=none int=(grid=ultrafine) guess=(read,tcheck) s
 table=(opt,rrhf)
 ----------------------------------------------------------------------
 -----
 title
 -----
 Symbolic Z-matrix:
 Charge =  0 Multiplicity = 1

 SCF Done:  E(RHF) =  -1174.17873999     A.U. after   16 cycles
 Normal termination of Gaussian 16 at Tue Apr  8 23:25:39 2025.
 Gaussian 16:  ES64L-G16RevC.01  3-Jul-2019

 ----------------------------------------------------------------------
 #t hf aug-cc-pvdz iop(5/13=1,5/36=2,99/5=2) pseudo=read geom=check gue
 ss=(read,tcheck) scf=(maxcycle=1)
 ----------------------------------------------------------------------
 -----
 title
 -----
 Structure from the checkpoint file:  "BDE49_nonexpt_1246_mol1.chk"
 Charge =  0 Multiplicity = 1

                         Standard orientation:
 ---------------------------------------------------------------------
 Center     Atomic      Atomic             Coordinates (Angstroms)
 Number     Number       Type             X           Y           Z
 ---------------------------------------------------------------------
      1          6           0        0.857413   -1.266405    0.312891
      2          6           0       -1.093372   -0.435347    0.034711
      3          6           0       -2.796325    0.548411    1.442082
      4          6           0       -3.084658    0.533403   -1.028637
      5          1           0       -3.087172    1.626949   -1.115072
      6          1           0       -2.647796    0.109428   -1.928293
      7          1           0       -2.651626    1.628237    1.572230
      8          1           0       -2.244787    0.025815    2.220402
      9          7           0       -0.262137   -0.703692    0.989770
     10          7           0        0.525341   -1.339738   -1.123758
     11          7           0       -0.602032   -0.829937   -1.281648
     12         15           0        2.436757   -0.255991    0.609879
     13          7           0       -2.322738    0.106996    0.138518
     14         17           0        1.948594    1.537078   -0.370564
     15          1           0       -4.119748    0.191976   -0.935350
     16          1           0       -3.862522    0.325580    1.535576
     17          1           0        3.134071   -0.840472   -0.479022
     18          1           0        1.134743   -2.273742    0.654472
 ---------------------------------------------------------------------

 SCF Done:  E(RHF) =  -1174.67973349     A.U. after    2 cycles

 The electronic state is 1-A.
 Alpha  occ. eigenvalues -- -105.56355 -84.33995 -15.59421 -15.58064 -15.54075
 Alpha  occ. eigenvalues --  -15.49094 -11.35741 -11.31873 -11.27995 -11.27643
 Alpha  occ. eigenvalues --  -10.61222  -7.78135  -7.77775  -7.77747  -6.80598
 Alpha  occ. eigenvalues --   -4.32921  -4.32598  -4.32121  -1.42398  -1.29010
 Alpha  occ. eigenvalues --   -1.21704  -1.08738  -1.05408  -1.00036  -0.95448
 Alpha  occ. eigenvalues --   -0.90162  -0.82731  -0.80453  -0.75272  -0.70149
 Alpha  occ. eigenvalues --   -0.67369  -0.66130  -0.64530  -0.60534  -0.58532
 Alpha  occ. eigenvalues --   -0.57661  -0.56247  -0.54888  -0.52124  -0.50760
 Alpha  occ. eigenvalues --   -0.50343  -0.48884  -0.47913  -0.45649  -0.38897
 Alpha  occ. eigenvalues --   -0.36101
 Alpha virt. eigenvalues --    0.03032   0.03416   0.04046   0.04532   0.04928
 Alpha virt. eigenvalues --    0.05484   0.05924   0.06255   0.06912   0.07727
 Alpha virt. eigenvalues --    0.08863   0.09889   0.10955   0.11771   0.12220

 Mulliken charges:
               1
     1  C    0.367980
     2  C   -2.554737
     3  C   -0.275306
     4  C   -0.268629
     5  H    0.194537
     6  H    0.061876
     7  H    0.188377
     8  H    0.060364
     9  N    0.788035
    10  N    0.158828
    11  N   -0.183076
    12  P    0.475965
    13  N    0.765180
    14  Cl  -0.534350
    15  H    0.118808
    16  H    0.141827
    17  H    0.501224
    18  H   -0.006902
 Sum of Mulliken charges =  -0.00000

 Dipole moment (field-independent basis, Debye):
    X=             -1.8609    Y=             -0.4848    Z=              1.2761  Tot=              2.3079

 Test job not archived.
 1\1\GINC-SE227\SP\RHF\Aug-CC-pVDZ\C4H8Cl1N4P1\OHZDE\08-Apr-2025\0\\#t
 hf aug-cc-pvdz iop(5/13=1,5/36=2,99/5=2) pseudo=read geom=check guess=
 (read,tcheck) scf=(maxcycle=1)\\title\\0,1\C,0,0.857413,-1.266405,0.31
 2891\C,0,-1.093372,-0.435347,0.034711\C,0,-2.796325,0.548411,1.442082\
 C,0,-3.084658,0.533403,-1.028637\H,0,-3.087172,1.626949,-1.115072\H,0,
 -2.647796,0.109428,-1.928293\H,0,-2.651626,1.628237,1.57223\H,0,-2.244
 787,0.025815,2.220402\N,0,-0.262137,-0.703692,0.98977\N,0,0.525341,-1.
 339738,-1.123758\N,0,-0.602032,-0.829937,-1.281648\P,0,2.436757,-0.255

 Normal termination of Gaussian 16 at Tue Apr  8 23:25:50 2025.
