 Gaussian 16, Revision C.01,

 ----------------------------------------------------------------------
 #t hf aug-cc-pvdz symm=none int=(grid=ultrafine) guess=(read,tcheck) s
 table=(opt,rrhf)
 ----------------------------------------------------------------------
 -----
 title
 -----
 Symbolic Z-matrix:
 Charge =  0 Multiplicity = 1

 SCF Done:  E(RHF) =  -581.028981646     A.U. after   13 cycles
 Normal termination of Gaussian 16 at Wed Apr  9 00:41:59 2025.
 Gaussian 16:  ES64L-G16RevC.01  3-Jul-2019

 ----------------------------------------------------------------------
 #t hf aug-cc-pvdz iop(5/13=1,5/36=2,99/5=2) pseudo=read geom=check gue
 ss=(read,tcheck) scf=(maxcycle=1)
 ----------------------------------------------------------------------
 -----
 title
 -----
 Structure from the checkpoint file:  "BDE49_nonexpt_646_mol1.chk"
 Charge =  0 Multiplicity = 1

                         Standard orientation:
 ---------------------------------------------------------------------
 Center     Atomic      Atomic             Coordinates (Angstroms)
 Number     Number       Type             X           Y           Z
 ---------------------------------------------------------------------
      1          5           0       -2.992454   -0.001659    0.004227
      2          8           0       -3.631635   -1.205403    0.084451
      3          1           0       -4.588901   -1.102410    0.063133
      4          8           0       -3.771968    1.123716   -0.076343
      5          1           0       -3.275567    1.939740   -0.173934
      6          6           0       -1.423754    0.013683    0.004689
      7          6           0       -0.680638    1.201361    0.088283
      8          1           0       -1.186753    2.160639    0.170961
      9          6           0       -0.709392   -1.191542   -0.082306
     10          1           0       -1.259219   -2.123464   -0.147409
     11          6           0        0.709392    1.191540    0.082287
     12          6           0        1.423754   -0.013685   -0.004708
     13          5           0        2.992454    0.001658   -0.004254
     14          8           0        3.631634    1.205406   -0.084413
     15          1           0        4.588900    1.102415   -0.063065
     16          8           0        3.771969   -1.123714    0.076360
     17          1           0        3.275567   -1.939737    0.173950
     18          6           0        0.680638   -1.201363   -0.088302
     19          1           0        1.186753   -2.160641   -0.170981
     20          1           0        1.259219    2.123462    0.147387
 ---------------------------------------------------------------------

 SCF Done:  E(RHF) =  -581.610804826     A.U. after    2 cycles

 The electronic state is 1-A.
 Alpha  occ. eigenvalues --  -20.56295 -20.56295 -20.55467 -20.55466 -11.25328
 Alpha  occ. eigenvalues --  -11.25301 -11.24779 -11.24753 -11.23204 -11.23160
 Alpha  occ. eigenvalues --   -7.64574  -7.64461  -1.48411  -1.48395  -1.44050
 Alpha  occ. eigenvalues --   -1.44049  -1.15559  -1.02350  -1.02114  -0.85258
 Alpha  occ. eigenvalues --   -0.83797  -0.77748  -0.77043  -0.75106  -0.73687
 Alpha  occ. eigenvalues --   -0.68959  -0.66248  -0.64061  -0.61532  -0.60362
 Alpha  occ. eigenvalues --   -0.59033  -0.57672  -0.57362  -0.55990  -0.55504
 Alpha  occ. eigenvalues --   -0.51757  -0.50875  -0.50213  -0.49421  -0.49379
 Alpha  occ. eigenvalues --   -0.47521  -0.35519  -0.34913
 Alpha virt. eigenvalues --    0.03172   0.03175   0.03661   0.04516   0.04685
 Alpha virt. eigenvalues --    0.05320   0.05759   0.06375   0.07079   0.07145
 Alpha virt. eigenvalues --    0.07773   0.09334   0.09511   0.10077   0.10155

 Mulliken charges:
               1
     1  B    1.387692
     2  O   -1.363454
     3  H    0.512788
     4  O   -1.525849
     5  H    0.632127
     6  C    0.622866
     7  C    0.417928
     8  H   -0.410119
     9  C    0.079217
    10  H   -0.353191
    11  C    0.079253
    12  C    0.622843
    13  B    1.387695
    14  O   -1.363448
    15  H    0.512787
    16  O   -1.525855
    17  H    0.632126
    18  C    0.417904
    19  H   -0.410123
    20  H   -0.353186
 Sum of Mulliken charges =  -0.00000

 Dipole moment (field-independent basis, Debye):
    X=             -0.0000    Y=              0.0000    Z=             -0.0001  Tot=              0.0001

 Test job not archived.
 1\1\GINC-SE103\SP\RHF\Aug-CC-pVDZ\C6H8B2O4\OHZDE\09-Apr-2025\0\\#t hf
 aug-cc-pvdz iop(5/13=1,5/36=2,99/5=2) pseudo=read geom=check guess=(re
 ad,tcheck) scf=(maxcycle=1)\\title\\0,1\B,0,-2.992454,0.001659,-0.0042
 27\O,0,-3.631635,1.205403,-0.084451\H,0,-4.588901,1.10241,-0.063133\O,
 0,-3.771968,-1.123716,0.076343\H,0,-3.275567,-1.93974,0.173934\C,0,-1.
 423754,-0.013683,-0.004689\C,0,-0.680638,-1.201361,-0.088283\H,0,-1.18
 6753,-2.160639,-0.170961\C,0,-0.709392,1.191542,0.082306\H,0,-1.259219
 ,2.123464,0.147409\C,0,0.709392,-1.19154,-0.082287\C,0,1.423754,0.0136

 Normal termination of Gaussian 16 at Wed Apr  9 00:42:12 2025.
