 Gaussian 16, Revision C.01,

 ----------------------------------------------------------------------
 #t hf aug-cc-pvdz symm=none int=(grid=ultrafine) guess=(read,tcheck) s
 table=(opt,rrhf)
 ----------------------------------------------------------------------
 -----
 title
 -----
 Symbolic Z-matrix:
 Charge =  0 Multiplicity = 1

 SCF Done:  E(RHF) =  -1300.04870475     A.U. after   16 cycles

 1\1\GINC-SE163\Stability\RHF\Aug-CC-pVDZ\C2N6O12\OHZDE\08-Apr-2025\0\\
 #t hf aug-cc-pvdz symm=none int=(grid=ultrafine) guess=(read,tcheck) s
 table=(opt,rrhf)\\title\\0,1\C,0,0.768495,0.047496,0.034522\N,0,1.4257
 52,-0.392057,-1.363158\O,0,1.90923,-1.485014,-1.415904\O,0,1.359879,0.
 461067,-2.216457\C,0,-0.768432,-0.04743,0.034787\N,0,1.243295,1.552155
 ,0.211776\N,0,-1.426353,0.390511,-1.363089\N,0,-1.242938,-1.551934,0.2
 13826\O,0,-2.27267,-1.732314,0.802225\O,0,-0.516793,-2.356784,-0.31745
 6\N,0,-1.4175,0.797106,1.163898\N,0,1.417796,-0.795763,1.164438\O,0,-2

 Normal termination of Gaussian 16 at Tue Apr  8 22:54:33 2025.
 Gaussian 16:  ES64L-G16RevC.01  3-Jul-2019

 ----------------------------------------------------------------------
 #t hf aug-cc-pvdz iop(5/13=1,5/36=2,99/5=2) pseudo=read geom=check gue
 ss=(read,tcheck) scf=(maxcycle=1)
 ----------------------------------------------------------------------
 -----
 title
 -----
 Structure from the checkpoint file:  "BDE49_expt_1221_mol1.chk"
 Charge =  0 Multiplicity = 1

                         Standard orientation:
 ---------------------------------------------------------------------
 Center     Atomic      Atomic             Coordinates (Angstroms)
 Number     Number       Type             X           Y           Z
 ---------------------------------------------------------------------
      1          6           0       -0.768495    0.047496   -0.034522
      2          7           0       -1.425752   -0.392057    1.363158
      3          8           0       -1.909230   -1.485014    1.415904
      4          8           0       -1.359879    0.461067    2.216457
      5          6           0        0.768432   -0.047430   -0.034787
      6          7           0       -1.243295    1.552155   -0.211776
      7          7           0        1.426353    0.390511    1.363089
      8          7           0        1.242938   -1.551934   -0.213826
      9          8           0        2.272670   -1.732314   -0.802225
     10          8           0        0.516793   -2.356784    0.317456
     11          7           0        1.417500    0.797106   -1.163898
     12          7           0       -1.417796   -0.795763   -1.164438
     13          8           0        2.612918    0.912311   -1.103839
     14          8           0        0.658390    1.229643   -2.007381
     15          8           0       -0.517112    2.356573    0.320083
     16          8           0       -2.273275    1.732959   -0.799618
     17          8           0       -2.613185   -0.911165   -1.104198
     18          8           0       -0.658864   -1.227206   -2.008649
     19          8           0        1.908913    1.483820    1.417077
     20          8           0        1.361953   -0.463955    2.215145
 ---------------------------------------------------------------------

 SCF Done:  E(RHF) =  -1301.25348148     A.U. after    2 cycles

 The electronic state is 1-A.
 Alpha  occ. eigenvalues --  -20.68632 -20.68628 -20.68431 -20.68431 -20.68328
 Alpha  occ. eigenvalues --  -20.68325 -20.67783 -20.67775 -20.67769 -20.67768
 Alpha  occ. eigenvalues --  -20.67492 -20.67491 -15.89786 -15.89696 -15.89663
 Alpha  occ. eigenvalues --  -15.89611 -15.89137 -15.89129 -11.55230 -11.55202
 Alpha  occ. eigenvalues --   -1.78085  -1.77860  -1.77137  -1.77118  -1.76505
 Alpha  occ. eigenvalues --   -1.76470  -1.62065  -1.62045  -1.61692  -1.61298
 Alpha  occ. eigenvalues --   -1.60814  -1.60609  -1.33099  -1.23517  -1.09645
 Alpha  occ. eigenvalues --   -1.09529  -1.06926  -1.06919  -0.98275  -0.93282
 Alpha  occ. eigenvalues --   -0.92069  -0.91526  -0.90676  -0.88905  -0.88809
 Alpha  occ. eigenvalues --   -0.84670  -0.84408  -0.83733  -0.83541  -0.83158
 Alpha  occ. eigenvalues --   -0.83094  -0.82764  -0.82706  -0.81520  -0.80976
 Alpha  occ. eigenvalues --   -0.80890  -0.80683  -0.63140  -0.61784  -0.60439
 Alpha  occ. eigenvalues --   -0.59397  -0.58810  -0.58438  -0.57417  -0.57056
 Alpha  occ. eigenvalues --   -0.56642  -0.56332  -0.55956  -0.55896  -0.53761
 Alpha  occ. eigenvalues --   -0.53237  -0.52965  -0.51866  -0.51522  -0.50782
 Alpha virt. eigenvalues --   -0.04212  -0.03505  -0.03051  -0.02070  -0.00743
 Alpha virt. eigenvalues --   -0.00092   0.07174   0.07291   0.08589   0.09253
 Alpha virt. eigenvalues --    0.09843   0.09869   0.10273   0.10438   0.10455

 Mulliken charges:
               1
     1  C   -1.921796
     2  N    3.607363
     3  O   -1.509123
     4  O   -1.607558
     5  C   -1.922811
     6  N    3.818991
     7  N    3.608530
     8  N    3.820232
     9  O   -1.524955
    10  O   -1.666842
    11  N    3.927840
    12  N    3.928119
    13  O   -1.562957
    14  O   -1.561776
    15  O   -1.666528
    16  O   -1.524797
    17  O   -1.562887
    18  O   -1.561879
    19  O   -1.509486
    20  O   -1.607680
 Sum of Mulliken charges =   0.00000

 Dipole moment (field-independent basis, Debye):
    X=             -0.0007    Y=              0.0002    Z=              0.0337  Tot=              0.0337

 Test job not archived.
 1\1\GINC-SE163\SP\RHF\Aug-CC-pVDZ\C2N6O12\OHZDE\08-Apr-2025\0\\#t hf a
 ug-cc-pvdz iop(5/13=1,5/36=2,99/5=2) pseudo=read geom=check guess=(rea
 d,tcheck) scf=(maxcycle=1)\\title\\0,1\C,0,0.768495,0.047496,0.034522\
 N,0,1.425752,-0.392057,-1.363158\O,0,1.90923,-1.485014,-1.415904\O,0,1
 .359879,0.461067,-2.216457\C,0,-0.768432,-0.04743,0.034787\N,0,1.24329
 5,1.552155,0.211776\N,0,-1.426353,0.390511,-1.363089\N,0,-1.242938,-1.
 551934,0.213826\O,0,-2.27267,-1.732314,0.802225\O,0,-0.516793,-2.35678
 4,-0.317456\N,0,-1.4175,0.797106,1.163898\N,0,1.417796,-0.795763,1.164

 Normal termination of Gaussian 16 at Tue Apr  8 22:55:05 2025.
