 Gaussian 16, Revision C.01,

 ----------------------------------------------------------------------
 #t hf aug-cc-pvdz symm=none int=(grid=ultrafine) guess=(read,tcheck) s
 table=(opt,rrhf)
 ----------------------------------------------------------------------
 -----
 title
 -----
 Symbolic Z-matrix:
 Charge =  0 Multiplicity = 1

 SCF Done:  E(RHF) =  -745.376874146     A.U. after   16 cycles

 1\1\GINC-SE361\Stability\RHF\Aug-CC-pVDZ\C9H12S1\OHZDE\08-Apr-2025\0\\
 #t hf aug-cc-pvdz symm=none int=(grid=ultrafine) guess=(read,tcheck) s
 table=(opt,rrhf)\\title\\0,1\C,0,2.038712,-0.004061,-0.005716\C,0,1.31
 5716,-1.196568,-0.013483\C,0,-0.07948,-1.221133,-0.000172\C,0,1.321388
 ,1.191321,-0.003029\C,0,-0.074955,1.225399,-0.005521\C,0,-0.773353,0.0
 03605,0.011104\H,0,1.86139,2.133463,-0.011992\S,0,-2.56688,-0.069204,-
 0.023188\H,0,1.849845,-2.142021,-0.025327\H,0,-2.804117,1.074403,0.635
 474\C,0,-0.783604,2.555669,-0.035204\H,0,-0.066603,3.370858,-0.143391\

 Normal termination of Gaussian 16 at Tue Apr  8 23:16:45 2025.
 Gaussian 16:  ES64L-G16RevC.01  3-Jul-2019

 ----------------------------------------------------------------------
 #t hf aug-cc-pvdz iop(5/13=1,5/36=2,99/5=2) pseudo=read geom=check gue
 ss=(read,tcheck) scf=(maxcycle=1)
 ----------------------------------------------------------------------
 -----
 title
 -----
 Structure from the checkpoint file:  "BDE49_expt_862_mol1.chk"
 Charge =  0 Multiplicity = 1

                         Standard orientation:
 ---------------------------------------------------------------------
 Center     Atomic      Atomic             Coordinates (Angstroms)
 Number     Number       Type             X           Y           Z
 ---------------------------------------------------------------------
      1          6           0        2.038712   -0.004060   -0.005716
      2          6           0        1.315716   -1.196568   -0.013483
      3          6           0       -0.079480   -1.221133   -0.000172
      4          6           0        1.321388    1.191321   -0.003029
      5          6           0       -0.074955    1.225399   -0.005521
      6          6           0       -0.773353    0.003605    0.011104
      7          1           0        1.861389    2.133463   -0.011992
      8         16           0       -2.566880   -0.069205   -0.023188
      9          1           0        1.849846   -2.142021   -0.025327
     10          1           0       -2.804117    1.074402    0.635474
     11          6           0       -0.783605    2.555669   -0.035204
     12          1           0       -0.066604    3.370858   -0.143391
     13          1           0       -1.349018    2.740443    0.885882
     14          1           0       -1.493023    2.611457   -0.866374
     15          6           0        3.548160   -0.008259    0.022186
     16          1           0        3.954719   -0.866006   -0.519010
     17          1           0        3.923540   -0.063178    1.050131
     18          1           0        3.957602    0.899646   -0.426760
     19          6           0       -0.806827   -2.543280   -0.002638
     20          1           0       -0.098627   -3.372323    0.039130
     21          1           0       -1.415534   -2.671052   -0.904078
     22          1           0       -1.484629   -2.624574    0.852159
 ---------------------------------------------------------------------

 SCF Done:  E(RHF) =  -745.803091231     A.U. after    2 cycles

 The electronic state is 1-A.
 Alpha  occ. eigenvalues --  -93.95435 -11.26829 -11.25430 -11.25232 -11.24665
 Alpha  occ. eigenvalues --  -11.23897 -11.23567 -11.23294 -11.23262 -11.23177
 Alpha  occ. eigenvalues --   -8.23539  -6.21396  -6.21247  -6.21023  -1.17156
 Alpha  occ. eigenvalues --   -1.08110  -1.06356  -1.00616  -0.95827  -0.93203
 Alpha  occ. eigenvalues --   -0.90761  -0.80292  -0.78386  -0.68555  -0.66780
 Alpha  occ. eigenvalues --   -0.61017  -0.59950  -0.58029  -0.57566  -0.57489
 Alpha  occ. eigenvalues --   -0.57103  -0.56750  -0.55658  -0.52878  -0.51621
 Alpha  occ. eigenvalues --   -0.49487  -0.48414  -0.46332  -0.40338  -0.33383
 Alpha  occ. eigenvalues --   -0.30738
 Alpha virt. eigenvalues --    0.03322   0.03338   0.03873   0.04370   0.04780
 Alpha virt. eigenvalues --    0.05064   0.05929   0.06438   0.07190   0.07781
 Alpha virt. eigenvalues --    0.08358   0.09654   0.10834   0.11258   0.11332

 Mulliken charges:
               1
     1  C    0.111506
     2  C    0.209360
     3  C    0.395835
     4  C    0.252177
     5  C    0.443247
     6  C   -0.403555
     7  H   -0.298362
     8  S   -0.191049
     9  H   -0.292885
    10  H    0.313988
    11  C   -0.720142
    12  H   -0.024972
    13  H    0.295976
    14  H    0.299607
    15  C   -0.824249
    16  H    0.137589
    17  H    0.292146
    18  H    0.112723
    19  C   -0.736658
    20  H   -0.010214
    21  H    0.310210
    22  H    0.327722
 Sum of Mulliken charges =  -0.00000

 Dipole moment (field-independent basis, Debye):
    X=              1.2275    Y=              0.7291    Z=              0.4295  Tot=              1.4909

 Test job not archived.
 1\1\GINC-SE361\SP\RHF\Aug-CC-pVDZ\C9H12S1\OHZDE\08-Apr-2025\0\\#t hf a
 ug-cc-pvdz iop(5/13=1,5/36=2,99/5=2) pseudo=read geom=check guess=(rea
 d,tcheck) scf=(maxcycle=1)\\title\\0,1\C,0,2.038712,-0.004061,-0.00571
 6\C,0,1.315716,-1.196568,-0.013483\C,0,-0.07948,-1.221133,-0.000172\C,
 0,1.321388,1.191321,-0.003029\C,0,-0.074955,1.225399,-0.005521\C,0,-0.
 773353,0.003605,0.011104\H,0,1.86139,2.133463,-0.011992\S,0,-2.56688,-
 0.069204,-0.023188\H,0,1.849845,-2.142021,-0.025327\H,0,-2.804117,1.07
 4403,0.635474\C,0,-0.783604,2.555669,-0.035204\H,0,-0.066603,3.370858,

 Normal termination of Gaussian 16 at Tue Apr  8 23:16:58 2025.
