 Gaussian 16, Revision C.01,

 ----------------------------------------------------------------------
 #t hf aug-cc-pvdz symm=none int=(grid=ultrafine) guess=(read,tcheck) s
 table=(opt,rrhf)
 ----------------------------------------------------------------------
 -----
 title
 -----
 Symbolic Z-matrix:
 Charge =  0 Multiplicity = 1

 SCF Done:  E(RHF) =  -476.205255202     A.U. after   16 cycles
 Normal termination of Gaussian 16 at Tue Apr  8 23:20:59 2025.
 Gaussian 16:  ES64L-G16RevC.01  3-Jul-2019

 ----------------------------------------------------------------------
 #t hf aug-cc-pvdz iop(5/13=1,5/36=2,99/5=2) pseudo=read geom=check gue
 ss=(read,tcheck) scf=(maxcycle=1)
 ----------------------------------------------------------------------
 -----
 title
 -----
 Structure from the checkpoint file:  "BDE49_nonexpt_1167_mol1.chk"
 Charge =  0 Multiplicity = 1

                         Standard orientation:
 ---------------------------------------------------------------------
 Center     Atomic      Atomic             Coordinates (Angstroms)
 Number     Number       Type             X           Y           Z
 ---------------------------------------------------------------------
      1          9           0        2.394567    0.261294    0.720982
      2          8           0        1.842077   -0.211040   -0.539551
      3          8           0        0.668368   -0.850018   -0.215599
      4          6           0       -0.396168    0.075362   -0.160082
      5          8           0       -0.311543    1.243033   -0.349754
      6          8           0       -1.449334   -0.664428    0.136854
      7          6           0       -2.695984    0.063750    0.237254
      8          1           0       -2.926953    0.542626   -0.714230
      9          1           0       -2.625918    0.816758    1.022008
     10          1           0       -3.441858   -0.686088    0.484757
 ---------------------------------------------------------------------

 SCF Done:  E(RHF) =  -476.660037974     A.U. after    2 cycles

 The electronic state is 1-A.
 Alpha  occ. eigenvalues --  -26.52824 -20.76565 -20.69955 -20.63481 -20.57693
 Alpha  occ. eigenvalues --  -11.47891 -11.32942  -1.75040  -1.60955  -1.54156
 Alpha  occ. eigenvalues --   -1.50971  -1.27752  -1.01118  -0.86083  -0.80439
 Alpha  occ. eigenvalues --   -0.76100  -0.75958  -0.71427  -0.70371  -0.68083
 Alpha  occ. eigenvalues --   -0.64433  -0.61953  -0.60402  -0.57740  -0.54320
 Alpha  occ. eigenvalues --   -0.53247  -0.49936  -0.49731
 Alpha virt. eigenvalues --    0.03027   0.04979   0.05222   0.07703   0.09732
 Alpha virt. eigenvalues --    0.11439   0.12090   0.12603   0.13692   0.14569
 Alpha virt. eigenvalues --    0.15304   0.16974   0.18608   0.19393   0.21463

 Mulliken charges:
               1
     1  F   -0.382983
     2  O    0.209031
     3  O   -0.651001
     4  C    2.256173
     5  O   -0.853880
     6  O   -1.118150
     7  C    0.169017
     8  H    0.176173
     9  H    0.178436
    10  H    0.017184
 Sum of Mulliken charges =  -0.00000

 Dipole moment (field-independent basis, Debye):
    X=             -3.5461    Y=             -0.7036    Z=              0.1234  Tot=              3.6174

 Test job not archived.
 1\1\GINC-SE367\SP\RHF\Aug-CC-pVDZ\C2H3F1O4\OHZDE\08-Apr-2025\0\\#t hf
 aug-cc-pvdz iop(5/13=1,5/36=2,99/5=2) pseudo=read geom=check guess=(re
 ad,tcheck) scf=(maxcycle=1)\\title\\0,1\F,0,2.394567,0.261294,0.720982
 \O,0,1.842077,-0.21104,-0.539551\O,0,0.668368,-0.850018,-0.215599\C,0,
 -0.396168,0.075362,-0.160082\O,0,-0.311543,1.243033,-0.349754\O,0,-1.4
 49334,-0.664428,0.136854\C,0,-2.695984,0.06375,0.237254\H,0,-2.926953,
 0.542626,-0.71423\H,0,-2.625918,0.816758,1.022008\H,0,-3.441858,-0.686
 088,0.484757\\Version=ES64L-G16RevC.01\State=1-A\HF=-476.660038\RMSD=7

 Normal termination of Gaussian 16 at Tue Apr  8 23:21:02 2025.
