 Gaussian 16, Revision C.01,

 ----------------------------------------------------------------------
 #t hf aug-cc-pvdz symm=none int=(grid=ultrafine) guess=(read,tcheck) s
 table=(opt,rrhf)
 ----------------------------------------------------------------------
 -----
 title
 -----
 Symbolic Z-matrix:
 Charge =  0 Multiplicity = 1

 SCF Done:  E(RHF) =  -559.937556358     A.U. after   11 cycles
 Normal termination of Gaussian 16 at Wed Apr  9 00:28:44 2025.
 Gaussian 16:  ES64L-G16RevC.01  3-Jul-2019

 ----------------------------------------------------------------------
 #t hf aug-cc-pvdz iop(5/13=1,5/36=2,99/5=2) pseudo=read geom=check gue
 ss=(read,tcheck) scf=(maxcycle=1)
 ----------------------------------------------------------------------
 -----
 title
 -----
 Structure from the checkpoint file:  "BDE49_nonexpt_302_mol1.chk"
 Charge =  0 Multiplicity = 1

                         Standard orientation:
 ---------------------------------------------------------------------
 Center     Atomic      Atomic             Coordinates (Angstroms)
 Number     Number       Type             X           Y           Z
 ---------------------------------------------------------------------
      1          6           0       -0.633553    0.000001   -0.010338
      2          5           0        0.972284    0.000002   -0.020793
      3          9           0       -1.149720    1.088634   -0.615610
      4          9           0       -1.149716   -1.088574   -0.615716
      5          9           0       -1.074579   -0.000062    1.274129
      6          9           0        1.628111   -1.135248   -0.012180
      7          9           0        1.628115    1.135249   -0.012180
 ---------------------------------------------------------------------

 SCF Done:  E(RHF) =  -560.445015143     A.U. after    2 cycles

 The electronic state is 1-A.
 Alpha  occ. eigenvalues --  -26.52363 -26.52363 -26.52299 -26.52207 -26.52203
 Alpha  occ. eigenvalues --  -11.52546  -7.77744  -1.72613  -1.67633  -1.64092
 Alpha  occ. eigenvalues --   -1.62650  -1.62606  -0.99419  -0.87263  -0.83070
 Alpha  occ. eigenvalues --   -0.82559  -0.82092  -0.78445  -0.73746  -0.71804
 Alpha  occ. eigenvalues --   -0.70029  -0.69688  -0.67377  -0.67024  -0.65115
 Alpha  occ. eigenvalues --   -0.64789  -0.63482  -0.55753
 Alpha virt. eigenvalues --    0.04458   0.05082   0.05205   0.05597   0.09821
 Alpha virt. eigenvalues --    0.10975   0.12760   0.14107   0.19105   0.20262
 Alpha virt. eigenvalues --    0.21462   0.22240   0.23677   0.25594   0.25992

 Mulliken charges:
               1
     1  C    1.964774
     2  B    1.342007
     3  F   -0.726956
     4  F   -0.726953
     5  F   -0.724405
     6  F   -0.564242
     7  F   -0.564225
 Sum of Mulliken charges =  -0.00000

 Dipole moment (field-independent basis, Debye):
    X=              0.9036    Y=              0.0000    Z=             -0.1157  Tot=              0.9109

 Test job not archived.
 1\1\GINC-SE099\SP\RHF\Aug-CC-pVDZ\C1B1F5\OHZDE\09-Apr-2025\0\\#t hf au
 g-cc-pvdz iop(5/13=1,5/36=2,99/5=2) pseudo=read geom=check guess=(read
 ,tcheck) scf=(maxcycle=1)\\title\\0,1\C,0,-0.633553,0.000001,-0.010338
 \B,0,0.972284,0.000002,-0.020793\F,0,-1.14972,1.088634,-0.61561\F,0,-1
 .149716,-1.088574,-0.615716\F,0,-1.074579,-0.000062,1.274129\F,0,1.628
 111,-1.135248,-0.01218\F,0,1.628115,1.135249,-0.01218\\Version=ES64L-G
 16RevC.01\State=1-A\HF=-560.4450151\RMSD=3.740e-03\Dipole=0.3554863,0.
 0000032,-0.0455063\Quadrupole=-0.8049982,-0.9057153,1.7107135,0.000013

 Normal termination of Gaussian 16 at Wed Apr  9 00:28:47 2025.
