 Gaussian 16, Revision C.01,

 ----------------------------------------------------------------------
 #t hf aug-cc-pvdz symm=none int=(grid=ultrafine) guess=(read,tcheck) s
 table=(opt,rrhf)
 ----------------------------------------------------------------------
 -----
 title
 -----
 Symbolic Z-matrix:
 Charge =  0 Multiplicity = 1

 SCF Done:  E(RHF) =  -922.856750281     A.U. after   13 cycles
 Normal termination of Gaussian 16 at Tue Apr  8 23:55:17 2025.
 Gaussian 16:  ES64L-G16RevC.01  3-Jul-2019

 ----------------------------------------------------------------------
 #t hf aug-cc-pvdz iop(5/13=1,5/36=2,99/5=2) pseudo=read geom=check gue
 ss=(read,tcheck) scf=(maxcycle=1)
 ----------------------------------------------------------------------
 -----
 title
 -----
 Structure from the checkpoint file:  "BDE49_nonexpt_1982_mol1.chk"
 Charge =  0 Multiplicity = 1

                         Standard orientation:
 ---------------------------------------------------------------------
 Center     Atomic      Atomic             Coordinates (Angstroms)
 Number     Number       Type             X           Y           Z
 ---------------------------------------------------------------------
      1         14           0       -0.000000    0.489168    0.000000
      2          9           0        1.572211    0.647597    0.000000
      3          8           0       -1.015212    1.602134    0.000000
      4         17           0       -0.354600   -1.499636    0.000000
 ---------------------------------------------------------------------

 SCF Done:  E(RHF) =  -923.121055846     A.U. after    2 cycles

 The electronic state is 1-A'.
 Alpha  occ. eigenvalues -- -105.62738 -69.68998 -26.52476 -20.53424 -10.67750
 Alpha  occ. eigenvalues --   -7.84635  -7.84289  -7.84260  -6.35242  -4.10583
 Alpha  occ. eigenvalues --   -4.10524  -4.10421  -1.63828  -1.37454  -1.12185
 Alpha  occ. eigenvalues --   -0.79954  -0.71359  -0.70538  -0.65474  -0.56189
 Alpha  occ. eigenvalues --   -0.55290  -0.54192  -0.48156  -0.48000
 Alpha virt. eigenvalues --    0.02346   0.04445   0.05915   0.06725   0.08805
 Alpha virt. eigenvalues --    0.11178   0.11640   0.14406   0.14630   0.20301
 Alpha virt. eigenvalues --    0.22998   0.23851   0.24072   0.24165   0.26571

 Mulliken charges:
               1
     1  Si   2.311318
     2  F   -0.710859
     3  O   -1.261721
     4  Cl  -0.338738
 Sum of Mulliken charges =  -0.00000

 Dipole moment (field-independent basis, Debye):
    X=              1.6336    Y=             -2.5770    Z=              0.0000  Tot=              3.0512

 Test job not archived.
 1\1\GINC-SE402\SP\RHF\Aug-CC-pVDZ\Cl1F1O1Si1\OHZDE\08-Apr-2025\0\\#t h
 f aug-cc-pvdz iop(5/13=1,5/36=2,99/5=2) pseudo=read geom=check guess=(
 read,tcheck) scf=(maxcycle=1)\\title\\0,1\Si,0,0.,0.489168,0.\F,0,1.57
 2211,0.647597,0.\O,0,-1.015212,1.602134,0.\Cl,0,-0.3546,-1.499636,0.\\
 Version=ES64L-G16RevC.01\State=1-A'\HF=-923.1210558\RMSD=4.457e-03\Dip
 ole=0.6427198,-1.0138862,0.\Quadrupole=-1.7750543,-2.1070767,3.8821309
 ,3.034559,0.,0.\PG=CS [SG(Cl1F1O1Si1)]\\@

 Normal termination of Gaussian 16 at Tue Apr  8 23:55:19 2025.
