 Gaussian 16, Revision C.01,

 ----------------------------------------------------------------------
 #t hf aug-cc-pvdz symm=none int=(grid=ultrafine) guess=(read,tcheck) s
 table=(opt,rrhf)
 ----------------------------------------------------------------------
 -----
 title
 -----
 Symbolic Z-matrix:
 Charge =  0 Multiplicity = 1

 SCF Done:  E(RHF) =  -597.621501557     A.U. after   15 cycles
 Normal termination of Gaussian 16 at Wed Apr  9 00:42:35 2025.
 Gaussian 16:  ES64L-G16RevC.01  3-Jul-2019

 ----------------------------------------------------------------------
 #t hf aug-cc-pvdz iop(5/13=1,5/36=2,99/5=2) pseudo=read geom=check gue
 ss=(read,tcheck) scf=(maxcycle=1)
 ----------------------------------------------------------------------
 -----
 title
 -----
 Structure from the checkpoint file:  "BDE49_nonexpt_687_mol1.chk"
 Charge =  0 Multiplicity = 1

                         Standard orientation:
 ---------------------------------------------------------------------
 Center     Atomic      Atomic             Coordinates (Angstroms)
 Number     Number       Type             X           Y           Z
 ---------------------------------------------------------------------
      1          6           0        1.523103    0.198368   -0.002211
      2          5           0       -1.504023    0.042535    0.034697
      3          6           0       -2.671112   -0.918510    0.466406
      4          1           0       -3.653057   -0.519055    0.188924
      5          1           0       -2.666145   -0.955197    1.566364
      6          1           0       -2.596832   -1.950112    0.114161
      7          8           0        1.580572    1.401654   -0.101398
      8          6           0        2.635473   -0.620044    0.628420
      9          6           0       -1.656145    1.598649    0.094350
     10          1           0       -0.714043    2.138143    0.211005
     11          1           0       -2.371190    1.919217    0.859129
     12          1           0       -2.075457    1.922691   -0.870746
     13          1           0        2.933694   -1.441439   -0.028536
     14          1           0        2.285335   -1.061004    1.566374
     15          1           0        3.488108    0.030410    0.826216
     16         15           0        0.072524   -0.739174   -0.724951
     17          1           0        0.169356   -1.972735   -0.042718
 ---------------------------------------------------------------------

 SCF Done:  E(RHF) =  -597.936460362     A.U. after    2 cycles

 The electronic state is 1-A.
 Alpha  occ. eigenvalues --  -84.26103 -20.54359 -11.35302 -11.25210 -11.21596
 Alpha  occ. eigenvalues --  -11.20271  -7.60714  -6.73649  -4.26379  -4.26280
 Alpha  occ. eigenvalues --   -4.25414  -1.47894  -1.02759  -0.98740  -0.93313
 Alpha  occ. eigenvalues --   -0.88904  -0.74095  -0.65131  -0.63602  -0.61349
 Alpha  occ. eigenvalues --   -0.60707  -0.57671  -0.56982  -0.56500  -0.53931
 Alpha  occ. eigenvalues --   -0.53691  -0.50825  -0.48014  -0.44787  -0.38232
 Alpha  occ. eigenvalues --   -0.33161
 Alpha virt. eigenvalues --    0.02997   0.03791   0.04021   0.04495   0.05731
 Alpha virt. eigenvalues --    0.05873   0.06277   0.07017   0.07682   0.08235
 Alpha virt. eigenvalues --    0.09037   0.09464   0.09916   0.10545   0.11136

 Mulliken charges:
               1
     1  C    0.606286
     2  B    0.996492
     3  C   -0.380295
     4  H    0.004509
     5  H    0.150261
     6  H   -0.056155
     7  O   -1.254263
     8  C   -0.593274
     9  C   -0.321267
    10  H    0.029717
    11  H    0.013351
    12  H    0.148879
    13  H    0.251936
    14  H    0.259182
    15  H    0.136071
    16  P   -0.374122
    17  H    0.382692
 Sum of Mulliken charges =  -0.00000

 Dipole moment (field-independent basis, Debye):
    X=             -0.6062    Y=             -2.4290    Z=              1.0469  Tot=              2.7135

 Test job not archived.
 1\1\GINC-SE165\SP\RHF\Aug-CC-pVDZ\C4H10B1O1P1\OHZDE\09-Apr-2025\0\\#t
 hf aug-cc-pvdz iop(5/13=1,5/36=2,99/5=2) pseudo=read geom=check guess=
 (read,tcheck) scf=(maxcycle=1)\\title\\0,1\C,0,1.523103,0.198368,-0.00
 2211\B,0,-1.504023,0.042535,0.034697\C,0,-2.671112,-0.91851,0.466406\H
 ,0,-3.653057,-0.519055,0.188924\H,0,-2.666145,-0.955197,1.566364\H,0,-
 2.596832,-1.950112,0.114161\O,0,1.580572,1.401654,-0.101398\C,0,2.6354
 73,-0.620044,0.62842\C,0,-1.656145,1.598649,0.09435\H,0,-0.714043,2.13
 8143,0.211005\H,0,-2.37119,1.919217,0.859129\H,0,-2.075457,1.922691,-0

 Normal termination of Gaussian 16 at Wed Apr  9 00:42:43 2025.
