 Gaussian 16, Revision C.01,

 ----------------------------------------------------------------------
 #t hf aug-cc-pvdz symm=none int=(grid=ultrafine) guess=(read,tcheck) s
 table=(opt,rrhf)
 ----------------------------------------------------------------------
 -----
 title
 -----
 Symbolic Z-matrix:
 Charge =  0 Multiplicity = 1

 SCF Done:  E(RHF) =  -639.435641164     A.U. after   12 cycles
 Normal termination of Gaussian 16 at Wed Apr  9 00:10:49 2025.
 Gaussian 16:  ES64L-G16RevC.01  3-Jul-2019

 ----------------------------------------------------------------------
 #t hf aug-cc-pvdz iop(5/13=1,5/36=2,99/5=2) pseudo=read geom=check gue
 ss=(read,tcheck) scf=(maxcycle=1)
 ----------------------------------------------------------------------
 -----
 title
 -----
 Structure from the checkpoint file:  "BDE49_nonexpt_2256_mol1.chk"
 Charge =  0 Multiplicity = 1

                         Standard orientation:
 ---------------------------------------------------------------------
 Center     Atomic      Atomic             Coordinates (Angstroms)
 Number     Number       Type             X           Y           Z
 ---------------------------------------------------------------------
      1          8           0       -0.387923   -0.028898    0.191254
      2          6           0       -1.828497    0.067074    0.168268
      3          6           0       -2.227890    1.348221   -0.574219
      4          1           0       -1.902867    1.313936   -1.617039
      5          1           0       -1.766798    2.217505   -0.099808
      6          6           0       -2.431800   -1.169915   -0.508581
      7          1           0       -3.523865   -1.132220   -0.472959
      8          1           0       -2.102672   -2.081589   -0.004425
      9          1           0       -2.134678   -1.231744   -1.559560
     10          6           0       -2.254177    0.138100    1.637084
     11          1           0       -1.783654    0.996027    2.122216
     12          1           0       -1.941638   -0.765983    2.164434
     13          1           0       -3.339390    0.237683    1.725786
     14          1           0       -3.313186    1.481632   -0.560881
     15         14           0        0.734871   -0.421024   -0.952470
     16          6           0        2.424964   -0.061894   -0.204173
     17          6           0        2.703023   -0.935193    1.033856
     18          1           0        1.988697   -0.717925    1.833005
     19          1           0        3.708516   -0.747396    1.426286
     20          1           0        2.630993   -2.002483    0.804890
     21          6           0        2.611533    1.434358    0.109076
     22          1           0        3.144789   -0.340552   -0.988300
     23          1           0        1.893314    1.766950    0.863889
     24          1           0        2.473224    2.057907   -0.779107
     25          1           0        3.616850    1.629901    0.498090
     26          1           0        0.543050    0.377133   -2.194309
     27          1           0        0.641570   -1.857774   -1.325519
 ---------------------------------------------------------------------

 SCF Done:  E(RHF) =  -639.851139781     A.U. after    2 cycles

 The electronic state is 1-A.
 Alpha  occ. eigenvalues --  -69.53732 -20.52148 -11.29941 -11.22705 -11.22386
 Alpha  occ. eigenvalues --  -11.22211 -11.22176 -11.22108 -11.21759  -6.20390
 Alpha  occ. eigenvalues --   -3.95868  -3.95709  -3.95700  -1.42606  -1.07553
 Alpha  occ. eigenvalues --   -1.05054  -0.94372  -0.94072  -0.92510  -0.81774
 Alpha  occ. eigenvalues --   -0.77951  -0.69109  -0.64300  -0.62997  -0.62676
 Alpha  occ. eigenvalues --   -0.61230  -0.58562  -0.57206  -0.55938  -0.55840
 Alpha  occ. eigenvalues --   -0.53709  -0.53229  -0.52429  -0.51342  -0.51080
 Alpha  occ. eigenvalues --   -0.48828  -0.48018  -0.47458  -0.44927  -0.41691
 Alpha  occ. eigenvalues --   -0.40789
 Alpha virt. eigenvalues --    0.03565   0.03656   0.03723   0.03884   0.05142
 Alpha virt. eigenvalues --    0.05381   0.05442   0.06209   0.06597   0.07569
 Alpha virt. eigenvalues --    0.07650   0.08003   0.08709   0.09003   0.09733

 Mulliken charges:
               1
     1  O   -1.998324
     2  C   -0.961926
     3  C    0.123205
     4  H    0.176484
     5  H    0.217046
     6  C    0.106857
     7  H    0.187278
     8  H    0.230940
     9  H    0.150707
    10  C    0.033920
    11  H    0.216156
    12  H    0.199086
    13  H    0.219669
    14  H    0.204737
    15  Si   1.548972
    16  C   -0.846370
    17  C   -0.190442
    18  H    0.169718
    19  H    0.111840
    20  H    0.122304
    21  C   -0.241652
    22  H    0.062441
    23  H    0.178143
    24  H    0.115270
    25  H    0.122894
    26  H   -0.161747
    27  H   -0.097203
 Sum of Mulliken charges =  -0.00000

 Dipole moment (field-independent basis, Debye):
    X=             -0.7307    Y=              0.0765    Z=             -0.0996  Tot=              0.7414

 Test job not archived.
 1\1\GINC-SE187\SP\RHF\Aug-CC-pVDZ\C7H18O1Si1\OHZDE\09-Apr-2025\0\\#t h
 f aug-cc-pvdz iop(5/13=1,5/36=2,99/5=2) pseudo=read geom=check guess=(
 read,tcheck) scf=(maxcycle=1)\\title\\0,1\O,0,-0.387923,-0.028898,0.19
 1254\C,0,-1.828497,0.067074,0.168268\C,0,-2.22789,1.348221,-0.574219\H
 ,0,-1.902867,1.313936,-1.617039\H,0,-1.766798,2.217505,-0.099808\C,0,-
 2.4318,-1.169915,-0.508581\H,0,-3.523865,-1.13222,-0.472959\H,0,-2.102
 672,-2.081589,-0.004425\H,0,-2.134678,-1.231744,-1.55956\C,0,-2.254177
 ,0.1381,1.637084\H,0,-1.783654,0.996027,2.122216\H,0,-1.941638,-0.7659

 Normal termination of Gaussian 16 at Wed Apr  9 00:11:09 2025.
