 Gaussian 16, Revision C.01,

 ----------------------------------------------------------------------
 #t hf aug-cc-pvdz symm=none int=(grid=ultrafine) guess=(read,tcheck) s
 table=(opt,rrhf)
 ----------------------------------------------------------------------
 -----
 title
 -----
 Symbolic Z-matrix:
 Charge =  0 Multiplicity = 1

 SCF Done:  E(RHF) =  -906.407591176     A.U. after   12 cycles
 Normal termination of Gaussian 16 at Tue Apr  8 23:45:26 2025.
 Gaussian 16:  ES64L-G16RevC.01  3-Jul-2019

 ----------------------------------------------------------------------
 #t hf aug-cc-pvdz iop(5/13=1,5/36=2,99/5=2) pseudo=read geom=check gue
 ss=(read,tcheck) scf=(maxcycle=1)
 ----------------------------------------------------------------------
 -----
 title
 -----
 Structure from the checkpoint file:  "BDE49_nonexpt_1744_mol1.chk"
 Charge =  0 Multiplicity = 1

                         Standard orientation:
 ---------------------------------------------------------------------
 Center     Atomic      Atomic             Coordinates (Angstroms)
 Number     Number       Type             X           Y           Z
 ---------------------------------------------------------------------
      1         14           0       -0.799266    0.419244    0.403742
      2          6           0        0.946683    0.682324   -0.226660
      3          6           0        2.008754   -0.292517    0.313686
      4          1           0        1.222346    1.714705    0.032733
      5          1           0        0.924079    0.644383   -1.323165
      6          6           0       -2.005717    1.672506   -0.277560
      7          1           0       -1.720343    2.682001    0.035810
      8          1           0       -3.017199    1.477139    0.086504
      9          1           0       -2.026217    1.646531   -1.370185
     10         17           0       -1.448931   -1.496593   -0.170245
     11          6           0        3.414708   -0.004521   -0.222879
     12          1           0        1.724441   -1.317691    0.055911
     13          1           0        2.022696   -0.247678    1.408666
     14          1           0        3.442113   -0.078515   -1.314368
     15          1           0        4.144934   -0.713355    0.177472
     16          1           0        3.743776    1.003274    0.049234
     17          1           0       -0.825644    0.415123    1.883637
 ---------------------------------------------------------------------

 SCF Done:  E(RHF) =  -906.698412820     A.U. after    2 cycles

 The electronic state is 1-A.
 Alpha  occ. eigenvalues -- -105.54324 -69.56298 -11.23816 -11.22766 -11.22735
 Alpha  occ. eigenvalues --  -11.22680 -10.59300  -7.76184  -7.75902  -7.75897
 Alpha  occ. eigenvalues --   -6.22999  -3.98421  -3.98256  -3.98238  -1.06796
 Alpha  occ. eigenvalues --   -1.03680  -0.96320  -0.93135  -0.81493  -0.69434
 Alpha  occ. eigenvalues --   -0.64241  -0.59516  -0.58313  -0.57008  -0.55679
 Alpha  occ. eigenvalues --   -0.55142  -0.50759  -0.50475  -0.48725  -0.48359
 Alpha  occ. eigenvalues --   -0.47552  -0.43934  -0.42718
 Alpha virt. eigenvalues --    0.03231   0.03796   0.03887   0.04319   0.05714
 Alpha virt. eigenvalues --    0.06108   0.06279   0.07409   0.08138   0.08569
 Alpha virt. eigenvalues --    0.09306   0.09631   0.09981   0.11740   0.12715

 Mulliken charges:
               1
     1  Si   1.766759
     2  C   -0.497839
     3  C   -0.421832
     4  H    0.076242
     5  H    0.122426
     6  C   -0.669790
     7  H    0.082832
     8  H   -0.019113
     9  H    0.121895
    10  Cl  -0.659048
    11  C   -0.364840
    12  H    0.110209
    13  H    0.094167
    14  H    0.163022
    15  H    0.121386
    16  H    0.162501
    17  H   -0.188977
 Sum of Mulliken charges =  -0.00000

 Dipole moment (field-independent basis, Debye):
    X=              0.9338    Y=              2.2377    Z=              0.0216  Tot=              2.4248

 Test job not archived.
 1\1\GINC-SE125\SP\RHF\Aug-CC-pVDZ\C4H11Cl1Si1\OHZDE\08-Apr-2025\0\\#t
 hf aug-cc-pvdz iop(5/13=1,5/36=2,99/5=2) pseudo=read geom=check guess=
 (read,tcheck) scf=(maxcycle=1)\\title\\0,1\Si,0,-0.799266,0.419244,0.4
 03742\C,0,0.946683,0.682324,-0.22666\C,0,2.008754,-0.292517,0.313686\H
 ,0,1.222346,1.714705,0.032733\H,0,0.924079,0.644383,-1.323165\C,0,-2.0
 05717,1.672506,-0.27756\H,0,-1.720343,2.682001,0.03581\H,0,-3.017199,1
 .477139,0.086504\H,0,-2.026217,1.646531,-1.370185\Cl,0,-1.448931,-1.49
 6593,-0.170245\C,0,3.414708,-0.004521,-0.222879\H,0,1.724441,-1.317691

 Normal termination of Gaussian 16 at Tue Apr  8 23:45:33 2025.
