 Gaussian 16, Revision C.01,

 ----------------------------------------------------------------------
 #t hf aug-cc-pvdz symm=none int=(grid=ultrafine) guess=(read,tcheck) s
 table=opt
 ----------------------------------------------------------------------
 -----
 title
 -----
 Symbolic Z-matrix:
 Charge =  0 Multiplicity = 2

 SCF Done:  E(UHF) =  -142.885205495     A.U. after   17 cycles
 Normal termination of Gaussian 16 at Wed Apr  9 00:35:56 2025.
 Gaussian 16:  ES64L-G16RevC.01  3-Jul-2019

 ----------------------------------------------------------------------
 #t hf aug-cc-pvdz iop(5/13=1,5/36=2,99/5=2) pseudo=read geom=check gue
 ss=(read,tcheck) scf=(maxcycle=1)
 ----------------------------------------------------------------------
 -----
 title
 -----
 Structure from the checkpoint file:  "BDE49_nonexpt_472_mol2.chk"
 Charge =  0 Multiplicity = 2

                         Standard orientation:
 ---------------------------------------------------------------------
 Center     Atomic      Atomic             Coordinates (Angstroms)
 Number     Number       Type             X           Y           Z
 ---------------------------------------------------------------------
      1          1           0        1.752422    1.486338   -0.942453
      2          5           0        1.773443    0.748192   -0.004354
      3          6           0        0.893777   -0.483310    0.290025
      4          6           0       -0.496444   -0.565742   -0.382199
      5          1           0        1.539702   -1.299372   -0.092623
      6          6           0       -1.478303    0.471964    0.168460
      7          1           0       -0.911841   -1.569927   -0.238834
      8          1           0       -0.383868   -0.426693   -1.462451
      9          1           0       -1.621660    0.346673    1.246385
     10          1           0       -2.458106    0.387129   -0.309145
     11          1           0        0.816304   -0.693264    1.364530
     12          1           0       -1.114345    1.490678   -0.001358
 ---------------------------------------------------------------------

 SCF Done:  E(UHF) =  -143.042554868     A.U. after    2 cycles

 The electronic state is 2-A.
 Alpha  occ. eigenvalues --  -11.23547 -11.22653 -11.21751  -7.61359  -1.06290
 Alpha  occ. eigenvalues --   -0.94177  -0.81816  -0.67880  -0.61243  -0.60837
 Alpha  occ. eigenvalues --   -0.56463  -0.52352  -0.50026  -0.48961  -0.46632
 Alpha  occ. eigenvalues --   -0.32276
 Alpha virt. eigenvalues --    0.03500   0.03693   0.03852   0.04154   0.05711
 Alpha virt. eigenvalues --    0.06566   0.06668   0.07062   0.08469   0.09482
 Alpha virt. eigenvalues --    0.11020   0.11664   0.13270   0.14309   0.15055

  Beta  occ. eigenvalues --  -11.23399 -11.22664 -11.21782  -7.59587  -1.05922
  Beta  occ. eigenvalues --   -0.93772  -0.81204  -0.65481  -0.61118  -0.58867
  Beta  occ. eigenvalues --   -0.55946  -0.51773  -0.49235  -0.48714  -0.45974
  Beta virt. eigenvalues --    0.03460   0.03675   0.03782   0.04001   0.06099
  Beta virt. eigenvalues --    0.06473   0.06694   0.07131   0.08289   0.09629
  Beta virt. eigenvalues --    0.10553   0.11836   0.12319   0.14228   0.14504

 Mulliken charges and spin densities:
               1          2
     1  H    0.392903   0.011121
     2  B   -0.420185   1.014766
     3  C   -0.140825  -0.062212
     4  C   -0.442415   0.045263
     5  H    0.162096  -0.016808
     6  C   -0.378480  -0.003045
     7  H    0.154513   0.004599
     8  H    0.134047  -0.001369
     9  H    0.166849  -0.000227
    10  H    0.111412  -0.000224
    11  H    0.110205   0.006197
    12  H    0.149881   0.001938
 Sum of Mulliken charges =   0.00000   1.00000

 Dipole moment (field-independent basis, Debye):
    X=             -0.8085    Y=             -0.7361    Z=             -0.2598  Tot=              1.1238
                          Isotropic Fermi Contact Couplings
        Atom                 a.u.       MegaHertz       Gauss      10(-4) cm-1
     1  H(1)               0.00606      27.08328       9.66399       9.03401
     2  B(11)              0.24646     353.50671     126.13998     117.91714
     3  C(13)              0.00435       4.89405       1.74632       1.63248
     4  C(13)              0.03453      38.82334      13.85313      12.95007
     5  H(1)              -0.00116      -5.20741      -1.85813      -1.73700
     6  C(13)             -0.00190      -2.13500      -0.76182      -0.71216
     7  H(1)               0.00140       6.24604       2.22874       2.08345
     8  H(1)              -0.00070      -3.11889      -1.11290      -1.04035

 Normal termination of Gaussian 16 at Wed Apr  9 00:36:00 2025.
