 Gaussian 16, Revision C.01,

 ----------------------------------------------------------------------
 #t hf aug-cc-pvdz symm=none int=(grid=ultrafine) guess=(read,tcheck) s
 table=(opt,rrhf)
 ----------------------------------------------------------------------
 -----
 title
 -----
 Symbolic Z-matrix:
 Charge =  0 Multiplicity = 1

 SCF Done:  E(RHF) =  -572.191411647     A.U. after   15 cycles
 Normal termination of Gaussian 16 at Wed Apr  9 00:53:17 2025.
 Gaussian 16:  ES64L-G16RevC.01  3-Jul-2019

 ----------------------------------------------------------------------
 #t hf aug-cc-pvdz iop(5/13=1,5/36=2,99/5=2) pseudo=read geom=check gue
 ss=(read,tcheck) scf=(maxcycle=1)
 ----------------------------------------------------------------------
 -----
 title
 -----
 Structure from the checkpoint file:  "BDE49_nonexpt_974_mol1.chk"
 Charge =  0 Multiplicity = 1

                         Standard orientation:
 ---------------------------------------------------------------------
 Center     Atomic      Atomic             Coordinates (Angstroms)
 Number     Number       Type             X           Y           Z
 ---------------------------------------------------------------------
      1          9           0        1.610243    1.588677    0.022847
      2          9           0       -2.392278   -0.715085    0.180568
      3          8           0       -1.228806    1.822477    0.003046
      4          8           0        2.271022   -1.191866   -0.006716
      5          7           0       -1.133811   -0.500314   -0.386506
      6          7           0        0.736683    0.555183    0.098274
      7          6           0       -0.643674    0.790697   -0.071561
      8          6           0       -0.174252   -1.529376    0.021524
      9          1           0       -0.147753   -2.363695   -0.677406
     10          1           0       -0.393870   -1.887854    1.032144
     11          6           0        1.154945   -0.767946    0.026955
 ---------------------------------------------------------------------

 SCF Done:  E(RHF) =  -572.730077726     A.U. after    2 cycles

 The electronic state is 1-A.
 Alpha  occ. eigenvalues --  -26.56007 -26.53461 -20.58951 -20.58704 -15.68378
 Alpha  occ. eigenvalues --  -15.66831 -11.46211 -11.43952 -11.35240  -1.68674
 Alpha  occ. eigenvalues --   -1.65221  -1.54341  -1.53673  -1.36060  -1.21434
 Alpha  occ. eigenvalues --   -1.07485  -0.95817  -0.90163  -0.80893  -0.80698
 Alpha  occ. eigenvalues --   -0.77115  -0.75512  -0.73122  -0.72070  -0.68086
 Alpha  occ. eigenvalues --   -0.67870  -0.67424  -0.65240  -0.62411  -0.60210
 Alpha  occ. eigenvalues --   -0.52707  -0.50995  -0.49124  -0.48383
 Alpha virt. eigenvalues --    0.02817   0.04164   0.06320   0.07704   0.08853
 Alpha virt. eigenvalues --    0.09539   0.09719   0.10127   0.10263   0.10735
 Alpha virt. eigenvalues --    0.12776   0.13387   0.13814   0.14621   0.15549

 Mulliken charges:
               1
     1  F   -0.712661
     2  F   -0.682128
     3  O   -1.047536
     4  O   -1.159841
     5  N    1.102656
     6  N    1.363613
     7  C    0.440069
     8  C   -0.302956
     9  H    0.143570
    10  H    0.281284
    11  C    0.573930
 Sum of Mulliken charges =  -0.00000

 Dipole moment (field-independent basis, Debye):
    X=             -0.4140    Y=             -2.8259    Z=              0.4210  Tot=              2.8870

 Test job not archived.
 1\1\GINC-SE150\SP\RHF\Aug-CC-pVDZ\C3H2F2N2O2\OHZDE\09-Apr-2025\0\\#t h
 f aug-cc-pvdz iop(5/13=1,5/36=2,99/5=2) pseudo=read geom=check guess=(
 read,tcheck) scf=(maxcycle=1)\\title\\0,1\F,0,1.610243,1.588677,0.0228
 47\F,0,-2.392278,-0.715085,0.180568\O,0,-1.228806,1.822477,0.003046\O,
 0,2.271022,-1.191867,-0.006716\N,0,-1.133811,-0.500314,-0.386506\N,0,0
 .736683,0.555183,0.098274\C,0,-0.643674,0.790697,-0.071561\C,0,-0.1742
 52,-1.529376,0.021524\H,0,-0.147753,-2.363695,-0.677406\H,0,-0.39387,-
 1.887854,1.032144\C,0,1.154945,-0.767946,0.026955\\Version=ES64L-G16Re

 Normal termination of Gaussian 16 at Wed Apr  9 00:53:23 2025.
