 Gaussian 16, Revision C.01,

 ----------------------------------------------------------------------
 #t hf aug-cc-pvdz symm=none int=(grid=ultrafine) guess=(read,tcheck) s
 table=opt
 ----------------------------------------------------------------------
 -----
 title
 -----
 Symbolic Z-matrix:
 Charge =  0 Multiplicity = 2

 SCF Done:  E(UHF) =  -375.203769748     A.U. after   15 cycles
 Normal termination of Gaussian 16 at Tue Apr  8 22:38:26 2025.
 Gaussian 16:  ES64L-G16RevC.01  3-Jul-2019

 ----------------------------------------------------------------------
 #t hf aug-cc-pvdz iop(5/13=1,5/36=2,99/5=2) pseudo=read geom=check gue
 ss=(read,tcheck) scf=(maxcycle=1)
 ----------------------------------------------------------------------
 -----
 title
 -----
 Structure from the checkpoint file:  "BDE49_expt_121_mol2.chk"
 Charge =  0 Multiplicity = 2

                         Standard orientation:
 ---------------------------------------------------------------------
 Center     Atomic      Atomic             Coordinates (Angstroms)
 Number     Number       Type             X           Y           Z
 ---------------------------------------------------------------------
      1          6           0        0.553044    0.000000    0.376687
      2          9           0        1.069256   -1.096332   -0.180222
      3          6           0       -0.910022   -0.000000    0.626827
      4          9           0        1.069256    1.096333   -0.180222
      5          9           0       -1.638503   -0.000000   -0.572439
      6          1           0       -1.179105    0.896642    1.187433
      7          1           0       -1.179105   -0.896641    1.187434
 ---------------------------------------------------------------------

 SCF Done:  E(UHF) =  -375.550782905     A.U. after    2 cycles

 The electronic state is 2-A.
 Alpha  occ. eigenvalues --  -26.51262 -26.51261 -26.47290 -11.44388 -11.36256
 Alpha  occ. eigenvalues --   -1.68655  -1.61798  -1.59165  -1.07296  -0.90266
 Alpha  occ. eigenvalues --   -0.79278  -0.79138  -0.77286  -0.71209  -0.69681
 Alpha  occ. eigenvalues --   -0.67594  -0.66007  -0.63606  -0.57073  -0.55835
 Alpha  occ. eigenvalues --   -0.42976
 Alpha virt. eigenvalues --    0.03320   0.04888   0.07393   0.08992   0.11588
 Alpha virt. eigenvalues --    0.11610   0.12097   0.15762   0.15963   0.21037
 Alpha virt. eigenvalues --    0.22871   0.23748   0.26481   0.28411   0.28434

  Beta  occ. eigenvalues --  -26.50834 -26.50832 -26.46973 -11.41579 -11.36287
  Beta  occ. eigenvalues --   -1.67041  -1.60712  -1.58272  -1.04227  -0.87805
  Beta  occ. eigenvalues --   -0.78429  -0.76922  -0.71478  -0.70644  -0.67547
  Beta  occ. eigenvalues --   -0.65615  -0.64073  -0.63308  -0.55678  -0.55620
  Beta virt. eigenvalues --    0.03229   0.04895   0.06117   0.08624   0.11436
  Beta virt. eigenvalues --    0.11699   0.11786   0.12357   0.15771   0.16673
  Beta virt. eigenvalues --    0.22545   0.23062   0.23907   0.28457   0.28605

 Mulliken charges and spin densities:
               1          2
     1  C    1.371308   1.037068
     2  F   -0.682532   0.026521
     3  C    0.376822  -0.125289
     4  F   -0.682532   0.026522
     5  F   -0.665067   0.039047
     6  H    0.141000  -0.001935
     7  H    0.141000  -0.001935
 Sum of Mulliken charges =  -0.00000   1.00000

 Dipole moment (field-independent basis, Debye):
    X=             -0.6538    Y=              0.0000    Z=              2.3220  Tot=              2.4123
                          Isotropic Fermi Contact Couplings
        Atom                 a.u.       MegaHertz       Gauss      10(-4) cm-1
     1  C(13)              0.40654     457.03399     163.08109     152.45013
     2  F(19)              0.06734     283.33808     101.10207      94.51141
     3  C(13)              0.03152      35.42961      12.64217      11.81805
     4  F(19)              0.06734     283.33844     101.10220      94.51153
     5  F(19)              0.04223     177.67019      63.39714      59.26440
     6  H(1)               0.00049       2.18855       0.78093       0.73002
     7  H(1)               0.00049       2.18856       0.78093       0.73002
 --------------------------------------------------------

 Normal termination of Gaussian 16 at Tue Apr  8 22:38:28 2025.
