 Gaussian 16, Revision C.01,

 ----------------------------------------------------------------------
 #t hf aug-cc-pvdz symm=none int=(grid=ultrafine) guess=(read,tcheck) s
 table=(opt,rrhf)
 ----------------------------------------------------------------------
 -----
 title
 -----
 Symbolic Z-matrix:
 Charge =  0 Multiplicity = 1

 SCF Done:  E(RHF) =  -466.376616775     A.U. after   11 cycles
 Normal termination of Gaussian 16 at Wed Apr  9 00:46:56 2025.
 Gaussian 16:  ES64L-G16RevC.01  3-Jul-2019

 ----------------------------------------------------------------------
 #t hf aug-cc-pvdz iop(5/13=1,5/36=2,99/5=2) pseudo=read geom=check gue
 ss=(read,tcheck) scf=(maxcycle=1)
 ----------------------------------------------------------------------
 -----
 title
 -----
 Structure from the checkpoint file:  "BDE49_nonexpt_836_mol1.chk"
 Charge =  0 Multiplicity = 1

                         Standard orientation:
 ---------------------------------------------------------------------
 Center     Atomic      Atomic             Coordinates (Angstroms)
 Number     Number       Type             X           Y           Z
 ---------------------------------------------------------------------
      1         14           0        1.459374   -0.013152   -0.000001
      2          5           0       -0.579606   -0.003356   -0.000066
      3          8           0       -1.213861   -1.206024    0.000019
      4          8           0       -1.348862    1.129654    0.000008
      5          1           0       -0.840385    1.944440    0.000038
      6          1           0       -2.175784   -1.113648    0.000046
      7          1           0        1.998267   -0.698587   -1.200521
      8          1           0        1.998214   -0.698610    1.200532
      9          1           0        1.988260    1.378273    0.000023
 ---------------------------------------------------------------------

 SCF Done:  E(RHF) =  -466.585642222     A.U. after    2 cycles

 The electronic state is 1-A.
 Alpha  occ. eigenvalues --  -69.51622 -20.57107 -20.56225  -7.64905  -6.18914
 Alpha  occ. eigenvalues --   -3.94288  -3.94279  -3.94239  -1.49042  -1.44669
 Alpha  occ. eigenvalues --   -0.79243  -0.75810  -0.71666  -0.61656  -0.57751
 Alpha  occ. eigenvalues --   -0.56514  -0.49956  -0.48458  -0.48305  -0.42925
 Alpha virt. eigenvalues --    0.03400   0.04173   0.05139   0.05290   0.07167
 Alpha virt. eigenvalues --    0.07668   0.07676   0.08105   0.09229   0.10406
 Alpha virt. eigenvalues --    0.10579   0.12786   0.13450   0.16468   0.17884

 Mulliken charges:
               1
     1  Si   0.484182
     2  B    1.346643
     3  O   -1.172041
     4  O   -1.223504
     5  H    0.523792
     6  H    0.525903
     7  H   -0.165345
     8  H   -0.165351
     9  H   -0.154279
 Sum of Mulliken charges =  -0.00000

 Dipole moment (field-independent basis, Debye):
    X=             -0.6732    Y=              1.3572    Z=             -0.0000  Tot=              1.5150

 Test job not archived.
 1\1\GINC-SE342\SP\RHF\Aug-CC-pVDZ\B1H5O2Si1\OHZDE\09-Apr-2025\0\\#t hf
  aug-cc-pvdz iop(5/13=1,5/36=2,99/5=2) pseudo=read geom=check guess=(r
 ead,tcheck) scf=(maxcycle=1)\\title\\0,1\Si,0,-1.459374,-0.013152,0.00
 0001\B,0,0.579606,-0.003356,0.000066\O,0,1.213861,-1.206024,-0.000019\
 O,0,1.348862,1.129654,-0.000008\H,0,0.840386,1.94444,-0.000038\H,0,2.1
 75784,-1.113648,-0.000046\H,0,-1.998267,-0.698586,1.200521\H,0,-1.9982
 14,-0.698609,-1.200532\H,0,-1.988259,1.378274,-0.000023\\Version=ES64L
 -G16RevC.01\State=1-A\HF=-466.5856422\RMSD=8.258e-03\Dipole=0.2648734,

 Normal termination of Gaussian 16 at Wed Apr  9 00:46:58 2025.
