 Gaussian 16, Revision C.01,

 ----------------------------------------------------------------------
 #t hf aug-cc-pvdz symm=none int=(grid=ultrafine) guess=(read,tcheck) s
 table=(opt,rrhf)
 ----------------------------------------------------------------------
 -----
 title
 -----
 Symbolic Z-matrix:
 Charge =  0 Multiplicity = 1

 SCF Done:  E(RHF) =  -266.889066527     A.U. after   13 cycles
 Normal termination of Gaussian 16 at Tue Apr  8 22:42:29 2025.
 Gaussian 16:  ES64L-G16RevC.01  3-Jul-2019

 ----------------------------------------------------------------------
 #t hf aug-cc-pvdz iop(5/13=1,5/36=2,99/5=2) pseudo=read geom=check gue
 ss=(read,tcheck) scf=(maxcycle=1)
 ----------------------------------------------------------------------
 -----
 title
 -----
 Structure from the checkpoint file:  "BDE49_expt_1442_mol1.chk"
 Charge =  0 Multiplicity = 1

                         Standard orientation:
 ---------------------------------------------------------------------
 Center     Atomic      Atomic             Coordinates (Angstroms)
 Number     Number       Type             X           Y           Z
 ---------------------------------------------------------------------
      1          6           0        0.563747    0.106740    0.000051
      2          8           0        1.677984   -0.667165   -0.000023
      3          8           0        0.612663    1.309897   -0.000008
      4          1           0        2.433060   -0.060290   -0.000060
      5          6           0       -0.691200   -0.736042    0.000016
      6          6           0       -1.971010    0.094606   -0.000013
      7          1           0       -0.639808   -1.397423    0.871325
      8          1           0       -0.639770   -1.397424   -0.871291
      9          1           0       -2.019901    0.738897    0.879676
     10          1           0       -2.848121   -0.556344   -0.000033
     11          1           0       -2.019861    0.738898   -0.879703
 ---------------------------------------------------------------------

 SCF Done:  E(RHF) =  -267.161931744     A.U. after    2 cycles

 The electronic state is 1-A.
 Alpha  occ. eigenvalues --  -20.60072 -20.53985 -11.39465 -11.25919 -11.23530
 Alpha  occ. eigenvalues --   -1.54791  -1.45330  -1.07025  -0.91927  -0.79717
 Alpha  occ. eigenvalues --   -0.71043  -0.69483  -0.66426  -0.59723  -0.59394
 Alpha  occ. eigenvalues --   -0.54429  -0.53308  -0.51055  -0.47778  -0.44538
 Alpha virt. eigenvalues --    0.03564   0.03968   0.04671   0.05029   0.06534
 Alpha virt. eigenvalues --    0.07806   0.10985   0.11578   0.12082   0.13524
 Alpha virt. eigenvalues --    0.14667   0.15571   0.16734   0.16773   0.17235

 Mulliken charges:
               1
     1  C    1.936898
     2  O   -1.251241
     3  O   -1.164240
     4  H    0.385029
     5  C   -0.543724
     6  C   -0.283660
     7  H    0.230209
     8  H    0.230196
     9  H    0.166207
    10  H    0.128112
    11  H    0.166213
 Sum of Mulliken charges =  -0.00000

 Dipole moment (field-independent basis, Debye):
    X=             -0.2330    Y=             -1.7283    Z=              0.0000  Tot=              1.7439

 Test job not archived.
 1\1\GINC-SE361\SP\RHF\Aug-CC-pVDZ\C3H6O2\OHZDE\08-Apr-2025\0\\#t hf au
 g-cc-pvdz iop(5/13=1,5/36=2,99/5=2) pseudo=read geom=check guess=(read
 ,tcheck) scf=(maxcycle=1)\\title\\0,1\C,0,0.563747,0.10674,0.000051\O,
 0,1.677984,-0.667165,-0.000023\O,0,0.612663,1.309897,-0.000008\H,0,2.4
 3306,-0.06029,-0.00006\C,0,-0.6912,-0.736042,0.000016\C,0,-1.97101,0.0
 94606,-0.000013\H,0,-0.639808,-1.397423,0.871325\H,0,-0.63977,-1.39742
 4,-0.871291\H,0,-2.019901,0.738897,0.879676\H,0,-2.848121,-0.556344,-0
 .000033\H,0,-2.019861,0.738898,-0.879703\\Version=ES64L-G16RevC.01\Sta

 Normal termination of Gaussian 16 at Tue Apr  8 22:42:32 2025.
