 Gaussian 16, Revision C.01,

 ----------------------------------------------------------------------
 #t hf aug-cc-pvdz symm=none int=(grid=ultrafine) guess=(read,tcheck) s
 table=(opt,rrhf)
 ----------------------------------------------------------------------
 -----
 title
 -----
 Symbolic Z-matrix:
 Charge =  0 Multiplicity = 1

 SCF Done:  E(RHF) =  -623.011646753     A.U. after   16 cycles
 Normal termination of Gaussian 16 at Tue Apr  8 23:28:55 2025.
 Gaussian 16:  ES64L-G16RevC.01  3-Jul-2019

 ----------------------------------------------------------------------
 #t hf aug-cc-pvdz iop(5/13=1,5/36=2,99/5=2) pseudo=read geom=check gue
 ss=(read,tcheck) scf=(maxcycle=1)
 ----------------------------------------------------------------------
 -----
 title
 -----
 Structure from the checkpoint file:  "BDE49_nonexpt_1335_mol1.chk"
 Charge =  0 Multiplicity = 1

                         Standard orientation:
 ---------------------------------------------------------------------
 Center     Atomic      Atomic             Coordinates (Angstroms)
 Number     Number       Type             X           Y           Z
 ---------------------------------------------------------------------
      1          6           0        1.753092   -0.189771    0.267197
      2         15           0        0.242411   -1.089955   -0.326179
      3          6           0       -1.163333    0.136993    0.023801
      4          7           0       -0.863788    1.434051   -0.216159
      5          8           0        1.966405    0.989178    0.086572
      6          1           0        2.521504   -0.835525    0.743267
      7          8           0       -2.246618   -0.302473    0.338559
      8          1           0        0.105420    1.725113   -0.281790
      9          1           0       -1.582457    2.120937   -0.035226
     10          1           0        0.069027   -1.876528    0.832520
 ---------------------------------------------------------------------

 SCF Done:  E(RHF) =  -623.331522977     A.U. after    2 cycles

 The electronic state is 1-A.
 Alpha  occ. eigenvalues --  -84.31108 -20.58542 -20.53228 -15.53810 -11.38520
 Alpha  occ. eigenvalues --  -11.38060  -6.78427  -4.30925  -4.30863  -4.30027
 Alpha  occ. eigenvalues --   -1.51339  -1.48103  -1.23749  -0.97807  -0.86472
 Alpha  occ. eigenvalues --   -0.82107  -0.75408  -0.69691  -0.68155  -0.63564
 Alpha  occ. eigenvalues --   -0.61268  -0.56800  -0.56240  -0.46816  -0.45300
 Alpha  occ. eigenvalues --   -0.40834  -0.36886
 Alpha virt. eigenvalues --    0.03082   0.04046   0.05556   0.06000   0.07192
 Alpha virt. eigenvalues --    0.07748   0.09556   0.09594   0.11229   0.11992
 Alpha virt. eigenvalues --    0.13118   0.13493   0.14207   0.14320   0.15332

 Mulliken charges:
               1
     1  C    0.420901
     2  P    0.517864
     3  C   -0.116746
     4  N    0.612081
     5  O   -1.074590
     6  H    0.091680
     7  O   -1.118442
     8  H    0.079371
     9  H    0.078472
    10  H    0.509410
 Sum of Mulliken charges =  -0.00000

 Dipole moment (field-independent basis, Debye):
    X=              2.2531    Y=             -0.3696    Z=              0.2173  Tot=              2.2935

 Test job not archived.
 1\1\GINC-SE094\SP\RHF\Aug-CC-pVDZ\C2H4N1O2P1\OHZDE\08-Apr-2025\0\\#t h
 f aug-cc-pvdz iop(5/13=1,5/36=2,99/5=2) pseudo=read geom=check guess=(
 read,tcheck) scf=(maxcycle=1)\\title\\0,1\C,0,1.753092,-0.189771,0.267
 197\P,0,0.242411,-1.089955,-0.326179\C,0,-1.163333,0.136992,0.023801\N
 ,0,-0.863788,1.434051,-0.216159\O,0,1.966405,0.989178,0.086572\H,0,2.5
 21504,-0.835525,0.743267\O,0,-2.246618,-0.302474,0.338559\H,0,0.105419
 ,1.725113,-0.28179\H,0,-1.582458,2.120936,-0.035226\H,0,0.069027,-1.87
 6528,0.83252\\Version=ES64L-G16RevC.01\State=1-A\HF=-623.331523\RMSD=2

 Normal termination of Gaussian 16 at Tue Apr  8 23:28:59 2025.
