 Gaussian 16, Revision C.01,

 ----------------------------------------------------------------------
 #t hf aug-cc-pvdz symm=none int=(grid=ultrafine) guess=(read,tcheck) s
 table=opt
 ----------------------------------------------------------------------
 -----
 title
 -----
 Symbolic Z-matrix:
 Charge =  0 Multiplicity = 2

 SCF Done:  E(UHF) =  -562.833735660     A.U. after   15 cycles
 Normal termination of Gaussian 16 at Tue Apr  8 23:48:18 2025.
 Gaussian 16:  ES64L-G16RevC.01  3-Jul-2019

 ----------------------------------------------------------------------
 #t hf aug-cc-pvdz iop(5/13=1,5/36=2,99/5=2) pseudo=read geom=check gue
 ss=(read,tcheck) scf=(maxcycle=1)
 ----------------------------------------------------------------------
 -----
 title
 -----
 Structure from the checkpoint file:  "BDE49_nonexpt_180_mol2.chk"
 Charge =  0 Multiplicity = 2

                         Standard orientation:
 ---------------------------------------------------------------------
 Center     Atomic      Atomic             Coordinates (Angstroms)
 Number     Number       Type             X           Y           Z
 ---------------------------------------------------------------------
      1         17           0        1.534098   -0.213707   -0.000005
      2          5           0        0.250230    0.971243   -0.000005
      3          6           0       -1.280008    0.703725    0.000010
      4          6           0       -1.766767   -0.757985    0.000001
      5          1           0       -1.689253    1.249525    0.863018
      6          1           0       -1.406414   -1.294796   -0.880562
      7          1           0       -2.858838   -0.807093    0.000017
      8          1           0       -1.406388   -1.294815    0.880542
      9          1           0       -1.689281    1.249546   -0.862970
 ---------------------------------------------------------------------

 SCF Done:  E(UHF) =  -563.020120033     A.U. after    2 cycles

 The electronic state is 2-A.
 Alpha  occ. eigenvalues -- -105.57130 -11.23618 -11.23294 -10.62153  -7.79083
 Alpha  occ. eigenvalues --   -7.78765  -7.78721  -7.66921  -1.08599  -1.03412
 Alpha  occ. eigenvalues --   -0.87333  -0.67412  -0.61944  -0.59910  -0.55700
 Alpha  occ. eigenvalues --   -0.51304  -0.51254  -0.49072  -0.48616  -0.33948
 Alpha virt. eigenvalues --    0.03476   0.04083   0.04332   0.04685   0.06546
 Alpha virt. eigenvalues --    0.06798   0.07408   0.07770   0.09614   0.11675
 Alpha virt. eigenvalues --    0.13134   0.14903   0.15208   0.16548   0.16911

  Beta  occ. eigenvalues -- -105.57052 -11.23497 -11.23174 -10.62062  -7.78943
  Beta  occ. eigenvalues --   -7.78732  -7.78523  -7.64944  -1.07555  -1.02897
  Beta  occ. eigenvalues --   -0.86538  -0.65119  -0.61819  -0.58155  -0.53914
  Beta  occ. eigenvalues --   -0.51095  -0.49826  -0.49151  -0.47023
  Beta virt. eigenvalues --    0.03235   0.03999   0.04212   0.04481   0.06799
  Beta virt. eigenvalues --    0.07203   0.07329   0.08005   0.09017   0.11616
  Beta virt. eigenvalues --    0.12309   0.14503   0.15221   0.15878   0.16857

 Mulliken charges and spin densities:
               1          2
     1  Cl  -0.239920   0.001508
     2  B    0.190588   1.003018
     3  C   -0.358446  -0.004823
     4  C   -0.417522   0.034443
     5  H    0.192391  -0.014564
     6  H    0.150421  -0.003176
     7  H    0.139682   0.001335
     8  H    0.150421  -0.003176
     9  H    0.192386  -0.014564
 Sum of Mulliken charges =  -0.00000   1.00000

 Dipole moment (field-independent basis, Debye):
    X=             -1.6193    Y=              0.0528    Z=              0.0000  Tot=              1.6202
                          Isotropic Fermi Contact Couplings
        Atom                 a.u.       MegaHertz       Gauss      10(-4) cm-1
     1  Cl(35)             0.08327      36.50917      13.02738      12.17815
     2  B(11)              0.32003     459.03309     163.79442     153.11696
     3  C(13)              0.03741      42.05941      15.00784      14.02951
     4  C(13)              0.02429      27.30898       9.74452       9.10930
     5  H(1)              -0.00005      -0.23846      -0.08509      -0.07954
     6  H(1)              -0.00079      -3.52690      -1.25848      -1.17645
     7  H(1)               0.00103       4.61642       1.64725       1.53987
     8  H(1)              -0.00079      -3.52689      -1.25848      -1.17644

 Normal termination of Gaussian 16 at Tue Apr  8 23:48:21 2025.
