 Gaussian 16, Revision C.01,

 ----------------------------------------------------------------------
 #t hf aug-cc-pvdz symm=none int=(grid=ultrafine) guess=(read,tcheck) s
 table=(opt,rrhf)
 ----------------------------------------------------------------------
 -----
 title
 -----
 Symbolic Z-matrix:
 Charge =  0 Multiplicity = 1

 SCF Done:  E(RHF) =  -2672.38130553     A.U. after   14 cycles
 Normal termination of Gaussian 16 at Wed Apr  9 00:48:54 2025.
 Gaussian 16:  ES64L-G16RevC.01  3-Jul-2019

 ----------------------------------------------------------------------
 #t hf aug-cc-pvdz iop(5/13=1,5/36=2,99/5=2) pseudo=read geom=check gue
 ss=(read,tcheck) scf=(maxcycle=1)
 ----------------------------------------------------------------------
 -----
 title
 -----
 Structure from the checkpoint file:  "BDE49_nonexpt_874_mol1.chk"
 Charge =  0 Multiplicity = 1

                         Standard orientation:
 ---------------------------------------------------------------------
 Center     Atomic      Atomic             Coordinates (Angstroms)
 Number     Number       Type             X           Y           Z
 ---------------------------------------------------------------------
      1         16           0       -0.951168   -0.999487    0.806490
      2          5           0       -2.214309    0.101444    0.041215
      3         16           0       -3.778875   -0.713273   -0.400134
      4         16           0       -2.088069    1.867328   -0.281290
      5         16           0        0.710278    0.183431    1.258023
      6          6           0        1.751948    0.015490   -0.248233
      7          9           0        1.121630    0.493115   -1.339972
      8         17           0        2.254079   -1.661199   -0.607928
      9         17           0        3.185249    1.043749    0.081032
     10          1           0       -0.830210    2.008990    0.181603
     11          1           0       -3.447812   -1.958516   -0.010731
 ---------------------------------------------------------------------

 SCF Done:  E(RHF) =  -2672.92021559     A.U. after    2 cycles

 The electronic state is 1-A.
 Alpha  occ. eigenvalues -- -105.61280-105.60731 -94.02917 -94.00426 -93.97365
 Alpha  occ. eigenvalues --  -93.96970 -26.52785 -11.51280 -10.66114 -10.65574
 Alpha  occ. eigenvalues --   -8.30812  -8.28547  -8.25646  -8.25304  -7.83059
 Alpha  occ. eigenvalues --   -7.82629  -7.82619  -7.82524  -7.82082  -7.82080
 Alpha  occ. eigenvalues --   -7.69819  -6.28570  -6.28382  -6.28120  -6.26349
 Alpha  occ. eigenvalues --   -6.26093  -6.25948  -6.23477  -6.23342  -6.23160
 Alpha  occ. eigenvalues --   -6.23131  -6.23004  -6.22828  -1.66849  -1.19801
 Alpha  occ. eigenvalues --   -1.12311  -1.08796  -1.06536  -1.02371  -0.97065
 Alpha  occ. eigenvalues --   -0.86767  -0.74504  -0.74253  -0.73101  -0.68224
 Alpha  occ. eigenvalues --   -0.62589  -0.59714  -0.58667  -0.55433  -0.54165
 Alpha  occ. eigenvalues --   -0.52090  -0.50939  -0.50138  -0.48491  -0.47724
 Alpha  occ. eigenvalues --   -0.47002  -0.46860  -0.41385  -0.40345  -0.39065
 Alpha virt. eigenvalues --    0.03792   0.04538   0.05259   0.05529   0.06638
 Alpha virt. eigenvalues --    0.07121   0.07919   0.08270   0.09034   0.09203
 Alpha virt. eigenvalues --    0.09381   0.10176   0.10607   0.11339   0.12573

 Mulliken charges:
               1
     1  S   -0.342931
     2  B    1.279496
     3  S   -0.714438
     4  S   -0.583941
     5  S    0.073646
     6  C    0.217414
     7  F   -0.663314
     8  Cl   0.046467
     9  Cl   0.095111
    10  H    0.327906
    11  H    0.264584
 Sum of Mulliken charges =  -0.00000

 Dipole moment (field-independent basis, Debye):
    X=              0.3606    Y=             -0.5640    Z=              0.7201  Tot=              0.9832

 Test job not archived.
 1\1\GINC-SE162\SP\RHF\Aug-CC-pVDZ\C1H2B1Cl2F1S4\OHZDE\09-Apr-2025\0\\#
 t hf aug-cc-pvdz iop(5/13=1,5/36=2,99/5=2) pseudo=read geom=check gues
 s=(read,tcheck) scf=(maxcycle=1)\\title\\0,1\S,0,-0.951168,-0.999487,0
 .80649\B,0,-2.214309,0.101444,0.041215\S,0,-3.778875,-0.713273,-0.4001
 34\S,0,-2.088069,1.867328,-0.28129\S,0,0.710278,0.183431,1.258023\C,0,
 1.751948,0.01549,-0.248233\F,0,1.12163,0.493115,-1.339972\Cl,0,2.25407
 9,-1.661199,-0.607928\Cl,0,3.185249,1.043749,0.081032\H,0,-0.83021,2.0
 0899,0.181603\H,0,-3.447812,-1.958516,-0.010731\\Version=ES64L-G16RevC

 Normal termination of Gaussian 16 at Wed Apr  9 00:49:02 2025.
