 Gaussian 16, Revision C.01,

 ----------------------------------------------------------------------
 #t hf aug-cc-pvdz symm=none int=(grid=ultrafine) guess=(read,tcheck) s
 table=(opt,rrhf)
 ----------------------------------------------------------------------
 -----
 title
 -----
 Symbolic Z-matrix:
 Charge =  0 Multiplicity = 1

 SCF Done:  E(RHF) =  -476.770100465     A.U. after   12 cycles
 Normal termination of Gaussian 16 at Tue Apr  8 22:45:28 2025.
 Gaussian 16:  ES64L-G16RevC.01  3-Jul-2019

 ----------------------------------------------------------------------
 #t hf aug-cc-pvdz iop(5/13=1,5/36=2,99/5=2) pseudo=read geom=check gue
 ss=(read,tcheck) scf=(maxcycle=1)
 ----------------------------------------------------------------------
 -----
 title
 -----
 Structure from the checkpoint file:  "BDE49_expt_1546_mol1.chk"
 Charge =  0 Multiplicity = 1

                         Standard orientation:
 ---------------------------------------------------------------------
 Center     Atomic      Atomic             Coordinates (Angstroms)
 Number     Number       Type             X           Y           Z
 ---------------------------------------------------------------------
      1         16           0       -1.113776   -0.232816   -0.000001
      2          6           0        0.495189    0.671675    0.000001
      3          6           0        1.643155   -0.334376    0.000001
      4          1           0        0.540899    1.304978    0.887079
      5          1           0        0.540900    1.304979   -0.887076
      6          1           0        1.609596   -0.974619    0.884978
      7          1           0        2.601436    0.192185    0.000002
      8          1           0        1.609597   -0.974618   -0.884977
      9          1           0       -1.912083    0.848352   -0.000001
 ---------------------------------------------------------------------

 SCF Done:  E(RHF) =  -476.921248958     A.U. after    2 cycles

 The electronic state is 1-A.
 Alpha  occ. eigenvalues --  -93.94477 -11.27390 -11.23951  -8.22558  -6.20411
 Alpha  occ. eigenvalues --   -6.20266  -6.20037  -1.08279  -0.96361  -0.82771
 Alpha  occ. eigenvalues --   -0.63855  -0.62364  -0.55067  -0.52163  -0.51019
 Alpha  occ. eigenvalues --   -0.45543  -0.36202
 Alpha virt. eigenvalues --    0.03589   0.04183   0.04724   0.05006   0.07006
 Alpha virt. eigenvalues --    0.07748   0.10121   0.12321   0.13307   0.13779
 Alpha virt. eigenvalues --    0.14722   0.16437   0.16978   0.17615   0.18282

 Mulliken charges:
               1
     1  S   -0.052587
     2  C   -0.673185
     3  C   -0.348092
     4  H    0.137834
     5  H    0.137834
     6  H    0.168198
     7  H    0.144744
     8  H    0.168199
     9  H    0.317053
 Sum of Mulliken charges =  -0.00000

 Dipole moment (field-independent basis, Debye):
    X=              1.1352    Y=              1.4630    Z=              0.0000  Tot=              1.8518

 Test job not archived.
 1\1\GINC-SE093\SP\RHF\Aug-CC-pVDZ\C2H6S1\OHZDE\08-Apr-2025\0\\#t hf au
 g-cc-pvdz iop(5/13=1,5/36=2,99/5=2) pseudo=read geom=check guess=(read
 ,tcheck) scf=(maxcycle=1)\\title\\0,1\S,0,-1.113776,-0.232816,-0.00000
 1\C,0,0.495189,0.671675,0.000001\C,0,1.643155,-0.334376,0.000001\H,0,0
 .540899,1.304978,0.887079\H,0,0.5409,1.304979,-0.887076\H,0,1.609596,-
 0.974619,0.884978\H,0,2.601436,0.192185,0.000002\H,0,1.609597,-0.97461
 8,-0.884977\H,0,-1.912083,0.848352,-0.000001\\Version=ES64L-G16RevC.01
 \State=1-A\HF=-476.921249\RMSD=7.031e-03\Dipole=0.4466381,0.5755771,0.

 Normal termination of Gaussian 16 at Tue Apr  8 22:45:30 2025.
