 Gaussian 16, Revision C.01,

 ----------------------------------------------------------------------
 #t hf aug-cc-pvdz symm=none int=(grid=ultrafine) guess=(read,tcheck) s
 table=(opt,rrhf)
 ----------------------------------------------------------------------
 -----
 title
 -----
 Symbolic Z-matrix:
 Charge =  0 Multiplicity = 1

 SCF Done:  E(RHF) =  -1459.56042339     A.U. after   18 cycles
 Normal termination of Gaussian 16 at Tue Apr  8 22:55:27 2025.
 Gaussian 16:  ES64L-G16RevC.01  3-Jul-2019

 ----------------------------------------------------------------------
 #t hf aug-cc-pvdz iop(5/13=1,5/36=2,99/5=2) pseudo=read geom=check gue
 ss=(read,tcheck) scf=(maxcycle=1)
 ----------------------------------------------------------------------
 -----
 title
 -----
 Structure from the checkpoint file:  "BDE49_expt_1753_mol1.chk"
 Charge =  0 Multiplicity = 1

                         Standard orientation:
 ---------------------------------------------------------------------
 Center     Atomic      Atomic             Coordinates (Angstroms)
 Number     Number       Type             X           Y           Z
 ---------------------------------------------------------------------
      1          6           0        2.835828    0.105949   -0.064718
      2          6           0        2.237864   -0.825326   -0.909924
      3          6           0        0.889537   -1.124362   -0.744407
      4          6           0        2.116664    0.739494    0.947803
      5          6           0        0.771052    0.438082    1.116429
      6          6           0        0.168286   -0.486120    0.262687
      7          1           0        2.820724   -1.312477   -1.680276
      8          1           0        0.405574   -1.857791   -1.375805
      9          1           0        2.607140    1.452972    1.596513
     10          1           0        0.193558    0.910135    1.900249
     11         16           0       -1.553096   -0.879827    0.484885
     12          8           0       -1.856639   -2.063617   -0.275383
     13          8           0       -1.881972   -0.728672    1.871184
     14          7           0       -2.372889    0.387628   -0.357536
     15          7           0       -2.351811    1.596040    0.273092
     16          8           0       -2.859390    2.487307   -0.365990
     17          6           0       -2.894233    0.246253   -1.719522
     18          1           0       -2.861149   -0.805300   -1.986908
     19          1           0       -2.300177    0.845637   -2.413435
     20          1           0       -3.922954    0.607416   -1.738551
     21         17           0        4.530220    0.483941   -0.272789
 ---------------------------------------------------------------------

 SCF Done:  E(RHF) =  -1460.29215312     A.U. after    2 cycles

 The electronic state is 1-A.
 Alpha  occ. eigenvalues -- -105.59816 -94.24803 -20.61171 -20.57078 -20.56691
 Alpha  occ. eigenvalues --  -15.69976 -15.60023 -11.34926 -11.30934 -11.30021
 Alpha  occ. eigenvalues --  -11.29907 -11.29876 -11.28930 -11.28884 -10.64613
 Alpha  occ. eigenvalues --   -8.49655  -7.81582  -7.81171  -7.81159  -6.47795
 Alpha  occ. eigenvalues --   -6.47583  -6.47452  -1.61917  -1.59751  -1.47835
 Alpha  occ. eigenvalues --   -1.31718  -1.22387  -1.14188  -1.07225  -1.06196
 Alpha  occ. eigenvalues --   -1.05372  -0.98453  -0.89678  -0.88720  -0.83528
 Alpha  occ. eigenvalues --   -0.80669  -0.75757  -0.75364  -0.71818  -0.71391
 Alpha  occ. eigenvalues --   -0.68853  -0.66961  -0.66865  -0.66606  -0.65302
 Alpha  occ. eigenvalues --   -0.60664  -0.60443  -0.58663  -0.57924  -0.56477
 Alpha  occ. eigenvalues --   -0.54426  -0.52637  -0.51959  -0.49843  -0.49325
 Alpha  occ. eigenvalues --   -0.48943  -0.46977  -0.45880  -0.39424  -0.38486
 Alpha virt. eigenvalues --    0.02861   0.03441   0.03728   0.04301   0.05015
 Alpha virt. eigenvalues --    0.05558   0.06049   0.06249   0.07029   0.07465
 Alpha virt. eigenvalues --    0.08112   0.08677   0.09724   0.10657   0.11363

 Mulliken charges:
               1
     1  C   -0.337147
     2  C    0.645913
     3  C   -0.305481
     4  C    0.578304
     5  C   -0.381972
     6  C    0.501593
     7  H   -0.171671
     8  H   -0.319790
     9  H   -0.176801
    10  H   -0.289234
    11  S    4.180380
    12  O   -1.660184
    13  O   -1.648414
    14  N   -0.423614
    15  N    0.915319
    16  O   -1.055356
    17  C   -0.241138
    18  H    0.083835
    19  H    0.231437
    20  H    0.164070
    21  Cl  -0.290051
 Sum of Mulliken charges =  -0.00000

 Dipole moment (field-independent basis, Debye):
    X=              2.2270    Y=              0.1374    Z=             -2.9308  Tot=              3.6834

 Test job not archived.
 1\1\GINC-SE453\SP\RHF\Aug-CC-pVDZ\C7H7Cl1N2O3S1\OHZDE\08-Apr-2025\0\\#
 t hf aug-cc-pvdz iop(5/13=1,5/36=2,99/5=2) pseudo=read geom=check gues
 s=(read,tcheck) scf=(maxcycle=1)\\title\\0,1\C,0,2.835828,0.105949,-0.
 064718\C,0,2.237864,-0.825326,-0.909924\C,0,0.889537,-1.124362,-0.7444
 07\C,0,2.116664,0.739494,0.947803\C,0,0.771052,0.438082,1.116429\C,0,0
 .168286,-0.48612,0.262687\H,0,2.820724,-1.312477,-1.680276\H,0,0.40557
 4,-1.857791,-1.375805\H,0,2.60714,1.452972,1.596513\H,0,0.193558,0.910
 135,1.900249\S,0,-1.553096,-0.879827,0.484885\O,0,-1.856639,-2.063617,

 Normal termination of Gaussian 16 at Tue Apr  8 22:55:45 2025.
