 Gaussian 16, Revision C.01,

 ----------------------------------------------------------------------
 #t hf aug-cc-pvdz symm=none int=(grid=ultrafine) guess=(read,tcheck) s
 table=(opt,rrhf)
 ----------------------------------------------------------------------
 -----
 title
 -----
 Symbolic Z-matrix:
 Charge =  0 Multiplicity = 1

 SCF Done:  E(RHF) =  -438.443768172     A.U. after   15 cycles
 Normal termination of Gaussian 16 at Tue Apr  8 23:20:54 2025.
 Gaussian 16:  ES64L-G16RevC.01  3-Jul-2019

 ----------------------------------------------------------------------
 #t hf aug-cc-pvdz iop(5/13=1,5/36=2,99/5=2) pseudo=read geom=check gue
 ss=(read,tcheck) scf=(maxcycle=1)
 ----------------------------------------------------------------------
 -----
 title
 -----
 Structure from the checkpoint file:  "BDE49_nonexpt_1161_mol1.chk"
 Charge =  0 Multiplicity = 1

                         Standard orientation:
 ---------------------------------------------------------------------
 Center     Atomic      Atomic             Coordinates (Angstroms)
 Number     Number       Type             X           Y           Z
 ---------------------------------------------------------------------
      1          9           0       -1.887475   -0.076832    0.060635
      2          8           0       -0.694595   -0.877669   -0.155922
      3          6           0        0.408122    0.029791   -0.025822
      4          8           0        1.477608   -0.753964   -0.373303
      5          1           0        1.751506   -1.219656    0.426216
      6          8           0        0.446700    0.445318    1.297116
      7          1           0        0.872606    1.310328    1.304892
      8          8           0        0.333520    1.070525   -0.914799
      9          1           0       -0.591438    1.348393   -0.946620
 ---------------------------------------------------------------------

 SCF Done:  E(RHF) =  -438.866680180     A.U. after    2 cycles

 The electronic state is 1-A.
 Alpha  occ. eigenvalues --  -26.52127 -20.69585 -20.60377 -20.60223 -20.60130
 Alpha  occ. eigenvalues --  -11.49653  -1.68452  -1.58958  -1.49443  -1.48737
 Alpha  occ. eigenvalues --   -1.37336  -0.92261  -0.83806  -0.77877  -0.75612
 Alpha  occ. eigenvalues --   -0.70489  -0.67594  -0.65758  -0.64031  -0.61838
 Alpha  occ. eigenvalues --   -0.57913  -0.54668  -0.53415  -0.51646  -0.51250
 Alpha virt. eigenvalues --    0.03260   0.04388   0.05611   0.09543   0.11129
 Alpha virt. eigenvalues --    0.13087   0.14585   0.15616   0.18413   0.18599
 Alpha virt. eigenvalues --    0.19095   0.20338   0.21566   0.23402   0.25083

 Mulliken charges:
               1
     1  F   -0.435767
     2  O   -0.666133
     3  C    4.053985
     4  O   -1.228075
     5  H    0.257244
     6  O   -1.265448
     7  H    0.258581
     8  O   -1.255728
     9  H    0.281341
 Sum of Mulliken charges =   0.00000

 Dipole moment (field-independent basis, Debye):
    X=              1.0789    Y=              1.3661    Z=              1.2276  Tot=              2.1301

 Test job not archived.
 1\1\GINC-SE334\SP\RHF\Aug-CC-pVDZ\C1H3F1O4\OHZDE\08-Apr-2025\0\\#t hf
 aug-cc-pvdz iop(5/13=1,5/36=2,99/5=2) pseudo=read geom=check guess=(re
 ad,tcheck) scf=(maxcycle=1)\\title\\0,1\F,0,-1.887475,-0.076832,0.0606
 35\O,0,-0.694595,-0.877669,-0.155922\C,0,0.408122,0.029791,-0.025822\O
 ,0,1.477608,-0.753965,-0.373303\H,0,1.751505,-1.219657,0.426216\O,0,0.
 4467,0.445318,1.297116\H,0,0.872606,1.310328,1.304892\O,0,0.33352,1.07
 0525,-0.914799\H,0,-0.591438,1.348393,-0.94662\\Version=ES64L-G16RevC.
 01\State=1-A\HF=-438.8666802\RMSD=8.029e-03\Dipole=0.4244845,0.5374743

 Normal termination of Gaussian 16 at Tue Apr  8 23:20:57 2025.
