 Gaussian 16, Revision C.01,

 ----------------------------------------------------------------------
 #t hf aug-cc-pvdz symm=none int=(grid=ultrafine) guess=(read,tcheck) s
 table=(opt,rrhf)
 ----------------------------------------------------------------------
 -----
 title
 -----
 Symbolic Z-matrix:
 Charge =  0 Multiplicity = 1

 SCF Done:  E(RHF) =  -1454.78329387     A.U. after   15 cycles
 Normal termination of Gaussian 16 at Tue Apr  8 23:48:01 2025.
 Gaussian 16:  ES64L-G16RevC.01  3-Jul-2019

 ----------------------------------------------------------------------
 #t hf aug-cc-pvdz iop(5/13=1,5/36=2,99/5=2) pseudo=read geom=check gue
 ss=(read,tcheck) scf=(maxcycle=1)
 ----------------------------------------------------------------------
 -----
 title
 -----
 Structure from the checkpoint file:  "BDE49_nonexpt_1797_mol1.chk"
 Charge =  0 Multiplicity = 1

                         Standard orientation:
 ---------------------------------------------------------------------
 Center     Atomic      Atomic             Coordinates (Angstroms)
 Number     Number       Type             X           Y           Z
 ---------------------------------------------------------------------
      1          6           0        2.662764    1.069672   -0.723349
      2          6           0        1.281951    1.076990   -0.541601
      3          6           0        3.404758    0.030310   -0.173401
      4          6           0        2.736057   -0.964345    0.540722
      5          7           0        1.415184   -0.969313    0.721459
      6          6           0        0.697582    0.036715    0.184911
      7          1           0        3.149052    1.861033   -1.282515
      8          1           0        0.669660    1.871456   -0.950919
      9         14           0       -1.126580   -0.167826    0.539480
     10         17           0       -2.116793    1.625728    0.189680
     11         17           0       -1.943791   -1.609164   -0.702240
     12          1           0        4.481128   -0.013855   -0.289861
     13          1           0        3.284235   -1.789366    0.986337
     14          1           0       -1.387014   -0.572163    1.923851
 ---------------------------------------------------------------------

 SCF Done:  E(RHF) =  -1455.21868598     A.U. after    2 cycles

 The electronic state is 1-A.
 Alpha  occ. eigenvalues -- -105.56755-105.56345 -69.62493 -15.52746 -11.29718
 Alpha  occ. eigenvalues --  -11.28820 -11.28209 -11.26965 -11.26949 -10.61767
 Alpha  occ. eigenvalues --  -10.61353  -7.78653  -7.78346  -7.78341  -7.78244
 Alpha  occ. eigenvalues --   -7.77923  -7.77922  -6.28732  -4.04145  -4.04044
 Alpha  occ. eigenvalues --   -4.03912  -1.27631  -1.10886  -1.08406  -1.05130
 Alpha  occ. eigenvalues --   -1.04352  -0.89710  -0.88368  -0.76693  -0.71332
 Alpha  occ. eigenvalues --   -0.70480  -0.66035  -0.61768  -0.60218  -0.58805
 Alpha  occ. eigenvalues --   -0.55930  -0.55419  -0.53723  -0.49282  -0.48233
 Alpha  occ. eigenvalues --   -0.47311  -0.46574  -0.44795  -0.41954  -0.37548
 Alpha virt. eigenvalues --    0.02749   0.03573   0.04254   0.05011   0.05583
 Alpha virt. eigenvalues --    0.05738   0.06220   0.07370   0.07755   0.08552
 Alpha virt. eigenvalues --    0.09250   0.10886   0.11674   0.12964   0.13154

 Mulliken charges:
               1
     1  C    0.116085
     2  C    0.920174
     3  C    0.713907
     4  C   -0.669497
     5  N    1.161796
     6  C   -1.714217
     7  H   -0.166496
     8  H   -0.241303
     9  Si   1.459639
    10  Cl  -0.568347
    11  Cl  -0.564146
    12  H   -0.183941
    13  H   -0.194265
    14  H   -0.069387
 Sum of Mulliken charges =  -0.00000

 Dipole moment (field-independent basis, Debye):
    X=              3.7717    Y=              1.6176    Z=             -0.4428  Tot=              4.1278

 Test job not archived.
 1\1\GINC-SE361\SP\RHF\Aug-CC-pVDZ\C5H5Cl2N1Si1\OHZDE\08-Apr-2025\0\\#t
  hf aug-cc-pvdz iop(5/13=1,5/36=2,99/5=2) pseudo=read geom=check guess
 =(read,tcheck) scf=(maxcycle=1)\\title\\0,1\C,0,2.662764,1.069672,-0.7
 23349\C,0,1.281951,1.07699,-0.541601\C,0,3.404758,0.03031,-0.173401\C,
 0,2.736057,-0.964345,0.540722\N,0,1.415184,-0.969313,0.721459\C,0,0.69
 7582,0.036715,0.184911\H,0,3.149052,1.861033,-1.282515\H,0,0.66966,1.8
 71456,-0.950919\Si,0,-1.12658,-0.167826,0.53948\Cl,0,-2.116793,1.62572
 8,0.18968\Cl,0,-1.943791,-1.609164,-0.70224\H,0,4.481128,-0.013855,-0.

 Normal termination of Gaussian 16 at Tue Apr  8 23:48:07 2025.
