 Gaussian 16, Revision C.01,

 ----------------------------------------------------------------------
 #t hf aug-cc-pvdz symm=none int=(grid=ultrafine) guess=(read,tcheck) s
 table=(opt,rrhf)
 ----------------------------------------------------------------------
 -----
 title
 -----
 Symbolic Z-matrix:
 Charge =  0 Multiplicity = 1

 SCF Done:  E(RHF) =  -672.716788858     A.U. after   14 cycles
 Normal termination of Gaussian 16 at Tue Apr  8 23:19:49 2025.
 Gaussian 16:  ES64L-G16RevC.01  3-Jul-2019

 ----------------------------------------------------------------------
 #t hf aug-cc-pvdz iop(5/13=1,5/36=2,99/5=2) pseudo=read geom=check gue
 ss=(read,tcheck) scf=(maxcycle=1)
 ----------------------------------------------------------------------
 -----
 title
 -----
 Structure from the checkpoint file:  "BDE49_nonexpt_1116_mol1.chk"
 Charge =  0 Multiplicity = 1

                         Standard orientation:
 ---------------------------------------------------------------------
 Center     Atomic      Atomic             Coordinates (Angstroms)
 Number     Number       Type             X           Y           Z
 ---------------------------------------------------------------------
      1          9           0        1.692285   -0.707261    0.148897
      2          8           0        1.127053    0.484113   -0.438324
      3          6           0        0.001066    0.782835    0.301820
      4         17           0       -1.423077   -0.277610   -0.058525
      5          1           0       -0.251666    1.793781   -0.020740
      6          1           0        0.190585    0.721029    1.371260
 ---------------------------------------------------------------------

 SCF Done:  E(RHF) =  -672.995617243     A.U. after    2 cycles

 The electronic state is 1-A.
 Alpha  occ. eigenvalues -- -105.57845 -26.52588 -20.70794 -11.39573 -10.62686
 Alpha  occ. eigenvalues --   -7.79620  -7.79232  -7.79219  -1.68556  -1.40781
 Alpha  occ. eigenvalues --   -1.10131  -0.92473  -0.75127  -0.74786  -0.71773
 Alpha  occ. eigenvalues --   -0.62787  -0.61810  -0.59202  -0.50820  -0.47881
 Alpha  occ. eigenvalues --   -0.46923
 Alpha virt. eigenvalues --    0.03315   0.04847   0.07398   0.09482   0.11860
 Alpha virt. eigenvalues --    0.12817   0.14738   0.15754   0.16119   0.16947
 Alpha virt. eigenvalues --    0.20472   0.21359   0.23961   0.26413   0.26960

 Mulliken charges:
               1
     1  F   -0.392777
     2  O   -0.351455
     3  C    0.361011
     4  Cl  -0.068243
     5  H    0.174452
     6  H    0.277013
 Sum of Mulliken charges =   0.00000

 Dipole moment (field-independent basis, Debye):
    X=             -0.2108    Y=              2.1400    Z=              1.0790  Tot=              2.4059

 Test job not archived.
 1\1\GINC-SE044\SP\RHF\Aug-CC-pVDZ\C1H2Cl1F1O1\OHZDE\08-Apr-2025\0\\#t
 hf aug-cc-pvdz iop(5/13=1,5/36=2,99/5=2) pseudo=read geom=check guess=
 (read,tcheck) scf=(maxcycle=1)\\title\\0,1\F,0,1.692285,-0.707261,0.14
 8897\O,0,1.127053,0.484113,-0.438324\C,0,0.001066,0.782835,0.30182\Cl,
 0,-1.423077,-0.27761,-0.058525\H,0,-0.251666,1.793781,-0.02074\H,0,0.1
 90585,0.721029,1.37126\\Version=ES64L-G16RevC.01\State=1-A\HF=-672.995
 6172\RMSD=5.537e-03\Dipole=-0.0829471,0.8419492,0.4245065\Quadrupole=-
 2.6073278,1.980693,0.6266348,0.1672625,0.5205895,0.5264149\PG=C01 [X(C

 Normal termination of Gaussian 16 at Tue Apr  8 23:19:51 2025.
