 Gaussian 16, Revision C.01,

 ----------------------------------------------------------------------
 #t hf aug-cc-pvdz symm=none int=(grid=ultrafine) guess=(read,tcheck) s
 table=(opt,rrhf)
 ----------------------------------------------------------------------
 -----
 title
 -----
 Symbolic Z-matrix:
 Charge =  0 Multiplicity = 1

 SCF Done:  E(RHF) =  -203.049375819     A.U. after   14 cycles
 Normal termination of Gaussian 16 at Wed Apr  9 00:35:52 2025.
 Gaussian 16:  ES64L-G16RevC.01  3-Jul-2019

 ----------------------------------------------------------------------
 #t hf aug-cc-pvdz iop(5/13=1,5/36=2,99/5=2) pseudo=read geom=check gue
 ss=(read,tcheck) scf=(maxcycle=1)
 ----------------------------------------------------------------------
 -----
 title
 -----
 Structure from the checkpoint file:  "BDE49_nonexpt_4_mol1.chk"
 Charge =  0 Multiplicity = 1

                         Standard orientation:
 ---------------------------------------------------------------------
 Center     Atomic      Atomic             Coordinates (Angstroms)
 Number     Number       Type             X           Y           Z
 ---------------------------------------------------------------------
      1          5           0       -0.454895   -0.697624    0.861272
      2          5           0        0.454895    0.697624    0.861272
      3          6           0        0.139008    1.875859   -0.018910
      4          6           0       -0.139008   -1.875859   -0.018910
      5          6           0        0.139008   -2.809703   -0.739326
      6          6           0       -0.139008    2.809703   -0.739326
      7          1           0       -0.374573    3.634775   -1.368268
      8          1           0        0.374573   -3.634775   -1.368268
      9          1           0        1.384111    0.788288    1.611323
     10          1           0       -1.384111   -0.788288    1.611323
 ---------------------------------------------------------------------

 SCF Done:  E(RHF) =  -203.253707872     A.U. after    2 cycles

 The electronic state is 1-A.
 Alpha  occ. eigenvalues --  -11.26152 -11.26151 -11.23477 -11.23471  -7.60416
 Alpha  occ. eigenvalues --   -7.60401  -1.03905  -1.03679  -0.82589  -0.77713
 Alpha  occ. eigenvalues --   -0.72990  -0.69978  -0.57148  -0.55381  -0.50502
 Alpha  occ. eigenvalues --   -0.42516  -0.42388  -0.41595  -0.38021
 Alpha virt. eigenvalues --    0.03195   0.03300   0.03885   0.03937   0.04245
 Alpha virt. eigenvalues --    0.04514   0.06072   0.06576   0.07355   0.07884
 Alpha virt. eigenvalues --    0.08508   0.10469   0.12084   0.12452   0.12731

 Mulliken charges:
               1
     1  B   -0.166154
     2  B   -0.166154
     3  C   -0.321038
     4  C   -0.321038
     5  C    0.642958
     6  C    0.642958
     7  H   -0.356626
     8  H   -0.356626
     9  H    0.200861
    10  H    0.200861
 Sum of Mulliken charges =  -0.00000

 Dipole moment (field-independent basis, Debye):
    X=              0.0000    Y=              0.0000    Z=             -0.8422  Tot=              0.8422

 Test job not archived.
 1\1\GINC-SE455\SP\RHF\Aug-CC-pVDZ\C4H4B2\OHZDE\09-Apr-2025\0\\#t hf au
 g-cc-pvdz iop(5/13=1,5/36=2,99/5=2) pseudo=read geom=check guess=(read
 ,tcheck) scf=(maxcycle=1)\\title\\0,1\B,0,-0.454895,-0.697624,0.861272
 \B,0,0.454895,0.697624,0.861272\C,0,0.139008,1.875859,-0.01891\C,0,-0.
 139008,-1.875859,-0.01891\C,0,0.139008,-2.809703,-0.739326\C,0,-0.1390
 08,2.809703,-0.739326\H,0,-0.374573,3.634775,-1.368268\H,0,0.374573,-3
 .634775,-1.368268\H,0,1.384111,0.788288,1.611323\H,0,-1.384111,-0.7882
 88,1.611323\\Version=ES64L-G16RevC.01\State=1-A\HF=-203.2537079\RMSD=3

 Normal termination of Gaussian 16 at Wed Apr  9 00:35:54 2025.
