 Gaussian 16, Revision C.01,

 ----------------------------------------------------------------------
 #t hf aug-cc-pvdz symm=none int=(grid=ultrafine) guess=(read,tcheck) s
 table=(opt,rrhf)
 ----------------------------------------------------------------------
 -----
 title
 -----
 Symbolic Z-matrix:
 Charge =  0 Multiplicity = 1

 SCF Done:  E(RHF) =  -616.242388907     A.U. after   12 cycles

 1\1\GINC-SE097\Stability\RHF\Aug-CC-pVDZ\C4H9Cl1\OHZDE\08-Apr-2025\0\\
 #t hf aug-cc-pvdz symm=none int=(grid=ultrafine) guess=(read,tcheck) s
 table=(opt,rrhf)\\title\\0,1\C,0,2.771986,-0.374411,-0.147601\C,0,1.34
 7418,-0.283057,0.405977\C,0,0.505507,0.782483,-0.303026\C,0,-0.91025,0
 .938261,0.229694\H,0,0.464211,0.576308,-1.377743\H,0,0.99034,1.762307,
 -0.192753\Cl,0,-1.943526,-0.532587,-0.0892\H,0,-1.432878,1.764336,-0.2
 49014\H,0,-0.927588,1.078747,1.310282\H,0,3.3509,-1.139308,0.376093\H,
 0,3.304012,0.576179,-0.040535\H,0,2.766603,-0.63321,-1.210811\H,0,1.38

 Normal termination of Gaussian 16 at Tue Apr  8 22:31:34 2025.
 Gaussian 16:  ES64L-G16RevC.01  3-Jul-2019

 ----------------------------------------------------------------------
 #t hf aug-cc-pvdz iop(5/13=1,5/36=2,99/5=2) pseudo=read geom=check gue
 ss=(read,tcheck) scf=(maxcycle=1)
 ----------------------------------------------------------------------
 -----
 title
 -----
 Structure from the checkpoint file:  "BDE49_expt_1034_mol1.chk"
 Charge =  0 Multiplicity = 1

                         Standard orientation:
 ---------------------------------------------------------------------
 Center     Atomic      Atomic             Coordinates (Angstroms)
 Number     Number       Type             X           Y           Z
 ---------------------------------------------------------------------
      1          6           0        2.771986   -0.374411   -0.147601
      2          6           0        1.347418   -0.283057    0.405977
      3          6           0        0.505507    0.782483   -0.303026
      4          6           0       -0.910250    0.938261    0.229694
      5          1           0        0.464211    0.576308   -1.377743
      6          1           0        0.990340    1.762307   -0.192753
      7         17           0       -1.943526   -0.532587   -0.089200
      8          1           0       -1.432878    1.764336   -0.249014
      9          1           0       -0.927588    1.078747    1.310282
     10          1           0        3.350900   -1.139308    0.376093
     11          1           0        3.304012    0.576179   -0.040535
     12          1           0        2.766603   -0.633210   -1.210811
     13          1           0        1.383475   -0.056833    1.478586
     14          1           0        0.852896   -1.254202    0.312033
 ---------------------------------------------------------------------

 SCF Done:  E(RHF) =  -616.496365290     A.U. after    2 cycles

 The electronic state is 1-A.
 Alpha  occ. eigenvalues -- -105.54821 -11.30425 -11.24612 -11.23427 -11.22861
 Alpha  occ. eigenvalues --  -10.59622  -7.76555  -7.76201  -7.76191  -1.11886
 Alpha  occ. eigenvalues --   -1.04790  -0.96358  -0.86339  -0.80094  -0.65902
 Alpha  occ. eigenvalues --   -0.63729  -0.61264  -0.58257  -0.55020  -0.51766
 Alpha  occ. eigenvalues --   -0.50661  -0.48907  -0.48153  -0.43801  -0.43584
 Alpha virt. eigenvalues --    0.03437   0.03761   0.03954   0.04838   0.06167
 Alpha virt. eigenvalues --    0.06682   0.07099   0.07878   0.09458   0.11038
 Alpha virt. eigenvalues --    0.11771   0.13180   0.14535   0.15660   0.15927

 Mulliken charges:
               1
     1  C   -0.381854
     2  C   -0.318033
     3  C   -0.259647
     4  C   -0.414417
     5  H    0.119034
     6  H    0.173229
     7  Cl  -0.100379
     8  H    0.202050
     9  H    0.237762
    10  H    0.117841
    11  H    0.159402
    12  H    0.168260
    13  H    0.133178
    14  H    0.163574
 Sum of Mulliken charges =   0.00000

 Dipole moment (field-independent basis, Debye):
    X=              1.6558    Y=              1.7358    Z=              0.3573  Tot=              2.4254

 Test job not archived.
 1\1\GINC-SE097\SP\RHF\Aug-CC-pVDZ\C4H9Cl1\OHZDE\08-Apr-2025\0\\#t hf a
 ug-cc-pvdz iop(5/13=1,5/36=2,99/5=2) pseudo=read geom=check guess=(rea
 d,tcheck) scf=(maxcycle=1)\\title\\0,1\C,0,2.771986,-0.374411,-0.14760
 1\C,0,1.347418,-0.283057,0.405977\C,0,0.505507,0.782483,-0.303026\C,0,
 -0.91025,0.938261,0.229694\H,0,0.464211,0.576308,-1.377743\H,0,0.99034
 ,1.762307,-0.192753\Cl,0,-1.943526,-0.532587,-0.0892\H,0,-1.432878,1.7
 64336,-0.249014\H,0,-0.927588,1.078747,1.310282\H,0,3.3509,-1.139308,0
 .376093\H,0,3.304012,0.576179,-0.040535\H,0,2.766603,-0.63321,-1.21081

 Normal termination of Gaussian 16 at Tue Apr  8 22:31:38 2025.
