 Gaussian 16, Revision C.01,

 ----------------------------------------------------------------------
 #t hf aug-cc-pvdz symm=none int=(grid=ultrafine) guess=(read,tcheck) s
 table=(opt,rrhf)
 ----------------------------------------------------------------------
 -----
 title
 -----
 Symbolic Z-matrix:
 Charge =  0 Multiplicity = 1

 SCF Done:  E(RHF) =  -394.572621922     A.U. after   12 cycles
 Normal termination of Gaussian 16 at Wed Apr  9 00:46:07 2025.
 Gaussian 16:  ES64L-G16RevC.01  3-Jul-2019

 ----------------------------------------------------------------------
 #t hf aug-cc-pvdz iop(5/13=1,5/36=2,99/5=2) pseudo=read geom=check gue
 ss=(read,tcheck) scf=(maxcycle=1)
 ----------------------------------------------------------------------
 -----
 title
 -----
 Structure from the checkpoint file:  "BDE49_nonexpt_815_mol1.chk"
 Charge =  0 Multiplicity = 1

                         Standard orientation:
 ---------------------------------------------------------------------
 Center     Atomic      Atomic             Coordinates (Angstroms)
 Number     Number       Type             X           Y           Z
 ---------------------------------------------------------------------
      1          6           0       -1.211545    0.445130   -0.136937
      2          5           0       -0.005837   -0.540144   -0.135292
      3         14           0        1.926844    0.038927    0.048556
      4          6           0       -2.616290   -0.113544    0.138297
      5          1           0       -1.162600    0.820292   -1.181734
      6          1           0       -1.019056    1.347251    0.456714
      7          1           0       -2.834865   -0.967090   -0.508717
      8          1           0       -3.393290    0.639245   -0.022404
      9          1           0       -2.703736   -0.458247    1.172400
     10          1           0       -0.211564   -1.710049   -0.295611
     11          1           0        2.124638    1.511572    0.024612
     12          1           0        2.781931   -0.556348   -1.011715
     13          1           0        2.438915   -0.460398    1.354967
 ---------------------------------------------------------------------

 SCF Done:  E(RHF) =  -394.725385772     A.U. after    2 cycles

 The electronic state is 1-A.
 Alpha  occ. eigenvalues --  -69.50884 -11.22904 -11.21977  -7.59674  -6.18183
 Alpha  occ. eigenvalues --   -3.93556  -3.93539  -3.93502  -1.02994  -0.86493
 Alpha  occ. eigenvalues --   -0.75010  -0.65810  -0.60624  -0.56545  -0.54064
 Alpha  occ. eigenvalues --   -0.50127  -0.48331  -0.47843  -0.45456  -0.40605
 Alpha virt. eigenvalues --    0.03488   0.03615   0.03857   0.04073   0.05747
 Alpha virt. eigenvalues --    0.06163   0.06672   0.07215   0.08135   0.08614
 Alpha virt. eigenvalues --    0.09171   0.09319   0.10046   0.11945   0.12212

 Mulliken charges:
               1
     1  C   -0.397901
     2  B   -0.228506
     3  Si   0.603367
     4  C   -0.436408
     5  H    0.191858
     6  H    0.061577
     7  H    0.129540
     8  H    0.129807
     9  H    0.130248
    10  H    0.273795
    11  H   -0.139789
    12  H   -0.160774
    13  H   -0.156815
 Sum of Mulliken charges =  -0.00000

 Dipole moment (field-independent basis, Debye):
    X=             -1.0712    Y=              0.2401    Z=             -0.1749  Tot=              1.1116

 Test job not archived.
 1\1\GINC-SE184\SP\RHF\Aug-CC-pVDZ\C2H9B1Si1\OHZDE\09-Apr-2025\0\\#t hf
  aug-cc-pvdz iop(5/13=1,5/36=2,99/5=2) pseudo=read geom=check guess=(r
 ead,tcheck) scf=(maxcycle=1)\\title\\0,1\C,0,-1.211545,0.44513,-0.1369
 37\B,0,-0.005837,-0.540144,-0.135292\Si,0,1.926844,0.038927,0.048556\C
 ,0,-2.61629,-0.113544,0.138297\H,0,-1.1626,0.820292,-1.181734\H,0,-1.0
 19056,1.347251,0.456714\H,0,-2.834865,-0.96709,-0.508717\H,0,-3.39329,
 0.639245,-0.022404\H,0,-2.703736,-0.458247,1.1724\H,0,-0.211564,-1.710
 049,-0.295611\H,0,2.124638,1.511572,0.024612\H,0,2.781931,-0.556348,-1

 Normal termination of Gaussian 16 at Wed Apr  9 00:46:10 2025.
