 Gaussian 16, Revision C.01,

 ----------------------------------------------------------------------
 #t hf aug-cc-pvdz symm=none int=(grid=ultrafine) guess=(read,tcheck) s
 table=(opt,rrhf)
 ----------------------------------------------------------------------
 -----
 title
 -----
 Symbolic Z-matrix:
 Charge =  0 Multiplicity = 1

 SCF Done:  E(RHF) =  -324.802472782     A.U. after   15 cycles
 Normal termination of Gaussian 16 at Tue Apr  8 22:38:10 2025.
 Gaussian 16:  ES64L-G16RevC.01  3-Jul-2019

 ----------------------------------------------------------------------
 #t hf aug-cc-pvdz iop(5/13=1,5/36=2,99/5=2) pseudo=read geom=check gue
 ss=(read,tcheck) scf=(maxcycle=1)
 ----------------------------------------------------------------------
 -----
 title
 -----
 Structure from the checkpoint file:  "BDE49_expt_1192_mol1.chk"
 Charge =  0 Multiplicity = 1

                         Standard orientation:
 ---------------------------------------------------------------------
 Center     Atomic      Atomic             Coordinates (Angstroms)
 Number     Number       Type             X           Y           Z
 ---------------------------------------------------------------------
      1          6           0       -0.426814    0.254489    0.128674
      2          6           0       -1.903687    0.564606    0.285901
      3          7           0       -2.750100   -0.478449   -0.303586
      4          1           0       -2.092832    1.573907   -0.112070
      5          1           0       -2.142517    0.607391    1.355604
      6          1           0       -2.665439   -0.467052   -1.315680
      7          1           0       -3.725157   -0.308043   -0.081778
      8          6           0        0.500727    1.288793   -0.022242
      9          6           0        1.863512    1.017121   -0.124967
     10          6           0        2.317033   -0.299324   -0.085614
     11          6           0        1.398476   -1.338271    0.056101
     12          6           0        0.037360   -1.064177    0.163680
     13          1           0       -0.685074   -1.865235    0.262962
     14          1           0        0.153090    2.316860   -0.063150
     15          1           0        2.568909    1.832466   -0.243068
     16          1           0        3.376494   -0.514282   -0.170316
     17          1           0        1.743584   -2.366291    0.083408
 ---------------------------------------------------------------------

 SCF Done:  E(RHF) =  -325.144786143     A.U. after    2 cycles

 The electronic state is 1-A.
 Alpha  occ. eigenvalues --  -15.48921 -11.26618 -11.24123 -11.23883 -11.23745
 Alpha  occ. eigenvalues --  -11.23604 -11.23578 -11.23036  -1.18868  -1.14295
 Alpha  occ. eigenvalues --   -1.02604  -1.00975  -0.91026  -0.83081  -0.80161
 Alpha  occ. eigenvalues --   -0.71435  -0.68774  -0.66410  -0.63430  -0.60627
 Alpha  occ. eigenvalues --   -0.59391  -0.58604  -0.56251  -0.50111  -0.49725
 Alpha  occ. eigenvalues --   -0.49349  -0.43573  -0.34029  -0.33283
 Alpha virt. eigenvalues --    0.03267   0.03704   0.03946   0.05026   0.05133
 Alpha virt. eigenvalues --    0.05561   0.06799   0.07905   0.08223   0.10322
 Alpha virt. eigenvalues --    0.10978   0.11758   0.12059   0.13235   0.14101

 Mulliken charges:
               1
     1  C    1.297888
     2  C   -1.117753
     3  N    0.219359
     4  H    0.089539
     5  H    0.148250
     6  H    0.144964
     7  H    0.125057
     8  C    0.202177
     9  C    0.172369
    10  C   -0.007914
    11  C   -0.097989
    12  C    0.082477
    13  H   -0.249492
    14  H   -0.312154
    15  H   -0.234415
    16  H   -0.214494
    17  H   -0.247870
 Sum of Mulliken charges =   0.00000

 Dipole moment (field-independent basis, Debye):
    X=             -0.8376    Y=              1.0990    Z=             -0.4184  Tot=              1.4438

 Test job not archived.
 1\1\GINC-SE339\SP\RHF\Aug-CC-pVDZ\C7H9N1\OHZDE\08-Apr-2025\0\\#t hf au
 g-cc-pvdz iop(5/13=1,5/36=2,99/5=2) pseudo=read geom=check guess=(read
 ,tcheck) scf=(maxcycle=1)\\title\\0,1\C,0,-0.426814,0.254489,0.128674\
 C,0,-1.903687,0.564606,0.285901\N,0,-2.7501,-0.478449,-0.303586\H,0,-2
 .092832,1.573907,-0.11207\H,0,-2.142517,0.607391,1.355604\H,0,-2.66543
 9,-0.467052,-1.31568\H,0,-3.725157,-0.308043,-0.081778\C,0,0.500727,1.
 288793,-0.022242\C,0,1.863512,1.017121,-0.124967\C,0,2.317033,-0.29932
 4,-0.085614\C,0,1.398476,-1.338271,0.056101\C,0,0.03736,-1.064177,0.16

 Normal termination of Gaussian 16 at Tue Apr  8 22:38:17 2025.
