 Gaussian 16, Revision C.01,

 ----------------------------------------------------------------------
 #t hf aug-cc-pvdz symm=none int=(grid=ultrafine) guess=(read,tcheck) s
 table=(opt,rrhf)
 ----------------------------------------------------------------------
 -----
 title
 -----
 Symbolic Z-matrix:
 Charge =  0 Multiplicity = 1

 SCF Done:  E(RHF) =  -1061.07820074     A.U. after   15 cycles
 Normal termination of Gaussian 16 at Wed Apr  9 00:15:56 2025.
 Gaussian 16:  ES64L-G16RevC.01  3-Jul-2019

 ----------------------------------------------------------------------
 #t hf aug-cc-pvdz iop(5/13=1,5/36=2,99/5=2) pseudo=read geom=check gue
 ss=(read,tcheck) scf=(maxcycle=1)
 ----------------------------------------------------------------------
 -----
 title
 -----
 Structure from the checkpoint file:  "BDE49_nonexpt_2529_mol1.chk"
 Charge =  0 Multiplicity = 1

                         Standard orientation:
 ---------------------------------------------------------------------
 Center     Atomic      Atomic             Coordinates (Angstroms)
 Number     Number       Type             X           Y           Z
 ---------------------------------------------------------------------
      1         17           0       -1.824451    0.321530    0.000116
      2          7           0        1.215687    0.229390   -0.000004
      3         16           0       -0.233976   -0.948585   -0.000176
      4          8           0        2.250151   -0.398640    0.000111
      5          8           0        1.031033    1.411844   -0.000001
 ---------------------------------------------------------------------

 SCF Done:  E(RHF) =  -1061.40160615     A.U. after    2 cycles

 The electronic state is 1-A.
 Alpha  occ. eigenvalues -- -105.63322 -94.09642 -20.63816 -20.63034 -15.83820
 Alpha  occ. eigenvalues --  -10.68047  -8.37036  -7.84991  -7.84509  -7.84456
 Alpha  occ. eigenvalues --   -6.34749  -6.34546  -6.34172  -1.72049  -1.56648
 Alpha  occ. eigenvalues --   -1.19023  -1.05396  -0.90975  -0.80443  -0.78668
 Alpha  occ. eigenvalues --   -0.78642  -0.60097  -0.56955  -0.54703  -0.52087
 Alpha  occ. eigenvalues --   -0.49345  -0.48378  -0.43108
 Alpha virt. eigenvalues --    0.02349   0.02788   0.04246   0.08577   0.09283
 Alpha virt. eigenvalues --    0.10670   0.10963   0.13316   0.14409   0.14839
 Alpha virt. eigenvalues --    0.17014   0.18183   0.18255   0.22826   0.24426

 Mulliken charges:
               1
     1  Cl  -0.130551
     2  N    1.768294
     3  S    0.526429
     4  O   -1.103413
     5  O   -1.060760
 Sum of Mulliken charges =  -0.00000

 Dipole moment (field-independent basis, Debye):
    X=             -2.0118    Y=             -1.2688    Z=             -0.0002  Tot=              2.3785

 Test job not archived.
 1\1\GINC-SE016\SP\RHF\Aug-CC-pVDZ\Cl1N1O2S1\OHZDE\09-Apr-2025\0\\#t hf
  aug-cc-pvdz iop(5/13=1,5/36=2,99/5=2) pseudo=read geom=check guess=(r
 ead,tcheck) scf=(maxcycle=1)\\title\\0,1\Cl,0,-1.824451,0.32153,0.0001
 16\N,0,1.215687,0.22939,-0.000004\S,0,-0.233976,-0.948585,-0.000176\O,
 0,2.250151,-0.39864,0.000111\O,0,1.031033,1.411844,-0.000001\\Version=
 ES64L-G16RevC.01\State=1-A\HF=-1061.4016062\RMSD=1.426e-02\Dipole=-0.7
 915097,-0.4991885,-0.0000972\Quadrupole=-1.1289635,0.8931322,0.2358313
 ,-0.3877282,-0.0003923,0.0005393\PG=C01 [X(Cl1N1O2S1)]\\@

 Normal termination of Gaussian 16 at Wed Apr  9 00:15:58 2025.
