 Gaussian 16, Revision C.01,

 ----------------------------------------------------------------------
 #t hf aug-cc-pvdz symm=none int=(grid=ultrafine) guess=(read,tcheck) s
 table=(opt,rrhf)
 ----------------------------------------------------------------------
 -----
 title
 -----
 Symbolic Z-matrix:
 Charge =  0 Multiplicity = 1

 SCF Done:  E(RHF) =  -940.745401232     A.U. after   15 cycles
 Normal termination of Gaussian 16 at Tue Apr  8 23:58:43 2025.
 Gaussian 16:  ES64L-G16RevC.01  3-Jul-2019

 ----------------------------------------------------------------------
 #t hf aug-cc-pvdz iop(5/13=1,5/36=2,99/5=2) pseudo=read geom=check gue
 ss=(read,tcheck) scf=(maxcycle=1)
 ----------------------------------------------------------------------
 -----
 title
 -----
 Structure from the checkpoint file:  "BDE49_nonexpt_2028_mol1.chk"
 Charge =  0 Multiplicity = 1

                         Standard orientation:
 ---------------------------------------------------------------------
 Center     Atomic      Atomic             Coordinates (Angstroms)
 Number     Number       Type             X           Y           Z
 ---------------------------------------------------------------------
      1         14           0        2.095637   -0.002763    0.017080
      2          6           0        0.141586   -0.000205    0.001180
      3          7           0       -0.432124    0.040716    1.420551
      4          8           0       -1.368071    0.770968    1.644131
      5          8           0        0.134158   -0.710287    2.193575
      6          7           0       -0.412790    1.213724   -0.750149
      7          8           0       -1.342103    1.050808   -1.504529
      8          8           0        0.160227    2.253438   -0.480135
      9          7           0       -0.416640   -1.252771   -0.680672
     10          8           0        0.165197   -1.543937   -1.709723
     11          8           0       -1.356730   -1.816234   -0.172739
     12          1           0        2.492595    0.891262    1.114344
     13          1           0        2.511675    0.496911   -1.301278
     14          1           0        2.496747   -1.397989    0.247990
 ---------------------------------------------------------------------

 SCF Done:  E(RHF) =  -941.386554731     A.U. after    2 cycles

 The electronic state is 1-A.
 Alpha  occ. eigenvalues --  -69.60596 -20.65604 -20.65601 -20.65601 -20.64875
 Alpha  occ. eigenvalues --  -20.64874 -20.64874 -15.85709 -15.85709 -15.85622
 Alpha  occ. eigenvalues --  -11.46382  -6.27569  -4.02999  -4.02875  -4.02875
 Alpha  occ. eigenvalues --   -1.74651  -1.73140  -1.73140  -1.57873  -1.57873
 Alpha  occ. eigenvalues --   -1.57635  -1.25553  -1.06040  -1.06039  -0.91451
 Alpha  occ. eigenvalues --   -0.87825  -0.87824  -0.86279  -0.80481  -0.80481
 Alpha  occ. eigenvalues --   -0.79778  -0.79169  -0.79169  -0.77226  -0.64526
 Alpha  occ. eigenvalues --   -0.57493  -0.57493  -0.57066  -0.54326  -0.54326
 Alpha  occ. eigenvalues --   -0.53391  -0.53390  -0.53256  -0.51711  -0.49439
 Alpha  occ. eigenvalues --   -0.49439
 Alpha virt. eigenvalues --   -0.00326  -0.00326   0.01184   0.02809   0.04930
 Alpha virt. eigenvalues --    0.04930   0.05216   0.08000   0.08000   0.10567
 Alpha virt. eigenvalues --    0.11719   0.12520   0.12521   0.13971   0.13972

 Mulliken charges:
               1
     1  Si   0.884534
     2  C   -1.664674
     3  N    3.258931
     4  O   -1.440894
     5  O   -1.489324
     6  N    3.258889
     7  O   -1.440931
     8  O   -1.489284
     9  N    3.258840
    10  O   -1.489291
    11  O   -1.440909
    12  H   -0.068618
    13  H   -0.068639
    14  H   -0.068630
 Sum of Mulliken charges =  -0.00000

 Dipole moment (field-independent basis, Debye):
    X=              3.7850    Y=             -0.0051    Z=              0.0309  Tot=              3.7852

 Test job not archived.
 1\1\GINC-SE103\SP\RHF\Aug-CC-pVDZ\C1H3N3O6Si1\OHZDE\08-Apr-2025\0\\#t
 hf aug-cc-pvdz iop(5/13=1,5/36=2,99/5=2) pseudo=read geom=check guess=
 (read,tcheck) scf=(maxcycle=1)\\title\\0,1\Si,0,-2.095637,-0.002785,-0
 .017104\C,0,-0.141586,-0.000206,-0.001182\N,0,0.432141,0.039675,-1.420
 575\O,0,1.368088,0.769766,-1.64468\O,0,-0.134127,-0.711898,-2.193054\N
 ,0,0.412775,1.214277,0.749263\O,0,1.342079,1.051919,1.503774\O,0,-0.16
 0243,2.253789,0.478478\N,0,0.416637,-1.252269,0.681597\O,0,-0.165212,-
 1.542682,1.710855\O,0,1.356736,-1.816101,0.17409\H,0,-2.492585,0.89043

 Normal termination of Gaussian 16 at Tue Apr  8 23:58:51 2025.
