 Gaussian 16, Revision C.01,

 ----------------------------------------------------------------------
 #t hf aug-cc-pvdz symm=none int=(grid=ultrafine) guess=(read,tcheck) s
 table=(opt,rrhf)
 ----------------------------------------------------------------------
 -----
 title
 -----
 Symbolic Z-matrix:
 Charge =  0 Multiplicity = 1

 SCF Done:  E(RHF) =  -939.187138377     A.U. after   16 cycles
 Normal termination of Gaussian 16 at Wed Apr  9 00:07:08 2025.
 Gaussian 16:  ES64L-G16RevC.01  3-Jul-2019

 ----------------------------------------------------------------------
 #t hf aug-cc-pvdz iop(5/13=1,5/36=2,99/5=2) pseudo=read geom=check gue
 ss=(read,tcheck) scf=(maxcycle=1)
 ----------------------------------------------------------------------
 -----
 title
 -----
 Structure from the checkpoint file:  "BDE49_nonexpt_1970_mol1.chk"
 Charge =  0 Multiplicity = 1

                         Standard orientation:
 ---------------------------------------------------------------------
 Center     Atomic      Atomic             Coordinates (Angstroms)
 Number     Number       Type             X           Y           Z
 ---------------------------------------------------------------------
      1         14           0       -0.585587    2.373644   -0.364085
      2          6           0        0.983794    2.209157    0.700089
      3          6           0        1.842035    1.021589    0.341266
      4          6           0        1.653384   -0.208998    0.981023
      5          6           0        2.815199    1.112221   -0.660953
      6          6           0        3.576224   -0.003403   -1.005437
      7          6           0        3.385659   -1.224910   -0.370004
      8          6           0        2.416118   -1.323554    0.629526
      9          1           0        2.980185    2.057330   -1.166388
     10          1           0        4.332454    0.081011   -1.778181
     11          6           0       -1.749996    0.915842   -0.162977
     12          1           0       -0.174502    2.500165   -1.783491
     13          1           0       -1.304866    3.604185    0.050464
     14          6           0       -1.473992   -0.315919   -0.776737
     15          6           0       -2.902910    1.024711    0.628250
     16          6           0       -3.748941   -0.071608    0.799341
     17          6           0       -3.464333   -1.288478    0.192809
     18          6           0       -2.319489   -1.411324   -0.598731
     19          1           0       -3.148337    1.967062    1.105790
     20          1           0       -4.640915    0.023239    1.408989
     21          8           0        2.253040   -2.539808    1.231875
     22          8           0       -2.079951   -2.627502   -1.172166
     23          1           0        3.971992   -2.099084   -0.624482
     24          1           0       -4.111401   -2.148875    0.313990
     25          1           0        0.900241   -0.299992    1.759212
     26          1           0       -0.589756   -0.431285   -1.398604
     27          1           0        1.556619   -2.474147    1.893581
     28          1           0       -1.259273   -2.585272   -1.674579
     29          1           0        0.674644    2.162222    1.749097
     30          1           0        1.549909    3.138956    0.579321
 ---------------------------------------------------------------------

 SCF Done:  E(RHF) =  -939.881066489     A.U. after    2 cycles

 The electronic state is 1-A.
 Alpha  occ. eigenvalues --  -69.53100 -20.58272 -20.58225 -11.31257 -11.31203
 Alpha  occ. eigenvalues --  -11.26269 -11.25167 -11.25063 -11.24714 -11.24351
 Alpha  occ. eigenvalues --  -11.24330 -11.23974 -11.23822 -11.23415 -11.23379
 Alpha  occ. eigenvalues --  -11.23264  -6.20133  -3.95502  -3.95487  -3.95467
 Alpha  occ. eigenvalues --   -1.49626  -1.49514  -1.15794  -1.15294  -1.05303
 Alpha  occ. eigenvalues --   -1.02456  -1.01162  -1.01077  -0.94629  -0.85892
 Alpha  occ. eigenvalues --   -0.85162  -0.83545  -0.81380  -0.75117  -0.73776
 Alpha  occ. eigenvalues --   -0.71231  -0.69509  -0.68704  -0.66437  -0.65885
 Alpha  occ. eigenvalues --   -0.61492  -0.61409  -0.59937  -0.59147  -0.58982
 Alpha  occ. eigenvalues --   -0.58683  -0.57843  -0.56498  -0.55234  -0.53080
 Alpha  occ. eigenvalues --   -0.52604  -0.51687  -0.50363  -0.48926  -0.47776
 Alpha  occ. eigenvalues --   -0.46274  -0.45372  -0.35537  -0.34418  -0.32513
 Alpha  occ. eigenvalues --   -0.31861
 Alpha virt. eigenvalues --    0.02865   0.03058   0.03329   0.03733   0.04356
 Alpha virt. eigenvalues --    0.04436   0.05041   0.05406   0.06209   0.06564
 Alpha virt. eigenvalues --    0.07261   0.07983   0.08174   0.08940   0.09395

 Mulliken charges:
               1
     1  Si   1.090673
     2  C   -1.088070
     3  C    1.151700
     4  C    0.402861
     5  C    0.265774
     6  C    0.157536
     7  C    0.529319
     8  C    0.988314
     9  H   -0.364391
    10  H   -0.239950
    11  C   -1.277030
    12  H   -0.159619
    13  H   -0.176086
    14  C    0.753747
    15  C    0.417112
    16  C    0.567644
    17  C    0.728556
    18  C    1.183773
    19  H   -0.343258
    20  H   -0.231680
    21  O   -1.824541
    22  O   -1.800095
    23  H   -0.257138
    24  H   -0.249565
    25  H   -0.432180
    26  H   -0.431224
    27  H    0.416111
    28  H    0.420004
    29  H   -0.041315
    30  H   -0.156982
 Sum of Mulliken charges =  -0.00000

 Dipole moment (field-independent basis, Debye):
    X=             -0.1112    Y=              1.0561    Z=              0.6408  Tot=              1.2403

 Test job not archived.
 1\1\GINC-SE393\SP\RHF\Aug-CC-pVDZ\C13H14O2Si1\OHZDE\09-Apr-2025\0\\#t
 hf aug-cc-pvdz iop(5/13=1,5/36=2,99/5=2) pseudo=read geom=check guess=
 (read,tcheck) scf=(maxcycle=1)\\title\\0,1\Si,0,-0.585587,2.373644,-0.
 364085\C,0,0.983794,2.209157,0.700089\C,0,1.842035,1.021589,0.341266\C
 ,0,1.653384,-0.208998,0.981023\C,0,2.815199,1.112221,-0.660953\C,0,3.5
 76224,-0.003403,-1.005437\C,0,3.385659,-1.22491,-0.370004\C,0,2.416118
 ,-1.323554,0.629526\H,0,2.980185,2.05733,-1.166388\H,0,4.332454,0.0810
 11,-1.778181\C,0,-1.749996,0.915842,-0.162977\H,0,-0.174502,2.500165,-

 Normal termination of Gaussian 16 at Wed Apr  9 00:07:46 2025.
