 Gaussian 16, Revision C.01,

 ----------------------------------------------------------------------
 #t hf aug-cc-pvdz symm=none int=(grid=ultrafine) guess=(read,tcheck) s
 table=opt
 ----------------------------------------------------------------------
 -----
 title
 -----
 Symbolic Z-matrix:
 Charge =  0 Multiplicity = 2

 SCF Done:  E(UHF) =  -488.492668443     A.U. after   13 cycles

 1\1\GINC-SE331\Stability\UHF\Aug-CC-pVDZ\F2H1Si1\OHZDE\08-Apr-2025\0\\
 #t hf aug-cc-pvdz symm=none int=(grid=ultrafine) guess=(read,tcheck) s
 table=opt\\title\\0,2\Si,0,0.039091,0.496206,0.\F,0,0.039091,-0.455022
 ,1.291329\F,0,0.039091,-0.455022,-1.291329\H,0,-1.250912,1.243513,0.\\
 Version=ES64L-G16RevC.01\HF=-488.4926684\S2=0.754339\S2-1=0.\S2A=0.750
 006\RMSD=9.313e-09\Dipole=-0.0068173,0.7124495,0.\Quadrupole=1.0843761
 ,0.8044572,-1.8888332,-0.0581643,0.,0.\PG=Unknown\\@
 The archive entry for this job was punched.

 Normal termination of Gaussian 16 at Tue Apr  8 23:47:13 2025.
 Gaussian 16:  ES64L-G16RevC.01  3-Jul-2019

 ----------------------------------------------------------------------
 #t hf aug-cc-pvdz iop(5/13=1,5/36=2,99/5=2) pseudo=read geom=check gue
 ss=(read,tcheck) scf=(maxcycle=1)
 ----------------------------------------------------------------------
 -----
 title
 -----
 Structure from the checkpoint file:  "BDE49_nonexpt_1787_mol2.chk"
 Charge =  0 Multiplicity = 2

                         Standard orientation:
 ---------------------------------------------------------------------
 Center     Atomic      Atomic             Coordinates (Angstroms)
 Number     Number       Type             X           Y           Z
 ---------------------------------------------------------------------
      1         14           0        0.039091    0.496206    0.000000
      2          9           0        0.039091   -0.455022    1.291329
      3          9           0        0.039091   -0.455022   -1.291329
      4          1           0       -1.250912    1.243513   -0.000000
 ---------------------------------------------------------------------

 SCF Done:  E(UHF) =  -488.700339440     A.U. after    2 cycles

 The electronic state is 2-A'.
 Alpha  occ. eigenvalues --  -69.64994 -26.47448 -26.47447  -6.31169  -4.06728
 Alpha  occ. eigenvalues --   -4.06213  -4.05957  -1.59938  -1.57720  -0.80792
 Alpha  occ. eigenvalues --   -0.71002  -0.69014  -0.68233  -0.64787  -0.62563
 Alpha  occ. eigenvalues --   -0.58077  -0.39092
 Alpha virt. eigenvalues --    0.04699   0.05104   0.05330   0.06182   0.12593
 Alpha virt. eigenvalues --    0.14931   0.15554   0.20807   0.22463   0.23735
 Alpha virt. eigenvalues --    0.25063   0.26986   0.30885   0.31764   0.31885

  Beta  occ. eigenvalues --  -69.64413 -26.47130 -26.47130  -6.30203  -4.05838
  Beta  occ. eigenvalues --   -4.05654  -4.04771  -1.59070  -1.56870  -0.78337
  Beta  occ. eigenvalues --   -0.69846  -0.68233  -0.65924  -0.63299  -0.62313
  Beta  occ. eigenvalues --   -0.54710
  Beta virt. eigenvalues --    0.01205   0.05198   0.05473   0.05688   0.07623
  Beta virt. eigenvalues --    0.13815   0.17521   0.18462   0.21168   0.23371
  Beta virt. eigenvalues --    0.25341   0.26637   0.27221   0.31627   0.32339

 Mulliken charges and spin densities:
               1          2
     1  Si   1.694933   0.846060
     2  F   -0.750033  -0.000164
     3  F   -0.750033  -0.000164
     4  H   -0.194867   0.154267
 Sum of Mulliken charges =  -0.00000   1.00000

 Dipole moment (field-independent basis, Debye):
    X=             -0.0550    Y=              1.6108    Z=             -0.0000  Tot=              1.6118
                          Isotropic Fermi Contact Couplings
        Atom                 a.u.       MegaHertz       Gauss      10(-4) cm-1
     1  Si(29)             0.93222    -828.48533    -295.62417    -276.35296
     2  F(19)              0.05613     236.16236      84.26860      78.77528
     3  F(19)              0.05613     236.16236      84.26860      78.77528
     4  H(1)               0.04302     192.29386      68.61523      64.14233
 --------------------------------------------------------
       Center         ----  Spin Dipole Couplings  ----
                      3XX-RR        3YY-RR        3ZZ-RR
 --------------------------------------------------------

 Normal termination of Gaussian 16 at Tue Apr  8 23:47:14 2025.
