 Gaussian 16, Revision C.01,

 ----------------------------------------------------------------------
 #t hf aug-cc-pvdz symm=none int=(grid=ultrafine) guess=(read,tcheck) s
 table=(opt,rrhf)
 ----------------------------------------------------------------------
 -----
 title
 -----
 Symbolic Z-matrix:
 Charge =  0 Multiplicity = 1

 SCF Done:  E(RHF) =  -614.931112764     A.U. after   15 cycles
 Normal termination of Gaussian 16 at Wed Apr  9 00:02:54 2025.
 Gaussian 16:  ES64L-G16RevC.01  3-Jul-2019

 ----------------------------------------------------------------------
 #t hf aug-cc-pvdz iop(5/13=1,5/36=2,99/5=2) pseudo=read geom=check gue
 ss=(read,tcheck) scf=(maxcycle=1)
 ----------------------------------------------------------------------
 -----
 title
 -----
 Structure from the checkpoint file:  "BDE49_nonexpt_2150_mol1.chk"
 Charge =  0 Multiplicity = 1

                         Standard orientation:
 ---------------------------------------------------------------------
 Center     Atomic      Atomic             Coordinates (Angstroms)
 Number     Number       Type             X           Y           Z
 ---------------------------------------------------------------------
      1         14           0       -2.398689   -0.239813   -0.428458
      2          7           0       -0.863274   -1.010317   -0.133303
      3          6           0        0.420048   -0.459328   -0.071157
      4          6           0        0.650443    0.900751   -0.335527
      5          6           0        1.522606   -1.265845    0.257553
      6          6           0        2.803350   -0.730727    0.320442
      7          6           0        3.023794    0.620885    0.059891
      8          6           0        1.936489    1.427142   -0.268668
      9          1           0        4.022920    1.036494    0.110793
     10          1           0        2.086580    2.480508   -0.479255
     11          1           0       -0.175346    1.549146   -0.606835
     12          1           0        1.365763   -2.320269    0.464763
     13          1           0        3.635666   -1.377487    0.576278
     14          1           0       -0.880379   -2.007578    0.024953
     15          6           0       -2.945343    0.916597    0.941466
     16          1           0       -3.054021    0.380224    1.887838
     17          1           0       -3.911687    1.365974    0.690662
     18          1           0       -2.228867    1.727812    1.094671
     19          1           0       -3.340307   -1.376626   -0.550750
     20          1           0       -2.364077    0.514556   -1.705573
 ---------------------------------------------------------------------

 SCF Done:  E(RHF) =  -615.305824548     A.U. after    2 cycles

 The electronic state is 1-A.
 Alpha  occ. eigenvalues --  -69.54390 -15.49520 -11.28771 -11.24360 -11.24338
 Alpha  occ. eigenvalues --  -11.23200 -11.23179 -11.22712 -11.21850  -6.21167
 Alpha  occ. eigenvalues --   -3.96587  -3.96541  -3.96475  -1.21679  -1.12758
 Alpha  occ. eigenvalues --   -1.01492  -0.99117  -0.95539  -0.84295  -0.83241
 Alpha  occ. eigenvalues --   -0.74541  -0.72645  -0.68159  -0.63748  -0.61675
 Alpha  occ. eigenvalues --   -0.59637  -0.59048  -0.57028  -0.56064  -0.55035
 Alpha  occ. eigenvalues --   -0.52032  -0.49842  -0.48767  -0.47688  -0.44282
 Alpha  occ. eigenvalues --   -0.34641  -0.30752
 Alpha virt. eigenvalues --    0.03201   0.03693   0.03915   0.04400   0.04637
 Alpha virt. eigenvalues --    0.04858   0.06533   0.06941   0.07575   0.07905
 Alpha virt. eigenvalues --    0.08416   0.10203   0.10382   0.11194   0.11968

 Mulliken charges:
               1
     1  Si   1.123252
     2  N    1.078273
     3  C   -1.584654
     4  C    0.710968
     5  C    0.323273
     6  C    0.453606
     7  C   -0.021199
     8  C    0.430899
     9  H   -0.226800
    10  H   -0.236314
    11  H   -0.391717
    12  H   -0.349029
    13  H   -0.222108
    14  H   -0.200274
    15  C   -0.651118
    16  H    0.075194
    17  H   -0.012891
    18  H    0.067101
    19  H   -0.207282
    20  H   -0.159178
 Sum of Mulliken charges =   0.00000

 Dipole moment (field-independent basis, Debye):
    X=             -0.6656    Y=             -0.2927    Z=              0.5517  Tot=              0.9127

 Test job not archived.
 1\1\GINC-SE072\SP\RHF\Aug-CC-pVDZ\C7H11N1Si1\OHZDE\09-Apr-2025\0\\#t h
 f aug-cc-pvdz iop(5/13=1,5/36=2,99/5=2) pseudo=read geom=check guess=(
 read,tcheck) scf=(maxcycle=1)\\title\\0,1\Si,0,-2.398689,-0.239813,-0.
 428458\N,0,-0.863274,-1.010317,-0.133303\C,0,0.420048,-0.459328,-0.071
 157\C,0,0.650443,0.900751,-0.335527\C,0,1.522606,-1.265845,0.257553\C,
 0,2.80335,-0.730727,0.320442\C,0,3.023794,0.620885,0.059891\C,0,1.9364
 89,1.427142,-0.268668\H,0,4.02292,1.036494,0.110793\H,0,2.08658,2.4805
 08,-0.479255\H,0,-0.175346,1.549146,-0.606835\H,0,1.365763,-2.320269,0

 Normal termination of Gaussian 16 at Wed Apr  9 00:03:05 2025.
