 Gaussian 16, Revision C.01,

 ----------------------------------------------------------------------
 #t hf aug-cc-pvdz symm=none int=(grid=ultrafine) guess=(read,tcheck) s
 table=opt
 ----------------------------------------------------------------------
 -----
 title
 -----
 Symbolic Z-matrix:
 Charge =  0 Multiplicity = 2

 SCF Done:  E(UHF) =  -119.921053524     A.U. after   15 cycles
 Normal termination of Gaussian 16 at Wed Apr  9 00:27:14 2025.
 Gaussian 16:  ES64L-G16RevC.01  3-Jul-2019

 ----------------------------------------------------------------------
 #t hf aug-cc-pvdz iop(5/13=1,5/36=2,99/5=2) pseudo=read geom=check gue
 ss=(read,tcheck) scf=(maxcycle=1)
 ----------------------------------------------------------------------
 -----
 title
 -----
 Structure from the checkpoint file:  "BDE49_nonexpt_284_mol2.chk"
 Charge =  0 Multiplicity = 2

                         Standard orientation:
 ---------------------------------------------------------------------
 Center     Atomic      Atomic             Coordinates (Angstroms)
 Number     Number       Type             X           Y           Z
 ---------------------------------------------------------------------
      1          5           0        0.087379   -0.549005    0.000006
      2          7           0        1.305949    0.102901   -0.000009
      3          6           0       -1.338035    0.092888    0.000007
      4          1           0       -1.318533    1.193467   -0.000016
      5          1           0       -1.910725   -0.232091    0.874967
      6          1           0       -1.910746   -0.232127   -0.874925
      7          1           0        2.192497   -0.376935   -0.000008
      8          1           0        1.397182    1.115068   -0.000023
 ---------------------------------------------------------------------

 SCF Done:  E(UHF) =  -120.047907651     A.U. after    2 cycles

 The electronic state is 2-A.
 Alpha  occ. eigenvalues --  -15.49693 -11.20503  -7.59506  -1.16842  -0.94910
 Alpha  occ. eigenvalues --   -0.74036  -0.71654  -0.56501  -0.55334  -0.52528
 Alpha  occ. eigenvalues --   -0.46949  -0.31462
 Alpha virt. eigenvalues --    0.03405   0.04821   0.04947   0.05210   0.06788
 Alpha virt. eigenvalues --    0.07662   0.08523   0.09002   0.11533   0.14527
 Alpha virt. eigenvalues --    0.16219   0.16283   0.17133   0.18716   0.20302

  Beta  occ. eigenvalues --  -15.49879 -11.20418  -7.57697  -1.16677  -0.94164
  Beta  occ. eigenvalues --   -0.72302  -0.70586  -0.55117  -0.54574  -0.51060
  Beta  occ. eigenvalues --   -0.47986
  Beta virt. eigenvalues --    0.02833   0.04827   0.05022   0.05302   0.06758
  Beta virt. eigenvalues --    0.07390   0.08598   0.08765   0.10261   0.14763
  Beta virt. eigenvalues --    0.15758   0.17089   0.17912   0.18734   0.19022

 Mulliken charges and spin densities:
               1          2
     1  B   -0.072471   1.026640
     2  N    0.202917  -0.073291
     3  C   -0.292324  -0.002787
     4  H    0.002728   0.035794
     5  H    0.081717  -0.011225
     6  H    0.081714  -0.011225
     7  H   -0.001481  -0.004599
     8  H   -0.002797   0.040693
 Sum of Mulliken charges =  -0.00000   1.00000

 Dipole moment (field-independent basis, Debye):
    X=              0.8527    Y=              1.2773    Z=             -0.0000  Tot=              1.5358
                          Isotropic Fermi Contact Couplings
        Atom                 a.u.       MegaHertz       Gauss      10(-4) cm-1
     1  B(11)              0.28484     408.56298     145.78543     136.28194
     2  N(14)              0.01905       6.15391       2.19587       2.05272
     3  C(13)              0.03422      38.46507      13.72529      12.83057
     4  H(1)               0.01176      52.54768      18.75032      17.52802
     5  H(1)               0.00081       3.62654       1.29404       1.20968
     6  H(1)               0.00081       3.62695       1.29419       1.20982
     7  H(1)               0.00610      27.24535       9.72182       9.08807
     8  H(1)               0.01537      68.68815      24.50964      22.91190

 Normal termination of Gaussian 16 at Wed Apr  9 00:27:17 2025.
