 Gaussian 16, Revision C.01,

 ----------------------------------------------------------------------
 #t hf aug-cc-pvdz symm=none int=(grid=ultrafine) guess=(read,tcheck) s
 table=(opt,rrhf)
 ----------------------------------------------------------------------
 -----
 title
 -----
 Symbolic Z-matrix:
 Charge =  0 Multiplicity = 1

 SCF Done:  E(RHF) =  -482.095399960     A.U. after   13 cycles
 Normal termination of Gaussian 16 at Wed Apr  9 00:06:39 2025.
 Gaussian 16:  ES64L-G16RevC.01  3-Jul-2019

 ----------------------------------------------------------------------
 #t hf aug-cc-pvdz iop(5/13=1,5/36=2,99/5=2) pseudo=read geom=check gue
 ss=(read,tcheck) scf=(maxcycle=1)
 ----------------------------------------------------------------------
 -----
 title
 -----
 Structure from the checkpoint file:  "BDE49_nonexpt_2245_mol1.chk"
 Charge =  0 Multiplicity = 1

                         Standard orientation:
 ---------------------------------------------------------------------
 Center     Atomic      Atomic             Coordinates (Angstroms)
 Number     Number       Type             X           Y           Z
 ---------------------------------------------------------------------
      1          6           0        1.703778   -0.638532   -0.000000
      2          8           0        0.344493   -0.716654   -0.000001
      3         14           0       -0.786206    0.512325   -0.000000
      4          6           0       -2.453572   -0.316293    0.000001
      5          6           0        2.443936    0.467355   -0.000000
      6          1           0        2.152230   -1.627111    0.000001
      7          1           0        2.017021    1.463310   -0.000001
      8          1           0        3.522387    0.384781    0.000001
      9          1           0       -2.578157   -0.944407   -0.885643
     10          1           0       -3.249756    0.434400    0.000002
     11          1           0       -2.578155   -0.944408    0.885644
     12          1           0       -0.599745    1.359464   -1.202521
     13          1           0       -0.599743    1.359464    1.202521
 ---------------------------------------------------------------------

 SCF Done:  E(RHF) =  -482.330869603     A.U. after    2 cycles

 The electronic state is 1-A.
 Alpha  occ. eigenvalues --  -69.55763 -20.55586 -11.30829 -11.22546 -11.22255
 Alpha  occ. eigenvalues --   -6.22392  -3.97881  -3.97721  -3.97702  -1.47042
 Alpha  occ. eigenvalues --   -1.02953  -0.96058  -0.83419  -0.70393  -0.68383
 Alpha  occ. eigenvalues --   -0.63772  -0.59970  -0.56597  -0.56211  -0.54490
 Alpha  occ. eigenvalues --   -0.50879  -0.46831  -0.46091  -0.35407
 Alpha virt. eigenvalues --    0.03585   0.04098   0.04162   0.05209   0.05997
 Alpha virt. eigenvalues --    0.06154   0.08003   0.08599   0.09117   0.10158
 Alpha virt. eigenvalues --    0.10185   0.12236   0.13355   0.14415   0.15411

 Mulliken charges:
               1
     1  C    1.063883
     2  O   -1.667068
     3  Si   1.789064
     4  C   -0.635719
     5  C    0.012871
     6  H   -0.079881
     7  H   -0.100921
     8  H   -0.084193
     9  H    0.068222
    10  H   -0.030258
    11  H    0.068221
    12  H   -0.202112
    13  H   -0.202111
 Sum of Mulliken charges =  -0.00000

 Dipole moment (field-independent basis, Debye):
    X=             -0.6750    Y=              0.0986    Z=              0.0000  Tot=              0.6822

 Test job not archived.
 1\1\GINC-SE335\SP\RHF\Aug-CC-pVDZ\C3H8O1Si1\OHZDE\09-Apr-2025\0\\#t hf
  aug-cc-pvdz iop(5/13=1,5/36=2,99/5=2) pseudo=read geom=check guess=(r
 ead,tcheck) scf=(maxcycle=1)\\title\\0,1\C,0,-1.703778,0.638532,0.\O,0
 ,-0.344493,0.716654,-0.000001\Si,0,0.786206,-0.512325,0.\C,0,2.453572,
 0.316293,0.000001\C,0,-2.443936,-0.467355,0.\H,0,-2.15223,1.627111,0.0
 00001\H,0,-2.017021,-1.46331,-0.000001\H,0,-3.522387,-0.384781,0.00000
 1\H,0,2.578157,0.944407,-0.885643\H,0,3.249756,-0.4344,0.000002\H,0,2.
 578155,0.944408,0.885644\H,0,0.599745,-1.359464,-1.202521\H,0,0.599743

 Normal termination of Gaussian 16 at Wed Apr  9 00:06:42 2025.
