 Gaussian 16, Revision C.01,

 ----------------------------------------------------------------------
 #t hf aug-cc-pvdz symm=none int=(grid=ultrafine) guess=(read,tcheck) s
 table=(opt,rrhf)
 ----------------------------------------------------------------------
 -----
 title
 -----
 Symbolic Z-matrix:
 Charge =  0 Multiplicity = 1

 SCF Done:  E(RHF) =  -912.639496216     A.U. after   16 cycles
 Normal termination of Gaussian 16 at Tue Apr  8 22:38:14 2025.
 Gaussian 16:  ES64L-G16RevC.01  3-Jul-2019

 ----------------------------------------------------------------------
 #t hf aug-cc-pvdz iop(5/13=1,5/36=2,99/5=2) pseudo=read geom=check gue
 ss=(read,tcheck) scf=(maxcycle=1)
 ----------------------------------------------------------------------
 -----
 title
 -----
 Structure from the checkpoint file:  "BDE49_expt_1119_mol1.chk"
 Charge =  0 Multiplicity = 1

                         Standard orientation:
 ---------------------------------------------------------------------
 Center     Atomic      Atomic             Coordinates (Angstroms)
 Number     Number       Type             X           Y           Z
 ---------------------------------------------------------------------
      1          6           0       -0.221685    1.159000    0.030199
      2          6           0        1.162053    1.227608    0.040943
      3          6           0        1.897103    0.048752    0.009938
      4          6           0        1.238730   -1.173547   -0.038003
      5          6           0       -0.151298   -1.220170   -0.039404
      6          6           0       -0.923621   -0.049211   -0.006272
      7          9           0       -0.889491    2.335653    0.049403
      8          9           0        1.946918   -2.301697   -0.083887
      9          9           0       -0.711392   -2.421555   -0.101989
     10          9           0        1.784837    2.405910    0.081604
     11          9           0        3.225287    0.092309    0.016248
     12          6           0       -2.434848   -0.150069    0.055504
     13          8           0       -2.991320   -1.131989    0.450342
     14          8           0       -3.138238    0.917886   -0.372020
     15          1           0       -2.567576    1.663068   -0.596409
 ---------------------------------------------------------------------

 SCF Done:  E(RHF) =  -913.489792715     A.U. after    2 cycles

 The electronic state is 1-A.
 Alpha  occ. eigenvalues --  -26.55440 -26.54441 -26.53871 -26.53285 -26.52715
 Alpha  occ. eigenvalues --  -20.62211 -20.56076 -11.43486 -11.41922 -11.41820
 Alpha  occ. eigenvalues --  -11.41382 -11.40519 -11.40126 -11.33391  -1.68956
 Alpha  occ. eigenvalues --   -1.68270  -1.67127  -1.66296  -1.65372  -1.56991
 Alpha  occ. eigenvalues --   -1.48260  -1.24383  -1.11794  -1.09434  -0.97633
 Alpha  occ. eigenvalues --   -0.94226  -0.88532  -0.86337  -0.83751  -0.82802
 Alpha  occ. eigenvalues --   -0.78335  -0.77548  -0.77397  -0.76861  -0.75961
 Alpha  occ. eigenvalues --   -0.74650  -0.73296  -0.71476  -0.70513  -0.69535
 Alpha  occ. eigenvalues --   -0.68921  -0.68371  -0.65678  -0.65241  -0.64335
 Alpha  occ. eigenvalues --   -0.61260  -0.59557  -0.55903  -0.49766  -0.47667
 Alpha  occ. eigenvalues --   -0.41658  -0.40234
 Alpha virt. eigenvalues --    0.03224   0.03525   0.05304   0.06867   0.07282
 Alpha virt. eigenvalues --    0.07879   0.08125   0.08790   0.09576   0.10462
 Alpha virt. eigenvalues --    0.11132   0.11565   0.11988   0.13605   0.14312

 Mulliken charges:
               1
     1  C    1.601150
     2  C    0.609749
     3  C    1.242095
     4  C    0.671673
     5  C    1.434219
     6  C    0.140708
     7  F   -1.067192
     8  F   -0.962093
     9  F   -1.012205
    10  F   -0.965266
    11  F   -0.971401
    12  C    1.328140
    13  O   -1.191425
    14  O   -1.294839
    15  H    0.436686
 Sum of Mulliken charges =  -0.00000

 Dipole moment (field-independent basis, Debye):
    X=              2.3429    Y=              2.3611    Z=             -0.8913  Tot=              3.4436

 Test job not archived.
 1\1\GINC-SE221\SP\RHF\Aug-CC-pVDZ\C7H1F5O2\OHZDE\08-Apr-2025\0\\#t hf
 aug-cc-pvdz iop(5/13=1,5/36=2,99/5=2) pseudo=read geom=check guess=(re
 ad,tcheck) scf=(maxcycle=1)\\title\\0,1\C,0,-0.221685,1.159,0.030199\C
 ,0,1.162053,1.227608,0.040943\C,0,1.897103,0.048752,0.009938\C,0,1.238
 73,-1.173547,-0.038003\C,0,-0.151298,-1.22017,-0.039404\C,0,-0.923621,
 -0.049211,-0.006272\F,0,-0.889491,2.335653,0.049403\F,0,1.946918,-2.30
 1697,-0.083887\F,0,-0.711392,-2.421555,-0.101989\F,0,1.784837,2.40591,
 0.081604\F,0,3.225287,0.09231,0.016248\C,0,-2.434848,-0.150069,0.05550

 Normal termination of Gaussian 16 at Tue Apr  8 22:38:24 2025.
