 Gaussian 16, Revision C.01,

 ----------------------------------------------------------------------
 #t hf aug-cc-pvdz symm=none int=(grid=ultrafine) guess=(read,tcheck) s
 table=(opt,rrhf)
 ----------------------------------------------------------------------
 -----
 title
 -----
 Symbolic Z-matrix:
 Charge =  0 Multiplicity = 1

 SCF Done:  E(RHF) =  -375.866493574     A.U. after   11 cycles
 Normal termination of Gaussian 16 at Tue Apr  8 22:28:17 2025.
 Gaussian 16:  ES64L-G16RevC.01  3-Jul-2019

 ----------------------------------------------------------------------
 #t hf aug-cc-pvdz iop(5/13=1,5/36=2,99/5=2) pseudo=read geom=check gue
 ss=(read,tcheck) scf=(maxcycle=1)
 ----------------------------------------------------------------------
 -----
 title
 -----
 Structure from the checkpoint file:  "BDE49_expt_1001_mol1.chk"
 Charge =  0 Multiplicity = 1

                         Standard orientation:
 ---------------------------------------------------------------------
 Center     Atomic      Atomic             Coordinates (Angstroms)
 Number     Number       Type             X           Y           Z
 ---------------------------------------------------------------------
      1          6           0        0.025513    0.000005   -0.000005
      2          6           0       -1.476980    0.000044   -0.000047
      3          9           0        0.526843   -0.364185    1.201702
      4          9           0        0.526974    1.222762   -0.285448
      5          9           0        0.526916   -0.858628   -0.916201
      6          1           0       -1.839265    0.702921    0.749944
      7          1           0       -1.839297   -1.000898    0.233652
      8          1           0       -1.839236    0.298134   -0.983757
 ---------------------------------------------------------------------

 SCF Done:  E(RHF) =  -376.219833950     A.U. after    2 cycles

 The electronic state is 1-A.
 Alpha  occ. eigenvalues --  -26.49974 -26.49974 -26.49969 -11.51616 -11.27124
 Alpha  occ. eigenvalues --   -1.70560  -1.60531  -1.60531  -1.06883  -0.90978
 Alpha  occ. eigenvalues --   -0.80450  -0.80450  -0.76806  -0.68359  -0.68359
 Alpha  occ. eigenvalues --   -0.63446  -0.63446  -0.61392  -0.59088  -0.59088
 Alpha  occ. eigenvalues --   -0.56182
 Alpha virt. eigenvalues --    0.03378   0.05355   0.05355   0.08146   0.11337
 Alpha virt. eigenvalues --    0.11765   0.11765   0.15142   0.15142   0.16105
 Alpha virt. eigenvalues --    0.21179   0.23598   0.23598   0.28143   0.28279

 Mulliken charges:
               1
     1  C    2.263759
     2  C   -0.632009
     3  F   -0.734172
     4  F   -0.734174
     5  F   -0.734172
     6  H    0.190256
     7  H    0.190257
     8  H    0.190255
 Sum of Mulliken charges =  -0.00000

 Dipole moment (field-independent basis, Debye):
    X=             -2.4292    Y=              0.0001    Z=             -0.0001  Tot=              2.4292

 Test job not archived.
 1\1\GINC-SE332\SP\RHF\Aug-CC-pVDZ\C2H3F3\OHZDE\08-Apr-2025\0\\#t hf au
 g-cc-pvdz iop(5/13=1,5/36=2,99/5=2) pseudo=read geom=check guess=(read
 ,tcheck) scf=(maxcycle=1)\\title\\0,1\C,0,0.025513,-0.000005,0.000005\
 C,0,-1.47698,-0.000042,0.000048\F,0,0.526844,0.33281,-1.210766\F,0,0.5
 26973,-1.214926,0.31715\F,0,0.526916,0.882164,0.893562\H,0,-1.839265,-
 0.722185,-0.731411\H,0,-1.839296,0.994485,-0.259603\H,0,-1.839237,-0.2
 72448,0.991177\\Version=ES64L-G16RevC.01\State=1-A\HF=-376.2198339\RMS
 D=5.908e-03\Dipole=-0.955704,-0.0000315,0.0000339\Quadrupole=1.5783946

 Normal termination of Gaussian 16 at Tue Apr  8 22:28:19 2025.
