 Gaussian 16, Revision C.01,

 ----------------------------------------------------------------------
 #t hf aug-cc-pvdz symm=none int=(grid=ultrafine) guess=(read,tcheck) s
 table=opt
 ----------------------------------------------------------------------
 -----
 title
 -----
 Symbolic Z-matrix:
 Charge =  0 Multiplicity = 2

 SCF Done:  E(UHF) =  -947.403273330     A.U. after   21 cycles
 Normal termination of Gaussian 16 at Tue Apr  8 23:17:55 2025.
 Gaussian 16:  ES64L-G16RevC.01  3-Jul-2019

 ----------------------------------------------------------------------
 #t hf aug-cc-pvdz iop(5/13=1,5/36=2,99/5=2) pseudo=read geom=check gue
 ss=(read,tcheck) scf=(maxcycle=1)
 ----------------------------------------------------------------------
 -----
 title
 -----
 Structure from the checkpoint file:  "BDE49_nonexpt_1061_mol2.chk"
 Charge =  0 Multiplicity = 2

                         Standard orientation:
 ---------------------------------------------------------------------
 Center     Atomic      Atomic             Coordinates (Angstroms)
 Number     Number       Type             X           Y           Z
 ---------------------------------------------------------------------
      1          8           0        1.264628    1.524170   -0.000246
      2          6           0        0.548344    0.547937    0.000360
      3         16           0        1.396420   -0.998750   -0.000133
      4         16           0       -1.219344    0.686898    0.000111
      5          6           0       -1.757626   -1.055371    0.000024
      6          1           0       -2.847602   -1.013187   -0.000122
      7          1           0       -1.423594   -1.572978    0.898326
      8          1           0       -1.423359   -1.572967   -0.898198
 ---------------------------------------------------------------------

 SCF Done:  E(UHF) =  -947.665542648     A.U. after    2 cycles

 The electronic state is 2-A.
 Alpha  occ. eigenvalues --  -94.01071 -93.99178 -20.56254 -11.41065 -11.29857
 Alpha  occ. eigenvalues --   -8.29256  -8.27343  -6.28432  -6.26632  -6.26320
 Alpha  occ. eigenvalues --   -6.25150  -6.24974  -6.24754  -1.50696  -1.13172
 Alpha  occ. eigenvalues --   -1.06755  -0.94501  -0.75497  -0.67666  -0.64597
 Alpha  occ. eigenvalues --   -0.63678  -0.59788  -0.58714  -0.51989  -0.47611
 Alpha  occ. eigenvalues --   -0.42582  -0.42336  -0.39634
 Alpha virt. eigenvalues --    0.02829   0.04683   0.04996   0.06829   0.08020
 Alpha virt. eigenvalues --    0.09888   0.10050   0.11603   0.12547   0.12769
 Alpha virt. eigenvalues --    0.13629   0.14149   0.14923   0.15983   0.17090

  Beta  occ. eigenvalues --  -94.00138 -93.99181 -20.56017 -11.41189 -11.29829
  Beta  occ. eigenvalues --   -8.28183  -8.27348  -6.26117  -6.25735  -6.25162
  Beta  occ. eigenvalues --   -6.24963  -6.24764  -6.24305  -1.50083  -1.12200
  Beta  occ. eigenvalues --   -1.00527  -0.93705  -0.73966  -0.66117  -0.63597
  Beta  occ. eigenvalues --   -0.63038  -0.59348  -0.58503  -0.50726  -0.41548
  Beta  occ. eigenvalues --   -0.40078  -0.39602
  Beta virt. eigenvalues --   -0.02190   0.03049   0.04765   0.05011   0.07009
  Beta virt. eigenvalues --    0.08086   0.09968   0.10479   0.11654   0.12657
  Beta virt. eigenvalues --    0.12896   0.13629   0.14904   0.15110   0.16617

 Mulliken charges and spin densities:
               1          2
     1  O   -1.010300   0.023862
     2  C    0.110707  -0.104469
     3  S    0.400747   1.085482
     4  S    0.622313   0.000699
     5  C   -0.719862  -0.013556
     6  H    0.116960   0.002089
     7  H    0.239663   0.002952
     8  H    0.239773   0.002940
 Sum of Mulliken charges =   0.00000   1.00000

 Dipole moment (field-independent basis, Debye):
    X=             -2.4656    Y=             -3.2914    Z=              0.0005  Tot=              4.1125
                          Isotropic Fermi Contact Couplings
        Atom                 a.u.       MegaHertz       Gauss      10(-4) cm-1
     1  O(17)              0.02889     -17.51516      -6.24984      -5.84243
     2  C(13)             -0.02135     -24.00595      -8.56592      -8.00752
     3  S(33)              0.21180      72.74789      25.95826      24.26608
     4  S(33)             -0.00887      -3.04826      -1.08769      -1.01679
     5  C(13)              0.00962      10.81315       3.85840       3.60688
     6  H(1)               0.00140       6.27865       2.24038       2.09433
     7  H(1)               0.00031       1.39682       0.49842       0.46593
     8  H(1)               0.00031       1.39805       0.49886       0.46634

 Normal termination of Gaussian 16 at Tue Apr  8 23:17:58 2025.
