 Gaussian 16, Revision C.01,

 ----------------------------------------------------------------------
 #t hf aug-cc-pvdz symm=none int=(grid=ultrafine) guess=(read,tcheck) s
 table=(opt,rrhf)
 ----------------------------------------------------------------------
 -----
 title
 -----
 Symbolic Z-matrix:
 Charge =  0 Multiplicity = 1

 SCF Done:  E(RHF) =  -671.604570729     A.U. after   11 cycles
 Normal termination of Gaussian 16 at Tue Apr  8 23:53:20 2025.
 Gaussian 16:  ES64L-G16RevC.01  3-Jul-2019

 ----------------------------------------------------------------------
 #t hf aug-cc-pvdz iop(5/13=1,5/36=2,99/5=2) pseudo=read geom=check gue
 ss=(read,tcheck) scf=(maxcycle=1)
 ----------------------------------------------------------------------
 -----
 title
 -----
 Structure from the checkpoint file:  "BDE49_nonexpt_1950_mol1.chk"
 Charge =  0 Multiplicity = 1

                         Standard orientation:
 ---------------------------------------------------------------------
 Center     Atomic      Atomic             Coordinates (Angstroms)
 Number     Number       Type             X           Y           Z
 ---------------------------------------------------------------------
      1         14           0       -1.569067   -0.175751   -0.005392
      2          6           0        0.040027    0.809467    0.042179
      3          1           0       -1.658790   -0.962934   -1.256927
      4          1           0       -2.723622    0.751512    0.063325
      5          1           0       -1.635267   -1.104946    1.147403
      6         15           0        1.575991   -0.251854   -0.117641
      7          1           0        1.482982   -0.908592    1.137405
      8          1           0        2.524780    0.692572    0.357223
      9          1           0        0.060278    1.418021    0.949650
     10          1           0        0.036555    1.495895   -0.811050
 ---------------------------------------------------------------------

 SCF Done:  E(RHF) =  -671.731835008     A.U. after    2 cycles

 The electronic state is 1-A.
 Alpha  occ. eigenvalues --  -84.27620 -69.53173 -11.23932  -6.74627  -6.20246
 Alpha  occ. eigenvalues --   -4.27013  -4.26946  -4.26276  -3.95620  -3.95614
 Alpha  occ. eigenvalues --   -3.95613  -0.99209  -0.81358  -0.72282  -0.59878
 Alpha  occ. eigenvalues --   -0.54515  -0.49823  -0.48269  -0.46900  -0.44357
 Alpha  occ. eigenvalues --   -0.34417
 Alpha virt. eigenvalues --    0.03548   0.04350   0.04594   0.04919   0.06804
 Alpha virt. eigenvalues --    0.07395   0.08109   0.08703   0.09300   0.10035
 Alpha virt. eigenvalues --    0.10998   0.12354   0.14298   0.15274   0.15659

 Mulliken charges:
               1
     1  Si   1.083983
     2  C   -0.912266
     3  H   -0.205107
     4  H   -0.214420
     5  H   -0.207513
     6  P   -0.425869
     7  H    0.378541
     8  H    0.406600
     9  H    0.015907
    10  H    0.080144
 Sum of Mulliken charges =  -0.00000

 Dipole moment (field-independent basis, Debye):
    X=             -0.0262    Y=              0.9362    Z=              0.4187  Tot=              1.0259

 Test job not archived.
 1\1\GINC-SE460\SP\RHF\Aug-CC-pVDZ\C1H7P1Si1\OHZDE\08-Apr-2025\0\\#t hf
  aug-cc-pvdz iop(5/13=1,5/36=2,99/5=2) pseudo=read geom=check guess=(r
 ead,tcheck) scf=(maxcycle=1)\\title\\0,1\Si,0,-1.569067,-0.175751,-0.0
 05392\C,0,0.040027,0.809467,0.042179\H,0,-1.65879,-0.962934,-1.256927\
 H,0,-2.723622,0.751512,0.063325\H,0,-1.635267,-1.104946,1.147403\P,0,1
 .575991,-0.251854,-0.117641\H,0,1.482982,-0.908592,1.137405\H,0,2.5247
 8,0.692572,0.357223\H,0,0.060278,1.418021,0.94965\H,0,0.036555,1.49589
 5,-0.81105\\Version=ES64L-G16RevC.01\State=1-A\HF=-671.731835\RMSD=2.5

 Normal termination of Gaussian 16 at Tue Apr  8 23:53:23 2025.
