 Gaussian 16, Revision C.01,

 ----------------------------------------------------------------------
 #t hf aug-cc-pvdz symm=none int=(grid=ultrafine) guess=(read,tcheck) s
 table=(opt,rrhf)
 ----------------------------------------------------------------------
 -----
 title
 -----
 Symbolic Z-matrix:
 Charge =  0 Multiplicity = 1

 SCF Done:  E(RHF) =  -1012.01298006     A.U. after   15 cycles
 Normal termination of Gaussian 16 at Tue Apr  8 23:42:58 2025.
 Gaussian 16:  ES64L-G16RevC.01  3-Jul-2019

 ----------------------------------------------------------------------
 #t hf aug-cc-pvdz iop(5/13=1,5/36=2,99/5=2) pseudo=read geom=check gue
 ss=(read,tcheck) scf=(maxcycle=1)
 ----------------------------------------------------------------------
 -----
 title
 -----
 Structure from the checkpoint file:  "BDE49_nonexpt_1651_mol1.chk"
 Charge =  0 Multiplicity = 1

                         Standard orientation:
 ---------------------------------------------------------------------
 Center     Atomic      Atomic             Coordinates (Angstroms)
 Number     Number       Type             X           Y           Z
 ---------------------------------------------------------------------
      1          6           0        2.841738    0.920989   -0.584831
      2          6           0        1.468157    1.108716   -0.448264
      3          6           0        0.653777    0.099176    0.089735
      4         14           0       -1.185500    0.331183    0.280128
      5          8           0       -1.702541   -0.038341    1.806342
      6         15           0       -2.361491   -1.147544   -0.980429
      7          6           0        3.425285   -0.280717   -0.188347
      8          6           0        2.633016   -1.295212    0.346733
      9          6           0        1.260471   -1.105623    0.483673
     10          1           0        0.656386   -1.904144    0.903625
     11          1           0        3.456815    1.711742   -1.000317
     12          1           0        1.017892    2.045713   -0.754962
     13          1           0        4.494417   -0.427283   -0.296449
     14          1           0        3.084250   -2.231693    0.655586
     15          1           0       -2.112917   -0.455597   -2.195133
     16          1           0       -3.613119   -0.512322   -0.757189
     17          1           0       -1.235084    0.370356    2.540748
     18          8           0       -1.433032    1.922019   -0.096235
     19          1           0       -2.339346    2.226436   -0.184318
 ---------------------------------------------------------------------

 SCF Done:  E(RHF) =  -1012.47781230     A.U. after    2 cycles

 The electronic state is 1-A.
 Alpha  occ. eigenvalues --  -84.26017 -69.58611 -20.55407 -20.55064 -11.25154
 Alpha  occ. eigenvalues --  -11.25110 -11.24884 -11.24562 -11.24481 -11.23105
 Alpha  occ. eigenvalues --   -6.73289  -6.24857  -4.25719  -4.25562  -4.25011
 Alpha  occ. eigenvalues --   -4.00329  -4.00207  -4.00136  -1.45106  -1.42828
 Alpha  occ. eigenvalues --   -1.15470  -1.01969  -1.01901  -0.87077  -0.83661
 Alpha  occ. eigenvalues --   -0.83266  -0.76180  -0.71757  -0.70529  -0.64686
 Alpha  occ. eigenvalues --   -0.63924  -0.60389  -0.59559  -0.58687  -0.56483
 Alpha  occ. eigenvalues --   -0.53662  -0.51651  -0.50600  -0.50200  -0.49442
 Alpha  occ. eigenvalues --   -0.47830  -0.42631  -0.35398  -0.34866  -0.34046
 Alpha virt. eigenvalues --    0.03048   0.03579   0.03909   0.04768   0.05141
 Alpha virt. eigenvalues --    0.05567   0.06518   0.07409   0.08244   0.08304
 Alpha virt. eigenvalues --    0.08901   0.09557   0.10177   0.10360   0.10617

 Mulliken charges:
               1
     1  C    0.312046
     2  C   -0.015177
     3  C   -0.319224
     4  Si   3.191617
     5  O   -1.593113
     6  P   -1.388657
     7  C    0.364419
     8  C    0.380550
     9  C    0.544324
    10  H   -0.381251
    11  H   -0.224261
    12  H   -0.338492
    13  H   -0.214131
    14  H   -0.225406
    15  H    0.373701
    16  H    0.336286
    17  H    0.385971
    18  O   -1.641612
    19  H    0.452409
 Sum of Mulliken charges =  -0.00000

 Dipole moment (field-independent basis, Debye):
    X=              0.5373    Y=              0.8963    Z=              0.3345  Tot=              1.0972

 Test job not archived.
 1\1\GINC-SE187\SP\RHF\Aug-CC-pVDZ\C6H9O2P1Si1\OHZDE\08-Apr-2025\0\\#t
 hf aug-cc-pvdz iop(5/13=1,5/36=2,99/5=2) pseudo=read geom=check guess=
 (read,tcheck) scf=(maxcycle=1)\\title\\0,1\C,0,2.841738,0.920989,-0.58
 4831\C,0,1.468157,1.108716,-0.448264\C,0,0.653777,0.099176,0.089735\Si
 ,0,-1.1855,0.331183,0.280128\O,0,-1.702541,-0.038341,1.806342\P,0,-2.3
 61491,-1.147544,-0.980429\C,0,3.425285,-0.280717,-0.188347\C,0,2.63301
 6,-1.295212,0.346733\C,0,1.260471,-1.105623,0.483673\H,0,0.656386,-1.9
 04144,0.903625\H,0,3.456815,1.711742,-1.000317\H,0,1.017892,2.045713,-

 Normal termination of Gaussian 16 at Tue Apr  8 23:43:10 2025.
