 Gaussian 16, Revision C.01,

 ----------------------------------------------------------------------
 #t hf aug-cc-pvdz symm=none int=(grid=ultrafine) guess=(read,tcheck) s
 table=(opt,rrhf)
 ----------------------------------------------------------------------
 -----
 title
 -----
 Symbolic Z-matrix:
 Charge =  0 Multiplicity = 1

 SCF Done:  E(RHF) =  -976.891449272     A.U. after   13 cycles
 Normal termination of Gaussian 16 at Tue Apr  8 23:48:23 2025.
 Gaussian 16:  ES64L-G16RevC.01  3-Jul-2019

 ----------------------------------------------------------------------
 #t hf aug-cc-pvdz iop(5/13=1,5/36=2,99/5=2) pseudo=read geom=check gue
 ss=(read,tcheck) scf=(maxcycle=1)
 ----------------------------------------------------------------------
 -----
 title
 -----
 Structure from the checkpoint file:  "BDE49_nonexpt_1816_mol1.chk"
 Charge =  0 Multiplicity = 1

                         Standard orientation:
 ---------------------------------------------------------------------
 Center     Atomic      Atomic             Coordinates (Angstroms)
 Number     Number       Type             X           Y           Z
 ---------------------------------------------------------------------
      1          6           0        0.887744    0.491226   -0.000076
      2          8           0        1.667082    1.415961    0.000032
      3         14           0       -0.984008    0.883455    0.000007
      4          8           0        1.240235   -0.801248   -0.000030
      5         17           0       -2.191376   -0.803815    0.000005
      6          6           0        2.661985   -1.073571    0.000018
      7          1           0        2.746851   -2.156957    0.000052
      8          1           0        3.127539   -0.647267    0.889236
      9          1           0        3.127589   -0.647318   -0.889199
     10          1           0       -1.264733    1.662228   -1.217335
     11          1           0       -1.264655    1.662174    1.217403
 ---------------------------------------------------------------------

 SCF Done:  E(RHF) =  -977.226730678     A.U. after    2 cycles

 The electronic state is 1-A.
 Alpha  occ. eigenvalues -- -105.56876 -69.59983 -20.60534 -20.55525 -11.39021
 Alpha  occ. eigenvalues --  -11.30718 -10.61880  -7.78769  -7.78451  -7.78447
 Alpha  occ. eigenvalues --   -6.26644  -4.02085  -4.01943  -4.01906  -1.55465
 Alpha  occ. eigenvalues --   -1.46455  -1.06560  -0.99343  -0.83373  -0.77086
 Alpha  occ. eigenvalues --   -0.69243  -0.68138  -0.67553  -0.58707  -0.57592
 Alpha  occ. eigenvalues --   -0.54804  -0.54043  -0.52937  -0.49274  -0.47295
 Alpha  occ. eigenvalues --   -0.46109  -0.42955
 Alpha virt. eigenvalues --    0.03549   0.04429   0.04721   0.05013   0.05984
 Alpha virt. eigenvalues --    0.06526   0.07015   0.08708   0.10637   0.11279
 Alpha virt. eigenvalues --    0.12203   0.13504   0.14427   0.14533   0.15069

 Mulliken charges:
               1
     1  C    1.100775
     2  O   -1.020949
     3  Si   1.251361
     4  O   -1.098627
     5  Cl  -0.528273
     6  C    0.283525
     7  H    0.005993
     8  H    0.162515
     9  H    0.162521
    10  H   -0.159418
    11  H   -0.159423
 Sum of Mulliken charges =  -0.00000

 Dipole moment (field-independent basis, Debye):
    X=              0.8270    Y=             -0.7323    Z=             -0.0000  Tot=              1.1046

 Test job not archived.
 1\1\GINC-SE343\SP\RHF\Aug-CC-pVDZ\C2H5Cl1O2Si1\OHZDE\08-Apr-2025\0\\#t
  hf aug-cc-pvdz iop(5/13=1,5/36=2,99/5=2) pseudo=read geom=check guess
 =(read,tcheck) scf=(maxcycle=1)\\title\\0,1\C,0,-0.887744,0.491226,0.0
 00076\O,0,-1.667082,1.415961,-0.000032\Si,0,0.984008,0.883455,-0.00000
 7\O,0,-1.240235,-0.801248,0.00003\Cl,0,2.191376,-0.803815,-0.000005\C,
 0,-2.661985,-1.073571,-0.000018\H,0,-2.746851,-2.156957,-0.000052\H,0,
 -3.127539,-0.647267,-0.889236\H,0,-3.127589,-0.647318,0.889199\H,0,1.2
 64733,1.662228,1.217335\H,0,1.264655,1.662174,-1.217403\\Version=ES64L

 Normal termination of Gaussian 16 at Tue Apr  8 23:48:27 2025.
