 Gaussian 16, Revision C.01,

 ----------------------------------------------------------------------
 #t hf aug-cc-pvdz symm=none int=(grid=ultrafine) guess=(read,tcheck) s
 table=(opt,rrhf)
 ----------------------------------------------------------------------
 -----
 title
 -----
 Symbolic Z-matrix:
 Charge =  0 Multiplicity = 1

 SCF Done:  E(RHF) =  -828.314783036     A.U. after   11 cycles
 Normal termination of Gaussian 16 at Tue Apr  8 23:44:15 2025.
 Gaussian 16:  ES64L-G16RevC.01  3-Jul-2019

 ----------------------------------------------------------------------
 #t hf aug-cc-pvdz iop(5/13=1,5/36=2,99/5=2) pseudo=read geom=check gue
 ss=(read,tcheck) scf=(maxcycle=1)
 ----------------------------------------------------------------------
 -----
 title
 -----
 Structure from the checkpoint file:  "BDE49_nonexpt_1734_mol1.chk"
 Charge =  0 Multiplicity = 1

                         Standard orientation:
 ---------------------------------------------------------------------
 Center     Atomic      Atomic             Coordinates (Angstroms)
 Number     Number       Type             X           Y           Z
 ---------------------------------------------------------------------
      1         14           0       -0.202122    0.901076    0.176192
      2          6           0        1.460510    0.340743   -0.477724
      3          6           0        2.067346   -0.883315    0.229236
      4          1           0        1.422617   -1.759742    0.129566
      5          1           0        2.211547   -0.698550    1.297450
      6          1           0        3.041762   -1.138844   -0.195488
      7         17           0       -1.626501   -0.611054   -0.078474
      8          1           0        2.132629    1.204871   -0.388978
      9          1           0        1.355319    0.150615   -1.551693
     10          1           0       -0.699822    2.082617   -0.557965
     11          1           0       -0.150957    1.187318    1.625400
 ---------------------------------------------------------------------

 SCF Done:  E(RHF) =  -828.517377531     A.U. after    2 cycles

 The electronic state is 1-A.
 Alpha  occ. eigenvalues -- -105.55050 -69.57174 -11.23976 -11.23721 -10.60048
 Alpha  occ. eigenvalues --   -7.76932  -7.76635  -7.76629  -6.23883  -3.99317
 Alpha  occ. eigenvalues --   -3.99153  -3.99139  -1.05444  -1.02804  -0.86587
 Alpha  occ. eigenvalues --   -0.71839  -0.62633  -0.59784  -0.54904  -0.53241
 Alpha  occ. eigenvalues --   -0.51416  -0.50423  -0.48926  -0.44875  -0.43637
 Alpha virt. eigenvalues --    0.03385   0.04217   0.04345   0.04753   0.06464
 Alpha virt. eigenvalues --    0.07241   0.07365   0.07811   0.09851   0.10410
 Alpha virt. eigenvalues --    0.12751   0.13909   0.14609   0.14988   0.15477

 Mulliken charges:
               1
     1  Si   1.290900
     2  C   -0.626645
     3  C   -0.409206
     4  H    0.156530
     5  H    0.138279
     6  H    0.117646
     7  Cl  -0.592393
     8  H    0.103169
     9  H    0.135324
    10  H   -0.173228
    11  H   -0.140374
 Sum of Mulliken charges =  -0.00000

 Dipole moment (field-independent basis, Debye):
    X=              2.0784    Y=              1.0000    Z=             -0.0833  Tot=              2.3080

 Test job not archived.
 1\1\GINC-SE342\SP\RHF\Aug-CC-pVDZ\C2H7Cl1Si1\OHZDE\08-Apr-2025\0\\#t h
 f aug-cc-pvdz iop(5/13=1,5/36=2,99/5=2) pseudo=read geom=check guess=(
 read,tcheck) scf=(maxcycle=1)\\title\\0,1\Si,0,-0.202122,0.901076,0.17
 6192\C,0,1.46051,0.340743,-0.477724\C,0,2.067346,-0.883315,0.229236\H,
 0,1.422617,-1.759742,0.129566\H,0,2.211547,-0.69855,1.29745\H,0,3.0417
 62,-1.138844,-0.195488\Cl,0,-1.626501,-0.611054,-0.078474\H,0,2.132629
 ,1.204871,-0.388978\H,0,1.355319,0.150615,-1.551693\H,0,-0.699822,2.08
 2617,-0.557965\H,0,-0.150957,1.187318,1.6254\\Version=ES64L-G16RevC.01

 Normal termination of Gaussian 16 at Tue Apr  8 23:44:19 2025.
