 Gaussian 16, Revision C.01,

 ----------------------------------------------------------------------
 #t hf aug-cc-pvdz symm=none int=(grid=ultrafine) guess=(read,tcheck) s
 table=(opt,rrhf)
 ----------------------------------------------------------------------
 -----
 title
 -----
 Symbolic Z-matrix:
 Charge =  0 Multiplicity = 1

 SCF Done:  E(RHF) =  -934.165395295     A.U. after   13 cycles
 Normal termination of Gaussian 16 at Tue Apr  8 23:41:23 2025.
 Gaussian 16:  ES64L-G16RevC.01  3-Jul-2019

 ----------------------------------------------------------------------
 #t hf aug-cc-pvdz iop(5/13=1,5/36=2,99/5=2) pseudo=read geom=check gue
 ss=(read,tcheck) scf=(maxcycle=1)
 ----------------------------------------------------------------------
 -----
 title
 -----
 Structure from the checkpoint file:  "BDE49_nonexpt_1640_mol1.chk"
 Charge =  0 Multiplicity = 1

                         Standard orientation:
 ---------------------------------------------------------------------
 Center     Atomic      Atomic             Coordinates (Angstroms)
 Number     Number       Type             X           Y           Z
 ---------------------------------------------------------------------
      1         14           0       -0.896888    0.991236    0.013513
      2         15           0        1.080147   -0.131092    0.106885
      3          8           0        1.387110   -0.792202    1.389445
      4          6           0       -2.251769   -0.191716    0.492638
      5          6           0       -3.240185   -0.543850   -0.333843
      6          1           0       -2.235365   -0.613447    1.496249
      7          1           0       -3.309965   -0.156381   -1.346378
      8          1           0       -4.024685   -1.233467   -0.034028
      9          8           0        2.106768    0.996780   -0.405948
     10          1           0        3.033662    0.723334   -0.366917
     11          8           0        1.100744   -1.172476   -1.143323
     12          1           0        0.975534   -2.077248   -0.830607
     13          1           0       -1.118949    1.493992   -1.359426
     14          1           0       -0.771250    2.108869    0.974491
 ---------------------------------------------------------------------

 SCF Done:  E(RHF) =  -934.548503786     A.U. after    2 cycles

 The electronic state is 1-A.
 Alpha  occ. eigenvalues --  -84.41517 -69.55289 -20.59085 -20.58629 -20.49956
 Alpha  occ. eigenvalues --  -11.26904 -11.24758  -6.86918  -6.22425  -4.40951
 Alpha  occ. eigenvalues --   -4.40250  -4.39252  -3.97780  -3.97748  -3.97726
 Alpha  occ. eigenvalues --   -1.52450  -1.46613  -1.38019  -1.05721  -0.87220
 Alpha  occ. eigenvalues --   -0.81656  -0.73919  -0.72329  -0.66443  -0.65280
 Alpha  occ. eigenvalues --   -0.62488  -0.59652  -0.58948  -0.54667  -0.54126
 Alpha  occ. eigenvalues --   -0.51028  -0.48792  -0.47801  -0.45059  -0.42673
 Alpha  occ. eigenvalues --   -0.38904
 Alpha virt. eigenvalues --    0.03233   0.04005   0.04301   0.04674   0.05458
 Alpha virt. eigenvalues --    0.06789   0.06979   0.07900   0.08369   0.09618
 Alpha virt. eigenvalues --    0.10148   0.11358   0.12063   0.13433   0.14221

 Mulliken charges:
               1
     1  Si   1.127459
     2  P    3.036573
     3  O   -1.524324
     4  C   -0.187919
     5  C    0.108674
     6  H   -0.184925
     7  H   -0.076503
     8  H   -0.037130
     9  O   -1.293649
    10  H    0.339994
    11  O   -1.334493
    12  H    0.353267
    13  H   -0.148611
    14  H   -0.178413
 Sum of Mulliken charges =  -0.00000

 Dipole moment (field-independent basis, Debye):
    X=             -1.4869    Y=             -0.1567    Z=             -1.9885  Tot=              2.4879

 Test job not archived.
 1\1\GINC-SE026\SP\RHF\Aug-CC-pVDZ\C2H7O3P1Si1\OHZDE\08-Apr-2025\0\\#t
 hf aug-cc-pvdz iop(5/13=1,5/36=2,99/5=2) pseudo=read geom=check guess=
 (read,tcheck) scf=(maxcycle=1)\\title\\0,1\Si,0,-0.896888,0.991236,0.0
 13513\P,0,1.080147,-0.131092,0.106885\O,0,1.38711,-0.792202,1.389445\C
 ,0,-2.251769,-0.191716,0.492638\C,0,-3.240185,-0.54385,-0.333843\H,0,-
 2.235365,-0.613447,1.496249\H,0,-3.309965,-0.156381,-1.346378\H,0,-4.0
 24685,-1.233467,-0.034028\O,0,2.106768,0.99678,-0.405948\H,0,3.033662,
 0.723334,-0.366917\O,0,1.100744,-1.172476,-1.143323\H,0,0.975534,-2.07

 Normal termination of Gaussian 16 at Tue Apr  8 23:41:28 2025.
