 Gaussian 16, Revision C.01,

 ----------------------------------------------------------------------
 #t hf aug-cc-pvdz symm=none int=(grid=ultrafine) guess=(read,tcheck) s
 table=(opt,rrhf)
 ----------------------------------------------------------------------
 -----
 title
 -----
 Symbolic Z-matrix:
 Charge =  0 Multiplicity = 1

 SCF Done:  E(RHF) =  -1117.63265545     A.U. after   14 cycles
 Normal termination of Gaussian 16 at Tue Apr  8 23:43:45 2025.
 Gaussian 16:  ES64L-G16RevC.01  3-Jul-2019

 ----------------------------------------------------------------------
 #t hf aug-cc-pvdz iop(5/13=1,5/36=2,99/5=2) pseudo=read geom=check gue
 ss=(read,tcheck) scf=(maxcycle=1)
 ----------------------------------------------------------------------
 -----
 title
 -----
 Structure from the checkpoint file:  "BDE49_nonexpt_1704_mol1.chk"
 Charge =  0 Multiplicity = 1

                         Standard orientation:
 ---------------------------------------------------------------------
 Center     Atomic      Atomic             Coordinates (Angstroms)
 Number     Number       Type             X           Y           Z
 ---------------------------------------------------------------------
      1         16           0        0.001660    1.402681   -0.109640
      2         15           0       -1.395619   -0.191114    0.035857
      3          8           0       -2.769536    0.299650   -0.046092
      4          8           0       -0.996828   -1.285071   -1.077409
      5          8           0        1.354713    0.530304    0.462659
      6          6           0        2.231426   -0.005485   -0.566406
      7          6           0        3.385796   -0.682061    0.145395
      8          1           0        2.577996    0.819388   -1.195652
      9          1           0        1.668130   -0.708877   -1.185604
     10          1           0        3.919629    0.028049    0.779969
     11          1           0        4.086829   -1.083773   -0.591154
     12          1           0        3.033902   -1.509142    0.766177
     13          8           0       -0.918854   -0.938042    1.352260
     14          1           0        0.011177   -0.736228    1.550950
     15          1           0       -1.449229   -1.115063   -1.913566
 ---------------------------------------------------------------------

 SCF Done:  E(RHF) =  -1118.11825620     A.U. after    2 cycles

 The electronic state is 1-A.
 Alpha  occ. eigenvalues --  -94.02509 -84.45814 -20.60989 -20.60749 -20.60266
 Alpha  occ. eigenvalues --  -20.52008 -11.31595 -11.25082  -8.30132  -6.90933
 Alpha  occ. eigenvalues --   -6.27905  -6.27712  -6.27450  -4.45054  -4.44249
 Alpha  occ. eigenvalues --   -4.43185  -1.54968  -1.49184  -1.48300  -1.40489
 Alpha  occ. eigenvalues --   -1.06948  -0.99153  -0.87175  -0.84556  -0.75055
 Alpha  occ. eigenvalues --   -0.71800  -0.68668  -0.65999  -0.64914  -0.62014
 Alpha  occ. eigenvalues --   -0.59124  -0.58315  -0.56862  -0.56179  -0.55012
 Alpha  occ. eigenvalues --   -0.52377  -0.51259  -0.48893  -0.47540  -0.42902
 Alpha  occ. eigenvalues --   -0.40486
 Alpha virt. eigenvalues --    0.02976   0.03544   0.04095   0.04525   0.06191
 Alpha virt. eigenvalues --    0.07230   0.07644   0.08084   0.09127   0.09830
 Alpha virt. eigenvalues --    0.11643   0.12187   0.12971   0.13948   0.14791

 Mulliken charges:
               1
     1  S    0.121515
     2  P    3.581347
     3  O   -1.358154
     4  O   -1.292338
     5  O   -1.264082
     6  C    0.512752
     7  C   -0.491123
     8  H    0.080264
     9  H    0.126060
    10  H    0.155791
    11  H    0.168365
    12  H    0.148279
    13  O   -1.429891
    14  H    0.555836
    15  H    0.385380
 Sum of Mulliken charges =  -0.00000

 Dipole moment (field-independent basis, Debye):
    X=              4.7491    Y=             -1.1472    Z=             -2.1346  Tot=              5.3316

 Test job not archived.
 1\1\GINC-SE331\SP\RHF\Aug-CC-pVDZ\C2H7O4P1S1\OHZDE\08-Apr-2025\0\\#t h
 f aug-cc-pvdz iop(5/13=1,5/36=2,99/5=2) pseudo=read geom=check guess=(
 read,tcheck) scf=(maxcycle=1)\\title\\0,1\S,0,0.00166,1.402681,-0.1096
 4\P,0,-1.395619,-0.191114,0.035857\O,0,-2.769536,0.29965,-0.046092\O,0
 ,-0.996828,-1.285071,-1.077409\O,0,1.354713,0.530304,0.462659\C,0,2.23
 1426,-0.005485,-0.566406\C,0,3.385796,-0.682061,0.145395\H,0,2.577996,
 0.819388,-1.195652\H,0,1.66813,-0.708877,-1.185604\H,0,3.919629,0.0280
 49,0.779969\H,0,4.086829,-1.083773,-0.591154\H,0,3.033902,-1.509142,0.

 Normal termination of Gaussian 16 at Tue Apr  8 23:43:51 2025.
