 Gaussian 16, Revision C.01,

 ----------------------------------------------------------------------
 #t hf aug-cc-pvdz symm=none int=(grid=ultrafine) guess=(read,tcheck) s
 table=(opt,rrhf)
 ----------------------------------------------------------------------
 -----
 title
 -----
 Symbolic Z-matrix:
 Charge =  0 Multiplicity = 1

 SCF Done:  E(RHF) =  -1423.48506805     A.U. after   13 cycles
 Normal termination of Gaussian 16 at Tue Apr  8 23:25:01 2025.
 Gaussian 16:  ES64L-G16RevC.01  3-Jul-2019

 ----------------------------------------------------------------------
 #t hf aug-cc-pvdz iop(5/13=1,5/36=2,99/5=2) pseudo=read geom=check gue
 ss=(read,tcheck) scf=(maxcycle=1)
 ----------------------------------------------------------------------
 -----
 title
 -----
 Structure from the checkpoint file:  "BDE49_nonexpt_1256_mol1.chk"
 Charge =  0 Multiplicity = 1

                         Standard orientation:
 ---------------------------------------------------------------------
 Center     Atomic      Atomic             Coordinates (Angstroms)
 Number     Number       Type             X           Y           Z
 ---------------------------------------------------------------------
      1         16           0       -1.062478   -0.037606    0.106184
      2         17           0        2.219676   -0.450498    0.009564
      3          8           0       -0.964799   -1.094290   -1.128143
      4          8           0       -2.051246    0.931890   -0.276902
      5          8           0       -1.139523   -0.799186    1.325567
      6         15           0        0.829008    1.108759    0.059549
      7          1           0       -0.638451   -1.936299   -0.774907
      8          1           0        0.713031    1.257760   -1.344040
 ---------------------------------------------------------------------

 SCF Done:  E(RHF) =  -1423.88792667     A.U. after    2 cycles

 The electronic state is 1-A.
 Alpha  occ. eigenvalues -- -105.60774 -94.25238 -84.39617 -20.63961 -20.57446
 Alpha  occ. eigenvalues --  -20.57355 -10.65630  -8.50097  -7.82544  -7.82163
 Alpha  occ. eigenvalues --   -7.82133  -6.86223  -6.48187  -6.48043  -6.47853
 Alpha  occ. eigenvalues --   -4.38077  -4.37990  -4.37535  -1.62905  -1.50461
 Alpha  occ. eigenvalues --   -1.47922  -1.11567  -0.97501  -0.86075  -0.76917
 Alpha  occ. eigenvalues --   -0.71298  -0.70948  -0.65098  -0.59796  -0.58253
 Alpha  occ. eigenvalues --   -0.54456  -0.53201  -0.52125  -0.51962  -0.49585
 Alpha  occ. eigenvalues --   -0.45919  -0.40732
 Alpha virt. eigenvalues --    0.03202   0.04277   0.05255   0.05850   0.08560
 Alpha virt. eigenvalues --    0.10077   0.10734   0.11523   0.12014   0.13239
 Alpha virt. eigenvalues --    0.13711   0.15591   0.16045   0.16844   0.17580

 Mulliken charges:
               1
     1  S    3.194687
     2  Cl  -0.463977
     3  O   -1.247160
     4  O   -1.397340
     5  O   -1.391703
     6  P    0.367833
     7  H    0.379311
     8  H    0.558348
 Sum of Mulliken charges =  -0.00000

 Dipole moment (field-independent basis, Debye):
    X=              3.1221    Y=              0.2989    Z=             -1.4006  Tot=              3.4349

 Test job not archived.
 1\1\GINC-SE084\SP\RHF\Aug-CC-pVDZ\Cl1H2O3P1S1\OHZDE\08-Apr-2025\0\\#t
 hf aug-cc-pvdz iop(5/13=1,5/36=2,99/5=2) pseudo=read geom=check guess=
 (read,tcheck) scf=(maxcycle=1)\\title\\0,1\S,0,-1.062478,-0.037606,0.1
 06184\Cl,0,2.219676,-0.450498,0.009564\O,0,-0.964799,-1.09429,-1.12814
 3\O,0,-2.051246,0.93189,-0.276902\O,0,-1.139523,-0.799186,1.325567\P,0
 ,0.829008,1.108759,0.059549\H,0,-0.638451,-1.936299,-0.774907\H,0,0.71
 3031,1.25776,-1.34404\\Version=ES64L-G16RevC.01\State=1-A\HF=-1423.887
 9267\RMSD=1.284e-02\Dipole=1.2283217,0.1176093,-0.551042\Quadrupole=-4

 Normal termination of Gaussian 16 at Tue Apr  8 23:25:06 2025.
