 Gaussian 16, Revision C.01,

 ----------------------------------------------------------------------
 #t hf aug-cc-pvdz symm=none int=(grid=ultrafine) guess=(read,tcheck) s
 table=(opt,rrhf)
 ----------------------------------------------------------------------
 -----
 title
 -----
 Symbolic Z-matrix:
 Charge =  0 Multiplicity = 1

 SCF Done:  E(RHF) =  -522.321466077     A.U. after   12 cycles
 Normal termination of Gaussian 16 at Wed Apr  9 00:07:02 2025.
 Gaussian 16:  ES64L-G16RevC.01  3-Jul-2019

 ----------------------------------------------------------------------
 #t hf aug-cc-pvdz iop(5/13=1,5/36=2,99/5=2) pseudo=read geom=check gue
 ss=(read,tcheck) scf=(maxcycle=1)
 ----------------------------------------------------------------------
 -----
 title
 -----
 Structure from the checkpoint file:  "BDE49_nonexpt_2243_mol1.chk"
 Charge =  0 Multiplicity = 1

                         Standard orientation:
 ---------------------------------------------------------------------
 Center     Atomic      Atomic             Coordinates (Angstroms)
 Number     Number       Type             X           Y           Z
 ---------------------------------------------------------------------
      1         14           0        1.627030   -0.452937    0.205955
      2          8           0        0.060943   -0.077028   -0.162258
      3          6           0       -1.062797   -0.937270    0.030282
      4          6           0       -2.328365   -0.236053   -0.446173
      5          1           0       -0.917078   -1.870226   -0.529966
      6          6           0        2.677840    1.019748   -0.244567
      7          1           0        2.592782    1.248752   -1.309880
      8          1           0        3.730315    0.818653   -0.022270
      9          1           0        2.373937    1.904409    0.320793
     10          6           0       -2.645041    1.042188    0.332888
     11          1           0       -3.158971   -0.946949   -0.362299
     12          1           0       -2.213771   -0.006943   -1.510920
     13          1           0       -2.806150    0.827937    1.394436
     14          1           0       -3.547977    1.524215   -0.050682
     15          1           0       -1.820197    1.752838    0.255145
     16          1           0       -1.153319   -1.196565    1.094854
     17          1           0        2.052466   -1.659739   -0.552901
     18          1           0        1.752174   -0.770720    1.653812
 ---------------------------------------------------------------------

 SCF Done:  E(RHF) =  -522.608074726     A.U. after    2 cycles

 The electronic state is 1-A.
 Alpha  occ. eigenvalues --  -69.54461 -20.52849 -11.28795 -11.22882 -11.21911
 Alpha  occ. eigenvalues --  -11.21503  -6.21107  -3.96593  -3.96448  -3.96423
 Alpha  occ. eigenvalues --   -1.43189  -1.05272  -0.95498  -0.92032  -0.80517
 Alpha  occ. eigenvalues --   -0.73003  -0.65352  -0.62958  -0.60254  -0.58434
 Alpha  occ. eigenvalues --   -0.56759  -0.55083  -0.53346  -0.51426  -0.49062
 Alpha  occ. eigenvalues --   -0.47731  -0.46785  -0.44465  -0.42296
 Alpha virt. eigenvalues --    0.03808   0.03838   0.04074   0.04140   0.05472
 Alpha virt. eigenvalues --    0.05912   0.06510   0.07027   0.07294   0.08439
 Alpha virt. eigenvalues --    0.08945   0.09441   0.10177   0.11279   0.11929

 Mulliken charges:
               1
     1  Si   1.941730
     2  O   -1.775886
     3  C    0.663730
     4  C   -0.477962
     5  H    0.076221
     6  C   -0.659241
     7  H    0.092707
     8  H   -0.017652
     9  H    0.097105
    10  C   -0.321727
    11  H    0.172671
    12  H    0.166554
    13  H    0.152168
    14  H    0.095776
    15  H    0.202142
    16  H    0.089107
    17  H   -0.244561
    18  H   -0.252883
 Sum of Mulliken charges =  -0.00000

 Dipole moment (field-independent basis, Debye):
    X=             -0.2097    Y=             -0.3114    Z=              0.0514  Tot=              0.3789

 Test job not archived.
 1\1\GINC-SE344\SP\RHF\Aug-CC-pVDZ\C4H12O1Si1\OHZDE\09-Apr-2025\0\\#t h
 f aug-cc-pvdz iop(5/13=1,5/36=2,99/5=2) pseudo=read geom=check guess=(
 read,tcheck) scf=(maxcycle=1)\\title\\0,1\Si,0,1.62703,-0.452937,0.205
 955\O,0,0.060943,-0.077028,-0.162258\C,0,-1.062797,-0.93727,0.030282\C
 ,0,-2.328365,-0.236053,-0.446173\H,0,-0.917078,-1.870226,-0.529966\C,0
 ,2.67784,1.019748,-0.244567\H,0,2.592782,1.248752,-1.30988\H,0,3.73031
 5,0.818653,-0.02227\H,0,2.373937,1.904409,0.320793\C,0,-2.645041,1.042
 188,0.332888\H,0,-3.158971,-0.946949,-0.362299\H,0,-2.213771,-0.006943

 Normal termination of Gaussian 16 at Wed Apr  9 00:07:09 2025.
