 Gaussian 16, Revision C.01,

 ----------------------------------------------------------------------
 #t hf aug-cc-pvdz symm=none int=(grid=ultrafine) guess=(read,tcheck) s
 table=(opt,rrhf)
 ----------------------------------------------------------------------
 -----
 title
 -----
 Symbolic Z-matrix:
 Charge =  0 Multiplicity = 1

 SCF Done:  E(RHF) =  -1203.42179794     A.U. after   13 cycles
 Normal termination of Gaussian 16 at Wed Apr  9 00:12:43 2025.
 Gaussian 16:  ES64L-G16RevC.01  3-Jul-2019

 ----------------------------------------------------------------------
 #t hf aug-cc-pvdz iop(5/13=1,5/36=2,99/5=2) pseudo=read geom=check gue
 ss=(read,tcheck) scf=(maxcycle=1)
 ----------------------------------------------------------------------
 -----
 title
 -----
 Structure from the checkpoint file:  "BDE49_nonexpt_2425_mol1.chk"
 Charge =  0 Multiplicity = 1

                         Standard orientation:
 ---------------------------------------------------------------------
 Center     Atomic      Atomic             Coordinates (Angstroms)
 Number     Number       Type             X           Y           Z
 ---------------------------------------------------------------------
      1         14           0        2.553081   -0.398257    0.006351
      2         14           0        0.733087    1.098129    0.046294
      3         16           0       -1.163252   -0.077405   -0.150994
      4          1           0        0.685849    2.007615   -1.118219
      5          1           0        0.585189    1.861726    1.303976
      6          8           0       -2.331374    0.770700   -0.028662
      7          8           0       -1.106845   -0.978751    1.232812
      8          8           0       -1.017181   -1.005931   -1.243798
      9          1           0        3.787506    0.394727    0.217173
     10          1           0        2.603674   -1.066200   -1.310283
     11          1           0        2.402788   -1.387739    1.093587
     12          1           0       -1.816119   -0.658006    1.809835
 ---------------------------------------------------------------------

 SCF Done:  E(RHF) =  -1203.77363419     A.U. after    2 cycles

 The electronic state is 1-A.
 Alpha  occ. eigenvalues --  -94.22025 -69.58617 -69.55734 -20.61621 -20.55368
 Alpha  occ. eigenvalues --  -20.55113  -8.47042  -6.45130  -6.44996  -6.44751
 Alpha  occ. eigenvalues --   -6.25732  -6.22922  -4.01101  -4.00980  -4.00959
 Alpha  occ. eigenvalues --   -3.98299  -3.98268  -3.98260  -1.60036  -1.47921
 Alpha  occ. eigenvalues --   -1.45370  -0.94610  -0.81444  -0.76063  -0.73161
 Alpha  occ. eigenvalues --   -0.68858  -0.66943  -0.63342  -0.56566  -0.54304
 Alpha  occ. eigenvalues --   -0.52077  -0.51253  -0.50799  -0.50339  -0.47961
 Alpha  occ. eigenvalues --   -0.45713  -0.42878
 Alpha virt. eigenvalues --    0.02835   0.03281   0.04187   0.05317   0.06217
 Alpha virt. eigenvalues --    0.06572   0.07010   0.07673   0.08515   0.08863
 Alpha virt. eigenvalues --    0.09031   0.09671   0.10840   0.11942   0.13021

 Mulliken charges:
               1
     1  Si   0.281399
     2  Si   0.779102
     3  S    3.062786
     4  H   -0.139112
     5  H   -0.115474
     6  O   -1.425825
     7  O   -1.215206
     8  O   -1.396605
     9  H   -0.109044
    10  H   -0.055445
    11  H   -0.057153
    12  H    0.390578
 Sum of Mulliken charges =  -0.00000

 Dipole moment (field-independent basis, Debye):
    X=              3.6595    Y=              1.6108    Z=              2.5813  Tot=              4.7592

 Test job not archived.
 1\1\GINC-SE403\SP\RHF\Aug-CC-pVDZ\H6O3S1Si2\OHZDE\09-Apr-2025\0\\#t hf
  aug-cc-pvdz iop(5/13=1,5/36=2,99/5=2) pseudo=read geom=check guess=(r
 ead,tcheck) scf=(maxcycle=1)\\title\\0,1\Si,0,2.553081,-0.398257,0.006
 351\Si,0,0.733087,1.098129,0.046294\S,0,-1.163252,-0.077405,-0.150994\
 H,0,0.685849,2.007615,-1.118219\H,0,0.585189,1.861726,1.303976\O,0,-2.
 331374,0.7707,-0.028662\O,0,-1.106845,-0.978751,1.232812\O,0,-1.017181
 ,-1.005931,-1.243798\H,0,3.787506,0.394727,0.217173\H,0,2.603674,-1.06
 62,-1.310283\H,0,2.402788,-1.387739,1.093587\H,0,-1.816119,-0.658006,1

 Normal termination of Gaussian 16 at Wed Apr  9 00:12:48 2025.
