 Gaussian 16, Revision C.01,

 ----------------------------------------------------------------------
 #t hf aug-cc-pvdz symm=none int=(grid=ultrafine) guess=(read,tcheck) s
 table=opt
 ----------------------------------------------------------------------
 -----
 title
 -----
 Symbolic Z-matrix:
 Charge =  0 Multiplicity = 2

 SCF Done:  E(UHF) =  -498.490517110     A.U. after   15 cycles

 1\1\GINC-SE080\Stability\UHF\Aug-CC-pVDZ\C1H2Cl1\OHZDE\08-Apr-2025\0\\
 #t hf aug-cc-pvdz symm=none int=(grid=ultrafine) guess=(read,tcheck) s
 table=opt\\title\\0,2\C,0,0.,0.,-1.122869\Cl,0,0.,0.,0.587038\H,0,0.,0
 .95559,-1.621219\H,0,0.,-0.95559,-1.621219\\Version=ES64L-G16RevC.01\H
 F=-498.4905171\S2=0.766722\S2-1=0.\S2A=0.750202\RMSD=2.969e-09\Dipole=
 0.,0.,-0.5957451\Quadrupole=-1.3926887,0.1750719,1.2176168,0.,0.,0.\PG
 =Unknown\\@
 The archive entry for this job was punched.

 Normal termination of Gaussian 16 at Tue Apr  8 22:29:15 2025.
 Gaussian 16:  ES64L-G16RevC.01  3-Jul-2019

 ----------------------------------------------------------------------
 #t hf aug-cc-pvdz iop(5/13=1,5/36=2,99/5=2) pseudo=read geom=check gue
 ss=(read,tcheck) scf=(maxcycle=1)
 ----------------------------------------------------------------------
 -----
 title
 -----
 Structure from the checkpoint file:  "BDE49_expt_1013_mol3.chk"
 Charge =  0 Multiplicity = 2

                         Standard orientation:
 ---------------------------------------------------------------------
 Center     Atomic      Atomic             Coordinates (Angstroms)
 Number     Number       Type             X           Y           Z
 ---------------------------------------------------------------------
      1          6           0        0.000000   -0.000000   -1.122869
      2         17           0        0.000000    0.000000    0.587038
      3          1           0        0.000000    0.955590   -1.621219
      4          1           0       -0.000000   -0.955590   -1.621219
 ---------------------------------------------------------------------

 SCF Done:  E(UHF) =  -498.607524770     A.U. after    2 cycles

 The electronic state is 2-B1.
 Alpha  occ. eigenvalues -- -105.57884 -11.31189 -10.62705  -7.79503  -7.79468
 Alpha  occ. eigenvalues --   -7.79242  -1.12893  -0.90071  -0.66090  -0.59563
 Alpha  occ. eigenvalues --   -0.55221  -0.46232  -0.37162
 Alpha virt. eigenvalues --    0.03657   0.05003   0.07547   0.11249   0.13710
 Alpha virt. eigenvalues --    0.15913   0.16300   0.16576   0.17779   0.23225
 Alpha virt. eigenvalues --    0.25456   0.29623   0.30818   0.32479   0.42079

  Beta  occ. eigenvalues -- -105.57839 -11.28545 -10.62657  -7.79769  -7.79211
  Beta  occ. eigenvalues --   -7.79001  -1.10096  -0.83270  -0.64599  -0.58352
  Beta  occ. eigenvalues --   -0.48524  -0.46082
  Beta virt. eigenvalues --    0.03831   0.05036   0.06758   0.07709   0.13872
  Beta virt. eigenvalues --    0.14813   0.16296   0.16555   0.17949   0.18564
  Beta virt. eigenvalues --    0.25791   0.26198   0.29969   0.31030   0.33769

 Mulliken charges and spin densities:
               1          2
     1  C   -0.238972   1.243129
     2  Cl  -0.054898  -0.027124
     3  H    0.146935  -0.108002
     4  H    0.146935  -0.108002
 Sum of Mulliken charges =   0.00000   1.00000

 Dipole moment (field-independent basis, Debye):
    X=             -0.0000    Y=             -0.0000    Z=             -1.5216  Tot=              1.5216
                          Isotropic Fermi Contact Couplings
        Atom                 a.u.       MegaHertz       Gauss      10(-4) cm-1
     1  C(13)              0.22573     253.76375      90.54922      84.64648
     2  Cl(35)             0.03203      14.04286       5.01084       4.68419
     3  H(1)              -0.02619    -117.06024     -41.77001     -39.04709
     4  H(1)              -0.02619    -117.06024     -41.77001     -39.04709
 --------------------------------------------------------
       Center         ----  Spin Dipole Couplings  ----
                      3XX-RR        3YY-RR        3ZZ-RR
 --------------------------------------------------------

 Normal termination of Gaussian 16 at Tue Apr  8 22:29:17 2025.
