 Gaussian 16, Revision C.01,

 ----------------------------------------------------------------------
 #t hf aug-cc-pvdz symm=none int=(grid=ultrafine) guess=(read,tcheck) s
 table=(opt,rrhf)
 ----------------------------------------------------------------------
 -----
 title
 -----
 Symbolic Z-matrix:
 Charge =  0 Multiplicity = 1

 SCF Done:  E(RHF) =  -955.563616794     A.U. after   14 cycles
 Normal termination of Gaussian 16 at Wed Apr  9 00:16:14 2025.
 Gaussian 16:  ES64L-G16RevC.01  3-Jul-2019

 ----------------------------------------------------------------------
 #t hf aug-cc-pvdz iop(5/13=1,5/36=2,99/5=2) pseudo=read geom=check gue
 ss=(read,tcheck) scf=(maxcycle=1)
 ----------------------------------------------------------------------
 -----
 title
 -----
 Structure from the checkpoint file:  "BDE49_nonexpt_2520_mol1.chk"
 Charge =  0 Multiplicity = 1

                         Standard orientation:
 ---------------------------------------------------------------------
 Center     Atomic      Atomic             Coordinates (Angstroms)
 Number     Number       Type             X           Y           Z
 ---------------------------------------------------------------------
      1         16           0       -0.208031   -0.514833    0.166020
      2          6           0        1.205613    0.453299   -0.510103
      3         14           0       -2.119166    0.590353   -0.285064
      4          8           0       -0.060908   -0.568427    1.619928
      5          8           0       -0.287379   -1.753361   -0.607975
      6          6           0        1.320519    1.803036    0.194055
      7          1           0        0.424816    2.417151    0.069408
      8          1           0        2.161977    2.363145   -0.222760
      9          1           0        1.492008    1.663135    1.262841
     10          6           0        2.460697   -0.412749   -0.377467
     11          1           0        0.947324    0.578779   -1.566532
     12          1           0        3.303834    0.101683   -0.845774
     13          1           0        2.326056   -1.378414   -0.865396
     14          1           0        2.702222   -0.583641    0.673695
     15          1           0       -2.173048    1.855662    0.472850
     16          1           0       -3.146073   -0.366082    0.162397
     17          1           0       -2.176967    0.833757   -1.740677
 ---------------------------------------------------------------------

 SCF Done:  E(RHF) =  -955.939102775     A.U. after    2 cycles

 The electronic state is 1-A.
 Alpha  occ. eigenvalues --  -94.16136 -69.58200 -20.52500 -20.52449 -11.29261
 Alpha  occ. eigenvalues --  -11.25555 -11.24540  -8.41811  -6.39886  -6.39643
 Alpha  occ. eigenvalues --   -6.39582  -6.25219  -4.00612  -4.00519  -4.00518
 Alpha  occ. eigenvalues --   -1.53209  -1.41776  -1.11438  -0.96306  -0.94170
 Alpha  occ. eigenvalues --   -0.82613  -0.76434  -0.68846  -0.65694  -0.64780
 Alpha  occ. eigenvalues --   -0.62541  -0.59157  -0.57301  -0.56532  -0.53793
 Alpha  occ. eigenvalues --   -0.52858  -0.52340  -0.51952  -0.48148  -0.46120
 Alpha  occ. eigenvalues --   -0.44915  -0.39199
 Alpha virt. eigenvalues --    0.02545   0.03138   0.04103   0.04470   0.05688
 Alpha virt. eigenvalues --    0.06145   0.06346   0.07185   0.07714   0.08154
 Alpha virt. eigenvalues --    0.09321   0.09763   0.10447   0.11110   0.12936

 Mulliken charges:
               1
     1  S    3.019605
     2  C   -1.723554
     3  Si   0.860641
     4  O   -1.546948
     5  O   -1.539908
     6  C    0.022284
     7  H    0.104608
     8  H    0.177834
     9  H    0.263722
    10  C   -0.039671
    11  H    0.169275
    12  H    0.180868
    13  H    0.177007
    14  H    0.254002
    15  H   -0.110181
    16  H   -0.167195
    17  H   -0.102390
 Sum of Mulliken charges =  -0.00000

 Dipole moment (field-independent basis, Debye):
    X=             -0.0343    Y=              4.5339    Z=             -2.2531  Tot=              5.0630

 Test job not archived.
 1\1\GINC-SE365\SP\RHF\Aug-CC-pVDZ\C3H10O2S1Si1\OHZDE\09-Apr-2025\0\\#t
  hf aug-cc-pvdz iop(5/13=1,5/36=2,99/5=2) pseudo=read geom=check guess
 =(read,tcheck) scf=(maxcycle=1)\\title\\0,1\S,0,-0.208031,-0.514833,0.
 16602\C,0,1.205613,0.453299,-0.510103\Si,0,-2.119166,0.590353,-0.28506
 4\O,0,-0.060908,-0.568427,1.619928\O,0,-0.287379,-1.753361,-0.607975\C
 ,0,1.320519,1.803036,0.194055\H,0,0.424816,2.417151,0.069408\H,0,2.161
 977,2.363145,-0.22276\H,0,1.492008,1.663135,1.262841\C,0,2.460697,-0.4
 12749,-0.377467\H,0,0.947324,0.578779,-1.566532\H,0,3.303834,0.101683,

 Normal termination of Gaussian 16 at Wed Apr  9 00:16:20 2025.
