 Gaussian 16, Revision C.01,

 ----------------------------------------------------------------------
 #t hf aug-cc-pvdz symm=none int=(grid=ultrafine) guess=(read,tcheck) s
 table=(opt,rrhf)
 ----------------------------------------------------------------------
 -----
 title
 -----
 Symbolic Z-matrix:
 Charge =  0 Multiplicity = 1

 SCF Done:  E(RHF) =  -342.464289456     A.U. after   16 cycles
 Normal termination of Gaussian 16 at Tue Apr  8 23:20:52 2025.
 Gaussian 16:  ES64L-G16RevC.01  3-Jul-2019

 ----------------------------------------------------------------------
 #t hf aug-cc-pvdz iop(5/13=1,5/36=2,99/5=2) pseudo=read geom=check gue
 ss=(read,tcheck) scf=(maxcycle=1)
 ----------------------------------------------------------------------
 -----
 title
 -----
 Structure from the checkpoint file:  "BDE49_nonexpt_1158_mol1.chk"
 Charge =  0 Multiplicity = 1

                         Standard orientation:
 ---------------------------------------------------------------------
 Center     Atomic      Atomic             Coordinates (Angstroms)
 Number     Number       Type             X           Y           Z
 ---------------------------------------------------------------------
      1          9           0        2.119531   -0.371861   -0.279336
      2          8           0        1.105529    0.580520    0.254708
      3          6           0       -0.036025   -0.128245    0.323160
      4          7           0       -1.030090    0.378723   -0.292950
      5          1           0       -0.058449   -1.026823    0.935718
      6          8           0       -2.196450   -0.292415    0.017360
      7          1           0       -2.863186    0.187142   -0.486550
 ---------------------------------------------------------------------

 SCF Done:  E(RHF) =  -342.790789518     A.U. after    2 cycles

 The electronic state is 1-A.
 Alpha  occ. eigenvalues --  -26.52420 -20.71254 -20.62440 -15.60952 -11.37024
 Alpha  occ. eigenvalues --   -1.66697  -1.54854  -1.42668  -1.19716  -0.87306
 Alpha  occ. eigenvalues --   -0.79732  -0.75246  -0.71233  -0.69677  -0.66572
 Alpha  occ. eigenvalues --   -0.63320  -0.60366  -0.55257  -0.52334  -0.43782
 Alpha virt. eigenvalues --    0.03553   0.04911   0.05352   0.09493   0.10117
 Alpha virt. eigenvalues --    0.11858   0.14052   0.14611   0.16605   0.18031
 Alpha virt. eigenvalues --    0.19635   0.19924   0.22679   0.23714   0.25201

 Mulliken charges:
               1
     1  F   -0.341562
     2  O   -0.574749
     3  C    0.410623
     4  N    1.081385
     5  H    0.154602
     6  O   -1.051199
     7  H    0.320900
 Sum of Mulliken charges =   0.00000

 Dipole moment (field-independent basis, Debye):
    X=             -1.8215    Y=             -0.7834    Z=              0.6920  Tot=              2.1001

 Test job not archived.
 1\1\GINC-SE424\SP\RHF\Aug-CC-pVDZ\C1H2F1N1O2\OHZDE\08-Apr-2025\0\\#t h
 f aug-cc-pvdz iop(5/13=1,5/36=2,99/5=2) pseudo=read geom=check guess=(
 read,tcheck) scf=(maxcycle=1)\\title\\0,1\F,0,-2.119531,0.371861,-0.27
 9336\O,0,-1.105529,-0.58052,0.254708\C,0,0.036025,0.128245,0.32316\N,0
 ,1.03009,-0.378723,-0.29295\H,0,0.058449,1.026823,0.935718\O,0,2.19645
 ,0.292415,0.01736\H,0,2.863186,-0.187142,-0.48655\\Version=ES64L-G16Re
 vC.01\State=1-A\HF=-342.7907895\RMSD=1.190e-02\Dipole=0.7166173,0.3082
 027,0.2722502\Quadrupole=1.4108903,-1.0640245,-0.3468657,-1.3659646,-1

 Normal termination of Gaussian 16 at Tue Apr  8 23:20:53 2025.
