 Gaussian 16, Revision C.01,

 ----------------------------------------------------------------------
 #t hf aug-cc-pvdz symm=none int=(grid=ultrafine) guess=(read,tcheck) s
 table=(opt,rrhf)
 ----------------------------------------------------------------------
 -----
 title
 -----
 Symbolic Z-matrix:
 Charge =  0 Multiplicity = 1

 SCF Done:  E(RHF) =  -1028.40634297     A.U. after   16 cycles
 Normal termination of Gaussian 16 at Tue Apr  8 23:12:44 2025.
 Gaussian 16:  ES64L-G16RevC.01  3-Jul-2019

 ----------------------------------------------------------------------
 #t hf aug-cc-pvdz iop(5/13=1,5/36=2,99/5=2) pseudo=read geom=check gue
 ss=(read,tcheck) scf=(maxcycle=1)
 ----------------------------------------------------------------------
 -----
 title
 -----
 Structure from the checkpoint file:  "BDE49_expt_441_mol1.chk"
 Charge =  0 Multiplicity = 1

                         Standard orientation:
 ---------------------------------------------------------------------
 Center     Atomic      Atomic             Coordinates (Angstroms)
 Number     Number       Type             X           Y           Z
 ---------------------------------------------------------------------
      1          6           0       -2.171246   -1.180112    0.302618
      2          6           0       -0.847094   -0.770949    0.342323
      3          6           0       -3.162964   -0.254740   -0.017132
      4          6           0       -2.839256    1.066359   -0.295964
      5          6           0       -1.506143    1.465111   -0.247311
      6          6           0       -0.484574    0.559419    0.070618
      7          1           0       -2.439184   -2.205513    0.522637
      8          1           0       -0.071013   -1.482351    0.590999
      9          1           0       -3.617158    1.774322   -0.550674
     10          1           0       -1.273592    2.495478   -0.485053
     11          6           0        0.940287    0.969946    0.101595
     12          6           0        1.319831    2.426207    0.242200
     13          1           0        1.743207    2.824478   -0.687174
     14          1           0        2.072092    2.551504    1.028277
     15          1           0        0.469384    3.045355    0.516953
     16          7           0        1.812553    0.024868    0.006603
     17          7           0        3.129356    0.334915    0.020457
     18          6           0        4.129028   -0.624085   -0.089611
     19          6           0        3.678552   -2.061298   -0.193612
     20          1           0        3.004550   -2.197800   -1.041162
     21          1           0        3.129638   -2.357665    0.702947
     22          1           0        4.564694   -2.681822   -0.309497
     23          8           0        5.289231   -0.266595   -0.093086
     24          1           0        3.463270    1.292754    0.071579
     25         17           0       -4.840683   -0.765860   -0.064642
 ---------------------------------------------------------------------

 SCF Done:  E(RHF) =  -1029.06233153     A.U. after    2 cycles

 The electronic state is 1-A.
 Alpha  occ. eigenvalues -- -105.57937 -20.51795 -15.56709 -15.55934 -11.36713
 Alpha  occ. eigenvalues --  -11.32098 -11.30911 -11.27286 -11.26997 -11.26747
 Alpha  occ. eigenvalues --  -11.26678 -11.26626 -11.26399 -11.24579 -10.62727
 Alpha  occ. eigenvalues --   -7.79693  -7.79295  -7.79279  -1.46880  -1.34659
 Alpha  occ. eigenvalues --   -1.20124  -1.16729  -1.10380  -1.04778  -1.03212
 Alpha  occ. eigenvalues --   -1.00824  -0.99690  -0.89621  -0.86546  -0.83071
 Alpha  occ. eigenvalues --   -0.82703  -0.74968  -0.70686  -0.68648  -0.67306
 Alpha  occ. eigenvalues --   -0.66544  -0.65277  -0.63347  -0.62543  -0.61840
 Alpha  occ. eigenvalues --   -0.61089  -0.57838  -0.56943  -0.56778  -0.56120
 Alpha  occ. eigenvalues --   -0.54541  -0.53621  -0.51024  -0.49678  -0.48605
 Alpha  occ. eigenvalues --   -0.47163  -0.43302  -0.40771  -0.37101  -0.33633
 Alpha virt. eigenvalues --    0.02588   0.03218   0.03569   0.03968   0.04754
 Alpha virt. eigenvalues --    0.04818   0.05479   0.05857   0.06015   0.07137
 Alpha virt. eigenvalues --    0.07525   0.08200   0.08786   0.09223   0.10131

 Mulliken charges:
               1
     1  C    0.194694
     2  C    0.207016
     3  C   -0.417094
     4  C    0.200964
     5  C    0.406916
     6  C    2.102253
     7  H   -0.196838
     8  H   -0.315103
     9  H   -0.206967
    10  H   -0.321581
    11  C   -2.608841
    12  C   -0.530974
    13  H    0.349544
    14  H    0.268439
    15  H    0.007709
    16  N    0.631567
    17  N    0.529333
    18  C    0.845795
    19  C   -0.318459
    20  H    0.287235
    21  H    0.275519
    22  H    0.106880
    23  O   -1.221413
    24  H    0.046975
    25  Cl  -0.323569
 Sum of Mulliken charges =  -0.00000

 Dipole moment (field-independent basis, Debye):
    X=             -2.2815    Y=              2.0316    Z=              0.2547  Tot=              3.0656

 Test job not archived.
 1\1\GINC-SE284\SP\RHF\Aug-CC-pVDZ\C10H11Cl1N2O1\OHZDE\08-Apr-2025\0\\#
 t hf aug-cc-pvdz iop(5/13=1,5/36=2,99/5=2) pseudo=read geom=check gues
 s=(read,tcheck) scf=(maxcycle=1)\\title\\0,1\C,0,-2.171246,-1.180112,0
 .302618\C,0,-0.847094,-0.770949,0.342323\C,0,-3.162964,-0.25474,-0.017
 132\C,0,-2.839256,1.066359,-0.295964\C,0,-1.506143,1.465111,-0.247311\
 C,0,-0.484574,0.559419,0.070618\H,0,-2.439184,-2.205513,0.522637\H,0,-
 0.071013,-1.482351,0.590999\H,0,-3.617158,1.774322,-0.550674\H,0,-1.27
 3592,2.495478,-0.485053\C,0,0.940287,0.969946,0.101595\C,0,1.319831,2.

 Normal termination of Gaussian 16 at Tue Apr  8 23:13:07 2025.
