 Gaussian 16, Revision C.01,

 ----------------------------------------------------------------------
 #t hf aug-cc-pvdz symm=none int=(grid=ultrafine) guess=(read,tcheck) s
 table=(opt,rrhf)
 ----------------------------------------------------------------------
 -----
 title
 -----
 Symbolic Z-matrix:
 Charge =  0 Multiplicity = 1

 SCF Done:  E(RHF) =  -1507.06446985     A.U. after   16 cycles
 Normal termination of Gaussian 16 at Wed Apr  9 00:17:35 2025.
 Gaussian 16:  ES64L-G16RevC.01  3-Jul-2019

 ----------------------------------------------------------------------
 #t hf aug-cc-pvdz iop(5/13=1,5/36=2,99/5=2) pseudo=read geom=check gue
 ss=(read,tcheck) scf=(maxcycle=1)
 ----------------------------------------------------------------------
 -----
 title
 -----
 Structure from the checkpoint file:  "BDE49_nonexpt_2541_mol1.chk"
 Charge =  0 Multiplicity = 1

                         Standard orientation:
 ---------------------------------------------------------------------
 Center     Atomic      Atomic             Coordinates (Angstroms)
 Number     Number       Type             X           Y           Z
 ---------------------------------------------------------------------
      1         17           0        2.688156   -0.114336   -0.066593
      2         16           0        1.003598   -1.263511   -0.379747
      3          6           0       -0.300690   -0.069448   -0.027507
      4          7           0       -1.587627   -0.907057    0.112039
      5          8           0       -2.490983   -0.430594    0.748392
      6          8           0       -1.548182   -1.981503   -0.459479
      7          7           0       -0.160223    0.728064    1.316479
      8          8           0        0.228976    0.073504    2.253456
      9          8           0       -0.500440    1.885362    1.285241
     10          7           0       -0.530126    0.960035   -1.170354
     11          8           0       -1.596329    0.901622   -1.740777
     12          8           0        0.406176    1.690272   -1.391092
 ---------------------------------------------------------------------

 SCF Done:  E(RHF) =  -1507.80314321     A.U. after    2 cycles

 The electronic state is 1-A.
 Alpha  occ. eigenvalues -- -105.64158 -94.09882 -20.67157 -20.66559 -20.66190
 Alpha  occ. eigenvalues --  -20.65900 -20.65872 -20.65565 -15.87469 -15.86805
 Alpha  occ. eigenvalues --  -15.86551 -11.52125 -10.68818  -8.37452  -7.85775
 Alpha  occ. eigenvalues --   -7.85294  -7.85239  -6.35185  -6.34991  -6.34644
 Alpha  occ. eigenvalues --   -1.75929  -1.74582  -1.74083  -1.59667  -1.59143
 Alpha  occ. eigenvalues --   -1.58563  -1.28683  -1.17217  -1.07228  -1.06409
 Alpha  occ. eigenvalues --   -1.01767  -0.90881  -0.89008  -0.88665  -0.82758
 Alpha  occ. eigenvalues --   -0.81609  -0.81332  -0.80572  -0.80175  -0.79923
 Alpha  occ. eigenvalues --   -0.70538  -0.61803  -0.59438  -0.59279  -0.56119
 Alpha  occ. eigenvalues --   -0.55933  -0.55346  -0.54586  -0.54208  -0.52580
 Alpha  occ. eigenvalues --   -0.51465  -0.50698  -0.49929  -0.44494
 Alpha virt. eigenvalues --   -0.01542  -0.00562   0.00102   0.01341   0.05354
 Alpha virt. eigenvalues --    0.07696   0.08984   0.09715   0.11347   0.11716
 Alpha virt. eigenvalues --    0.12058   0.12369   0.12577   0.13056   0.15197

 Mulliken charges:
               1
     1  Cl  -0.253286
     2  S    0.820614
     3  C   -1.464864
     4  N    3.193670
     5  O   -1.456717
     6  O   -1.412924
     7  N    3.135005
     8  O   -1.485787
     9  O   -1.418085
    10  N    3.189145
    11  O   -1.385776
    12  O   -1.460994
 Sum of Mulliken charges =   0.00000

 Dipole moment (field-independent basis, Debye):
    X=              1.9274    Y=             -1.5387    Z=             -0.3920  Tot=              2.4972

 Test job not archived.
 1\1\GINC-SE253\SP\RHF\Aug-CC-pVDZ\C1Cl1N3O6S1\OHZDE\09-Apr-2025\0\\#t
 hf aug-cc-pvdz iop(5/13=1,5/36=2,99/5=2) pseudo=read geom=check guess=
 (read,tcheck) scf=(maxcycle=1)\\title\\0,1\Cl,0,2.688156,-0.114336,-0.
 066593\S,0,1.003598,-1.263511,-0.379747\C,0,-0.30069,-0.069448,-0.0275
 07\N,0,-1.587627,-0.907057,0.112039\O,0,-2.490983,-0.430594,0.748392\O
 ,0,-1.548182,-1.981503,-0.459479\N,0,-0.160223,0.728064,1.316479\O,0,0
 .228976,0.073504,2.253456\O,0,-0.50044,1.885362,1.285241\N,0,-0.530126
 ,0.960035,-1.170354\O,0,-1.596329,0.901622,-1.740777\O,0,0.406176,1.69

 Normal termination of Gaussian 16 at Wed Apr  9 00:17:46 2025.
