 Gaussian 16, Revision C.01,

 ----------------------------------------------------------------------
 #t hf aug-cc-pvdz symm=none int=(grid=ultrafine) guess=(read,tcheck) s
 table=(opt,rrhf)
 ----------------------------------------------------------------------
 -----
 title
 -----
 Symbolic Z-matrix:
 Charge =  0 Multiplicity = 1

 SCF Done:  E(RHF) =  -475.572097186     A.U. after   12 cycles
 Normal termination of Gaussian 16 at Tue Apr  8 23:31:03 2025.
 Gaussian 16:  ES64L-G16RevC.01  3-Jul-2019

 ----------------------------------------------------------------------
 #t hf aug-cc-pvdz iop(5/13=1,5/36=2,99/5=2) pseudo=read geom=check gue
 ss=(read,tcheck) scf=(maxcycle=1)
 ----------------------------------------------------------------------
 -----
 title
 -----
 Structure from the checkpoint file:  "BDE49_nonexpt_1397_mol1.chk"
 Charge =  0 Multiplicity = 1

                         Standard orientation:
 ---------------------------------------------------------------------
 Center     Atomic      Atomic             Coordinates (Angstroms)
 Number     Number       Type             X           Y           Z
 ---------------------------------------------------------------------
      1          6           0        1.006808    1.270089    0.050756
      2          7           0        0.353251    0.004748   -0.258707
      3          1           0        1.114431    1.439668    1.135140
      4          1           0        0.432257    2.098940   -0.366608
      5          1           0        2.006236    1.290383   -0.396815
      6         15           0       -1.334095   -0.167180   -0.004955
      7          6           0        1.174183   -1.164860    0.046563
      8          1           0        2.106273   -1.118981   -0.526502
      9          1           0        0.644279   -2.074851   -0.239648
     10          1           0        1.438703   -1.241618    1.113835
     11          1           0       -1.752893    0.999908   -0.695941
     12          1           0       -1.536568    0.449631    1.277901
 ---------------------------------------------------------------------

 SCF Done:  E(RHF) =  -475.763987345     A.U. after    2 cycles

 The electronic state is 1-A.
 Alpha  occ. eigenvalues --  -84.28732 -15.49421 -11.26204 -11.26185  -6.75462
 Alpha  occ. eigenvalues --   -4.28425  -4.27641  -4.27327  -1.21255  -0.96671
 Alpha  occ. eigenvalues --   -0.91471  -0.79380  -0.64723  -0.64681  -0.63084
 Alpha  occ. eigenvalues --   -0.55720  -0.53424  -0.52455  -0.49786  -0.39218
 Alpha  occ. eigenvalues --   -0.34553
 Alpha virt. eigenvalues --    0.03663   0.04993   0.05073   0.05376   0.06194
 Alpha virt. eigenvalues --    0.06640   0.07302   0.08385   0.09047   0.11909
 Alpha virt. eigenvalues --    0.12551   0.14385   0.15089   0.15518   0.16255

 Mulliken charges:
               1
     1  C   -0.463497
     2  N    0.182099
     3  H    0.180949
     4  H    0.049033
     5  H    0.106645
     6  P   -0.423619
     7  C   -0.507923
     8  H    0.110345
     9  H    0.036852
    10  H    0.191725
    11  H    0.243206
    12  H    0.294184
 Sum of Mulliken charges =  -0.00000

 Dipole moment (field-independent basis, Debye):
    X=              0.9105    Y=              0.4568    Z=              0.5481  Tot=              1.1568

 Test job not archived.
 1\1\GINC-SE253\SP\RHF\Aug-CC-pVDZ\C2H8N1P1\OHZDE\08-Apr-2025\0\\#t hf
 aug-cc-pvdz iop(5/13=1,5/36=2,99/5=2) pseudo=read geom=check guess=(re
 ad,tcheck) scf=(maxcycle=1)\\title\\0,1\C,0,1.006808,1.270089,0.050756
 \N,0,0.353251,0.004748,-0.258707\H,0,1.114431,1.439668,1.13514\H,0,0.4
 32258,2.09894,-0.366608\H,0,2.006236,1.290382,-0.396815\P,0,-1.334095,
 -0.167179,-0.004955\C,0,1.174183,-1.16486,0.046563\H,0,2.106273,-1.118
 982,-0.526502\H,0,0.644278,-2.074851,-0.239648\H,0,1.438703,-1.241618,
 1.113835\H,0,-1.752893,0.999909,-0.695941\H,0,-1.536568,0.449632,1.277

 Normal termination of Gaussian 16 at Tue Apr  8 23:31:07 2025.
