 Gaussian 16, Revision C.01,

 ----------------------------------------------------------------------
 #t hf aug-cc-pvdz symm=none int=(grid=ultrafine) guess=(read,tcheck) s
 table=(opt,rrhf)
 ----------------------------------------------------------------------
 -----
 title
 -----
 Symbolic Z-matrix:
 Charge =  0 Multiplicity = 1

 SCF Done:  E(RHF) =  -2255.09139668     A.U. after   11 cycles
 Normal termination of Gaussian 16 at Wed Apr  9 00:09:40 2025.
 Gaussian 16:  ES64L-G16RevC.01  3-Jul-2019

 ----------------------------------------------------------------------
 #t hf aug-cc-pvdz iop(5/13=1,5/36=2,99/5=2) pseudo=read geom=check gue
 ss=(read,tcheck) scf=(maxcycle=1)
 ----------------------------------------------------------------------
 -----
 title
 -----
 Structure from the checkpoint file:  "BDE49_nonexpt_2325_mol1.chk"
 Charge =  0 Multiplicity = 1

                         Standard orientation:
 ---------------------------------------------------------------------
 Center     Atomic      Atomic             Coordinates (Angstroms)
 Number     Number       Type             X           Y           Z
 ---------------------------------------------------------------------
      1         14           0        1.618905   -0.000021   -0.000100
      2         14           0       -0.720238   -0.000003   -0.000035
      3         17           0       -1.402130   -0.481888    1.875426
      4         17           0       -1.402479   -1.383178   -1.354987
      5          9           0        2.182963    0.368646   -1.434106
      6          9           0        2.182742    1.057585    1.036239
      7         17           0       -1.402329    1.865101   -0.520284
      8          9           0        2.182808   -1.426258    0.397787
 ---------------------------------------------------------------------

 SCF Done:  E(RHF) =  -2255.65267650     A.U. after    2 cycles

 The electronic state is 1-A.
 Alpha  occ. eigenvalues -- -105.60194-105.60194-105.60193 -69.70154 -69.69549
 Alpha  occ. eigenvalues --  -26.50062 -26.50061 -26.50060 -10.65217 -10.65202
 Alpha  occ. eigenvalues --  -10.65201  -7.82103  -7.82094  -7.82094  -7.81761
 Alpha  occ. eigenvalues --   -7.81761  -7.81758  -7.81755  -7.81755  -7.81752
 Alpha  occ. eigenvalues --   -6.35973  -6.35401  -4.11276  -4.11276  -4.11005
 Alpha  occ. eigenvalues --   -4.10743  -4.10743  -4.10560  -1.63902  -1.60534
 Alpha  occ. eigenvalues --   -1.60533  -1.13423  -1.08201  -1.08201  -0.84383
 Alpha  occ. eigenvalues --   -0.76178  -0.74777  -0.74776  -0.70919  -0.68710
 Alpha  occ. eigenvalues --   -0.68710  -0.65998  -0.65998  -0.64199  -0.60735
 Alpha  occ. eigenvalues --   -0.60735  -0.58751  -0.53143  -0.53142  -0.50604
 Alpha  occ. eigenvalues --   -0.50604  -0.49095  -0.46938
 Alpha virt. eigenvalues --    0.04718   0.05037   0.05324   0.05324   0.07737
 Alpha virt. eigenvalues --    0.07989   0.07989   0.09034   0.09392   0.09392
 Alpha virt. eigenvalues --    0.12557   0.12558   0.14029   0.16392   0.16393

 Mulliken charges:
               1
     1  Si   2.779792
     2  Si   1.165421
     3  Cl  -0.490190
     4  Cl  -0.490193
     5  F   -0.824877
     6  F   -0.824887
     7  Cl  -0.490190
     8  F   -0.824876
 Sum of Mulliken charges =  -0.00000

 Dipole moment (field-independent basis, Debye):
    X=             -0.6894    Y=             -0.0001    Z=             -0.0005  Tot=              0.6894

 Test job not archived.
 1\1\GINC-SE247\SP\RHF\Aug-CC-pVDZ\Cl3F3Si2\OHZDE\09-Apr-2025\0\\#t hf
 aug-cc-pvdz iop(5/13=1,5/36=2,99/5=2) pseudo=read geom=check guess=(re
 ad,tcheck) scf=(maxcycle=1)\\title\\0,1\Si,0,-1.618905,-0.000026,0.000
 099\Si,0,0.720238,-0.000005,0.000035\Cl,0,1.40213,-0.392952,-1.896056\
 Cl,0,1.402479,-1.44551,1.288283\F,0,-2.182963,0.300638,1.449889\F,0,-2
 .182742,1.105254,-0.985236\Cl,0,1.402329,1.838503,0.60762\F,0,-2.18280
 8,-1.405922,-0.464573\\Version=ES64L-G16RevC.01\State=1-A\HF=-2255.652
 6765\RMSD=2.517e-03\Dipole=0.2712236,-0.0000437,0.0002019\Quadrupole=-

 Normal termination of Gaussian 16 at Wed Apr  9 00:09:44 2025.
