 Gaussian 16, Revision C.01,

 ----------------------------------------------------------------------
 #t hf aug-cc-pvdz symm=none int=(grid=ultrafine) guess=(read,tcheck) s
 table=(opt,rrhf)
 ----------------------------------------------------------------------
 -----
 title
 -----
 Symbolic Z-matrix:
 Charge =  0 Multiplicity = 1

 SCF Done:  E(RHF) =  -1182.74482824     A.U. after   18 cycles
 Normal termination of Gaussian 16 at Tue Apr  8 23:36:23 2025.
 Gaussian 16:  ES64L-G16RevC.01  3-Jul-2019

 ----------------------------------------------------------------------
 #t hf aug-cc-pvdz iop(5/13=1,5/36=2,99/5=2) pseudo=read geom=check gue
 ss=(read,tcheck) scf=(maxcycle=1)
 ----------------------------------------------------------------------
 -----
 title
 -----
 Structure from the checkpoint file:  "BDE49_nonexpt_1476_mol1.chk"
 Charge =  0 Multiplicity = 1

                         Standard orientation:
 ---------------------------------------------------------------------
 Center     Atomic      Atomic             Coordinates (Angstroms)
 Number     Number       Type             X           Y           Z
 ---------------------------------------------------------------------
      1          6           0        1.597010    0.188512    1.210318
      2          6           0        0.248353   -0.151642    1.215151
      3          6           0        2.333855    0.026911    0.039978
      4          6           0        1.746677   -0.478443   -1.114551
      5          6           0        0.398999   -0.827487   -1.090018
      6          6           0       -0.375069   -0.660792    0.066130
      7          1           0       -0.321669   -0.018846    2.127643
      8          1           0        2.073615    0.576931    2.101207
      9          1           0        2.337270   -0.608087   -2.012240
     10          1           0       -0.052048   -1.243836   -1.984303
     11         15           0       -2.150262   -1.143824    0.011723
     12          6           0       -3.074959    0.516336   -0.026335
     13          8           0       -4.125500    0.593317    0.561336
     14          6           0       -2.519404    1.636047   -0.879050
     15          1           0       -1.596316    2.019701   -0.435756
     16          1           0       -3.256718    2.436217   -0.948777
     17          1           0       -2.266283    1.269283   -1.878053
     18         17           0        4.033259    0.459934    0.025878
     19          1           0       -2.358109   -1.336069    1.394088
 ---------------------------------------------------------------------

 SCF Done:  E(RHF) =  -1183.25068841     A.U. after    2 cycles

 The electronic state is 1-A.
 Alpha  occ. eigenvalues -- -105.58497 -84.29219 -20.55135 -11.35430 -11.32948
 Alpha  occ. eigenvalues --  -11.27685 -11.27637 -11.27418 -11.27347 -11.27307
 Alpha  occ. eigenvalues --  -11.25427 -10.63292  -7.80258  -7.79856  -7.79842
 Alpha  occ. eigenvalues --   -6.76348  -4.29316  -4.28854  -4.28411  -1.48572
 Alpha  occ. eigenvalues --   -1.20108  -1.11508  -1.05080  -1.03430  -1.00832
 Alpha  occ. eigenvalues --   -0.90147  -0.87335  -0.82884  -0.75030  -0.70538
 Alpha  occ. eigenvalues --   -0.68668  -0.66650  -0.63816  -0.63700  -0.63160
 Alpha  occ. eigenvalues --   -0.61550  -0.58087  -0.56803  -0.54515  -0.54350
 Alpha  occ. eigenvalues --   -0.51830  -0.50322  -0.49054  -0.47755  -0.41104
 Alpha  occ. eigenvalues --   -0.37746  -0.37564  -0.33403
 Alpha virt. eigenvalues --    0.03010   0.03340   0.04040   0.04332   0.05443
 Alpha virt. eigenvalues --    0.06019   0.06419   0.06799   0.07145   0.07817
 Alpha virt. eigenvalues --    0.07880   0.09229   0.10007   0.10725   0.11505

 Mulliken charges:
               1
     1  C    0.352786
     2  C    0.598405
     3  C   -0.223729
     4  C    0.407845
     5  C   -0.257301
     6  C    0.278117
     7  H   -0.329010
     8  H   -0.179731
     9  H   -0.187405
    10  H   -0.256650
    11  P    0.269432
    12  C    0.696417
    13  O   -1.275949
    14  C   -0.600492
    15  H    0.277663
    16  H    0.085861
    17  H    0.265793
    18  Cl  -0.305221
    19  H    0.383170
 Sum of Mulliken charges =  -0.00000

 Dipole moment (field-independent basis, Debye):
    X=              1.7336    Y=              0.0910    Z=             -1.0149  Tot=              2.0108

 Test job not archived.
 1\1\GINC-SE339\SP\RHF\Aug-CC-pVDZ\C8H8Cl1O1P1\OHZDE\08-Apr-2025\0\\#t
 hf aug-cc-pvdz iop(5/13=1,5/36=2,99/5=2) pseudo=read geom=check guess=
 (read,tcheck) scf=(maxcycle=1)\\title\\0,1\C,0,-1.59701,0.188512,-1.21
 0318\C,0,-0.248353,-0.151642,-1.215151\C,0,-2.333855,0.026911,-0.03997
 8\C,0,-1.746677,-0.478443,1.114551\C,0,-0.398999,-0.827487,1.090018\C,
 0,0.375069,-0.660792,-0.06613\H,0,0.321669,-0.018846,-2.127643\H,0,-2.
 073615,0.576931,-2.101207\H,0,-2.33727,-0.608087,2.01224\H,0,0.052048,
 -1.243836,1.984303\P,0,2.150262,-1.143824,-0.011723\C,0,3.074959,0.516

 Normal termination of Gaussian 16 at Tue Apr  8 23:36:36 2025.
