 Gaussian 16, Revision C.01,

 ----------------------------------------------------------------------
 #t hf aug-cc-pvdz symm=none int=(grid=ultrafine) guess=(read,tcheck) s
 table=(opt,rrhf)
 ----------------------------------------------------------------------
 -----
 title
 -----
 Symbolic Z-matrix:
 Charge =  0 Multiplicity = 1

 SCF Done:  E(RHF) =  -595.695127299     A.U. after   13 cycles
 Normal termination of Gaussian 16 at Wed Apr  9 00:42:11 2025.
 Gaussian 16:  ES64L-G16RevC.01  3-Jul-2019

 ----------------------------------------------------------------------
 #t hf aug-cc-pvdz iop(5/13=1,5/36=2,99/5=2) pseudo=read geom=check gue
 ss=(read,tcheck) scf=(maxcycle=1)
 ----------------------------------------------------------------------
 -----
 title
 -----
 Structure from the checkpoint file:  "BDE49_nonexpt_690_mol1.chk"
 Charge =  0 Multiplicity = 1

                         Standard orientation:
 ---------------------------------------------------------------------
 Center     Atomic      Atomic             Coordinates (Angstroms)
 Number     Number       Type             X           Y           Z
 ---------------------------------------------------------------------
      1         15           0        0.762392   -0.032099   -0.619009
      2          5           0       -1.095638    0.012601   -0.055919
      3          8           0       -1.755280   -1.174263    0.058729
      4          8           0       -1.807184    1.166486    0.152884
      5          6           0        1.387818   -1.469516    0.387708
      6          1           0        1.262903   -1.325111    1.463641
      7          1           0        2.444890   -1.637452    0.170737
      8          6           0        1.463019    1.419210    0.329517
      9          1           0        2.549314    1.426261    0.214753
     10          1           0        1.226369    1.402755    1.396784
     11          1           0        1.097864    2.355638   -0.102892
     12          1           0        0.831249   -2.360277    0.091523
     13          1           0       -2.689354   -1.047993    0.266043
     14          1           0       -1.286238    1.968709    0.067883
 ---------------------------------------------------------------------

 SCF Done:  E(RHF) =  -596.004560332     A.U. after    2 cycles

 The electronic state is 1-A.
 Alpha  occ. eigenvalues --  -84.24756 -20.56650 -20.55791 -11.24197 -11.23277
 Alpha  occ. eigenvalues --   -7.64831  -6.72022  -4.24522  -4.24502  -4.23756
 Alpha  occ. eigenvalues --   -1.48654  -1.44303  -1.00728  -0.94007  -0.79588
 Alpha  occ. eigenvalues --   -0.75525  -0.71387  -0.61880  -0.59309  -0.57691
 Alpha  occ. eigenvalues --   -0.56959  -0.56812  -0.56048  -0.55142  -0.49619
 Alpha  occ. eigenvalues --   -0.45289  -0.42435  -0.30733
 Alpha virt. eigenvalues --    0.03242   0.04035   0.04282   0.04927   0.06057
 Alpha virt. eigenvalues --    0.06583   0.07184   0.07495   0.08348   0.09225
 Alpha virt. eigenvalues --    0.09641   0.10871   0.12156   0.12589   0.13471

 Mulliken charges:
               1
     1  P    0.297639
     2  B    2.214058
     3  O   -1.258163
     4  O   -1.325784
     5  C   -0.777766
     6  H    0.080790
     7  H    0.097298
     8  C   -0.735667
     9  H    0.077234
    10  H    0.085038
    11  H    0.031814
    12  H    0.075112
    13  H    0.535042
    14  H    0.603355
 Sum of Mulliken charges =  -0.00000

 Dipole moment (field-independent basis, Debye):
    X=              0.1730    Y=              1.2575    Z=              1.1279  Tot=              1.6980

 Test job not archived.
 1\1\GINC-SE106\SP\RHF\Aug-CC-pVDZ\C2H8B1O2P1\OHZDE\09-Apr-2025\0\\#t h
 f aug-cc-pvdz iop(5/13=1,5/36=2,99/5=2) pseudo=read geom=check guess=(
 read,tcheck) scf=(maxcycle=1)\\title\\0,1\P,0,0.762392,-0.032099,-0.61
 9009\B,0,-1.095638,0.012601,-0.055919\O,0,-1.75528,-1.174263,0.058729\
 O,0,-1.807184,1.166486,0.152884\C,0,1.387818,-1.469515,0.387708\H,0,1.
 262903,-1.325111,1.463641\H,0,2.44489,-1.637451,0.170737\C,0,1.463019,
 1.419211,0.329517\H,0,2.549314,1.426262,0.214753\H,0,1.226369,1.402755
 ,1.396784\H,0,1.097863,2.355638,-0.102892\H,0,0.831249,-2.360277,0.091

 Normal termination of Gaussian 16 at Wed Apr  9 00:42:16 2025.
