 Gaussian 16, Revision C.01,

 ----------------------------------------------------------------------
 #t hf aug-cc-pvdz symm=none int=(grid=ultrafine) guess=(read,tcheck) s
 table=(opt,rrhf)
 ----------------------------------------------------------------------
 -----
 title
 -----
 Symbolic Z-matrix:
 Charge =  0 Multiplicity = 1

 SCF Done:  E(RHF) =  -368.343808392     A.U. after   12 cycles
 Normal termination of Gaussian 16 at Wed Apr  9 00:40:53 2025.
 Gaussian 16:  ES64L-G16RevC.01  3-Jul-2019

 ----------------------------------------------------------------------
 #t hf aug-cc-pvdz iop(5/13=1,5/36=2,99/5=2) pseudo=read geom=check gue
 ss=(read,tcheck) scf=(maxcycle=1)
 ----------------------------------------------------------------------
 -----
 title
 -----
 Structure from the checkpoint file:  "BDE49_nonexpt_648_mol1.chk"
 Charge =  0 Multiplicity = 1

                         Standard orientation:
 ---------------------------------------------------------------------
 Center     Atomic      Atomic             Coordinates (Angstroms)
 Number     Number       Type             X           Y           Z
 ---------------------------------------------------------------------
      1          6           0       -1.135340    0.092475   -0.245541
      2          8           0        0.057054   -0.574044    0.220099
      3          5           0        1.302994   -0.078999   -0.028587
      4          8           0        1.477419    1.077324   -0.742628
      5          8           0        2.403039   -0.751815    0.441495
      6          6           0       -2.193164   -0.981767   -0.459669
      7          1           0       -2.410046   -1.494545    0.481481
      8          1           0       -1.844050   -1.723760   -1.181094
      9          6           0       -1.556199    1.151075    0.769180
     10          1           0       -0.906519    0.580100   -1.198290
     11          1           0       -2.473407    1.651750    0.446234
     12          1           0       -0.775852    1.907052    0.878093
     13          1           0       -1.737347    0.690804    1.744581
     14          1           0       -3.119833   -0.540944   -0.836762
     15          1           0        2.409335    1.287335   -0.849460
     16          1           0        2.150876   -1.545217    0.922608
 ---------------------------------------------------------------------

 SCF Done:  E(RHF) =  -368.724037519     A.U. after    2 cycles

 The electronic state is 1-A.
 Alpha  occ. eigenvalues --  -20.55277 -20.55067 -20.53864 -11.29157 -11.22475
 Alpha  occ. eigenvalues --  -11.22391  -7.65869  -1.49253  -1.44048  -1.43683
 Alpha  occ. eigenvalues --   -1.05249  -0.94071  -0.81803  -0.77015  -0.73711
 Alpha  occ. eigenvalues --   -0.69336  -0.63277  -0.61567  -0.57847  -0.56943
 Alpha  occ. eigenvalues --   -0.55829  -0.54911  -0.53959  -0.51897  -0.51200
 Alpha  occ. eigenvalues --   -0.49218  -0.46985  -0.44387
 Alpha virt. eigenvalues --    0.03750   0.04105   0.04139   0.04337   0.06240
 Alpha virt. eigenvalues --    0.06423   0.06749   0.07182   0.07499   0.09351
 Alpha virt. eigenvalues --    0.09536   0.10318   0.11673   0.14177   0.15460

 Mulliken charges:
               1
     1  C    0.500829
     2  O   -1.368600
     3  B    1.956533
     4  O   -1.186169
     5  O   -1.444603
     6  C   -0.302415
     7  H    0.206701
     8  H    0.165079
     9  C   -0.338926
    10  H    0.180245
    11  H    0.177793
    12  H    0.085227
    13  H    0.235803
    14  H    0.189722
    15  H    0.433827
    16  H    0.508954
 Sum of Mulliken charges =  -0.00000

 Dipole moment (field-independent basis, Debye):
    X=             -0.4809    Y=             -0.0932    Z=              0.0115  Tot=              0.4900

 Test job not archived.
 1\1\GINC-SE054\SP\RHF\Aug-CC-pVDZ\C3H9B1O3\OHZDE\09-Apr-2025\0\\#t hf
 aug-cc-pvdz iop(5/13=1,5/36=2,99/5=2) pseudo=read geom=check guess=(re
 ad,tcheck) scf=(maxcycle=1)\\title\\0,1\C,0,-1.13534,0.092475,-0.24554
 1\O,0,0.057054,-0.574044,0.220099\B,0,1.302994,-0.078999,-0.028587\O,0
 ,1.477419,1.077324,-0.742628\O,0,2.403039,-0.751815,0.441495\C,0,-2.19
 3164,-0.981767,-0.459669\H,0,-2.410046,-1.494545,0.481481\H,0,-1.84405
 ,-1.72376,-1.181094\C,0,-1.556199,1.151075,0.76918\H,0,-0.906519,0.580
 1,-1.19829\H,0,-2.473407,1.65175,0.446234\H,0,-0.775852,1.907052,0.878

 Normal termination of Gaussian 16 at Wed Apr  9 00:40:59 2025.
