 Gaussian 16, Revision C.01,

 ----------------------------------------------------------------------
 #t hf aug-cc-pvdz symm=none int=(grid=ultrafine) guess=(read,tcheck) s
 table=(opt,rrhf)
 ----------------------------------------------------------------------
 -----
 title
 -----
 Symbolic Z-matrix:
 Charge =  0 Multiplicity = 1

 SCF Done:  E(RHF) =  -728.309474211     A.U. after   15 cycles
 Normal termination of Gaussian 16 at Wed Apr  9 00:24:13 2025.
 Gaussian 16:  ES64L-G16RevC.01  3-Jul-2019

 ----------------------------------------------------------------------
 #t hf aug-cc-pvdz iop(5/13=1,5/36=2,99/5=2) pseudo=read geom=check gue
 ss=(read,tcheck) scf=(maxcycle=1)
 ----------------------------------------------------------------------
 -----
 title
 -----
 Structure from the checkpoint file:  "BDE49_nonexpt_2707_mol1.chk"
 Charge =  0 Multiplicity = 1

                         Standard orientation:
 ---------------------------------------------------------------------
 Center     Atomic      Atomic             Coordinates (Angstroms)
 Number     Number       Type             X           Y           Z
 ---------------------------------------------------------------------
      1          9           0       -2.980794    0.467693   -0.440591
      2          6           0       -0.743427    0.165043    0.251480
      3          6           0       -2.152678   -0.326373    0.357020
      4          1           0       -2.517576   -0.239824    1.386568
      5          1           0       -2.221573   -1.363766    0.024479
      6          7           0        0.204764   -0.650380    0.000054
      7         16           0        1.776224   -0.517989   -0.147502
      8          9           0        2.183550    1.108189    0.095510
      9          1           0       -0.561957    1.229112    0.403343
 ---------------------------------------------------------------------

 SCF Done:  E(RHF) =  -728.681555567     A.U. after    2 cycles

 The electronic state is 1-A.
 Alpha  occ. eigenvalues --  -94.07838 -26.47005 -26.46729 -15.57763 -11.35072
 Alpha  occ. eigenvalues --  -11.33190  -8.34846  -6.32627  -6.32306  -6.31980
 Alpha  occ. eigenvalues --   -1.58626  -1.56834  -1.30751  -1.08834  -0.97284
 Alpha  occ. eigenvalues --   -0.82469  -0.75756  -0.72364  -0.70348  -0.68192
 Alpha  occ. eigenvalues --   -0.65875  -0.64449  -0.58756  -0.58316  -0.55795
 Alpha  occ. eigenvalues --   -0.54232  -0.49795  -0.37330
 Alpha virt. eigenvalues --    0.03556   0.04617   0.05269   0.06069   0.07175
 Alpha virt. eigenvalues --    0.07706   0.08840   0.11404   0.11828   0.12890
 Alpha virt. eigenvalues --    0.14295   0.14489   0.15957   0.16834   0.17682

 Mulliken charges:
               1
     1  F   -0.675058
     2  C   -0.735887
     3  C    0.553616
     4  H    0.175556
     5  H    0.124265
     6  N    0.293536
     7  S    0.933253
     8  F   -0.664654
     9  H   -0.004627
 Sum of Mulliken charges =   0.00000

 Dipole moment (field-independent basis, Debye):
    X=             -0.9954    Y=             -0.7203    Z=              1.3681  Tot=              1.8389

 Test job not archived.
 1\1\GINC-SE284\SP\RHF\Aug-CC-pVDZ\C2H3F2N1S1\OHZDE\09-Apr-2025\0\\#t h
 f aug-cc-pvdz iop(5/13=1,5/36=2,99/5=2) pseudo=read geom=check guess=(
 read,tcheck) scf=(maxcycle=1)\\title\\0,1\F,0,-2.980794,0.467693,-0.44
 0591\C,0,-0.743427,0.165043,0.25148\C,0,-2.152678,-0.326373,0.35702\H,
 0,-2.517576,-0.239824,1.386568\H,0,-2.221573,-1.363766,0.024479\N,0,0.
 204764,-0.65038,0.000054\S,0,1.776224,-0.517989,-0.147502\F,0,2.18355,
 1.108189,0.09551\H,0,-0.561957,1.229112,0.403343\\Version=ES64L-G16Rev
 C.01\State=1-A\HF=-728.6815556\RMSD=1.393e-02\Dipole=-0.3916301,-0.283

 Normal termination of Gaussian 16 at Wed Apr  9 00:24:16 2025.
