 Gaussian 16, Revision C.01,

 ----------------------------------------------------------------------
 #t hf aug-cc-pvdz symm=none int=(grid=ultrafine) guess=(read,tcheck) s
 table=(opt,rrhf)
 ----------------------------------------------------------------------
 -----
 title
 -----
 Symbolic Z-matrix:
 Charge =  0 Multiplicity = 1

 SCF Done:  E(RHF) =  -918.393956253     A.U. after   14 cycles
 Normal termination of Gaussian 16 at Wed Apr  9 00:15:22 2025.
 Gaussian 16:  ES64L-G16RevC.01  3-Jul-2019

 ----------------------------------------------------------------------
 #t hf aug-cc-pvdz iop(5/13=1,5/36=2,99/5=2) pseudo=read geom=check gue
 ss=(read,tcheck) scf=(maxcycle=1)
 ----------------------------------------------------------------------
 -----
 title
 -----
 Structure from the checkpoint file:  "BDE49_nonexpt_2477_mol1.chk"
 Charge =  0 Multiplicity = 1

                         Standard orientation:
 ---------------------------------------------------------------------
 Center     Atomic      Atomic             Coordinates (Angstroms)
 Number     Number       Type             X           Y           Z
 ---------------------------------------------------------------------
      1          6           0        2.237469   -1.299614    0.144663
      2          6           0        0.903127   -1.084557    0.476679
      3          6           0        0.318709    0.184496    0.330319
      4          6           0        1.115964    1.230971   -0.159002
      5          6           0        2.451900    1.017767   -0.492332
      6          6           0        3.013385   -0.247781   -0.340680
      7          1           0        2.672707   -2.285469    0.264599
      8          1           0        0.311705   -1.913490    0.852609
      9          1           0        0.691741    2.222497   -0.279939
     10          1           0        3.052960    1.837864   -0.869024
     11          1           0        4.053210   -0.414944   -0.598865
     12         14           0       -1.471753    0.479403    0.772558
     13         16           0       -2.688461   -0.407040   -0.794778
     14          1           0       -3.858962   -0.230259   -0.153924
     15          1           0       -1.722623    1.935511    0.865697
     16          1           0       -1.824147   -0.158416    2.061595
 ---------------------------------------------------------------------

 SCF Done:  E(RHF) =  -918.727379362     A.U. after    2 cycles

 The electronic state is 1-A.
 Alpha  occ. eigenvalues --  -93.94214 -69.55877 -11.25607 -11.25565 -11.25459
 Alpha  occ. eigenvalues --  -11.24984 -11.24966 -11.24039  -8.22467  -6.22686
 Alpha  occ. eigenvalues --   -6.20286  -6.20174  -6.19953  -3.98074  -3.98005
 Alpha  occ. eigenvalues --   -3.97978  -1.16007  -1.02758  -1.02445  -0.99820
 Alpha  occ. eigenvalues --   -0.84208  -0.84077  -0.74852  -0.69602  -0.64897
 Alpha  occ. eigenvalues --   -0.64207  -0.60749  -0.57291  -0.55934  -0.51755
 Alpha  occ. eigenvalues --   -0.51397  -0.50394  -0.46815  -0.45182  -0.37828
 Alpha  occ. eigenvalues --   -0.35415  -0.35262
 Alpha virt. eigenvalues --    0.03285   0.03512   0.03688   0.04719   0.04982
 Alpha virt. eigenvalues --    0.05412   0.07210   0.07498   0.08071   0.08550
 Alpha virt. eigenvalues --    0.09047   0.09916   0.10985   0.11472   0.12182

 Mulliken charges:
               1
     1  C    0.463472
     2  C    0.550570
     3  C   -0.955626
     4  C    0.288379
     5  C    0.428120
     6  C    0.301564
     7  H   -0.213671
     8  H   -0.324211
     9  H   -0.279932
    10  H   -0.215958
    11  H   -0.207947
    12  Si   1.139987
    13  S   -0.901451
    14  H    0.250889
    15  H   -0.174035
    16  H   -0.150151
 Sum of Mulliken charges =   0.00000

 Dipole moment (field-independent basis, Debye):
    X=              1.0140    Y=              0.3823    Z=              0.9680  Tot=              1.4531

 Test job not archived.
 1\1\GINC-SE412\SP\RHF\Aug-CC-pVDZ\C6H8S1Si1\OHZDE\09-Apr-2025\0\\#t hf
  aug-cc-pvdz iop(5/13=1,5/36=2,99/5=2) pseudo=read geom=check guess=(r
 ead,tcheck) scf=(maxcycle=1)\\title\\0,1\C,0,2.237469,-1.299614,0.1446
 63\C,0,0.903127,-1.084557,0.476679\C,0,0.318709,0.184496,0.330319\C,0,
 1.115964,1.230971,-0.159002\C,0,2.4519,1.017767,-0.492332\C,0,3.013385
 ,-0.247781,-0.34068\H,0,2.672707,-2.285469,0.264599\H,0,0.311705,-1.91
 349,0.852609\H,0,0.691741,2.222497,-0.279939\H,0,3.05296,1.837864,-0.8
 69024\H,0,4.05321,-0.414944,-0.598865\Si,0,-1.471753,0.479403,0.772558

 Normal termination of Gaussian 16 at Wed Apr  9 00:15:29 2025.
