 Gaussian 16, Revision C.01,

 ----------------------------------------------------------------------
 #t hf aug-cc-pvdz symm=none int=(grid=ultrafine) guess=(read,tcheck) s
 table=(opt,rrhf)
 ----------------------------------------------------------------------
 -----
 title
 -----
 Symbolic Z-matrix:
 Charge =  0 Multiplicity = 1

 SCF Done:  E(RHF) =  -767.773579462     A.U. after   17 cycles
 Normal termination of Gaussian 16 at Tue Apr  8 22:44:00 2025.
 Gaussian 16:  ES64L-G16RevC.01  3-Jul-2019

 ----------------------------------------------------------------------
 #t hf aug-cc-pvdz iop(5/13=1,5/36=2,99/5=2) pseudo=read geom=check gue
 ss=(read,tcheck) scf=(maxcycle=1)
 ----------------------------------------------------------------------
 -----
 title
 -----
 Structure from the checkpoint file:  "BDE49_expt_1218_mol1.chk"
 Charge =  0 Multiplicity = 1

                         Standard orientation:
 ---------------------------------------------------------------------
 Center     Atomic      Atomic             Coordinates (Angstroms)
 Number     Number       Type             X           Y           Z
 ---------------------------------------------------------------------
      1          6           0       -0.219814    0.003511    0.119387
      2          7           0       -0.622003    1.344513   -0.549728
      3          8           0       -1.807329    1.506318   -0.736085
      4          8           0        0.281039    2.104644   -0.826424
      5          6           0        1.143779    0.016007    0.784527
      6          7           0       -1.350631   -0.252103    1.149202
      7          8           0       -1.267901    0.436105    2.147415
      8          8           0       -2.200633   -1.063474    0.873810
      9          7           0       -0.300091   -1.093058   -0.956082
     10          8           0       -0.533894   -0.748602   -2.093180
     11          8           0       -0.063644   -2.210327   -0.548056
     12          6           0        2.354920   -0.063531   -0.161534
     13          1           0        1.158523   -0.838365    1.466487
     14          1           0        1.183323    0.919061    1.395903
     15          6           0        3.664742    0.021004    0.627502
     16          1           0        2.308804    0.744264   -0.891955
     17          1           0        2.324830   -1.008355   -0.711763
     18          1           0        3.745096    0.970714    1.163559
     19          1           0        4.521507   -0.054592   -0.045193
     20          1           0        3.744140   -0.787451    1.360089
 ---------------------------------------------------------------------

 SCF Done:  E(RHF) =  -768.511374472     A.U. after    2 cycles

 The electronic state is 1-A.
 Alpha  occ. eigenvalues --  -20.65087 -20.64973 -20.64579 -20.64566 -20.64451
 Alpha  occ. eigenvalues --  -20.64243 -15.85269 -15.85174 -15.85027 -11.48358
 Alpha  occ. eigenvalues --  -11.31131 -11.27516 -11.25743  -1.74117  -1.72775
 Alpha  occ. eigenvalues --   -1.72626  -1.57591  -1.57207  -1.57052  -1.26605
 Alpha  occ. eigenvalues --   -1.11143  -1.05866  -1.05032  -1.00149  -0.89686
 Alpha  occ. eigenvalues --   -0.88062  -0.87619  -0.85647  -0.81054  -0.80063
 Alpha  occ. eigenvalues --   -0.79906  -0.79251  -0.78780  -0.77690  -0.70429
 Alpha  occ. eigenvalues --   -0.68918  -0.62352  -0.60498  -0.58792  -0.55834
 Alpha  occ. eigenvalues --   -0.55419  -0.54370  -0.53926  -0.53590  -0.53203
 Alpha  occ. eigenvalues --   -0.52544  -0.51865  -0.50469  -0.49081  -0.48798
 Alpha virt. eigenvalues --    0.00294   0.00736   0.02119   0.02842   0.03554
 Alpha virt. eigenvalues --    0.03918   0.05334   0.06297   0.07766   0.08293
 Alpha virt. eigenvalues --    0.10190   0.10754   0.12115   0.12513   0.13077

 Mulliken charges:
               1
     1  C   -3.033677
     2  N    3.661140
     3  O   -1.545883
     4  O   -1.554676
     5  C    0.238859
     6  N    3.885803
     7  O   -1.596965
     8  O   -1.589812
     9  N    3.705013
    10  O   -1.483205
    11  O   -1.603726
    12  C   -0.082124
    13  H    0.261558
    14  H    0.290866
    15  C   -0.388881
    16  H    0.209178
    17  H    0.144184
    18  H    0.176634
    19  H    0.141367
    20  H    0.164346
 Sum of Mulliken charges =   0.00000

 Dipole moment (field-independent basis, Debye):
    X=              4.1837    Y=             -0.0792    Z=              1.3444  Tot=              4.3951

 Test job not archived.
 1\1\GINC-SE029\SP\RHF\Aug-CC-pVDZ\C4H7N3O6\OHZDE\08-Apr-2025\0\\#t hf
 aug-cc-pvdz iop(5/13=1,5/36=2,99/5=2) pseudo=read geom=check guess=(re
 ad,tcheck) scf=(maxcycle=1)\\title\\0,1\C,0,-0.219814,0.003511,0.11938
 7\N,0,-0.622003,1.344513,-0.549728\O,0,-1.807329,1.506318,-0.736085\O,
 0,0.281039,2.104644,-0.826424\C,0,1.143779,0.016007,0.784527\N,0,-1.35
 0631,-0.252103,1.149202\O,0,-1.267901,0.436105,2.147415\O,0,-2.200633,
 -1.063474,0.87381\N,0,-0.300091,-1.093058,-0.956082\O,0,-0.533894,-0.7
 48602,-2.09318\O,0,-0.063644,-2.210327,-0.548056\C,0,2.35492,-0.063531

 Normal termination of Gaussian 16 at Tue Apr  8 22:44:15 2025.
