 Gaussian 16, Revision C.01,

 ----------------------------------------------------------------------
 #t hf aug-cc-pvdz symm=none int=(grid=ultrafine) guess=(read,tcheck) s
 table=opt
 ----------------------------------------------------------------------
 -----
 title
 -----
 Symbolic Z-matrix:
 Charge =  0 Multiplicity = 2

 SCF Done:  E(UHF) =  -899.460904209     A.U. after   15 cycles
 Normal termination of Gaussian 16 at Tue Apr  8 23:46:15 2025.
 Gaussian 16:  ES64L-G16RevC.01  3-Jul-2019

 ----------------------------------------------------------------------
 #t hf aug-cc-pvdz iop(5/13=1,5/36=2,99/5=2) pseudo=read geom=check gue
 ss=(read,tcheck) scf=(maxcycle=1)
 ----------------------------------------------------------------------
 -----
 title
 -----
 Structure from the checkpoint file:  "BDE49_nonexpt_1780_mol2.chk"
 Charge =  0 Multiplicity = 2

                         Standard orientation:
 ---------------------------------------------------------------------
 Center     Atomic      Atomic             Coordinates (Angstroms)
 Number     Number       Type             X           Y           Z
 ---------------------------------------------------------------------
      1         14           0        0.426388   -0.011067    0.434335
      2         17           0       -1.612020   -0.051267   -0.106895
      3          8           0        1.215371   -1.307687   -0.168680
      4          1           0        1.850702   -1.162230   -0.878119
      5          8           0        1.144712    1.310936   -0.233629
      6          1           0        0.703531    2.162709   -0.166876
 ---------------------------------------------------------------------

 SCF Done:  E(UHF) =  -899.713449528     A.U. after    2 cycles

 The electronic state is 2-A.
 Alpha  occ. eigenvalues -- -105.56195 -69.64391 -20.58112 -20.57297 -10.61184
 Alpha  occ. eigenvalues --   -7.78246  -7.77734  -7.77710  -6.30369  -4.05940
 Alpha  occ. eigenvalues --   -4.05448  -4.05372  -1.48196  -1.45328  -1.05684
 Alpha  occ. eigenvalues --   -0.79880  -0.73565  -0.63826  -0.59656  -0.56790
 Alpha  occ. eigenvalues --   -0.55483  -0.53633  -0.48138  -0.47614  -0.36755
 Alpha virt. eigenvalues --    0.03493   0.04721   0.05676   0.06050   0.07590
 Alpha virt. eigenvalues --    0.10878   0.13524   0.14767   0.16115   0.16870
 Alpha virt. eigenvalues --    0.17784   0.18831   0.20466   0.21405   0.23480

  Beta  occ. eigenvalues -- -105.56025 -69.63782 -20.57700 -20.56986 -10.60993
  Beta  occ. eigenvalues --   -7.77741  -7.77609  -7.77496  -6.29319  -4.05053
  Beta  occ. eigenvalues --   -4.05011  -4.04118  -1.47146  -1.44342  -1.04243
  Beta  occ. eigenvalues --   -0.77886  -0.72636  -0.62139  -0.57534  -0.55820
  Beta  occ. eigenvalues --   -0.53334  -0.51842  -0.47428  -0.47295
  Beta virt. eigenvalues --    0.01557   0.04641   0.04883   0.05985   0.07039
  Beta virt. eigenvalues --    0.07794   0.12251   0.14050   0.15777   0.16454
  Beta virt. eigenvalues --    0.17654   0.19288   0.20383   0.21531   0.22446

 Mulliken charges and spin densities:
               1          2
     1  Si   2.266405   0.912814
     2  Cl  -0.512221   0.064577
     3  O   -1.329833  -0.009961
     4  H    0.431220   0.004986
     5  O   -1.273694   0.034932
     6  H    0.418122  -0.007348
 Sum of Mulliken charges =  -0.00000   1.00000

 Dipole moment (field-independent basis, Debye):
    X=              1.4043    Y=              1.6207    Z=             -0.1802  Tot=              2.1520
                          Isotropic Fermi Contact Couplings
        Atom                 a.u.       MegaHertz       Gauss      10(-4) cm-1
     1  Si(29)             1.16420   -1034.65707    -369.19137    -345.12445
     2  Cl(35)             0.12297      53.91722      19.23900      17.98485
     3  O(17)              0.09847     -59.69227     -21.29969     -19.91120
     4  H(1)               0.00367      16.39397       5.84978       5.46844
     5  O(17)              0.06025     -36.52050     -13.03142     -12.18193
     6  H(1)              -0.00186      -8.29949      -2.96146      -2.76841
 --------------------------------------------------------
       Center         ----  Spin Dipole Couplings  ----

 Normal termination of Gaussian 16 at Tue Apr  8 23:46:17 2025.
