 Gaussian 16, Revision C.01,

 ----------------------------------------------------------------------
 #t hf aug-cc-pvdz symm=none int=(grid=ultrafine) guess=(read,tcheck) s
 table=(opt,rrhf)
 ----------------------------------------------------------------------
 -----
 title
 -----
 Symbolic Z-matrix:
 Charge =  0 Multiplicity = 1

 SCF Done:  E(RHF) =  -607.841006466     A.U. after   18 cycles
 Normal termination of Gaussian 16 at Tue Apr  8 23:31:04 2025.
 Gaussian 16:  ES64L-G16RevC.01  3-Jul-2019

 ----------------------------------------------------------------------
 #t hf aug-cc-pvdz iop(5/13=1,5/36=2,99/5=2) pseudo=read geom=check gue
 ss=(read,tcheck) scf=(maxcycle=1)
 ----------------------------------------------------------------------
 -----
 title
 -----
 Structure from the checkpoint file:  "BDE49_nonexpt_1389_mol1.chk"
 Charge =  0 Multiplicity = 1

                         Standard orientation:
 ---------------------------------------------------------------------
 Center     Atomic      Atomic             Coordinates (Angstroms)
 Number     Number       Type             X           Y           Z
 ---------------------------------------------------------------------
      1          6           0        1.431141   -0.958431    0.149901
      2          6           0        1.907357    0.301827    0.083417
      3         15           0       -0.290049   -1.346997   -0.216931
      4          6           0       -1.136172    0.308006    0.023010
      5          6           0       -0.285177    1.497573   -0.091312
      6          6           0        1.069174    1.476984   -0.056874
      7          8           0       -2.341994    0.359434    0.171395
      8          1           0        2.114298   -1.791299    0.287627
      9          1           0        2.975677    0.473452    0.172829
     10          1           0       -0.820875    2.441818   -0.113150
     11          1           0        1.586998    2.431011   -0.094434
     12          1           0       -0.687339   -1.981249    0.981076
 ---------------------------------------------------------------------

 SCF Done:  E(RHF) =  -608.151243482     A.U. after    2 cycles

 The electronic state is 1-A.
 Alpha  occ. eigenvalues --  -84.29315 -20.54055 -11.35108 -11.28910 -11.27880
 Alpha  occ. eigenvalues --  -11.27242 -11.26225  -6.76623  -4.29378  -4.29200
 Alpha  occ. eigenvalues --   -4.28308  -1.47150  -1.14340  -1.04003  -0.96456
 Alpha  occ. eigenvalues --   -0.84983  -0.81563  -0.71510  -0.67426  -0.66058
 Alpha  occ. eigenvalues --   -0.63242  -0.59008  -0.56565  -0.54206  -0.51403
 Alpha  occ. eigenvalues --   -0.47325  -0.40799  -0.37736  -0.32257
 Alpha virt. eigenvalues --    0.02714   0.03120   0.03464   0.04263   0.05877
 Alpha virt. eigenvalues --    0.06211   0.07881   0.09438   0.10031   0.11430
 Alpha virt. eigenvalues --    0.11986   0.12514   0.13222   0.13589   0.13858

 Mulliken charges:
               1
     1  C   -0.241133
     2  C    0.139791
     3  P    0.774439
     4  C    0.284184
     5  C    0.387110
     6  C    0.263127
     7  O   -1.282272
     8  H   -0.243158
     9  H   -0.202273
    10  H   -0.235845
    11  H   -0.203840
    12  H    0.559870
 Sum of Mulliken charges =   0.00000

 Dipole moment (field-independent basis, Debye):
    X=              4.1459    Y=             -0.0954    Z=              0.2634  Tot=              4.1553

 Test job not archived.
 1\1\GINC-SE090\SP\RHF\Aug-CC-pVDZ\C5H5O1P1\OHZDE\08-Apr-2025\0\\#t hf
 aug-cc-pvdz iop(5/13=1,5/36=2,99/5=2) pseudo=read geom=check guess=(re
 ad,tcheck) scf=(maxcycle=1)\\title\\0,1\C,0,1.431141,-0.958431,0.14990
 1\C,0,1.907357,0.301827,0.083417\P,0,-0.290049,-1.346997,-0.216931\C,0
 ,-1.136172,0.308006,0.02301\C,0,-0.285177,1.497573,-0.091312\C,0,1.069
 174,1.476984,-0.056874\O,0,-2.341994,0.359434,0.171395\H,0,2.114298,-1
 .791299,0.287627\H,0,2.975677,0.473452,0.172829\H,0,-0.820875,2.441818
 ,-0.11315\H,0,1.586998,2.431011,-0.094434\H,0,-0.687339,-1.981249,0.98

 Normal termination of Gaussian 16 at Tue Apr  8 23:31:09 2025.
