 Gaussian 16, Revision C.01,

 ----------------------------------------------------------------------
 #t hf aug-cc-pvdz symm=none int=(grid=ultrafine) guess=(read,tcheck) s
 table=(opt,rrhf)
 ----------------------------------------------------------------------
 -----
 title
 -----
 Symbolic Z-matrix:
 Charge =  0 Multiplicity = 1

 SCF Done:  E(RHF) =  -499.122197356     A.U. after   11 cycles

 1\1\GINC-SE424\Stability\RHF\Aug-CC-pVDZ\C1H3Cl1\OHZDE\08-Apr-2025\0\\
 #t hf aug-cc-pvdz symm=none int=(grid=ultrafine) guess=(read,tcheck) s
 table=(opt,rrhf)\\title\\0,1\C,0,-1.140421,0.000006,0.\Cl,0,0.663591,-
 0.000001,0.\H,0,-1.479528,-0.495631,0.906136\H,0,-1.479513,-0.536955,-
 0.882282\H,0,-1.479485,1.03257,-0.023859\\Version=ES64L-G16RevC.01\HF=
 -499.1221974\RMSD=1.746e-09\Dipole=-0.8834751,-0.000002,-0.0000006\Qua
 drupole=0.9756609,-0.4877612,-0.4878997,0.0000443,-0.0000133,0.0000004
 \PG=Unknown\\@

 Normal termination of Gaussian 16 at Tue Apr  8 22:37:20 2025.
 Gaussian 16:  ES64L-G16RevC.01  3-Jul-2019

 ----------------------------------------------------------------------
 #t hf aug-cc-pvdz iop(5/13=1,5/36=2,99/5=2) pseudo=read geom=check gue
 ss=(read,tcheck) scf=(maxcycle=1)
 ----------------------------------------------------------------------
 -----
 title
 -----
 Structure from the checkpoint file:  "BDE49_expt_118_mol1.chk"
 Charge =  0 Multiplicity = 1

                         Standard orientation:
 ---------------------------------------------------------------------
 Center     Atomic      Atomic             Coordinates (Angstroms)
 Number     Number       Type             X           Y           Z
 ---------------------------------------------------------------------
      1          6           0       -1.140421    0.000006   -0.000000
      2         17           0        0.663591   -0.000001    0.000000
      3          1           0       -1.479528   -0.490538    0.908903
      4          1           0       -1.479513   -0.541897   -0.879255
      5          1           0       -1.479484    1.032420   -0.029654
 ---------------------------------------------------------------------

 SCF Done:  E(RHF) =  -499.245129574     A.U. after    2 cycles

 The electronic state is 1-A.
 Alpha  occ. eigenvalues -- -105.55721 -11.30610 -10.60517  -7.77458  -7.77075
 Alpha  occ. eigenvalues --   -7.77075  -1.09427  -0.90662  -0.62617  -0.62616
 Alpha  occ. eigenvalues --   -0.55357  -0.44553  -0.44553
 Alpha virt. eigenvalues --    0.03326   0.05510   0.05510   0.07594   0.13801
 Alpha virt. eigenvalues --    0.14994   0.14995   0.15375   0.16831   0.16831
 Alpha virt. eigenvalues --    0.22744   0.26528   0.26528   0.29807   0.34884

 Mulliken charges:
               1
     1  C   -0.465195
     2  Cl  -0.148641
     3  H    0.204610
     4  H    0.204612
     5  H    0.204613
 Sum of Mulliken charges =   0.00000

 Dipole moment (field-independent basis, Debye):
    X=             -2.2533    Y=             -0.0000    Z=             -0.0000  Tot=              2.2533

 Test job not archived.
 1\1\GINC-SE424\SP\RHF\Aug-CC-pVDZ\C1H3Cl1\OHZDE\08-Apr-2025\0\\#t hf a
 ug-cc-pvdz iop(5/13=1,5/36=2,99/5=2) pseudo=read geom=check guess=(rea
 d,tcheck) scf=(maxcycle=1)\\title\\0,1\C,0,-1.140421,0.000006,0.\Cl,0,
 0.663591,-0.000001,0.\H,0,-1.479528,-0.495631,0.906136\H,0,-1.479513,-
 0.536955,-0.882282\H,0,-1.479485,1.03257,-0.023859\\Version=ES64L-G16R
 evC.01\State=1-A\HF=-499.2451296\RMSD=5.286e-03\Dipole=-0.8865246,-0.0
 000026,-0.0000006\Quadrupole=1.0031988,-0.5015294,-0.5016694,0.0000466
 ,-0.0000138,0.0000004\PG=C01 [X(C1H3Cl1)]\\@

 Normal termination of Gaussian 16 at Tue Apr  8 22:37:21 2025.
