 Gaussian 16, Revision C.01,

 ----------------------------------------------------------------------
 #t hf aug-cc-pvdz symm=none int=(grid=ultrafine) guess=(read,tcheck) s
 table=(opt,rrhf)
 ----------------------------------------------------------------------
 -----
 title
 -----
 Symbolic Z-matrix:
 Charge =  0 Multiplicity = 1

 SCF Done:  E(RHF) =  -422.035960150     A.U. after   13 cycles
 Normal termination of Gaussian 16 at Tue Apr  8 23:52:20 2025.
 Gaussian 16:  ES64L-G16RevC.01  3-Jul-2019

 ----------------------------------------------------------------------
 #t hf aug-cc-pvdz iop(5/13=1,5/36=2,99/5=2) pseudo=read geom=check gue
 ss=(read,tcheck) scf=(maxcycle=1)
 ----------------------------------------------------------------------
 -----
 title
 -----
 Structure from the checkpoint file:  "BDE49_nonexpt_1918_mol1.chk"
 Charge =  0 Multiplicity = 1

                         Standard orientation:
 ---------------------------------------------------------------------
 Center     Atomic      Atomic             Coordinates (Angstroms)
 Number     Number       Type             X           Y           Z
 ---------------------------------------------------------------------
      1         14           0        1.423100   -0.260095   -0.000002
      2          6           0       -0.121296    0.864706    0.000007
      3          1           0        2.613584    0.618809   -0.000037
      4          1           0        1.415528   -1.103635   -1.212532
      5          1           0        1.415570   -1.103594    1.212558
      6          6           0       -1.361752    0.110467    0.000054
      7          7           0       -2.327362   -0.521177   -0.000047
      8          1           0       -0.089137    1.513463   -0.880870
      9          1           0       -0.089113    1.513489    0.880863
 ---------------------------------------------------------------------

 SCF Done:  E(RHF) =  -422.203463262     A.U. after    2 cycles

 The electronic state is 1-A.
 Alpha  occ. eigenvalues --  -69.55768 -15.51115 -11.28688 -11.28620  -6.22814
 Alpha  occ. eigenvalues --   -3.98200  -3.98177  -3.98166  -1.23334  -1.04443
 Alpha  occ. eigenvalues --   -0.76803  -0.70428  -0.64601  -0.60242  -0.56063
 Alpha  occ. eigenvalues --   -0.51073  -0.50979  -0.49126  -0.46553
 Alpha virt. eigenvalues --    0.02820   0.03526   0.03924   0.05305   0.07166
 Alpha virt. eigenvalues --    0.07472   0.08624   0.09093   0.09232   0.13127
 Alpha virt. eigenvalues --    0.13562   0.13756   0.14695   0.15533   0.15828

 Mulliken charges:
               1
     1  Si   1.037302
     2  C   -0.356034
     3  H   -0.166037
     4  H   -0.165583
     5  H   -0.165587
     6  C   -1.356230
     7  N    0.769747
     8  H    0.201217
     9  H    0.201203
 Sum of Mulliken charges =  -0.00000

 Dipole moment (field-independent basis, Debye):
    X=              4.1406    Y=              2.5258    Z=              0.0001  Tot=              4.8502

 Test job not archived.
 1\1\GINC-SE424\SP\RHF\Aug-CC-pVDZ\C2H5N1Si1\OHZDE\08-Apr-2025\0\\#t hf
  aug-cc-pvdz iop(5/13=1,5/36=2,99/5=2) pseudo=read geom=check guess=(r
 ead,tcheck) scf=(maxcycle=1)\\title\\0,1\Si,0,-1.4231,-0.260095,0.0000
 02\C,0,0.121296,0.864706,-0.000007\H,0,-2.613584,0.618809,0.000037\H,0
 ,-1.415528,-1.103635,1.212532\H,0,-1.41557,-1.103594,-1.212558\C,0,1.3
 61752,0.110467,-0.000054\N,0,2.327362,-0.521177,0.000047\H,0,0.089137,
 1.513463,0.88087\H,0,0.089113,1.513489,-0.880863\\Version=ES64L-G16Rev
 C.01\State=1-A\HF=-422.2034633\RMSD=1.801e-02\Dipole=-1.6290473,0.9937

 Normal termination of Gaussian 16 at Tue Apr  8 23:52:22 2025.
