 Gaussian 16, Revision C.01,

 ----------------------------------------------------------------------
 #t hf aug-cc-pvdz symm=none int=(grid=ultrafine) guess=(read,tcheck) s
 table=(opt,rrhf)
 ----------------------------------------------------------------------
 -----
 title
 -----
 Symbolic Z-matrix:
 Charge =  0 Multiplicity = 1

 SCF Done:  E(RHF) =  -650.120933478     A.U. after   16 cycles

 1\1\GINC-SE128\Stability\RHF\Aug-CC-pVDZ\C8H11P1\OHZDE\08-Apr-2025\0\\
 #t hf aug-cc-pvdz symm=none int=(grid=ultrafine) guess=(read,tcheck) s
 table=(opt,rrhf)\\title\\0,1\C,0,1.070273,1.231218,0.00122\C,0,-0.3216
 54,1.203039,0.00183\C,0,-1.021048,-0.013131,-0.000469\C,0,1.764475,0.0
 12374,-0.000619\C,0,1.101115,-1.211066,-0.002258\C,0,-0.30155,-1.20728
 ,-0.003084\H,0,-0.870608,2.138893,0.003495\P,0,-2.868006,-0.127871,-0.
 001381\C,0,1.860539,-2.516395,0.001892\H,0,2.937842,-2.350674,-0.05946
 6\H,0,1.568431,-3.147155,-0.842987\H,0,1.66098,-3.086287,0.914852\H,0,

 Normal termination of Gaussian 16 at Tue Apr  8 23:34:25 2025.
 Gaussian 16:  ES64L-G16RevC.01  3-Jul-2019

 ----------------------------------------------------------------------
 #t hf aug-cc-pvdz iop(5/13=1,5/36=2,99/5=2) pseudo=read geom=check gue
 ss=(read,tcheck) scf=(maxcycle=1)
 ----------------------------------------------------------------------
 -----
 title
 -----
 Structure from the checkpoint file:  "BDE49_nonexpt_1434_mol1.chk"
 Charge =  0 Multiplicity = 1

                         Standard orientation:
 ---------------------------------------------------------------------
 Center     Atomic      Atomic             Coordinates (Angstroms)
 Number     Number       Type             X           Y           Z
 ---------------------------------------------------------------------
      1          6           0        1.070273    1.231218    0.001220
      2          6           0       -0.321654    1.203039    0.001830
      3          6           0       -1.021048   -0.013131   -0.000469
      4          6           0        1.764475    0.012373   -0.000619
      5          6           0        1.101114   -1.211066   -0.002258
      6          6           0       -0.301551   -1.207280   -0.003084
      7          1           0       -0.870607    2.138893    0.003495
      8         15           0       -2.868006   -0.127870   -0.001381
      9          6           0        1.860538   -2.516396    0.001892
     10          1           0        2.937841   -2.350675   -0.059466
     11          1           0        1.568430   -3.147156   -0.842987
     12          1           0        1.660979   -3.086288    0.914852
     13          1           0       -0.835823   -2.152581   -0.006113
     14          1           0        2.851015    0.024794   -0.001191
     15          6           0        1.826728    2.538365   -0.000332
     16          1           0        1.146547    3.391701    0.027153
     17          1           0        2.448491    2.634258   -0.896014
     18          1           0        2.492459    2.611619    0.865120
     19          1           0       -3.126593    0.831323   -1.016233
     20          1           0       -3.125901    0.799420    1.043022
 ---------------------------------------------------------------------

 SCF Done:  E(RHF) =  -650.491110070     A.U. after    2 cycles

 The electronic state is 1-A.
 Alpha  occ. eigenvalues --  -84.27121 -11.25042 -11.25023 -11.24894 -11.23830
 Alpha  occ. eigenvalues --  -11.23776 -11.23718 -11.23688 -11.23666  -6.74172
 Alpha  occ. eigenvalues --   -4.27021  -4.26416  -4.26264  -1.16176  -1.06059
 Alpha  occ. eigenvalues --   -1.04028  -0.94803  -0.93337  -0.87768  -0.79743
 Alpha  occ. eigenvalues --   -0.78089  -0.69097  -0.66647  -0.60048  -0.59051
 Alpha  occ. eigenvalues --   -0.57716  -0.57654  -0.56260  -0.55677  -0.53826
 Alpha  occ. eigenvalues --   -0.52132  -0.49714  -0.47358  -0.46313  -0.34629
 Alpha  occ. eigenvalues --   -0.33971  -0.33213
 Alpha virt. eigenvalues --    0.03407   0.03508   0.03876   0.04785   0.05065
 Alpha virt. eigenvalues --    0.05377   0.05826   0.06929   0.07023   0.07830
 Alpha virt. eigenvalues --    0.09452   0.09737   0.10014   0.10339   0.10565

 Mulliken charges:
               1
     1  C    0.557512
     2  C    0.361547
     3  C   -0.183347
     4  C    0.496233
     5  C    0.218751
     6  C   -0.279322
     7  H   -0.272265
     8  P   -0.696946
     9  C   -0.744585
    10  H    0.040903
    11  H    0.249785
    12  H    0.274514
    13  H   -0.275641
    14  H   -0.307094
    15  C   -0.760584
    16  H    0.023891
    17  H    0.259180
    18  H    0.249133
    19  H    0.391939
    20  H    0.396396
 Sum of Mulliken charges =  -0.00000

 Dipole moment (field-independent basis, Debye):
    X=              1.4122    Y=              0.4089    Z=              0.0097  Tot=              1.4702

 Test job not archived.
 1\1\GINC-SE128\SP\RHF\Aug-CC-pVDZ\C8H11P1\OHZDE\08-Apr-2025\0\\#t hf a
 ug-cc-pvdz iop(5/13=1,5/36=2,99/5=2) pseudo=read geom=check guess=(rea
 d,tcheck) scf=(maxcycle=1)\\title\\0,1\C,0,1.070273,1.231218,0.00122\C
 ,0,-0.321654,1.203039,0.00183\C,0,-1.021048,-0.013131,-0.000469\C,0,1.
 764475,0.012374,-0.000619\C,0,1.101115,-1.211066,-0.002258\C,0,-0.3015
 5,-1.20728,-0.003084\H,0,-0.870608,2.138893,0.003495\P,0,-2.868006,-0.
 127871,-0.001381\C,0,1.860539,-2.516395,0.001892\H,0,2.937842,-2.35067
 4,-0.059466\H,0,1.568431,-3.147155,-0.842987\H,0,1.66098,-3.086287,0.9

 Normal termination of Gaussian 16 at Tue Apr  8 23:34:37 2025.
