 Gaussian 16, Revision C.01,

 ----------------------------------------------------------------------
 #t hf aug-cc-pvdz symm=none int=(grid=ultrafine) guess=(read,tcheck) s
 table=(opt,rrhf)
 ----------------------------------------------------------------------
 -----
 title
 -----
 Symbolic Z-matrix:
 Charge =  0 Multiplicity = 1

 SCF Done:  E(RHF) =  -408.363730348     A.U. after   11 cycles
 Normal termination of Gaussian 16 at Tue Apr  8 23:57:32 2025.
 Gaussian 16:  ES64L-G16RevC.01  3-Jul-2019

 ----------------------------------------------------------------------
 #t hf aug-cc-pvdz iop(5/13=1,5/36=2,99/5=2) pseudo=read geom=check gue
 ss=(read,tcheck) scf=(maxcycle=1)
 ----------------------------------------------------------------------
 -----
 title
 -----
 Structure from the checkpoint file:  "BDE49_nonexpt_2029_mol1.chk"
 Charge =  0 Multiplicity = 1

                         Standard orientation:
 ---------------------------------------------------------------------
 Center     Atomic      Atomic             Coordinates (Angstroms)
 Number     Number       Type             X           Y           Z
 ---------------------------------------------------------------------
      1         14           0        1.391847   -0.000000    0.044542
      2          6           0       -0.451836   -0.000000   -0.397214
      3          6           0       -1.157705   -1.271841    0.108417
      4          1           0       -0.696740   -2.181407   -0.286842
      5          1           0       -2.211477   -1.277810   -0.191185
      6          1           0       -1.129779   -1.333531    1.201386
      7          6           0       -1.157705    1.271841    0.108416
      8          1           0       -0.496202   -0.000000   -1.494766
      9          1           0       -1.129779    1.333531    1.201386
     10          1           0       -2.211476    1.277811   -0.191185
     11          1           0       -0.696740    2.181407   -0.286842
     12          1           0        1.567458    0.000001    1.519179
     13          1           0        2.061177    1.204786   -0.506218
     14          1           0        2.061177   -1.204786   -0.506217
 ---------------------------------------------------------------------

 SCF Done:  E(RHF) =  -408.534801213     A.U. after    2 cycles

 The electronic state is 1-A.
 Alpha  occ. eigenvalues --  -69.51804 -11.23060 -11.23052 -11.22789  -6.18950
 Alpha  occ. eigenvalues --   -3.94314  -3.94309  -3.94283  -1.06100  -0.93365
 Alpha  occ. eigenvalues --   -0.81660  -0.71638  -0.62393  -0.59321  -0.57118
 Alpha  occ. eigenvalues --   -0.54491  -0.49747  -0.49557  -0.47227  -0.46949
 Alpha  occ. eigenvalues --   -0.42104
 Alpha virt. eigenvalues --    0.03673   0.04117   0.04264   0.04307   0.06199
 Alpha virt. eigenvalues --    0.06643   0.06993   0.07438   0.07804   0.10060
 Alpha virt. eigenvalues --    0.10322   0.11166   0.11199   0.14450   0.15001

 Mulliken charges:
               1
     1  Si   0.753314
     2  C   -0.965130
     3  C   -0.223080
     4  H    0.110252
     5  H    0.143193
     6  H    0.177979
     7  C   -0.223078
     8  H    0.199444
     9  H    0.177981
    10  H    0.143190
    11  H    0.110251
    12  H   -0.108012
    13  H   -0.148152
    14  H   -0.148152
 Sum of Mulliken charges =  -0.00000

 Dipole moment (field-independent basis, Debye):
    X=             -0.7660    Y=             -0.0000    Z=             -0.2758  Tot=              0.8141

 Test job not archived.
 1\1\GINC-SE273\SP\RHF\Aug-CC-pVDZ\C3H10Si1\OHZDE\08-Apr-2025\0\\#t hf
 aug-cc-pvdz iop(5/13=1,5/36=2,99/5=2) pseudo=read geom=check guess=(re
 ad,tcheck) scf=(maxcycle=1)\\title\\0,1\Si,0,1.391847,0.,0.044542\C,0,
 -0.451836,0.,-0.397214\C,0,-1.157705,-1.271841,0.108417\H,0,-0.69674,-
 2.181407,-0.286842\H,0,-2.211477,-1.27781,-0.191185\H,0,-1.129779,-1.3
 33531,1.201386\C,0,-1.157705,1.271841,0.108416\H,0,-0.496202,0.,-1.494
 766\H,0,-1.129779,1.333531,1.201386\H,0,-2.211476,1.277811,-0.191185\H
 ,0,-0.69674,2.181407,-0.286842\H,0,1.567458,0.000001,1.519179\H,0,2.06

 Normal termination of Gaussian 16 at Tue Apr  8 23:57:36 2025.
