 Gaussian 16, Revision C.01,

 ----------------------------------------------------------------------
 #t hf aug-cc-pvdz symm=none int=(grid=ultrafine) guess=(read,tcheck) s
 table=(opt,rrhf)
 ----------------------------------------------------------------------
 -----
 title
 -----
 Symbolic Z-matrix:
 Charge =  0 Multiplicity = 1

 SCF Done:  E(RHF) =  -799.227291882     A.U. after   16 cycles
 Normal termination of Gaussian 16 at Wed Apr  9 00:06:08 2025.
 Gaussian 16:  ES64L-G16RevC.01  3-Jul-2019

 ----------------------------------------------------------------------
 #t hf aug-cc-pvdz iop(5/13=1,5/36=2,99/5=2) pseudo=read geom=check gue
 ss=(read,tcheck) scf=(maxcycle=1)
 ----------------------------------------------------------------------
 -----
 title
 -----
 Structure from the checkpoint file:  "BDE49_nonexpt_2206_mol1.chk"
 Charge =  0 Multiplicity = 1

                         Standard orientation:
 ---------------------------------------------------------------------
 Center     Atomic      Atomic             Coordinates (Angstroms)
 Number     Number       Type             X           Y           Z
 ---------------------------------------------------------------------
      1          6           0        1.701700    1.399896    0.000103
      2          6           0        1.290270    0.074860    0.000145
      3          6           0       -0.049155   -0.300209    0.000103
      4          6           0        0.717340    2.386126    0.000024
      5          6           0       -0.630048    2.046566   -0.000015
      6          6           0       -1.018815    0.701548    0.000024
      7          1           0        1.005570    3.430392   -0.000008
      8          1           0       -1.402629    2.805258   -0.000077
      9          8           0       -2.353013    0.436807   -0.000018
     10         14           0       -3.181493   -1.013013    0.000011
     11          1           0       -0.300106   -1.352305    0.000137
     12          1           0        2.755865    1.635023    0.000135
     13          7           0        2.315579   -0.995971    0.000233
     14          8           0        3.489833   -0.655461   -0.000261
     15          8           0        1.924422   -2.155706   -0.000263
     16          1           0       -4.601653   -0.626783   -0.000059
     17          1           0       -2.841489   -1.797681    1.206834
     18          1           0       -2.841398   -1.797782   -1.206720
 ---------------------------------------------------------------------

 SCF Done:  E(RHF) =  -799.759917026     A.U. after    2 cycles

 The electronic state is 1-A.
 Alpha  occ. eigenvalues --  -69.58270 -20.59300 -20.59265 -20.58175 -15.79561
 Alpha  occ. eigenvalues --  -11.34327 -11.32288 -11.27992 -11.27808 -11.27661
 Alpha  occ. eigenvalues --  -11.27400  -6.24870  -4.00374  -4.00218  -4.00194
 Alpha  occ. eigenvalues --   -1.67266  -1.50951  -1.49990  -1.20451  -1.10873
 Alpha  occ. eigenvalues --   -1.05129  -0.98895  -0.89047  -0.85479  -0.81385
 Alpha  occ. eigenvalues --   -0.77647  -0.74799  -0.74694  -0.72239  -0.69550
 Alpha  occ. eigenvalues --   -0.66978  -0.64849  -0.62829  -0.58549  -0.57111
 Alpha  occ. eigenvalues --   -0.54579  -0.53612  -0.50416  -0.49354  -0.49033
 Alpha  occ. eigenvalues --   -0.48649  -0.45351  -0.38923  -0.35522
 Alpha virt. eigenvalues --    0.02024   0.02877   0.03186   0.03815   0.04963
 Alpha virt. eigenvalues --    0.04978   0.05797   0.07206   0.08770   0.08888
 Alpha virt. eigenvalues --    0.08941   0.09647   0.11514   0.11987   0.12241

 Mulliken charges:
               1
     1  C    0.140080
     2  C   -0.359405
     3  C    0.028207
     4  C    0.887682
     5  C   -0.219750
     6  C    1.791988
     7  H   -0.213548
     8  H   -0.254911
     9  O   -2.299335
    10  Si   1.285605
    11  H   -0.252916
    12  H   -0.189805
    13  N    3.086743
    14  O   -1.523571
    15  O   -1.482583
    16  H   -0.175497
    17  H   -0.124493
    18  H   -0.124493
 Sum of Mulliken charges =  -0.00000

 Dipole moment (field-independent basis, Debye):
    X=             -3.4229    Y=              2.6700    Z=              0.0007  Tot=              4.3411

 Test job not archived.
 1\1\GINC-SE339\SP\RHF\Aug-CC-pVDZ\C6H7N1O3Si1\OHZDE\09-Apr-2025\0\\#t
 hf aug-cc-pvdz iop(5/13=1,5/36=2,99/5=2) pseudo=read geom=check guess=
 (read,tcheck) scf=(maxcycle=1)\\title\\0,1\C,0,-1.7017,1.399896,-0.000
 103\C,0,-1.29027,0.07486,-0.000145\C,0,0.049155,-0.300209,-0.000103\C,
 0,-0.71734,2.386126,-0.000024\C,0,0.630048,2.046566,0.000015\C,0,1.018
 815,0.701548,-0.000024\H,0,-1.00557,3.430392,0.000008\H,0,1.402629,2.8
 05258,0.000077\O,0,2.353013,0.436807,0.000018\Si,0,3.181493,-1.013013,
 -0.000011\H,0,0.300106,-1.352305,-0.000137\H,0,-2.755865,1.635023,-0.0

 Normal termination of Gaussian 16 at Wed Apr  9 00:06:19 2025.
