 Gaussian 16, Revision C.01,

 ----------------------------------------------------------------------
 #t hf aug-cc-pvdz symm=none int=(grid=ultrafine) guess=(read,tcheck) s
 table=(opt,rrhf)
 ----------------------------------------------------------------------
 -----
 title
 -----
 Symbolic Z-matrix:
 Charge =  0 Multiplicity = 1

 SCF Done:  E(RHF) =  -974.252069913     A.U. after   17 cycles
 Normal termination of Gaussian 16 at Tue Apr  8 23:15:54 2025.
 Gaussian 16:  ES64L-G16RevC.01  3-Jul-2019

 ----------------------------------------------------------------------
 #t hf aug-cc-pvdz iop(5/13=1,5/36=2,99/5=2) pseudo=read geom=check gue
 ss=(read,tcheck) scf=(maxcycle=1)
 ----------------------------------------------------------------------
 -----
 title
 -----
 Structure from the checkpoint file:  "BDE49_expt_512_mol1.chk"
 Charge =  0 Multiplicity = 1

                         Standard orientation:
 ---------------------------------------------------------------------
 Center     Atomic      Atomic             Coordinates (Angstroms)
 Number     Number       Type             X           Y           Z
 ---------------------------------------------------------------------
      1          6           0       -2.856127    1.879013    0.348590
      2          6           0       -1.491934    2.122683    0.281371
      3          6           0       -3.368945    0.594899    0.171220
      4          6           0       -2.468142   -0.429303   -0.094850
      5          6           0       -1.098828   -0.216407   -0.185422
      6          6           0       -0.590349    1.076799    0.014790
      7          1           0       -1.110350    3.125257    0.442979
      8          1           0       -3.534253    2.699192    0.555037
      9          1           0       -4.429244    0.393840    0.236589
     10          1           0       -0.443793   -1.038404   -0.433017
     11          7           0        0.766668    1.377018   -0.084366
     12          6           0        1.879259    0.526225   -0.014361
     13          6           0        1.894930   -0.639993    0.764856
     14          6           0        3.044755    0.890087   -0.706526
     15          6           0        3.043169   -1.423782    0.825600
     16          6           0        4.197448   -1.059414    0.136025
     17          6           0        4.191337    0.109441   -0.622945
     18          1           0        5.080684    0.411704   -1.164645
     19          1           0        3.041340    1.787113   -1.317724
     20          1           0        3.035522   -2.321806    1.433348
     21          1           0        5.088084   -1.673654    0.192061
     22          1           0        1.022177   -0.919008    1.340193
     23          1           0        0.976208    2.339645   -0.296050
     24         17           0       -3.079558   -2.060265   -0.347547
 ---------------------------------------------------------------------

 SCF Done:  E(RHF) =  -974.854383336     A.U. after    2 cycles

 The electronic state is 1-A.
 Alpha  occ. eigenvalues -- -105.56995 -15.53349 -11.31466 -11.30716 -11.29720
 Alpha  occ. eigenvalues --  -11.26070 -11.25129 -11.25054 -11.24910 -11.24747
 Alpha  occ. eigenvalues --  -11.24635 -11.24429 -11.24208 -11.23878 -10.61784
 Alpha  occ. eigenvalues --   -7.78749  -7.78355  -7.78339  -1.27257  -1.17774
 Alpha  occ. eigenvalues --   -1.14849  -1.09252  -1.03984  -1.02367  -1.00634
 Alpha  occ. eigenvalues --   -0.98005  -0.87692  -0.86161  -0.83118  -0.81990
 Alpha  occ. eigenvalues --   -0.74967  -0.73412  -0.70681  -0.68413  -0.66336
 Alpha  occ. eigenvalues --   -0.64471  -0.62728  -0.62103  -0.60569  -0.59972
 Alpha  occ. eigenvalues --   -0.58393  -0.55287  -0.54406  -0.53159  -0.52082
 Alpha  occ. eigenvalues --   -0.51164  -0.49884  -0.46383  -0.46035  -0.36116
 Alpha  occ. eigenvalues --   -0.35440  -0.35098  -0.30186
 Alpha virt. eigenvalues --    0.02717   0.03369   0.03614   0.03918   0.04593
 Alpha virt. eigenvalues --    0.05534   0.05931   0.06265   0.07394   0.08447
 Alpha virt. eigenvalues --    0.08721   0.09334   0.09775   0.10083   0.10853

 Mulliken charges:
               1
     1  C    0.645826
     2  C    0.419022
     3  C    0.063123
     4  C   -0.017900
     5  C    0.905322
     6  C   -1.401310
     7  H   -0.340395
     8  H   -0.227278
     9  H   -0.195202
    10  H   -0.206442
    11  N    1.427353
    12  C   -1.561564
    13  C    0.758903
    14  C    0.404927
    15  C    0.342086
    16  C    0.130915
    17  C    0.501326
    18  H   -0.231566
    19  H   -0.350879
    20  H   -0.242751
    21  H   -0.222992
    22  H   -0.313728
    23  H    0.057604
    24  Cl  -0.344401
 Sum of Mulliken charges =   0.00000

 Dipole moment (field-independent basis, Debye):
    X=              1.3047    Y=              2.3552    Z=              0.1262  Tot=              2.6954

 Test job not archived.
 1\1\GINC-SE036\SP\RHF\Aug-CC-pVDZ\C12H10Cl1N1\OHZDE\08-Apr-2025\0\\#t
 hf aug-cc-pvdz iop(5/13=1,5/36=2,99/5=2) pseudo=read geom=check guess=
 (read,tcheck) scf=(maxcycle=1)\\title\\0,1\C,0,-2.856127,1.879013,0.34
 859\C,0,-1.491934,2.122683,0.281371\C,0,-3.368945,0.594899,0.17122\C,0
 ,-2.468142,-0.429303,-0.09485\C,0,-1.098828,-0.216407,-0.185422\C,0,-0
 .590349,1.076799,0.01479\H,0,-1.11035,3.125257,0.442979\H,0,-3.534253,
 2.699192,0.555037\H,0,-4.429244,0.39384,0.236589\H,0,-0.443793,-1.0384
 04,-0.433017\N,0,0.766668,1.377018,-0.084366\C,0,1.879259,0.526225,-0.

 Normal termination of Gaussian 16 at Tue Apr  8 23:16:18 2025.
