 Gaussian 16, Revision C.01,

 ----------------------------------------------------------------------
 #t hf aug-cc-pvdz symm=none int=(grid=ultrafine) guess=(read,tcheck) s
 table=opt
 ----------------------------------------------------------------------
 -----
 title
 -----
 Symbolic Z-matrix:
 Charge =  0 Multiplicity = 2

 SCF Done:  E(UHF) =  -974.038555915     A.U. after   22 cycles
 Normal termination of Gaussian 16 at Tue Apr  8 23:56:23 2025.
 Gaussian 16:  ES64L-G16RevC.01  3-Jul-2019

 ----------------------------------------------------------------------
 #t hf aug-cc-pvdz iop(5/13=1,5/36=2,99/5=2) pseudo=read geom=check gue
 ss=(read,tcheck) scf=(maxcycle=1)
 ----------------------------------------------------------------------
 -----
 title
 -----
 Structure from the checkpoint file:  "BDE49_nonexpt_199_mol2.chk"
 Charge =  0 Multiplicity = 2

                         Standard orientation:
 ---------------------------------------------------------------------
 Center     Atomic      Atomic             Coordinates (Angstroms)
 Number     Number       Type             X           Y           Z
 ---------------------------------------------------------------------
      1         17           0        1.902412    0.443832   -0.000001
      2          5           0        0.869060   -0.923497    0.000005
      3          6           0       -1.485398    0.531599   -0.000004
      4          7           0       -1.894244    1.614019    0.000003
      5         16           0       -0.907138   -1.088461   -0.000000
 ---------------------------------------------------------------------

 SCF Done:  E(UHF) =  -974.276716273     A.U. after    2 cycles

 The electronic state is 2-A.
 Alpha  occ. eigenvalues -- -105.61191 -94.03806 -15.54281 -11.32353 -10.66209
 Alpha  occ. eigenvalues --   -8.32006  -7.83133  -7.82819  -7.82753  -7.73989
 Alpha  occ. eigenvalues --   -6.29763  -6.29587  -6.29376  -1.25941  -1.14238
 Alpha  occ. eigenvalues --   -1.10368  -0.78352  -0.67998  -0.62697  -0.60407
 Alpha  occ. eigenvalues --   -0.57528  -0.53891  -0.53481  -0.50805  -0.44278
 Alpha  occ. eigenvalues --   -0.39362
 Alpha virt. eigenvalues --    0.02662   0.04136   0.04702   0.05057   0.05682
 Alpha virt. eigenvalues --    0.09392   0.09660   0.10474   0.12346   0.13012
 Alpha virt. eigenvalues --    0.13065   0.13951   0.15508   0.15647   0.16453

  Beta  occ. eigenvalues -- -105.61124 -94.03786 -15.54411 -11.32047 -10.66132
  Beta  occ. eigenvalues --   -8.31939  -7.83048  -7.82768  -7.82563  -7.71843
  Beta  occ. eigenvalues --   -6.29844  -6.29512  -6.29424  -1.25913  -1.13039
  Beta  occ. eigenvalues --   -1.09764  -0.75044  -0.66770  -0.62548  -0.58797
  Beta  occ. eigenvalues --   -0.57456  -0.53448  -0.51909  -0.49843  -0.44566
  Beta virt. eigenvalues --    0.01531   0.04262   0.04690   0.05056   0.06579
  Beta virt. eigenvalues --    0.07378   0.09522   0.09860   0.10646   0.12372
  Beta virt. eigenvalues --    0.13055   0.13281   0.15526   0.15750   0.16605

 Mulliken charges and spin densities:
               1          2
     1  Cl  -0.113307   0.002117
     2  B    0.454621   1.008190
     3  C   -1.548555   0.129583
     4  N    0.689532  -0.045531
     5  S    0.517708  -0.094359
 Sum of Mulliken charges =  -0.00000   1.00000

 Dipole moment (field-independent basis, Debye):
    X=              1.7435    Y=             -3.2372    Z=             -0.0000  Tot=              3.6768
                          Isotropic Fermi Contact Couplings
        Atom                 a.u.       MegaHertz       Gauss      10(-4) cm-1
     1  Cl(35)             0.06182      27.10397       9.67137       9.04091
     2  B(11)              0.35822     513.81325     183.34134     171.38965
     3  C(13)              0.07221      81.17469      28.96515      27.07696
     4  N(14)             -0.00652      -2.10512      -0.75116      -0.70219
     5  S(33)              0.21716      74.58928      26.61531      24.88031
 --------------------------------------------------------
       Center         ----  Spin Dipole Couplings  ----
                      3XX-RR        3YY-RR        3ZZ-RR

 1\1\GINC-SE103\SP\UHF\Aug-CC-pVDZ\C1B1Cl1N1S1(2)\OHZDE\08-Apr-2025\0\\
 #t hf aug-cc-pvdz iop(5/13=1,5/36=2,99/5=2) pseudo=read geom=check gue
 ss=(read,tcheck) scf=(maxcycle=1)\\title\\0,2\Cl,0,-1.902412,0.443831,
 0.000001\B,0,-0.86906,-0.923497,-0.000005\C,0,1.485398,0.531599,0.0000
 04\N,0,1.894244,1.614019,-0.000003\S,0,0.907138,-1.088461,0.\\Version=
 ES64L-G16RevC.01\State=2-A\HF=-974.2767163\S2=0.758548\S2-1=0.\S2A=0.7
 5006\RMSD=1.187e-02\Dipole=-0.6859546,-1.2735965,0.0000038\Quadrupole=
 -0.707568,-1.512807,2.220375,-4.6808917,0.0000147,0.0000065\PG=C01 [X(

 Normal termination of Gaussian 16 at Tue Apr  8 23:56:26 2025.
