 Gaussian 16, Revision C.01,

 ----------------------------------------------------------------------
 #t hf aug-cc-pvdz symm=none int=(grid=ultrafine) guess=(read,tcheck) s
 table=opt
 ----------------------------------------------------------------------
 -----
 title
 -----
 Symbolic Z-matrix:
 Charge =  0 Multiplicity = 2

 SCF Done:  E(UHF) =  -464.125712013     A.U. after   24 cycles
 Normal termination of Gaussian 16 at Wed Apr  9 00:34:25 2025.
 Gaussian 16:  ES64L-G16RevC.01  3-Jul-2019

 ----------------------------------------------------------------------
 #t hf aug-cc-pvdz iop(5/13=1,5/36=2,99/5=2) pseudo=read geom=check gue
 ss=(read,tcheck) scf=(maxcycle=1)
 ----------------------------------------------------------------------
 -----
 title
 -----
 Structure from the checkpoint file:  "BDE49_nonexpt_413_mol2.chk"
 Charge =  0 Multiplicity = 2

                         Standard orientation:
 ---------------------------------------------------------------------
 Center     Atomic      Atomic             Coordinates (Angstroms)
 Number     Number       Type             X           Y           Z
 ---------------------------------------------------------------------
      1          9           0       -3.107805   -0.792355    0.021305
      2          5           0       -2.135103   -0.166914   -0.573494
      3          6           0       -0.820425    0.405949    0.076297
      4          8           0       -0.759457    1.493367    0.576678
      5          8           0        0.245548   -0.470927   -0.063440
      6          6           0        1.582412   -0.022072   -0.130527
      7          8           0        1.880841    1.064883   -0.505804
      8          6           0        2.499373   -1.134204    0.289971
      9          1           0        2.273813   -2.041065   -0.274445
     10          1           0        2.336280   -1.357394    1.347419
     11          1           0        3.532056   -0.832398    0.128834
 ---------------------------------------------------------------------

 SCF Done:  E(UHF) =  -464.564138688     A.U. after    2 cycles

 The electronic state is 2-A.
 Alpha  occ. eigenvalues --  -26.52219 -20.62536 -20.57741 -20.56684 -11.42186
 Alpha  occ. eigenvalues --  -11.40953 -11.27364  -7.73053  -1.65584  -1.58344
 Alpha  occ. eigenvalues --   -1.51685  -1.47939  -1.06032  -0.94297  -0.83318
 Alpha  occ. eigenvalues --   -0.77982  -0.75046  -0.72065  -0.71950  -0.70005
 Alpha  occ. eigenvalues --   -0.69562  -0.65276  -0.62504  -0.60520  -0.58680
 Alpha  occ. eigenvalues --   -0.54964  -0.49732  -0.49437  -0.46343  -0.38464
 Alpha virt. eigenvalues --    0.02816   0.03962   0.04539   0.04788   0.05801
 Alpha virt. eigenvalues --    0.06003   0.06832   0.08469   0.10067   0.11504
 Alpha virt. eigenvalues --    0.12352   0.12642   0.13581   0.14655   0.14965

  Beta  occ. eigenvalues --  -26.51902 -20.62582 -20.57171 -20.56691 -11.42169
  Beta  occ. eigenvalues --  -11.40878 -11.27363  -7.71094  -1.64725  -1.58244
  Beta  occ. eigenvalues --   -1.51087  -1.47453  -1.05938  -0.93220  -0.81837
  Beta  occ. eigenvalues --   -0.77060  -0.74481  -0.71813  -0.69976  -0.69656
  Beta  occ. eigenvalues --   -0.69027  -0.64616  -0.61862  -0.60431  -0.58105
  Beta  occ. eigenvalues --   -0.53832  -0.49109  -0.48096  -0.44763
  Beta virt. eigenvalues --    0.02580   0.03242   0.04466   0.04683   0.05658
  Beta virt. eigenvalues --    0.06036   0.06654   0.07704   0.10247   0.11166
  Beta virt. eigenvalues --    0.12335   0.12640   0.13125   0.14261   0.14852

 Mulliken charges and spin densities:
               1          2
     1  F   -0.443292  -0.034051
     2  B    0.515173   0.962684
     3  C    1.479647  -0.074418
     4  O   -0.984342   0.143849
     5  O   -1.269642  -0.005391
     6  C    1.742174   0.005510
     7  O   -1.112871   0.000364
     8  C   -0.608630   0.001163
     9  H    0.240750   0.000391
    10  H    0.247737  -0.000055
    11  H    0.193296  -0.000045
 Sum of Mulliken charges =  -0.00000   1.00000

 Dipole moment (field-independent basis, Debye):
    X=              0.6339    Y=             -3.7791    Z=              0.1416  Tot=              3.8345
                          Isotropic Fermi Contact Couplings
        Atom                 a.u.       MegaHertz       Gauss      10(-4) cm-1
     1  F(19)              0.06466     272.04280      97.07163      90.74371
     2  B(11)              0.33591     481.82041     171.92550     160.71799
     3  C(13)              0.06478      72.82194      25.98468      24.29079
     4  O(17)              0.04189     -25.39638      -9.06206      -8.47132
     5  O(17)             -0.00020       0.11859       0.04232       0.03956
     6  C(13)              0.00240       2.69345       0.96109       0.89844
     7  O(17)             -0.00032       0.19226       0.06860       0.06413
     8  C(13)              0.00027       0.30319       0.10819       0.10113

 Normal termination of Gaussian 16 at Wed Apr  9 00:34:30 2025.
