 Gaussian 16, Revision C.01,

 ----------------------------------------------------------------------
 #t hf aug-cc-pvdz symm=none int=(grid=ultrafine) guess=(read,tcheck) s
 table=(opt,rrhf)
 ----------------------------------------------------------------------
 -----
 title
 -----
 Symbolic Z-matrix:
 Charge =  0 Multiplicity = 1

 SCF Done:  E(RHF) =  -1982.14334888     A.U. after   16 cycles
 Normal termination of Gaussian 16 at Tue Apr  8 23:28:15 2025.
 Gaussian 16:  ES64L-G16RevC.01  3-Jul-2019

 ----------------------------------------------------------------------
 #t hf aug-cc-pvdz iop(5/13=1,5/36=2,99/5=2) pseudo=read geom=check gue
 ss=(read,tcheck) scf=(maxcycle=1)
 ----------------------------------------------------------------------
 -----
 title
 -----
 Structure from the checkpoint file:  "BDE49_nonexpt_1263_mol1.chk"
 Charge =  0 Multiplicity = 1

                         Standard orientation:
 ---------------------------------------------------------------------
 Center     Atomic      Atomic             Coordinates (Angstroms)
 Number     Number       Type             X           Y           Z
 ---------------------------------------------------------------------
      1         17           0       -2.778898   -1.540988   -0.412319
      2         17           0        0.749687    2.232818    1.178594
      3          8           0       -2.044366    1.583447   -1.508395
      4          8           0        0.232801   -1.513129    1.742926
      5         15           0       -1.830779   -0.054290    0.729919
      6         15           0        0.600692    1.368814   -0.753968
      7          6           0       -1.310842    1.095756   -0.703017
      8          6           0       -0.073068   -0.833425    0.803504
      9          6           0        0.886378   -0.440309   -0.327924
     10          1           0        0.493699   -0.919968   -1.241653
     11          6           0        2.348613   -0.892733   -0.095703
     12          1           0        2.597134   -0.633366    0.938347
     13          6           0        2.469445   -2.418358   -0.247040
     14          1           0        3.492469   -2.737345   -0.031526
     15          1           0        2.235956   -2.726424   -1.272067
     16          1           0        1.803639   -2.945243    0.435716
     17          6           0        3.344306   -0.185092   -1.026070
     18          1           0        4.352004   -0.570185   -0.851162
     19          1           0        3.102687   -0.359166   -2.079853
     20          1           0        3.373830    0.895132   -0.862493
 ---------------------------------------------------------------------

 SCF Done:  E(RHF) =  -1982.76473485     A.U. after    2 cycles

 The electronic state is 1-A.
 Alpha  occ. eigenvalues -- -105.59324-105.59044 -84.36982 -84.36586 -20.60441
 Alpha  occ. eigenvalues --  -20.58618 -11.39142 -11.38695 -11.30135 -11.27146
 Alpha  occ. eigenvalues --  -11.24855 -11.23968 -10.64145 -10.63863  -7.81049
 Alpha  occ. eigenvalues --   -7.80780  -7.80696  -7.80691  -7.80394  -7.80385
 Alpha  occ. eigenvalues --   -6.83557  -6.83261  -4.35834  -4.35699  -4.35494
 Alpha  occ. eigenvalues --   -4.35351  -4.35201  -4.34830  -1.53541  -1.52174
 Alpha  occ. eigenvalues --   -1.14900  -1.09979  -1.08964  -1.02919  -0.95478
 Alpha  occ. eigenvalues --   -0.93211  -0.87874  -0.82441  -0.76167  -0.75375
 Alpha  occ. eigenvalues --   -0.70349  -0.67240  -0.65135  -0.63624  -0.62389
 Alpha  occ. eigenvalues --   -0.61111  -0.59746  -0.58824  -0.57373  -0.56266
 Alpha  occ. eigenvalues --   -0.53451  -0.52144  -0.51426  -0.50954  -0.50901
 Alpha  occ. eigenvalues --   -0.50460  -0.49972  -0.49448  -0.46592  -0.41823
 Alpha  occ. eigenvalues --   -0.38060  -0.34528
 Alpha virt. eigenvalues --    0.02875   0.03147   0.03674   0.04120   0.05103
 Alpha virt. eigenvalues --    0.05880   0.06180   0.06672   0.07002   0.07337
 Alpha virt. eigenvalues --    0.07772   0.08467   0.08763   0.09720   0.10336

 Mulliken charges:
               1
     1  Cl  -0.460841
     2  Cl  -0.578087
     3  O   -1.242303
     4  O   -1.391979
     5  P    1.049333
     6  P    1.237439
     7  C    0.541932
     8  C    1.062880
     9  C   -0.211490
    10  H    0.344795
    11  C   -1.470278
    12  H    0.167015
    13  C   -0.193809
    14  H    0.145904
    15  H    0.214523
    16  H    0.163269
    17  C    0.000592
    18  H    0.146829
    19  H    0.243695
    20  H    0.230581
 Sum of Mulliken charges =  -0.00000

 Dipole moment (field-independent basis, Debye):
    X=              2.7718    Y=             -0.1774    Z=             -1.2407  Tot=              3.0420

 Test job not archived.
 1\1\GINC-SE366\SP\RHF\Aug-CC-pVDZ\C6H8Cl2O2P2\OHZDE\08-Apr-2025\0\\#t
 hf aug-cc-pvdz iop(5/13=1,5/36=2,99/5=2) pseudo=read geom=check guess=
 (read,tcheck) scf=(maxcycle=1)\\title\\0,1\Cl,0,-2.778898,-1.540988,-0
 .412319\Cl,0,0.749687,2.232818,1.178594\O,0,-2.044366,1.583447,-1.5083
 95\O,0,0.232801,-1.513129,1.742926\P,0,-1.830779,-0.05429,0.729919\P,0
 ,0.600692,1.368814,-0.753968\C,0,-1.310842,1.095756,-0.703017\C,0,-0.0
 73068,-0.833425,0.803504\C,0,0.886378,-0.440309,-0.327924\H,0,0.493699
 ,-0.919968,-1.241653\C,0,2.348613,-0.892733,-0.095703\H,0,2.597134,-0.

 Normal termination of Gaussian 16 at Tue Apr  8 23:28:29 2025.
