 Gaussian 16, Revision C.01,

 ----------------------------------------------------------------------
 #t hf aug-cc-pvdz symm=none int=(grid=ultrafine) guess=(read,tcheck) s
 table=opt
 ----------------------------------------------------------------------
 -----
 title
 -----
 Symbolic Z-matrix:
 Charge =  0 Multiplicity = 2

 SCF Done:  E(UHF) =  -476.168334262     A.U. after   15 cycles
 Normal termination of Gaussian 16 at Tue Apr  8 22:45:29 2025.
 Gaussian 16:  ES64L-G16RevC.01  3-Jul-2019

 ----------------------------------------------------------------------
 #t hf aug-cc-pvdz iop(5/13=1,5/36=2,99/5=2) pseudo=read geom=check gue
 ss=(read,tcheck) scf=(maxcycle=1)
 ----------------------------------------------------------------------
 -----
 title
 -----
 Structure from the checkpoint file:  "BDE49_expt_1563_mol2.chk"
 Charge =  0 Multiplicity = 2

                         Standard orientation:
 ---------------------------------------------------------------------
 Center     Atomic      Atomic             Coordinates (Angstroms)
 Number     Number       Type             X           Y           Z
 ---------------------------------------------------------------------
      1         16           0       -1.195574   -0.159439   -0.000000
      2          6           0        0.440361    0.620884   -0.000000
      3          6           0        1.629250   -0.335857   -0.000000
      4          1           0        0.456732    1.287039    0.871073
      5          1           0        0.456733    1.287042   -0.871070
      6          1           0        1.613945   -0.978705    0.882544
      7          1           0        2.570168    0.224201    0.000001
      8          1           0        1.613946   -0.978703   -0.882546
 ---------------------------------------------------------------------

 SCF Done:  E(UHF) =  -476.311460061     A.U. after    2 cycles

 The electronic state is 2-A.
 Alpha  occ. eigenvalues --  -93.96323 -11.27718 -11.23905  -8.24386  -6.23562
 Alpha  occ. eigenvalues --   -6.21800  -6.21490  -1.09319  -0.96524  -0.82623
 Alpha  occ. eigenvalues --   -0.64523  -0.60150  -0.55520  -0.53001  -0.48009
 Alpha  occ. eigenvalues --   -0.43169  -0.37647
 Alpha virt. eigenvalues --    0.03598   0.04541   0.04583   0.05725   0.07652
 Alpha virt. eigenvalues --    0.08276   0.12421   0.12593   0.13060   0.14895
 Alpha virt. eigenvalues --    0.15923   0.16883   0.17078   0.18049   0.18097

  Beta  occ. eigenvalues --  -93.95430 -11.27848 -11.23904  -8.23361  -6.21273
  Beta  occ. eigenvalues --   -6.20952  -6.19600  -1.07086  -0.92283  -0.79203
  Beta  occ. eigenvalues --   -0.63131  -0.59739  -0.55283  -0.51753  -0.46882
  Beta  occ. eigenvalues --   -0.35438
  Beta virt. eigenvalues --    0.00959   0.03617   0.04555   0.04879   0.05782
  Beta virt. eigenvalues --    0.07697   0.08435   0.12558   0.12669   0.14720
  Beta virt. eigenvalues --    0.14962   0.15989   0.16972   0.17721   0.18177

 Mulliken charges and spin densities:
               1          2
     1  S    0.240799   1.088323
     2  C   -0.896016  -0.114644
     3  C   -0.330215  -0.010472
     4  H    0.240654   0.018506
     5  H    0.240651   0.018506
     6  H    0.176620  -0.000434
     7  H    0.150886   0.000649
     8  H    0.176620  -0.000434
 Sum of Mulliken charges =  -0.00000   1.00000

 Dipole moment (field-independent basis, Debye):
    X=              1.7233    Y=              0.7649    Z=              0.0000  Tot=              1.8854
                          Isotropic Fermi Contact Couplings
        Atom                 a.u.       MegaHertz       Gauss      10(-4) cm-1
     1  S(33)              0.17748      60.96017      21.75210      20.33412
     2  C(13)             -0.02568     -28.87180     -10.30217      -9.63059
     3  C(13)             -0.00067      -0.75753      -0.27031      -0.25269
     4  H(1)               0.01197      53.48590      19.08510      17.84098
     5  H(1)               0.01197      53.48521      19.08485      17.84075
     6  H(1)              -0.00026      -1.14435      -0.40833      -0.38172
     7  H(1)              -0.00074      -3.30337      -1.17872      -1.10188
     8  H(1)              -0.00026      -1.14436      -0.40833      -0.38172

 Normal termination of Gaussian 16 at Tue Apr  8 22:45:31 2025.
