 Gaussian 16, Revision C.01,

 ----------------------------------------------------------------------
 #t hf aug-cc-pvdz symm=none int=(grid=ultrafine) guess=(read,tcheck) s
 table=opt
 ----------------------------------------------------------------------
 -----
 title
 -----
 Symbolic Z-matrix:
 Charge =  0 Multiplicity = 2

 SCF Done:  E(UHF) =  -312.342504853     A.U. after   21 cycles
 Normal termination of Gaussian 16 at Wed Apr  9 00:32:15 2025.
 Gaussian 16:  ES64L-G16RevC.01  3-Jul-2019

 ----------------------------------------------------------------------
 #t hf aug-cc-pvdz iop(5/13=1,5/36=2,99/5=2) pseudo=read geom=check gue
 ss=(read,tcheck) scf=(maxcycle=1)
 ----------------------------------------------------------------------
 -----
 title
 -----
 Structure from the checkpoint file:  "BDE49_nonexpt_377_mol2.chk"
 Charge =  0 Multiplicity = 2

                         Standard orientation:
 ---------------------------------------------------------------------
 Center     Atomic      Atomic             Coordinates (Angstroms)
 Number     Number       Type             X           Y           Z
 ---------------------------------------------------------------------
      1          9           0       -2.023847   -0.088945   -0.220141
      2          5           0       -0.969556   -0.126295    0.543801
      3          6           0        0.521232    0.099665    0.074192
      4          8           0        0.960832    1.218800   -0.056322
      5          8           0        1.260224   -1.021338   -0.057090
      6          1           0        2.166557   -0.745710   -0.275590
 ---------------------------------------------------------------------

 SCF Done:  E(UHF) =  -312.631802147     A.U. after    2 cycles

 The electronic state is 2-A.
 Alpha  occ. eigenvalues --  -26.51766 -20.62279 -20.56625 -11.40437  -7.72735
 Alpha  occ. eigenvalues --   -1.65101  -1.56671  -1.47591  -0.92497  -0.81267
 Alpha  occ. eigenvalues --   -0.75026  -0.72803  -0.71087  -0.69233  -0.64584
 Alpha  occ. eigenvalues --   -0.60538  -0.50720  -0.48019  -0.38576
 Alpha virt. eigenvalues --    0.03433   0.04420   0.05157   0.05423   0.07442
 Alpha virt. eigenvalues --    0.08760   0.12202   0.12708   0.13607   0.15235
 Alpha virt. eigenvalues --    0.19413   0.20063   0.21203   0.21674   0.24680

  Beta  occ. eigenvalues --  -26.51448 -20.62286 -20.56307 -11.40235  -7.70763
  Beta  occ. eigenvalues --   -1.64239  -1.56468  -1.47020  -0.90776  -0.80140
  Beta  occ. eigenvalues --   -0.73444  -0.72524  -0.69434  -0.68206  -0.63894
  Beta  occ. eigenvalues --   -0.59400  -0.48943  -0.46293
  Beta virt. eigenvalues --    0.03200   0.03597   0.04962   0.05529   0.06594
  Beta virt. eigenvalues --    0.09042   0.11091   0.12674   0.13125   0.15225
  Beta virt. eigenvalues --    0.16771   0.19769   0.20341   0.21344   0.21990

 Mulliken charges and spin densities:
               1          2
     1  F   -0.397382  -0.034723
     2  B    0.491334   0.964346
     3  C    1.615542  -0.022401
     4  O   -1.023464   0.082747
     5  O   -1.040602   0.009924
     6  H    0.354571   0.000107
 Sum of Mulliken charges =  -0.00000   1.00000

 Dipole moment (field-independent basis, Debye):
    X=              0.5457    Y=             -1.5246    Z=             -0.0117  Tot=              1.6194
                          Isotropic Fermi Contact Couplings
        Atom                 a.u.       MegaHertz       Gauss      10(-4) cm-1
     1  F(19)              0.06446     271.22364      96.77934      90.47047
     2  B(11)              0.34043     488.29901     174.23723     162.87902
     3  C(13)              0.07142      80.29401      28.65090      26.78320
     4  O(17)              0.02382     -14.44160      -5.15312      -4.81720
     5  O(17)             -0.00095       0.57853       0.20643       0.19298
     6  H(1)               0.00019       0.86814       0.30977       0.28958
 --------------------------------------------------------
       Center         ----  Spin Dipole Couplings  ----

 Normal termination of Gaussian 16 at Wed Apr  9 00:32:16 2025.
