 Gaussian 16, Revision C.01,

 ----------------------------------------------------------------------
 #t hf aug-cc-pvdz symm=none int=(grid=ultrafine) guess=(read,tcheck) s
 table=(opt,rrhf)
 ----------------------------------------------------------------------
 -----
 title
 -----
 Symbolic Z-matrix:
 Charge =  0 Multiplicity = 1

 SCF Done:  E(RHF) =  -742.155341144     A.U. after   16 cycles
 Normal termination of Gaussian 16 at Tue Apr  8 23:15:55 2025.
 Gaussian 16:  ES64L-G16RevC.01  3-Jul-2019

 ----------------------------------------------------------------------
 #t hf aug-cc-pvdz iop(5/13=1,5/36=2,99/5=2) pseudo=read geom=check gue
 ss=(read,tcheck) scf=(maxcycle=1)
 ----------------------------------------------------------------------
 -----
 title
 -----
 Structure from the checkpoint file:  "BDE49_expt_856_mol1.chk"
 Charge =  0 Multiplicity = 1

                         Standard orientation:
 ---------------------------------------------------------------------
 Center     Atomic      Atomic             Coordinates (Angstroms)
 Number     Number       Type             X           Y           Z
 ---------------------------------------------------------------------
      1          6           0        1.380485    0.277019    0.002457
      2          6           0        0.549356    1.405417   -0.002865
      3          6           0       -0.828038    1.258336   -0.012480
      4          6           0        0.810289   -0.998996   -0.003617
      5          6           0       -0.578212   -1.135382   -0.009130
      6          6           0       -1.408258   -0.016836   -0.004762
      7          8           0        2.717557    0.528397    0.008966
      8          1           0        1.010573    2.385494   -0.005302
      9          1           0       -1.464690    2.134484   -0.027181
     10          1           0        1.427279   -1.887267   -0.005472
     11          1           0       -1.017564   -2.125423   -0.016292
     12         16           0       -3.194944   -0.210519   -0.072075
     13          1           0       -3.432893   -0.143985    1.251587
     14          6           0        3.617109   -0.572508    0.007476
     15          1           0        3.489121   -1.196338    0.898898
     16          1           0        4.615589   -0.138969    0.012450
     17          1           0        3.494850   -1.189164   -0.889684
 ---------------------------------------------------------------------

 SCF Done:  E(RHF) =  -742.567392956     A.U. after    2 cycles

 The electronic state is 1-A.
 Alpha  occ. eigenvalues --  -93.95361 -20.58034 -11.31758 -11.30228 -11.26853
 Alpha  occ. eigenvalues --  -11.25824 -11.25649 -11.24678 -11.24262  -8.23374
 Alpha  occ. eigenvalues --   -6.21228  -6.21086  -6.20870  -1.50484  -1.16694
 Alpha  occ. eigenvalues --   -1.06414  -1.03187  -0.98569  -0.93469  -0.85332
 Alpha  occ. eigenvalues --   -0.81236  -0.73473  -0.68870  -0.66362  -0.65536
 Alpha  occ. eigenvalues --   -0.63419  -0.61001  -0.59744  -0.56564  -0.53850
 Alpha  occ. eigenvalues --   -0.53378  -0.49713  -0.49212  -0.46214  -0.37482
 Alpha  occ. eigenvalues --   -0.35868  -0.32545
 Alpha virt. eigenvalues --    0.03170   0.03664   0.04036   0.04871   0.05267
 Alpha virt. eigenvalues --    0.05540   0.06633   0.08421   0.09030   0.09329
 Alpha virt. eigenvalues --    0.09584   0.11124   0.11262   0.12788   0.13554

 Mulliken charges:
               1
     1  C    1.537950
     2  C    0.325709
     3  C    0.057758
     4  C    0.113596
     5  C   -0.049023
     6  C    0.140879
     7  O   -1.854896
     8  H   -0.283856
     9  H   -0.191877
    10  H   -0.428962
    11  H   -0.183033
    12  S    0.061798
    13  H    0.340863
    14  C    0.089788
    15  H    0.179133
    16  H   -0.035078
    17  H    0.179251
 Sum of Mulliken charges =   0.00000

 Dipole moment (field-independent basis, Debye):
    X=              2.3170    Y=             -0.9769    Z=              0.8722  Tot=              2.6615

 Test job not archived.
 1\1\GINC-SE403\SP\RHF\Aug-CC-pVDZ\C7H8O1S1\OHZDE\08-Apr-2025\0\\#t hf
 aug-cc-pvdz iop(5/13=1,5/36=2,99/5=2) pseudo=read geom=check guess=(re
 ad,tcheck) scf=(maxcycle=1)\\title\\0,1\C,0,1.380485,0.277019,0.002457
 \C,0,0.549356,1.405417,-0.002865\C,0,-0.828038,1.258336,-0.01248\C,0,0
 .810289,-0.998996,-0.003617\C,0,-0.578212,-1.135382,-0.00913\C,0,-1.40
 8258,-0.016836,-0.004762\O,0,2.717557,0.528397,0.008966\H,0,1.010573,2
 .385494,-0.005302\H,0,-1.46469,2.134484,-0.027181\H,0,1.427279,-1.8872
 67,-0.005472\H,0,-1.017564,-2.125423,-0.016292\S,0,-3.194944,-0.210519

 Normal termination of Gaussian 16 at Tue Apr  8 23:16:03 2025.
