 Gaussian 16, Revision C.01,

 ----------------------------------------------------------------------
 #t hf aug-cc-pvdz symm=none int=(grid=ultrafine) guess=(read,tcheck) s
 table=(opt,rrhf)
 ----------------------------------------------------------------------
 -----
 title
 -----
 Symbolic Z-matrix:
 Charge =  0 Multiplicity = 1

 SCF Done:  E(RHF) =  -1502.77454251     A.U. after   14 cycles
 Normal termination of Gaussian 16 at Tue Apr  8 23:55:28 2025.
 Gaussian 16:  ES64L-G16RevC.01  3-Jul-2019

 ----------------------------------------------------------------------
 #t hf aug-cc-pvdz iop(5/13=1,5/36=2,99/5=2) pseudo=read geom=check gue
 ss=(read,tcheck) scf=(maxcycle=1)
 ----------------------------------------------------------------------
 -----
 title
 -----
 Structure from the checkpoint file:  "BDE49_nonexpt_1932_mol1.chk"
 Charge =  0 Multiplicity = 1

                         Standard orientation:
 ---------------------------------------------------------------------
 Center     Atomic      Atomic             Coordinates (Angstroms)
 Number     Number       Type             X           Y           Z
 ---------------------------------------------------------------------
      1         14           0        0.596190    1.583822    0.129693
      2          6           0       -1.073437    1.227179   -0.681891
      3         16           0       -2.001011   -0.097651    0.146506
      4          8           0       -1.205978   -0.496562    1.304588
      5          6           0       -1.983544   -1.459331   -1.017833
      6          1           0       -2.566835   -1.179341   -1.894403
      7          1           0       -2.456025   -2.293370   -0.497613
      8          1           0       -0.947405   -1.686879   -1.267869
      9          8           0       -3.367711    0.342873    0.331712
     10         16           0        1.939758   -0.211791   -0.155727
     11          1           0        0.509456    1.943288    1.554751
     12          1           0        1.283237    2.626503   -0.657523
     13          8           0        1.298434   -1.030225   -1.191802
     14          8           0        3.291824    0.291932   -0.369220
     15          6           0        1.957432   -1.178140    1.361461
     16          1           0        0.934730   -1.443406    1.621935
     17          1           0        2.434160   -0.588195    2.143534
     18          1           0        2.555504   -2.061864    1.130493
     19          1           0       -0.928252    0.951460   -1.728212
     20          1           0       -1.720441    2.106978   -0.645907
 ---------------------------------------------------------------------

 SCF Done:  E(RHF) =  -1503.35860338     A.U. after    2 cycles

 The electronic state is 1-A.
 Alpha  occ. eigenvalues --  -94.20551 -94.17565 -69.59772 -20.54976 -20.54582
 Alpha  occ. eigenvalues --  -20.53741 -20.53275 -11.29793 -11.29115 -11.28262
 Alpha  occ. eigenvalues --   -8.45891  -8.43187  -6.44011  -6.43789  -6.43719
 Alpha  occ. eigenvalues --   -6.41274  -6.41047  -6.40970  -6.26675  -4.02057
 Alpha  occ. eigenvalues --   -4.01977  -4.01957  -1.56659  -1.54359  -1.44826
 Alpha  occ. eigenvalues --   -1.42883  -1.10053  -1.05853  -1.02566  -0.88961
 Alpha  occ. eigenvalues --   -0.84973  -0.76228  -0.71213  -0.70211  -0.68054
 Alpha  occ. eigenvalues --   -0.66823  -0.66617  -0.65630  -0.63947  -0.61859
 Alpha  occ. eigenvalues --   -0.60240  -0.59944  -0.59452  -0.55471  -0.53434
 Alpha  occ. eigenvalues --   -0.50412  -0.49980  -0.48869  -0.48107  -0.46982
 Alpha  occ. eigenvalues --   -0.45937  -0.44882  -0.40871
 Alpha virt. eigenvalues --    0.02605   0.03279   0.03701   0.04637   0.04992
 Alpha virt. eigenvalues --    0.05508   0.06192   0.06937   0.07691   0.08088
 Alpha virt. eigenvalues --    0.08669   0.09071   0.10724   0.10852   0.11451

 Mulliken charges:
               1
     1  Si   1.196919
     2  C   -0.967818
     3  S    3.474171
     4  O   -1.710632
     5  C   -0.626745
     6  H    0.227992
     7  H    0.246984
     8  H    0.176181
     9  O   -1.589967
    10  S    2.568008
    11  H   -0.041921
    12  H   -0.125590
    13  O   -1.561916
    14  O   -1.454138
    15  C   -0.711157
    16  H    0.194198
    17  H    0.173934
    18  H    0.230209
    19  H    0.138481
    20  H    0.162808
 Sum of Mulliken charges =  -0.00000

 Dipole moment (field-independent basis, Debye):
    X=             -1.1264    Y=              0.6761    Z=             -0.3019  Tot=              1.3480

 Test job not archived.
 1\1\GINC-SE102\SP\RHF\Aug-CC-pVDZ\C3H10O4S2Si1\OHZDE\08-Apr-2025\0\\#t
  hf aug-cc-pvdz iop(5/13=1,5/36=2,99/5=2) pseudo=read geom=check guess
 =(read,tcheck) scf=(maxcycle=1)\\title\\0,1\Si,0,0.59619,1.583822,0.12
 9693\C,0,-1.073437,1.227179,-0.681891\S,0,-2.001011,-0.097651,0.146506
 \O,0,-1.205978,-0.496562,1.304588\C,0,-1.983544,-1.459331,-1.017833\H,
 0,-2.566835,-1.179341,-1.894403\H,0,-2.456025,-2.29337,-0.497613\H,0,-
 0.947405,-1.686879,-1.267869\O,0,-3.367711,0.342873,0.331712\S,0,1.939
 758,-0.211791,-0.155727\H,0,0.509456,1.943288,1.554751\H,0,1.283237,2.

 Normal termination of Gaussian 16 at Tue Apr  8 23:55:42 2025.
