 Gaussian 16, Revision C.01,

 ----------------------------------------------------------------------
 #t hf aug-cc-pvdz symm=none int=(grid=ultrafine) guess=(read,tcheck) s
 table=opt
 ----------------------------------------------------------------------
 -----
 title
 -----
 Symbolic Z-matrix:
 Charge =  0 Multiplicity = 2

 SCF Done:  E(UHF) =  -963.941191368     A.U. after   18 cycles
 Normal termination of Gaussian 16 at Tue Apr  8 23:25:00 2025.
 Gaussian 16:  ES64L-G16RevC.01  3-Jul-2019

 ----------------------------------------------------------------------
 #t hf aug-cc-pvdz iop(5/13=1,5/36=2,99/5=2) pseudo=read geom=check gue
 ss=(read,tcheck) scf=(maxcycle=1)
 ----------------------------------------------------------------------
 -----
 title
 -----
 Structure from the checkpoint file:  "BDE49_nonexpt_1256_mol2.chk"
 Charge =  0 Multiplicity = 2

                         Standard orientation:
 ---------------------------------------------------------------------
 Center     Atomic      Atomic             Coordinates (Angstroms)
 Number     Number       Type             X           Y           Z
 ---------------------------------------------------------------------
      1         16           0       -0.415460    0.127366    0.091330
      2          8           0       -0.881046   -0.971111   -1.031829
      3          8           0       -0.825937    1.407369   -0.408576
      4          8           0       -0.852247   -0.376350    1.373216
      5         15           0        1.767616    0.039275   -0.045817
      6          1           0       -1.155212   -1.771301   -0.558321
      7          1           0        1.762175   -1.334954    0.321828
 ---------------------------------------------------------------------

 SCF Done:  E(UHF) =  -964.261518855     A.U. after    2 cycles

 The electronic state is 2-A.
 Alpha  occ. eigenvalues --  -94.24455 -84.35571 -20.63157 -20.56824 -20.56266
 Alpha  occ. eigenvalues --   -8.49309  -6.82727  -6.47407  -6.47262  -6.47030
 Alpha  occ. eigenvalues --   -4.35039  -4.34379  -4.33946  -1.61955  -1.49604
 Alpha  occ. eigenvalues --   -1.47028  -0.99875  -0.86440  -0.75773  -0.70836
 Alpha  occ. eigenvalues --   -0.69228  -0.64549  -0.57852  -0.53777  -0.52614
 Alpha  occ. eigenvalues --   -0.49764  -0.47856  -0.42808  -0.39372
 Alpha virt. eigenvalues --    0.02718   0.04480   0.06070   0.08558   0.08878
 Alpha virt. eigenvalues --    0.10306   0.11373   0.13476   0.14319   0.14820
 Alpha virt. eigenvalues --    0.16595   0.17915   0.18774   0.20088   0.20605

  Beta  occ. eigenvalues --  -94.24494 -84.34855 -20.63097 -20.56749 -20.56277
  Beta  occ. eigenvalues --   -8.49362  -6.81821  -6.47429  -6.47295  -6.47155
  Beta  occ. eigenvalues --   -4.33821  -4.33525  -4.31537  -1.61918  -1.49497
  Beta  occ. eigenvalues --   -1.46949  -0.97313  -0.83237  -0.75292  -0.70600
  Beta  occ. eigenvalues --   -0.68145  -0.64484  -0.57221  -0.53205  -0.52021
  Beta  occ. eigenvalues --   -0.49303  -0.47087  -0.41591
  Beta virt. eigenvalues --   -0.00656   0.02901   0.04663   0.06495   0.08690
  Beta virt. eigenvalues --    0.10393   0.10999   0.11501   0.13902   0.14886
  Beta virt. eigenvalues --    0.15883   0.17770   0.18613   0.19067   0.21851

 Mulliken charges and spin densities:
               1          2
     1  S    2.959971  -0.057312
     2  O   -1.171711  -0.019445
     3  O   -1.379621   0.002662
     4  O   -1.371350  -0.000481
     5  P    0.355302   1.227787
     6  H    0.357489   0.001087
     7  H    0.249919  -0.154297
 Sum of Mulliken charges =  -0.00000   1.00000

 Dipole moment (field-independent basis, Debye):
    X=              3.4047    Y=             -3.0347    Z=             -0.5889  Tot=              4.5987
                          Isotropic Fermi Contact Couplings
        Atom                 a.u.       MegaHertz       Gauss      10(-4) cm-1
     1  S(33)             -0.05019     -17.23899      -6.15130      -5.75031
     2  O(17)              0.01090      -6.60908      -2.35828      -2.20455
     3  O(17)             -0.00067       0.40696       0.14521       0.13575
     4  O(17)              0.00898      -5.44158      -1.94169      -1.81512
     5  P(31)              0.20202     365.88298     130.55615     122.04543
     6  H(1)              -0.00009      -0.38760      -0.13831      -0.12929
     7  H(1)              -0.01451     -64.85901     -23.14331     -21.63464
 --------------------------------------------------------

 Normal termination of Gaussian 16 at Tue Apr  8 23:25:03 2025.
