 Gaussian 16, Revision C.01,

 ----------------------------------------------------------------------
 #t hf aug-cc-pvdz symm=none int=(grid=ultrafine) guess=(read,tcheck) s
 table=opt
 ----------------------------------------------------------------------
 -----
 title
 -----
 Symbolic Z-matrix:
 Charge =  0 Multiplicity = 2

 SCF Done:  E(UHF) =  -266.239032826     a.u. after   13 cycles
 Normal termination of Gaussian 16 at Tue Apr  8 22:56:22 2025.
 Gaussian 16:  ES64L-G16RevC.01  3-Jul-2019

 ----------------------------------------------------------------------
 #t hf aug-cc-pvdz iop(5/13=1,5/36=2,99/5=2) pseudo=read geom=check gue
 ss=(read,tcheck) scf=(maxcycle=1)
 ----------------------------------------------------------------------
 -----
 title
 -----
 Structure from the checkpoint file:  "BDE49_expt_1876_mol2.chk"
 Charge =  0 Multiplicity = 2

                         Standard orientation:
 ---------------------------------------------------------------------
 Center     Atomic      Atomic             Coordinates (Angstroms)
 Number     Number       Type             X           Y           Z
 ---------------------------------------------------------------------
      1          8           0        1.742095   -0.593681   -0.000104
      2          6           0        0.620281   -0.015485    0.000160
      3          8           0        0.743675    1.231309   -0.000079
      4          6           0       -1.907782    0.177686    0.000027
      5          1           0       -2.825666   -0.413147   -0.000052
      6          1           0       -1.916328    0.820812   -0.881813
      7          1           0       -1.916418    0.820718    0.881935
      8          6           0       -0.689033   -0.747817    0.000042
      9          1           0       -0.684235   -1.407815   -0.874086
     10          1           0       -0.684316   -1.407900    0.874105
 ---------------------------------------------------------------------

 SCF Done:  E(UHF) =  -266.503360642     A.U. after    2 cycles

 The electronic state is 2-A.
 Alpha  occ. eigenvalues --  -20.68339 -20.53694 -11.40323 -11.28400 -11.25001
 Alpha  occ. eigenvalues --   -1.62526  -1.43472  -1.08989  -0.92896  -0.81480
 Alpha  occ. eigenvalues --   -0.75766  -0.70577  -0.70180  -0.63224  -0.60190
 Alpha  occ. eigenvalues --   -0.56308  -0.53930  -0.53101  -0.47051  -0.45741
 Alpha virt. eigenvalues --    0.02953   0.04202   0.04282   0.05509   0.07463
 Alpha virt. eigenvalues --    0.09199   0.11182   0.11464   0.11941   0.13814
 Alpha virt. eigenvalues --    0.14694   0.15557   0.15581   0.16680   0.17631

  Beta  occ. eigenvalues --  -20.64254 -20.53197 -11.40615 -11.28325 -11.24983
  Beta  occ. eigenvalues --   -1.52708  -1.38326  -1.08432  -0.91920  -0.77789
  Beta  occ. eigenvalues --   -0.70405  -0.68662  -0.63351  -0.61545  -0.56868
  Beta  occ. eigenvalues --   -0.54475  -0.52835  -0.45470  -0.43686
  Beta virt. eigenvalues --    0.02815   0.03448   0.04199   0.05449   0.05595
  Beta virt. eigenvalues --    0.07463   0.09315   0.11533   0.11694   0.12070
  Beta virt. eigenvalues --    0.14420   0.14915   0.15533   0.15608   0.16708

 Mulliken charges and spin densities:
               1          2
     1  O   -0.871914   1.075348
     2  C    1.839912  -0.227542
     3  O   -1.164175   0.075933
     4  C   -0.238520   0.005399
     5  H    0.137682   0.001885
     6  H    0.175716  -0.000035
     7  H    0.175681  -0.000034
     8  C   -0.554020   0.058205
     9  H    0.249800   0.005420
    10  H    0.249838   0.005421
 Sum of Mulliken charges =  -0.00000   1.00000

 Dipole moment (field-independent basis, Debye):
    X=             -2.3177    Y=             -3.0770    Z=              0.0005  Tot=              3.8522
                          Isotropic Fermi Contact Couplings
        Atom                 a.u.       MegaHertz       Gauss      10(-4) cm-1
     1  O(17)              0.25908    -157.05568     -56.04137     -52.38814
     2  C(13)             -0.05199     -58.45035     -20.85654     -19.49694
     3  O(17)              0.03805     -23.06626      -8.23061      -7.69408
     4  C(13)              0.00352       3.95979       1.41295       1.32085
     5  H(1)               0.00101       4.51308       1.61038       1.50540
     6  H(1)              -0.00007      -0.29858      -0.10654      -0.09960
     7  H(1)              -0.00007      -0.29860      -0.10655      -0.09960
     8  C(13)              0.01010      11.35080       4.05025       3.78622

 Normal termination of Gaussian 16 at Tue Apr  8 22:56:24 2025.
