 Gaussian 16, Revision C.01,

 ----------------------------------------------------------------------
 #t hf aug-cc-pvdz symm=none int=(grid=ultrafine) guess=(read,tcheck) s
 table=(opt,rrhf)
 ----------------------------------------------------------------------
 -----
 title
 -----
 Symbolic Z-matrix:
 Charge =  0 Multiplicity = 1

 SCF Done:  E(RHF) =  -209.142761648     A.U. after   12 cycles
 Normal termination of Gaussian 16 at Tue Apr  8 22:33:23 2025.
 Gaussian 16:  ES64L-G16RevC.01  3-Jul-2019

 ----------------------------------------------------------------------
 #t hf aug-cc-pvdz iop(5/13=1,5/36=2,99/5=2) pseudo=read geom=check gue
 ss=(read,tcheck) scf=(maxcycle=1)
 ----------------------------------------------------------------------
 -----
 title
 -----
 Structure from the checkpoint file:  "BDE49_expt_1072_mol1.chk"
 Charge =  0 Multiplicity = 1

                         Standard orientation:
 ---------------------------------------------------------------------
 Center     Atomic      Atomic             Coordinates (Angstroms)
 Number     Number       Type             X           Y           Z
 ---------------------------------------------------------------------
      1          6           0        0.634042    0.659787   -0.267345
      2          6           0       -0.795632    0.558465    0.263986
      3          7           0        1.357887   -0.561912    0.120454
      4          8           0       -1.401360   -0.644947   -0.167655
      5          1           0       -0.693266   -1.303333   -0.099254
      6          1           0        1.105135    1.591764    0.079315
      7          1           0        0.597103    0.689507   -1.359815
      8          1           0        1.664127   -0.508977    1.087152
      9          1           0        2.184454   -0.698604   -0.449418
     10          1           0       -1.401185    1.390419   -0.105252
     11          1           0       -0.781156    0.622670    1.365486
 ---------------------------------------------------------------------

 SCF Done:  E(RHF) =  -209.366306926     A.U. after    2 cycles

 The electronic state is 1-A.
 Alpha  occ. eigenvalues --  -20.52977 -15.50020 -11.27742 -11.26536  -1.43409
 Alpha  occ. eigenvalues --   -1.18881  -0.98347  -0.83766  -0.72010  -0.67282
 Alpha  occ. eigenvalues --   -0.64825  -0.62964  -0.56709  -0.53426  -0.49229
 Alpha  occ. eigenvalues --   -0.45323  -0.42291
 Alpha virt. eigenvalues --    0.03083   0.04410   0.04645   0.05526   0.06790
 Alpha virt. eigenvalues --    0.07134   0.07519   0.11401   0.11856   0.13738
 Alpha virt. eigenvalues --    0.15561   0.16340   0.16998   0.17433   0.19092

 Mulliken charges:
               1
     1  C   -0.651421
     2  C    0.696769
     3  N   -0.042979
     4  O   -1.141527
     5  H    0.389501
     6  H    0.140933
     7  H    0.052514
     8  H    0.174666
     9  H    0.206219
    10  H    0.074598
    11  H    0.100728
 Sum of Mulliken charges =  -0.00000

 Dipole moment (field-independent basis, Debye):
    X=              2.8651    Y=              1.3399    Z=              0.5825  Tot=              3.2161

 Test job not archived.
 1\1\GINC-SE080\SP\RHF\Aug-CC-pVDZ\C2H7N1O1\OHZDE\08-Apr-2025\0\\#t hf
 aug-cc-pvdz iop(5/13=1,5/36=2,99/5=2) pseudo=read geom=check guess=(re
 ad,tcheck) scf=(maxcycle=1)\\title\\0,1\C,0,0.634042,0.659787,-0.26734
 5\C,0,-0.795632,0.558465,0.263986\N,0,1.357887,-0.561912,0.120454\O,0,
 -1.40136,-0.644947,-0.167655\H,0,-0.693266,-1.303333,-0.099254\H,0,1.1
 05135,1.591764,0.079315\H,0,0.597103,0.689507,-1.359815\H,0,1.664127,-
 0.508977,1.087152\H,0,2.184454,-0.698604,-0.449418\H,0,-1.401185,1.390
 419,-0.105252\H,0,-0.781156,0.62267,1.365486\\Version=ES64L-G16RevC.01

 Normal termination of Gaussian 16 at Tue Apr  8 22:33:25 2025.
