 Gaussian 16, Revision C.01,

 ----------------------------------------------------------------------
 #t hf aug-cc-pvdz symm=none int=(grid=ultrafine) guess=(read,tcheck) s
 table=(opt,rrhf)
 ----------------------------------------------------------------------
 -----
 title
 -----
 Symbolic Z-matrix:
 Charge =  0 Multiplicity = 1

 SCF Done:  E(RHF) =  -564.549320248     A.U. after   12 cycles
 Normal termination of Gaussian 16 at Tue Apr  8 23:07:55 2025.
 Gaussian 16:  ES64L-G16RevC.01  3-Jul-2019

 ----------------------------------------------------------------------
 #t hf aug-cc-pvdz iop(5/13=1,5/36=2,99/5=2) pseudo=read geom=check gue
 ss=(read,tcheck) scf=(maxcycle=1)
 ----------------------------------------------------------------------
 -----
 title
 -----
 Structure from the checkpoint file:  "BDE49_expt_397_mol1.chk"
 Charge =  0 Multiplicity = 1

                         Standard orientation:
 ---------------------------------------------------------------------
 Center     Atomic      Atomic             Coordinates (Angstroms)
 Number     Number       Type             X           Y           Z
 ---------------------------------------------------------------------
      1          6           0        1.111942   -0.000231   -0.000018
      2         14           0       -0.811922    0.000001    0.000014
      3          6           0       -1.470703   -0.881628    1.534760
      4          1           0       -1.147203   -1.925677    1.577013
      5          1           0       -2.565466   -0.878790    1.531533
      6          1           0       -1.145710   -0.393284    2.457996
      7          6           0       -1.469639    1.770363   -0.003788
      8          1           0       -1.145979    2.328755    0.879348
      9          1           0       -2.564406    1.766707   -0.004903
     10          1           0       -1.144141    2.325659   -0.888229
     11          6           0       -1.470570   -0.888197   -1.530990
     12          1           0       -1.145988   -1.932068   -1.569431
     13          1           0       -1.146641   -0.403104   -2.456335
     14          1           0       -2.565332   -0.886453   -1.527121
     15          6           0        1.644114    0.728566    1.252145
     16          1           0        1.318376    1.772424    1.288461
     17          1           0        2.741584    0.730092    1.253613
     18          1           0        1.319264    0.243944    2.177716
     19          6           0        1.644237   -1.448898    0.005019
     20          1           0        1.319615   -2.001885    0.891515
     21          1           0        2.741718   -1.450825    0.004297
     22          1           0        1.318325   -2.008530   -0.876841
     23          6           0        1.643996    0.719900   -1.257143
     24          1           0        1.318532    1.763575   -1.300425
     25          1           0        1.318629    0.229122   -2.179270
     26          1           0        2.741464    0.721080   -1.259047
 ---------------------------------------------------------------------

 SCF Done:  E(RHF) =  -564.894825186     A.U. after    2 cycles

 The electronic state is 1-A.
 Alpha  occ. eigenvalues --  -69.50146 -11.22131 -11.22131 -11.22118 -11.21977
 Alpha  occ. eigenvalues --  -11.20464 -11.20462 -11.20462  -6.17180  -3.92512
 Alpha  occ. eigenvalues --   -3.92512  -3.92480  -1.08034  -0.96923  -0.93216
 Alpha  occ. eigenvalues --   -0.93215  -0.91731  -0.91731  -0.76239  -0.65591
 Alpha  occ. eigenvalues --   -0.59938  -0.59917  -0.59917  -0.56804  -0.56804
 Alpha  occ. eigenvalues --   -0.55341  -0.54209  -0.54208  -0.53664  -0.53034
 Alpha  occ. eigenvalues --   -0.53033  -0.51415  -0.47195  -0.47192  -0.43177
 Alpha  occ. eigenvalues --   -0.43176  -0.38974
 Alpha virt. eigenvalues --    0.03138   0.03582   0.03582   0.03628   0.05691
 Alpha virt. eigenvalues --    0.05769   0.05769   0.06102   0.06102   0.08319
 Alpha virt. eigenvalues --    0.08320   0.08799   0.09160   0.09160   0.09271

 Mulliken charges:
               1
     1  C   -2.390910
     2  Si   2.475559
     3  C   -0.512814
     4  H    0.008839
     5  H   -0.065932
     6  H    0.009536
     7  C   -0.513082
     8  H    0.008760
     9  H   -0.065872
    10  H    0.009756
    11  C   -0.512936
    12  H    0.009439
    13  H    0.008800
    14  H   -0.065839
    15  C    0.023302
    16  H    0.156542
    17  H    0.196094
    18  H    0.156370
    19  C    0.023230
    20  H    0.156517
    21  H    0.196209
    22  H    0.156530
    23  C    0.022933
    24  H    0.156585
    25  H    0.156617
    26  H    0.195767
 Sum of Mulliken charges =  -0.00000

 Dipole moment (field-independent basis, Debye):
    X=             -0.0491    Y=             -0.0002    Z=              0.0001  Tot=              0.0491

 Test job not archived.
 1\1\GINC-SE128\SP\RHF\Aug-CC-pVDZ\C7H18Si1\OHZDE\08-Apr-2025\0\\#t hf
 aug-cc-pvdz iop(5/13=1,5/36=2,99/5=2) pseudo=read geom=check guess=(re
 ad,tcheck) scf=(maxcycle=1)\\title\\0,1\C,0,-1.111942,-0.000231,0.0000
 18\Si,0,0.811922,0.000001,-0.000014\C,0,1.470703,-0.882449,-1.534288\H
 ,0,1.147203,-1.92652,-1.575983\H,0,2.565466,-0.879609,-1.531062\H,0,1.
 14571,-0.394599,-2.457785\C,0,1.469639,1.770365,0.002841\H,0,1.145979,
 2.328284,-0.880593\H,0,2.564406,1.76671,0.003958\H,0,1.144141,2.326134
 ,0.886985\C,0,1.47057,-0.887378,1.531465\H,0,1.145988,-1.931228,1.5704

 Normal termination of Gaussian 16 at Tue Apr  8 23:08:13 2025.
