 Gaussian 16, Revision C.01,

 ----------------------------------------------------------------------
 #t hf aug-cc-pvdz symm=none int=(grid=ultrafine) guess=(read,tcheck) s
 table=(opt,rrhf)
 ----------------------------------------------------------------------
 -----
 title
 -----
 Symbolic Z-matrix:
 Charge =  0 Multiplicity = 1

 SCF Done:  E(RHF) =  -682.729857754     A.U. after   15 cycles
 Normal termination of Gaussian 16 at Tue Apr  8 23:18:51 2025.
 Gaussian 16:  ES64L-G16RevC.01  3-Jul-2019

 ----------------------------------------------------------------------
 #t hf aug-cc-pvdz iop(5/13=1,5/36=2,99/5=2) pseudo=read geom=check gue
 ss=(read,tcheck) scf=(maxcycle=1)
 ----------------------------------------------------------------------
 -----
 title
 -----
 Structure from the checkpoint file:  "BDE49_nonexpt_1082_mol1.chk"
 Charge =  0 Multiplicity = 1

                         Standard orientation:
 ---------------------------------------------------------------------
 Center     Atomic      Atomic             Coordinates (Angstroms)
 Number     Number       Type             X           Y           Z
 ---------------------------------------------------------------------
      1         17           0        1.810855   -0.464322   -0.000062
      2          8           0        0.631767    1.048232    0.000028
      3          7           0       -0.621757    0.802719   -0.000070
      4          7           0       -1.077838   -0.327297    0.000495
      5          6           0       -2.540525   -0.407857   -0.000192
      6          1           0       -2.842374   -0.973723    0.882982
      7          1           0       -2.841506   -0.975057   -0.882809
      8          1           0       -3.014468    0.575577   -0.001168
 ---------------------------------------------------------------------

 SCF Done:  E(RHF) =  -683.026437978     A.U. after    2 cycles

 The electronic state is 1-A.
 Alpha  occ. eigenvalues -- -105.61706 -20.69642 -15.66958 -15.58623 -11.29189
 Alpha  occ. eigenvalues --  -10.65854  -7.82779  -7.82274  -7.82266  -1.61374
 Alpha  occ. eigenvalues --   -1.36877  -1.06916  -1.02476  -0.86033  -0.76369
 Alpha  occ. eigenvalues --   -0.74487  -0.73093  -0.62343  -0.60187  -0.54753
 Alpha  occ. eigenvalues --   -0.51066  -0.48847  -0.46127  -0.45730
 Alpha virt. eigenvalues --    0.00806   0.03637   0.05269   0.05486   0.07700
 Alpha virt. eigenvalues --    0.07826   0.11284   0.12812   0.13514   0.14030
 Alpha virt. eigenvalues --    0.14763   0.15568   0.16615   0.17730   0.19603

 Mulliken charges:
               1
     1  Cl   0.164455
     2  O   -1.026476
     3  N    0.924115
     4  N   -0.218248
     5  C   -0.302587
     6  H    0.180150
     7  H    0.180154
     8  H    0.098437
 Sum of Mulliken charges =  -0.00000

 Dipole moment (field-independent basis, Debye):
    X=             -2.4223    Y=             -0.5719    Z=             -0.0007  Tot=              2.4889

 Test job not archived.
 1\1\GINC-SE252\SP\RHF\Aug-CC-pVDZ\C1H3Cl1N2O1\OHZDE\08-Apr-2025\0\\#t
 hf aug-cc-pvdz iop(5/13=1,5/36=2,99/5=2) pseudo=read geom=check guess=
 (read,tcheck) scf=(maxcycle=1)\\title\\0,1\Cl,0,1.810855,-0.464322,-0.
 000062\O,0,0.631767,1.048232,0.000028\N,0,-0.621757,0.802719,-0.00007\
 N,0,-1.077838,-0.327297,0.000495\C,0,-2.540525,-0.407857,-0.000192\H,0
 ,-2.842374,-0.973723,0.882982\H,0,-2.841506,-0.975057,-0.882809\H,0,-3
 .014468,0.575577,-0.001168\\Version=ES64L-G16RevC.01\State=1-A\HF=-683
 .026438\RMSD=4.040e-02\Dipole=-0.9530122,-0.2249881,-0.0002652\Quadrup

 Normal termination of Gaussian 16 at Tue Apr  8 23:18:53 2025.
