 Gaussian 16, Revision C.01,

 ----------------------------------------------------------------------
 #t hf aug-cc-pvdz symm=none int=(grid=ultrafine) guess=(read,tcheck) s
 table=(opt,rrhf)
 ----------------------------------------------------------------------
 -----
 title
 -----
 Symbolic Z-matrix:
 Charge =  0 Multiplicity = 1

 SCF Done:  E(RHF) =  -1347.71809135     A.U. after   16 cycles
 Normal termination of Gaussian 16 at Wed Apr  9 00:50:21 2025.
 Gaussian 16:  ES64L-G16RevC.01  3-Jul-2019

 ----------------------------------------------------------------------
 #t hf aug-cc-pvdz iop(5/13=1,5/36=2,99/5=2) pseudo=read geom=check gue
 ss=(read,tcheck) scf=(maxcycle=1)
 ----------------------------------------------------------------------
 -----
 title
 -----
 Structure from the checkpoint file:  "BDE49_nonexpt_871_mol1.chk"
 Charge =  0 Multiplicity = 1

                         Standard orientation:
 ---------------------------------------------------------------------
 Center     Atomic      Atomic             Coordinates (Angstroms)
 Number     Number       Type             X           Y           Z
 ---------------------------------------------------------------------
      1          9           0        0.188000    2.000406   -0.456520
      2          9           0        3.836160   -0.847196    0.176255
      3          9           0        2.820349    1.600647   -0.385592
      4         16           0       -2.757692    1.369771    0.549659
      5         16           0       -2.807466   -1.537543   -0.536357
      6          6           0        1.997366    0.575210   -0.141400
      7          6           0       -0.283955   -0.282682    0.067371
      8          6           0        0.283930   -1.542657    0.345913
      9          1           0       -0.373537   -2.378647    0.547959
     10          6           0        0.620458    0.756390   -0.171436
     11          6           0        1.656405   -1.750326    0.394323
     12          1           0        2.080363   -2.720566    0.618595
     13          6           0        2.507176   -0.685285    0.144894
     14          5           0       -1.839476   -0.104372    0.036057
     15          1           0       -1.718156    2.151314    0.882159
     16          1           0       -4.037606   -1.054491   -0.287106
 ---------------------------------------------------------------------

 SCF Done:  E(RHF) =  -1348.35831559     A.U. after    2 cycles

 The electronic state is 1-A.
 Alpha  occ. eigenvalues --  -93.96566 -93.96374 -26.50946 -26.50926 -26.50671
 Alpha  occ. eigenvalues --  -11.37833 -11.37756 -11.36788 -11.29039 -11.27997
 Alpha  occ. eigenvalues --  -11.27045  -8.24877  -8.24691  -7.67585  -6.22711
 Alpha  occ. eigenvalues --   -6.22561  -6.22526  -6.22403  -6.22381  -6.22223
 Alpha  occ. eigenvalues --   -1.65094  -1.64018  -1.62692  -1.20022  -1.07977
 Alpha  occ. eigenvalues --   -1.06089  -1.04516  -1.01146  -0.90881  -0.89622
 Alpha  occ. eigenvalues --   -0.79823  -0.78567  -0.76745  -0.72985  -0.72433
 Alpha  occ. eigenvalues --   -0.70040  -0.69870  -0.68147  -0.67460  -0.66081
 Alpha  occ. eigenvalues --   -0.63832  -0.60127  -0.59848  -0.57031  -0.55911
 Alpha  occ. eigenvalues --   -0.53478  -0.48272  -0.47291  -0.45269  -0.38502
 Alpha  occ. eigenvalues --   -0.37950  -0.37436
 Alpha virt. eigenvalues --    0.03038   0.03960   0.04340   0.04442   0.04898
 Alpha virt. eigenvalues --    0.05705   0.06370   0.07727   0.08239   0.08892
 Alpha virt. eigenvalues --    0.09418   0.10156   0.10696   0.11810   0.11937

 Mulliken charges:
               1
     1  F   -1.063666
     2  F   -0.981985
     3  F   -0.963796
     4  S   -0.744154
     5  S   -0.735587
     6  C    0.566041
     7  C   -0.270156
     8  C    0.564371
     9  H   -0.329176
    10  C    1.456044
    11  C   -0.123880
    12  H   -0.184940
    13  C    1.399292
    14  B    0.868848
    15  H    0.290419
    16  H    0.252325
 Sum of Mulliken charges =  -0.00000

 Dipole moment (field-independent basis, Debye):
    X=             -0.7004    Y=             -1.5207    Z=              0.9543  Tot=              1.9271

 Test job not archived.
 1\1\GINC-SE084\SP\RHF\Aug-CC-pVDZ\C6H4B1F3S2\OHZDE\09-Apr-2025\0\\#t h
 f aug-cc-pvdz iop(5/13=1,5/36=2,99/5=2) pseudo=read geom=check guess=(
 read,tcheck) scf=(maxcycle=1)\\title\\0,1\F,0,0.188,2.000406,-0.45652\
 F,0,3.83616,-0.847196,0.176255\F,0,2.820349,1.600647,-0.385592\S,0,-2.
 757692,1.369771,0.549659\S,0,-2.807466,-1.537543,-0.536357\C,0,1.99736
 6,0.57521,-0.1414\C,0,-0.283955,-0.282682,0.067371\C,0,0.28393,-1.5426
 57,0.345913\H,0,-0.373537,-2.378647,0.547959\C,0,0.620458,0.75639,-0.1
 71436\C,0,1.656405,-1.750326,0.394323\H,0,2.080363,-2.720566,0.618595\

 Normal termination of Gaussian 16 at Wed Apr  9 00:50:34 2025.
