 Gaussian 16, Revision C.01,

 ----------------------------------------------------------------------
 #t hf aug-cc-pvdz symm=none int=(grid=ultrafine) guess=(read,tcheck) s
 table=(opt,rrhf)
 ----------------------------------------------------------------------
 -----
 title
 -----
 Symbolic Z-matrix:
 Charge =  0 Multiplicity = 1

 SCF Done:  E(RHF) =  -415.480769209     A.U. after   14 cycles
 Normal termination of Gaussian 16 at Tue Apr  8 23:01:48 2025.
 Gaussian 16:  ES64L-G16RevC.01  3-Jul-2019

 ----------------------------------------------------------------------
 #t hf aug-cc-pvdz iop(5/13=1,5/36=2,99/5=2) pseudo=read geom=check gue
 ss=(read,tcheck) scf=(maxcycle=1)
 ----------------------------------------------------------------------
 -----
 title
 -----
 Structure from the checkpoint file:  "BDE49_expt_255_mol1.chk"
 Charge =  0 Multiplicity = 1

                         Standard orientation:
 ---------------------------------------------------------------------
 Center     Atomic      Atomic             Coordinates (Angstroms)
 Number     Number       Type             X           Y           Z
 ---------------------------------------------------------------------
      1          6           0        1.366837   -0.141477   -0.007128
      2          6           0       -1.237125    0.052564    0.021286
      3          8           0       -1.237968    1.260369    0.007073
      4          8           0        2.328148   -0.835384   -0.185125
      5          8           0       -2.383153   -0.616502   -0.183501
      6          1           0       -2.233100   -1.569425   -0.156654
      7          6           0       -0.001617   -0.782664    0.305410
      8          1           0       -0.027116   -1.744186   -0.210261
      9          1           0       -0.002564   -1.000577    1.380739
     10          8           0        1.416478    1.190511   -0.012822
     11          1           0        0.506173    1.551702    0.063764
 ---------------------------------------------------------------------

 SCF Done:  E(RHF) =  -415.887804775     A.U. after    2 cycles

 The electronic state is 1-A.
 Alpha  occ. eigenvalues --  -20.64595 -20.59881 -20.58250 -20.54478 -11.44665
 Alpha  occ. eigenvalues --  -11.41460 -11.31321  -1.59349  -1.55243  -1.50292
 Alpha  occ. eigenvalues --   -1.46518  -1.09364  -0.89225  -0.85353  -0.79269
 Alpha  occ. eigenvalues --   -0.74534  -0.71690  -0.69267  -0.67089  -0.64392
 Alpha  occ. eigenvalues --   -0.62834  -0.58873  -0.57011  -0.52009  -0.49445
 Alpha  occ. eigenvalues --   -0.47447  -0.45429
 Alpha virt. eigenvalues --    0.01642   0.03711   0.05101   0.05779   0.08856
 Alpha virt. eigenvalues --    0.09288   0.10212   0.11084   0.11282   0.12379
 Alpha virt. eigenvalues --    0.12512   0.14673   0.14884   0.15623   0.16077

 Mulliken charges:
               1
     1  C    1.918879
     2  C    2.177907
     3  O   -1.200003
     4  O   -1.208130
     5  O   -1.255382
     6  H    0.379931
     7  C   -0.629148
     8  H    0.164401
     9  H    0.383538
    10  O   -1.242517
    11  H    0.510524
 Sum of Mulliken charges =  -0.00000

 Dipole moment (field-independent basis, Debye):
    X=             -3.4629    Y=             -3.1055    Z=              1.0738  Tot=              4.7738

 Test job not archived.
 1\1\GINC-SE393\SP\RHF\Aug-CC-pVDZ\C3H4O4\OHZDE\08-Apr-2025\0\\#t hf au
 g-cc-pvdz iop(5/13=1,5/36=2,99/5=2) pseudo=read geom=check guess=(read
 ,tcheck) scf=(maxcycle=1)\\title\\0,1\C,0,1.366837,-0.141477,-0.007128
 \C,0,-1.237125,0.052564,0.021286\O,0,-1.237968,1.260369,0.007073\O,0,2
 .328148,-0.835384,-0.185125\O,0,-2.383153,-0.616502,-0.183501\H,0,-2.2
 331,-1.569425,-0.156654\C,0,-0.001617,-0.782664,0.30541\H,0,-0.027116,
 -1.744186,-0.210261\H,0,-0.002564,-1.000577,1.380739\O,0,1.416478,1.19
 0511,-0.012822\H,0,0.506173,1.551702,0.063764\\Version=ES64L-G16RevC.0

 Normal termination of Gaussian 16 at Tue Apr  8 23:01:52 2025.
