 Gaussian 16, Revision C.01,

 ----------------------------------------------------------------------
 #t hf aug-cc-pvdz symm=none int=(grid=ultrafine) guess=(read,tcheck) s
 table=(opt,rrhf)
 ----------------------------------------------------------------------
 -----
 title
 -----
 Symbolic Z-matrix:
 Charge =  0 Multiplicity = 1

 SCF Done:  E(RHF) =  -217.142275337     A.U. after   12 cycles
 Normal termination of Gaussian 16 at Tue Apr  8 22:44:29 2025.
 Gaussian 16:  ES64L-G16RevC.01  3-Jul-2019

 ----------------------------------------------------------------------
 #t hf aug-cc-pvdz iop(5/13=1,5/36=2,99/5=2) pseudo=read geom=check gue
 ss=(read,tcheck) scf=(maxcycle=1)
 ----------------------------------------------------------------------
 -----
 title
 -----
 Structure from the checkpoint file:  "BDE49_expt_1521_mol1.chk"
 Charge =  0 Multiplicity = 1

                         Standard orientation:
 ---------------------------------------------------------------------
 Center     Atomic      Atomic             Coordinates (Angstroms)
 Number     Number       Type             X           Y           Z
 ---------------------------------------------------------------------
      1          6           0       -0.800120    0.518748    0.296017
      2          6           0        0.595559    0.658891   -0.281410
      3          9           0       -1.394579   -0.662746   -0.169901
      4          6           0        1.530376   -0.485081    0.118576
      5          1           0        1.117643   -1.444658   -0.198968
      6          1           0        1.668540   -0.521823    1.203720
      7          1           0        2.514901   -0.369272   -0.340774
      8          1           0       -1.445003    1.349022   -0.006011
      9          1           0       -0.777221    0.459918    1.389362
     10          1           0        1.001893    1.620508    0.054818
     11          1           0        0.515568    0.715676   -1.372136
 ---------------------------------------------------------------------

 SCF Done:  E(RHF) =  -217.367772644     A.U. after    2 cycles

 The electronic state is 1-A.
 Alpha  occ. eigenvalues --  -26.43618 -11.31568 -11.24047 -11.22797  -1.55471
 Alpha  occ. eigenvalues --   -1.06546  -0.93532  -0.82000  -0.68947  -0.68438
 Alpha  occ. eigenvalues --   -0.64118  -0.60111  -0.56683  -0.54088  -0.50262
 Alpha  occ. eigenvalues --   -0.48983  -0.48677
 Alpha virt. eigenvalues --    0.03607   0.04086   0.04174   0.05161   0.07076
 Alpha virt. eigenvalues --    0.07328   0.07868   0.11246   0.12174   0.14424
 Alpha virt. eigenvalues --    0.14944   0.15695   0.16363   0.17094   0.17715

 Mulliken charges:
               1
     1  C    0.636975
     2  C   -0.552611
     3  F   -0.725773
     4  C   -0.339412
     5  H    0.192206
     6  H    0.145887
     7  H    0.123395
     8  H    0.081764
     9  H    0.110074
    10  H    0.183472
    11  H    0.144024
 Sum of Mulliken charges =  -0.00000

 Dipole moment (field-independent basis, Debye):
    X=              1.0502    Y=              1.5775    Z=              0.5049  Tot=              1.9612

 Test job not archived.
 1\1\GINC-SE334\SP\RHF\Aug-CC-pVDZ\C3H7F1\OHZDE\08-Apr-2025\0\\#t hf au
 g-cc-pvdz iop(5/13=1,5/36=2,99/5=2) pseudo=read geom=check guess=(read
 ,tcheck) scf=(maxcycle=1)\\title\\0,1\C,0,-0.80012,0.518748,0.296017\C
 ,0,0.595559,0.658891,-0.28141\F,0,-1.394579,-0.662747,-0.169901\C,0,1.
 530376,-0.485081,0.118576\H,0,1.117643,-1.444658,-0.198968\H,0,1.66854
 ,-0.521823,1.20372\H,0,2.514901,-0.369271,-0.340774\H,0,-1.445003,1.34
 9021,-0.006011\H,0,-0.777221,0.459918,1.389362\H,0,1.001893,1.620508,0
 .054818\H,0,0.515568,0.715676,-1.372136\\Version=ES64L-G16RevC.01\Stat

 Normal termination of Gaussian 16 at Tue Apr  8 22:44:32 2025.
