 Gaussian 16, Revision C.01,

 ----------------------------------------------------------------------
 #t hf aug-cc-pvdz symm=none int=(grid=ultrafine) guess=(read,tcheck) s
 table=opt
 ----------------------------------------------------------------------
 -----
 title
 -----
 Symbolic Z-matrix:
 Charge =  0 Multiplicity = 2

 SCF Done:  E(UHF) =  -624.740182991     A.U. after   21 cycles
 Normal termination of Gaussian 16 at Tue Apr  8 23:15:54 2025.
 Gaussian 16:  ES64L-G16RevC.01  3-Jul-2019

 ----------------------------------------------------------------------
 #t hf aug-cc-pvdz iop(5/13=1,5/36=2,99/5=2) pseudo=read geom=check gue
 ss=(read,tcheck) scf=(maxcycle=1)
 ----------------------------------------------------------------------
 -----
 title
 -----
 Structure from the checkpoint file:  "BDE49_nonexpt_1007_mol2.chk"
 Charge =  0 Multiplicity = 2

                         Standard orientation:
 ---------------------------------------------------------------------
 Center     Atomic      Atomic             Coordinates (Angstroms)
 Number     Number       Type             X           Y           Z
 ---------------------------------------------------------------------
      1         16           0        1.805529   -0.068320   -0.000078
      2          8           0        0.253261   -0.669722    0.000034
      3          6           0       -0.849283    0.216984    0.000121
      4          6           0       -2.108861   -0.602150    0.000019
      5          1           0       -2.969918    0.062640   -0.000046
      6          1           0       -2.128460   -1.248641    0.879928
      7          1           0       -2.128331   -1.248644   -0.879892
      8          8           0       -0.742374    1.399568    0.000019
 ---------------------------------------------------------------------

 SCF Done:  E(UHF) =  -625.015636310     A.U. after    2 cycles

 The electronic state is 2-A.
 Alpha  occ. eigenvalues --  -94.03087 -20.62904 -20.56303 -11.41379 -11.26968
 Alpha  occ. eigenvalues --   -8.30512  -6.29584  -6.27960  -6.27490  -1.55817
 Alpha  occ. eigenvalues --   -1.48296  -1.06722  -0.98203  -0.79044  -0.70952
 Alpha  occ. eigenvalues --   -0.68585  -0.68164  -0.60142  -0.59736  -0.56352
 Alpha  occ. eigenvalues --   -0.52611  -0.46619  -0.43584  -0.39909
 Alpha virt. eigenvalues --    0.03347   0.05120   0.05490   0.06271   0.07971
 Alpha virt. eigenvalues --    0.10663   0.11315   0.12649   0.13648   0.13876
 Alpha virt. eigenvalues --    0.15363   0.15672   0.15862   0.16274   0.18216

  Beta  occ. eigenvalues --  -94.02210 -20.62408 -20.56285 -11.41401 -11.26972
  Beta  occ. eigenvalues --   -8.29506  -6.27568  -6.26972  -6.25587  -1.55048
  Beta  occ. eigenvalues --   -1.47541  -1.05445  -0.92733  -0.77171  -0.70645
  Beta  occ. eigenvalues --   -0.67604  -0.65976  -0.60011  -0.57216  -0.55387
  Beta  occ. eigenvalues --   -0.50225  -0.46466  -0.37876
  Beta virt. eigenvalues --   -0.00126   0.03361   0.05275   0.05494   0.06605
  Beta virt. eigenvalues --    0.08244   0.11435   0.11626   0.13096   0.13664
  Beta virt. eigenvalues --    0.14450   0.15722   0.15872   0.16402   0.16835

 Mulliken charges and spin densities:
               1          2
     1  S    0.594454   0.973351
     2  O   -1.308767   0.023906
     3  C    1.673135  -0.004994
     4  C   -0.558322  -0.000667
     5  H    0.196224  -0.000833
     6  H    0.233631   0.001190
     7  H    0.233623   0.001191
     8  O   -1.063979   0.006857
 Sum of Mulliken charges =  -0.00000   1.00000

 Dipole moment (field-independent basis, Debye):
    X=             -1.4579    Y=             -1.8590    Z=              0.0001  Tot=              2.3625
                          Isotropic Fermi Contact Couplings
        Atom                 a.u.       MegaHertz       Gauss      10(-4) cm-1
     1  S(33)              0.19698      67.65701      24.14170      22.56795
     2  O(17)              0.04909     -29.75714     -10.61809      -9.92591
     3  C(13)             -0.00266      -2.98886      -1.06650      -0.99698
     4  C(13)             -0.00111      -1.24566      -0.44448      -0.41551
     5  H(1)              -0.00016      -0.72235      -0.25775      -0.24095
     6  H(1)               0.00017       0.74486       0.26579       0.24846
     7  H(1)               0.00017       0.74512       0.26588       0.24854
     8  O(17)              0.00050      -0.30242      -0.10791      -0.10088

 Normal termination of Gaussian 16 at Tue Apr  8 23:15:57 2025.
