 Gaussian 16, Revision C.01,

 ----------------------------------------------------------------------
 #t hf aug-cc-pvdz symm=none int=(grid=ultrafine) guess=(read,tcheck) s
 table=(opt,rrhf)
 ----------------------------------------------------------------------
 -----
 title
 -----
 Symbolic Z-matrix:
 Charge =  0 Multiplicity = 1

 SCF Done:  E(RHF) =  -654.766332674     A.U. after   13 cycles

 1\1\GINC-SE082\Stability\RHF\Aug-CC-pVDZ\C8H19P1\OHZDE\08-Apr-2025\0\\
 #t hf aug-cc-pvdz symm=none int=(grid=ultrafine) guess=(read,tcheck) s
 table=(opt,rrhf)\\title\\0,1\P,0,0.000457,-1.005253,-0.14391\C,0,1.589
 763,0.045533,0.003791\C,0,-1.585896,0.045533,0.007323\H,0,0.008721,-1.
 472079,1.196559\C,0,1.818445,0.695089,1.379373\H,0,1.063908,1.443866,1
 .618894\H,0,2.795325,1.194282,1.396874\H,0,1.816168,-0.052536,2.176994
 \C,0,2.723269,-0.973741,-0.248118\H,0,2.714911,-1.778745,0.493287\H,0,
 3.695607,-0.472378,-0.180812\H,0,2.64237,-1.430093,-1.237571\C,0,1.631

 Normal termination of Gaussian 16 at Tue Apr  8 23:16:30 2025.
 Gaussian 16:  ES64L-G16RevC.01  3-Jul-2019

 ----------------------------------------------------------------------
 #t hf aug-cc-pvdz iop(5/13=1,5/36=2,99/5=2) pseudo=read geom=check gue
 ss=(read,tcheck) scf=(maxcycle=1)
 ----------------------------------------------------------------------
 -----
 title
 -----
 Structure from the checkpoint file:  "BDE49_expt_821_mol1.chk"
 Charge =  0 Multiplicity = 1

                         Standard orientation:
 ---------------------------------------------------------------------
 Center     Atomic      Atomic             Coordinates (Angstroms)
 Number     Number       Type             X           Y           Z
 ---------------------------------------------------------------------
      1         15           0        0.000457   -1.005253   -0.143910
      2          6           0        1.589763    0.045533    0.003791
      3          6           0       -1.585896    0.045533    0.007323
      4          1           0        0.008721   -1.472079    1.196559
      5          6           0        1.818445    0.695089    1.379373
      6          1           0        1.063908    1.443866    1.618894
      7          1           0        2.795325    1.194282    1.396874
      8          1           0        1.816168   -0.052536    2.176994
      9          6           0        2.723269   -0.973741   -0.248118
     10          1           0        2.714911   -1.778745    0.493287
     11          1           0        3.695607   -0.472378   -0.180812
     12          1           0        2.642370   -1.430093   -1.237571
     13          6           0        1.631288    1.114844   -1.101905
     14          1           0        0.902697    1.910786   -0.930870
     15          1           0        1.439227    0.684123   -2.088819
     16          1           0        2.623073    1.580283   -1.131047
     17          6           0       -1.569988    1.179138    1.043422
     18          1           0       -1.302741    0.816487    2.038991
     19          1           0       -2.566982    1.631938    1.111210
     20          1           0       -0.873557    1.974703    0.771411
     21          6           0       -2.672482   -0.977993    0.402650
     22          1           0       -2.506091   -1.375420    1.407674
     23          1           0       -2.707366   -1.821140   -0.293156
     24          1           0       -3.656209   -0.495421    0.392039
     25          6           0       -1.933929    0.614240   -1.382837
     26          1           0       -1.980041   -0.176705   -2.136010
     27          1           0       -1.205625    1.355463   -1.719182
     28          1           0       -2.913062    1.105522   -1.350009
 ---------------------------------------------------------------------

 SCF Done:  E(RHF) =  -655.164736801     A.U. after    2 cycles

 The electronic state is 1-A.
 Alpha  occ. eigenvalues --  -84.25200 -11.24998 -11.24975 -11.22772 -11.22661
 Alpha  occ. eigenvalues --  -11.22605 -11.22466 -11.22446 -11.22412  -6.72221
 Alpha  occ. eigenvalues --   -4.25116  -4.24905  -4.24181  -1.10345  -1.08518
 Alpha  occ. eigenvalues --   -0.94067  -0.93833  -0.93057  -0.92924  -0.85417
 Alpha  occ. eigenvalues --   -0.75396  -0.71096  -0.62828  -0.62012  -0.61210
 Alpha  occ. eigenvalues --   -0.60349  -0.59488  -0.58386  -0.55768  -0.54663
 Alpha  occ. eigenvalues --   -0.54324  -0.53707  -0.52437  -0.52002  -0.48727
 Alpha  occ. eigenvalues --   -0.48466  -0.47572  -0.47241  -0.43565  -0.39367
 Alpha  occ. eigenvalues --   -0.30807
 Alpha virt. eigenvalues --    0.03532   0.03607   0.03698   0.04064   0.05262
 Alpha virt. eigenvalues --    0.05299   0.05386   0.06035   0.06241   0.07974
 Alpha virt. eigenvalues --    0.08198   0.08383   0.08532   0.08854   0.09860

 Mulliken charges:
               1
     1  P    0.783219
     2  C   -1.925481
     3  C   -2.142307
     4  H    0.222911
     5  C    0.008332
     6  H    0.056049
     7  H    0.223366
     8  H    0.119501
     9  C    0.175814
    10  H    0.217033
    11  H    0.173627
    12  H    0.223012
    13  C   -0.223233
    14  H    0.153001
    15  H    0.183984
    16  H    0.120079
    17  C   -0.057352
    18  H    0.164533
    19  H    0.094641
    20  H    0.226880
    21  C    0.202254
    22  H    0.194634
    23  H    0.228701
    24  H    0.183755
    25  C   -0.100029
    26  H    0.200372
    27  H    0.087047
    28  H    0.205657
 Sum of Mulliken charges =  -0.00000

 Dipole moment (field-independent basis, Debye):
    X=             -0.0173    Y=              0.9751    Z=              0.4028  Tot=              1.0552

 Test job not archived.
 1\1\GINC-SE082\SP\RHF\Aug-CC-pVDZ\C8H19P1\OHZDE\08-Apr-2025\0\\#t hf a
 ug-cc-pvdz iop(5/13=1,5/36=2,99/5=2) pseudo=read geom=check guess=(rea
 d,tcheck) scf=(maxcycle=1)\\title\\0,1\P,0,0.000457,-1.005253,-0.14391
 \C,0,1.589763,0.045533,0.003791\C,0,-1.585896,0.045533,0.007323\H,0,0.
 008721,-1.472079,1.196559\C,0,1.818445,0.695089,1.379373\H,0,1.063908,
 1.443866,1.618894\H,0,2.795325,1.194282,1.396874\H,0,1.816168,-0.05253
 6,2.176994\C,0,2.723269,-0.973741,-0.248118\H,0,2.714911,-1.778745,0.4
 93287\H,0,3.695607,-0.472378,-0.180812\H,0,2.64237,-1.430093,-1.237571

 Normal termination of Gaussian 16 at Tue Apr  8 23:16:52 2025.
