 Gaussian 16, Revision C.01,

 ----------------------------------------------------------------------
 #t hf aug-cc-pvdz symm=none int=(grid=ultrafine) guess=(read,tcheck) s
 table=(opt,rrhf)
 ----------------------------------------------------------------------
 -----
 title
 -----
 Symbolic Z-matrix:
 Charge =  0 Multiplicity = 1

 SCF Done:  E(RHF) =  -686.940947772     A.U. after   16 cycles
 Normal termination of Gaussian 16 at Tue Apr  8 23:11:53 2025.
 Gaussian 16:  ES64L-G16RevC.01  3-Jul-2019

 ----------------------------------------------------------------------
 #t hf aug-cc-pvdz iop(5/13=1,5/36=2,99/5=2) pseudo=read geom=check gue
 ss=(read,tcheck) scf=(maxcycle=1)
 ----------------------------------------------------------------------
 -----
 title
 -----
 Structure from the checkpoint file:  "BDE49_expt_242_mol1.chk"
 Charge =  0 Multiplicity = 1

                         Standard orientation:
 ---------------------------------------------------------------------
 Center     Atomic      Atomic             Coordinates (Angstroms)
 Number     Number       Type             X           Y           Z
 ---------------------------------------------------------------------
      1          6           0       -2.899623   -1.762219    0.468211
      2          6           0       -1.938394   -0.811148    0.799009
      3          6           0       -3.783726   -1.528252   -0.582554
      4          6           0       -3.709800   -0.336776   -1.306429
      5          6           0       -2.756560    0.615873   -0.976132
      6          6           0       -1.860435    0.389215    0.079140
      7          1           0       -1.240916   -1.011303    1.601044
      8          1           0       -2.955431   -2.688302    1.028719
      9          1           0       -4.528878   -2.273042   -0.839261
     10          1           0       -4.396985   -0.154739   -2.124786
     11          1           0       -2.684980    1.550888   -1.517785
     12          6           0       -0.884006    1.470587    0.403985
     13          8           0       -0.915684    2.549289   -0.156788
     14          6           0        0.155061    1.265084    1.522776
     15          8           0        0.875463    0.040689    1.482711
     16          1           0       -0.370030    1.255706    2.482130
     17          1           0        0.824490    2.128630    1.504898
     18          6           0        1.879126   -0.109080    0.555545
     19          6           0        2.190379    0.825628   -0.433826
     20          6           0        2.611801   -1.296296    0.655179
     21          6           0        3.650987   -1.545126   -0.230456
     22          6           0        3.973976   -0.617045   -1.222498
     23          6           0        3.240832    0.560010   -1.315175
     24          1           0        1.628653    1.744010   -0.537731
     25          1           0        3.477074    1.288692   -2.082502
     26          1           0        2.351576   -2.002012    1.434756
     27          1           0        4.213675   -2.468030   -0.144800
     28          1           0        4.785805   -0.813041   -1.912721
 ---------------------------------------------------------------------

 SCF Done:  E(RHF) =  -687.635173854     A.U. after    2 cycles

 The electronic state is 1-A.
 Alpha  occ. eigenvalues --  -20.58530 -20.54609 -11.35206 -11.31427 -11.31221
 Alpha  occ. eigenvalues --  -11.26195 -11.26153 -11.25743 -11.25656 -11.25289
 Alpha  occ. eigenvalues --  -11.25196 -11.24933 -11.24919 -11.24111 -11.23966
 Alpha  occ. eigenvalues --  -11.23715  -1.50861  -1.47833  -1.17030  -1.15454
 Alpha  occ. eigenvalues --   -1.05893  -1.03265  -1.02827  -1.02087  -0.97892
 Alpha  occ. eigenvalues --   -0.88254  -0.85035  -0.84462  -0.82955  -0.78215
 Alpha  occ. eigenvalues --   -0.75088  -0.71281  -0.68810  -0.68389  -0.68069
 Alpha  occ. eigenvalues --   -0.66045  -0.64268  -0.63379  -0.62202  -0.61357
 Alpha  occ. eigenvalues --   -0.60878  -0.59817  -0.56546  -0.55754  -0.54348
 Alpha  occ. eigenvalues --   -0.53214  -0.52340  -0.51504  -0.50271  -0.49741
 Alpha  occ. eigenvalues --   -0.48601  -0.42084  -0.35942  -0.35629  -0.35176
 Alpha  occ. eigenvalues --   -0.32489
 Alpha virt. eigenvalues --    0.02879   0.03242   0.03459   0.03820   0.04394
 Alpha virt. eigenvalues --    0.04695   0.05074   0.05772   0.05920   0.06949
 Alpha virt. eigenvalues --    0.07603   0.08658   0.09382   0.09472   0.09931

 Mulliken charges:
               1
     1  C    0.119835
     2  C    0.211009
     3  C   -0.012985
     4  C    0.397089
     5  C   -0.449614
     6  C    2.221097
     7  H   -0.386606
     8  H   -0.243417
     9  H   -0.222303
    10  H   -0.226062
    11  H   -0.337170
    12  C    0.483661
    13  O   -1.618626
    14  C    0.324704
    15  O   -1.819782
    16  H    0.108680
    17  H    0.158609
    18  C    2.146789
    19  C   -0.342059
    20  C   -0.271468
    21  C    0.681366
    22  C    0.046857
    23  C    0.577331
    24  H   -0.508491
    25  H   -0.236006
    26  H   -0.353168
    27  H   -0.219857
    28  H   -0.229413
 Sum of Mulliken charges =   0.00000

 Dipole moment (field-independent basis, Debye):
    X=             -0.7100    Y=             -2.0401    Z=              0.5002  Tot=              2.2172

 Test job not archived.
 1\1\GINC-SE159\SP\RHF\Aug-CC-pVDZ\C14H12O2\OHZDE\08-Apr-2025\0\\#t hf
 aug-cc-pvdz iop(5/13=1,5/36=2,99/5=2) pseudo=read geom=check guess=(re
 ad,tcheck) scf=(maxcycle=1)\\title\\0,1\C,0,2.899623,-1.762219,-0.4682
 11\C,0,1.938394,-0.811148,-0.799009\C,0,3.783726,-1.528252,0.582554\C,
 0,3.7098,-0.336776,1.306429\C,0,2.75656,0.615873,0.976132\C,0,1.860435
 ,0.389215,-0.07914\H,0,1.240916,-1.011303,-1.601044\H,0,2.955431,-2.68
 8302,-1.028719\H,0,4.528878,-2.273042,0.839261\H,0,4.396985,-0.154739,
 2.124786\H,0,2.68498,1.550888,1.517785\C,0,0.884006,1.470587,-0.403985

 Normal termination of Gaussian 16 at Tue Apr  8 23:12:27 2025.
