 Gaussian 16, Revision C.01,

 ----------------------------------------------------------------------
 #t hf aug-cc-pvdz symm=none int=(grid=ultrafine) guess=(read,tcheck) s
 table=(opt,rrhf)
 ----------------------------------------------------------------------
 -----
 title
 -----
 Symbolic Z-matrix:
 Charge =  0 Multiplicity = 1

 SCF Done:  E(RHF) =  -536.493055861     A.U. after   12 cycles

 1\1\GINC-SE232\Stability\RHF\Aug-CC-pVDZ\C5H11P1\OHZDE\08-Apr-2025\0\\
 #t hf aug-cc-pvdz symm=none int=(grid=ultrafine) guess=(read,tcheck) s
 table=(opt,rrhf)\\title\\0,1\P,0,-1.87765,-0.108821,-0.333595\C,0,-0.3
 7392,0.007864,0.793754\C,0,0.564014,1.21228,0.571143\C,0,0.575205,-1.1
 95439,0.593985\C,0,1.508884,-0.77888,-0.565848\H,0,0.052063,-2.13565,0
 .402234\H,0,1.158606,-1.334771,1.51057\C,0,1.530887,0.777693,-0.557442
 \H,0,1.122266,-1.148942,-1.51877\H,0,2.506596,-1.20686,-0.447434\H,0,2
 .535128,1.171543,-0.387002\H,0,1.201857,1.170012,-1.522271\H,0,1.12893

 Normal termination of Gaussian 16 at Tue Apr  8 23:27:30 2025.
 Gaussian 16:  ES64L-G16RevC.01  3-Jul-2019

 ----------------------------------------------------------------------
 #t hf aug-cc-pvdz iop(5/13=1,5/36=2,99/5=2) pseudo=read geom=check gue
 ss=(read,tcheck) scf=(maxcycle=1)
 ----------------------------------------------------------------------
 -----
 title
 -----
 Structure from the checkpoint file:  "BDE49_nonexpt_1297_mol1.chk"
 Charge =  0 Multiplicity = 1

                         Standard orientation:
 ---------------------------------------------------------------------
 Center     Atomic      Atomic             Coordinates (Angstroms)
 Number     Number       Type             X           Y           Z
 ---------------------------------------------------------------------
      1         15           0       -1.877650   -0.108821   -0.333595
      2          6           0       -0.373920    0.007864    0.793754
      3          6           0        0.564014    1.212280    0.571143
      4          6           0        0.575205   -1.195439    0.593985
      5          6           0        1.508884   -0.778880   -0.565848
      6          1           0        0.052063   -2.135650    0.402234
      7          1           0        1.158606   -1.334771    1.510570
      8          6           0        1.530887    0.777693   -0.557442
      9          1           0        1.122266   -1.148942   -1.518770
     10          1           0        2.506596   -1.206860   -0.447434
     11          1           0        2.535128    1.171543   -0.387002
     12          1           0        1.201857    1.170012   -1.522271
     13          1           0        1.128936    1.386931    1.494520
     14          1           0        0.032270    2.137771    0.341678
     15          1           0       -0.794556    0.009314    1.804054
     16          1           0       -1.247496    0.231140   -1.560242
     17          1           0       -2.361339    1.210718   -0.126962
 ---------------------------------------------------------------------

 SCF Done:  E(RHF) =  -536.755385973     A.U. after    2 cycles

 The electronic state is 1-A.
 Alpha  occ. eigenvalues --  -84.26286 -11.24238 -11.23161 -11.23072 -11.22770
 Alpha  occ. eigenvalues --  -11.22720  -6.73359  -4.25976  -4.25759  -4.25224
 Alpha  occ. eigenvalues --   -1.12522  -0.97539  -0.96594  -0.85415  -0.78108
 Alpha  occ. eigenvalues --   -0.74684  -0.66710  -0.64938  -0.58815  -0.55728
 Alpha  occ. eigenvalues --   -0.51495  -0.49432  -0.48927  -0.48312  -0.46948
 Alpha  occ. eigenvalues --   -0.46198  -0.42703  -0.33395
 Alpha virt. eigenvalues --    0.03591   0.03962   0.04112   0.04323   0.06215
 Alpha virt. eigenvalues --    0.06276   0.06461   0.06557   0.06954   0.09441
 Alpha virt. eigenvalues --    0.10235   0.10973   0.12538   0.12802   0.13985

 Mulliken charges:
               1
     1  P   -0.478120
     2  C   -0.431096
     3  C   -0.148889
     4  C   -0.117002
     5  C   -0.258908
     6  H    0.082973
     7  H    0.118343
     8  C   -0.215959
     9  H    0.109390
    10  H    0.103751
    11  H    0.114583
    12  H    0.108502
    13  H    0.121884
    14  H    0.085902
    15  H    0.099736
    16  H    0.322389
    17  H    0.382522
 Sum of Mulliken charges =  -0.00000

 Dipole moment (field-independent basis, Debye):
    X=              0.9867    Y=              0.3877    Z=              0.4182  Tot=              1.1396

 Test job not archived.
 1\1\GINC-SE232\SP\RHF\Aug-CC-pVDZ\C5H11P1\OHZDE\08-Apr-2025\0\\#t hf a
 ug-cc-pvdz iop(5/13=1,5/36=2,99/5=2) pseudo=read geom=check guess=(rea
 d,tcheck) scf=(maxcycle=1)\\title\\0,1\P,0,-1.87765,-0.108821,-0.33359
 5\C,0,-0.37392,0.007864,0.793754\C,0,0.564014,1.21228,0.571143\C,0,0.5
 75205,-1.195439,0.593985\C,0,1.508884,-0.77888,-0.565848\H,0,0.052063,
 -2.13565,0.402234\H,0,1.158606,-1.334771,1.51057\C,0,1.530887,0.777693
 ,-0.557442\H,0,1.122266,-1.148942,-1.51877\H,0,2.506596,-1.20686,-0.44
 7434\H,0,2.535128,1.171543,-0.387002\H,0,1.201857,1.170012,-1.522271\H

 Normal termination of Gaussian 16 at Tue Apr  8 23:27:38 2025.
