 Gaussian 16, Revision C.01,

 ----------------------------------------------------------------------
 #t hf aug-cc-pvdz symm=none int=(grid=ultrafine) guess=(read,tcheck) s
 table=opt
 ----------------------------------------------------------------------
 -----
 title
 -----
 Symbolic Z-matrix:
 Charge =  0 Multiplicity = 2

 SCF Done:  E(UHF) =  -468.891929035     A.U. after   16 cycles
 Normal termination of Gaussian 16 at Wed Apr  9 00:13:54 2025.
 Gaussian 16:  ES64L-G16RevC.01  3-Jul-2019

 ----------------------------------------------------------------------
 #t hf aug-cc-pvdz iop(5/13=1,5/36=2,99/5=2) pseudo=read geom=check gue
 ss=(read,tcheck) scf=(maxcycle=1)
 ----------------------------------------------------------------------
 -----
 title
 -----
 Structure from the checkpoint file:  "BDE49_nonexpt_2457_mol2.chk"
 Charge =  0 Multiplicity = 2

                         Standard orientation:
 ---------------------------------------------------------------------
 Center     Atomic      Atomic             Coordinates (Angstroms)
 Number     Number       Type             X           Y           Z
 ---------------------------------------------------------------------
      1         14           0        1.176731   -1.171540   -0.057871
      2          5           0        0.130272    0.550869    0.003444
      3          1           0        2.634763   -1.103692    0.198837
      4          1           0        0.635403   -2.465662    0.425833
      5          8           0       -1.225158    0.592627   -0.003448
      6          6           0        0.900221    1.925437    0.013425
      7          1           0        1.731802    1.945130   -0.698538
      8          1           0        1.345796    2.101463    1.000727
      9          1           0        0.231147    2.763051   -0.204181
     10          6           0       -2.068270   -0.557665    0.001858
     11          1           0       -3.079014   -0.223945   -0.232914
     12          1           0       -2.067683   -1.030009    0.987882
     13          1           0       -1.748242   -1.286774   -0.748782
 ---------------------------------------------------------------------

 SCF Done:  E(UHF) =  -469.109824836     A.U. after    2 cycles

 The electronic state is 2-A.
 Alpha  occ. eigenvalues --  -69.51749 -20.55700 -11.29695 -11.20305  -7.62049
 Alpha  occ. eigenvalues --   -6.19197  -3.95240  -3.94289  -3.94223  -1.46913
 Alpha  occ. eigenvalues --   -0.97358  -0.93076  -0.76302  -0.70134  -0.64451
 Alpha  occ. eigenvalues --   -0.63908  -0.57265  -0.55280  -0.52583  -0.51582
 Alpha  occ. eigenvalues --   -0.48563  -0.47500  -0.41032  -0.30773
 Alpha virt. eigenvalues --    0.03548   0.04117   0.04293   0.04677   0.06424
 Alpha virt. eigenvalues --    0.06571   0.06889   0.07652   0.07998   0.09459
 Alpha virt. eigenvalues --    0.10192   0.10341   0.11053   0.11335   0.11958

  Beta  occ. eigenvalues --  -69.51237 -20.55627 -11.29697 -11.20310  -7.62118
  Beta  occ. eigenvalues --   -6.18475  -3.93907  -3.93869  -3.93072  -1.46743
  Beta  occ. eigenvalues --   -0.97321  -0.93026  -0.73663  -0.68241  -0.64153
  Beta  occ. eigenvalues --   -0.63661  -0.57011  -0.55072  -0.52521  -0.51581
  Beta  occ. eigenvalues --   -0.48416  -0.47021  -0.40322
  Beta virt. eigenvalues --    0.01811   0.03640   0.04215   0.04333   0.05608
  Beta virt. eigenvalues --    0.06459   0.06629   0.07034   0.07938   0.08909
  Beta virt. eigenvalues --    0.09842   0.10282   0.11003   0.11429   0.11648

 Mulliken charges and spin densities:
               1          2
     1  Si   0.368807   1.091603
     2  B    0.968713  -0.015714
     3  H   -0.152092  -0.052469
     4  H   -0.136788  -0.064602
     5  O   -1.476251   0.031992
     6  C   -0.409428   0.007115
     7  H   -0.009796  -0.000941
     8  H    0.045808   0.005933
     9  H   -0.082011   0.001742
    10  C    0.603696   0.007299
    11  H    0.006717   0.000056
    12  H    0.140822  -0.003664
    13  H    0.131804  -0.008351
 Sum of Mulliken charges =  -0.00000   1.00000

 Dipole moment (field-independent basis, Debye):
    X=             -0.8496    Y=             -0.5410    Z=              0.2345  Tot=              1.0342
                          Isotropic Fermi Contact Couplings
        Atom                 a.u.       MegaHertz       Gauss      10(-4) cm-1
     1  Si(29)             0.32421    -288.13616    -102.81415     -96.11188
     2  B(11)             -0.01230     -17.64520      -6.29625      -5.88580
     3  H(1)              -0.01119     -50.00912     -17.84450     -16.68125
     4  H(1)              -0.01120     -50.06218     -17.86343     -16.69895
     5  O(17)              0.00746      -4.51930      -1.61260      -1.50748
     6  C(13)             -0.00182      -2.04510      -0.72974      -0.68217
     7  H(1)               0.00010       0.46595       0.16626       0.15542
     8  H(1)               0.00155       6.91778       2.46844       2.30752

 1\1\GINC-SE435\SP\UHF\Aug-CC-pVDZ\C2H8B1O1Si1(2)\OHZDE\09-Apr-2025\0\\
 #t hf aug-cc-pvdz iop(5/13=1,5/36=2,99/5=2) pseudo=read geom=check gue
 ss=(read,tcheck) scf=(maxcycle=1)\\title\\0,2\Si,0,1.176732,-1.171538,
 -0.057871\B,0,0.130271,0.550869,0.003444\H,0,2.634764,-1.103689,0.1988
 37\H,0,0.635406,-2.465661,0.425833\O,0,-1.225159,0.592626,-0.003448\C,
 0,0.900218,1.925438,0.013425\H,0,1.731799,1.945132,-0.698538\H,0,1.345
 793,2.101465,1.000727\H,0,0.231143,2.763051,-0.204181\C,0,-2.068269,-0
 .557667,0.001858\H,0,-3.079014,-0.223949,-0.232914\H,0,-2.067682,-1.03

 Normal termination of Gaussian 16 at Wed Apr  9 00:13:58 2025.
