 Gaussian 16, Revision C.01,

 ----------------------------------------------------------------------
 #t hf aug-cc-pvdz symm=none int=(grid=ultrafine) guess=(read,tcheck) s
 table=(opt,rrhf)
 ----------------------------------------------------------------------
 -----
 title
 -----
 Symbolic Z-matrix:
 Charge =  0 Multiplicity = 1

 SCF Done:  E(RHF) =  -733.711351742     A.U. after   16 cycles
 Normal termination of Gaussian 16 at Wed Apr  9 00:49:56 2025.
 Gaussian 16:  ES64L-G16RevC.01  3-Jul-2019

 ----------------------------------------------------------------------
 #t hf aug-cc-pvdz iop(5/13=1,5/36=2,99/5=2) pseudo=read geom=check gue
 ss=(read,tcheck) scf=(maxcycle=1)
 ----------------------------------------------------------------------
 -----
 title
 -----
 Structure from the checkpoint file:  "BDE49_nonexpt_859_mol1.chk"
 Charge =  0 Multiplicity = 1

                         Standard orientation:
 ---------------------------------------------------------------------
 Center     Atomic      Atomic             Coordinates (Angstroms)
 Number     Number       Type             X           Y           Z
 ---------------------------------------------------------------------
      1          6           0        2.608298   -0.621406   -0.043532
      2         14           0        1.971981    1.166295    0.358204
      3          8           0        2.073330   -1.612925    0.381450
      4          8           0        3.720344   -0.748312   -0.824551
      5          5           0        0.020344    1.586052    0.027655
      6          6           0       -1.193974    0.657213   -0.002794
      7          1           0        4.033843    0.128553   -1.078685
      8          6           0       -2.474768    1.208880   -0.250092
      9          6           0       -1.113461   -0.739395    0.212196
     10          6           0       -2.252080   -1.535242    0.180635
     11          6           0       -3.498682   -0.960544   -0.069401
     12          6           0       -3.611946    0.414105   -0.285932
     13          1           0       -4.583296    0.855463   -0.478451
     14          1           0       -2.561093    2.277412   -0.414820
     15          1           0       -0.150573   -1.197542    0.406784
     16          1           0       -2.171314   -2.603001    0.349339
     17          1           0       -4.385485   -1.584876   -0.094736
     18          1           0       -0.173045    2.757894   -0.126922
     19          1           0        2.851864    2.092472   -0.411608
     20          1           0        2.299927    1.363469    1.794313
 ---------------------------------------------------------------------

 SCF Done:  E(RHF) =  -734.188009988     A.U. after    2 cycles

 The electronic state is 1-A.
 Alpha  occ. eigenvalues --  -69.54131 -20.60057 -20.54072 -11.38074 -11.26589
 Alpha  occ. eigenvalues --  -11.26239 -11.25617 -11.24994 -11.24731 -11.23149
 Alpha  occ. eigenvalues --   -7.61254  -6.21391  -3.96753  -3.96728  -3.96666
 Alpha  occ. eigenvalues --   -1.53852  -1.45267  -1.16101  -1.02724  -1.02646
 Alpha  occ. eigenvalues --   -0.86114  -0.84700  -0.84098  -0.80232  -0.74281
 Alpha  occ. eigenvalues --   -0.69718  -0.66772  -0.65356  -0.64863  -0.62999
 Alpha  occ. eigenvalues --   -0.61682  -0.60807  -0.57317  -0.55119  -0.51974
 Alpha  occ. eigenvalues --   -0.51282  -0.50311  -0.49060  -0.47449  -0.43500
 Alpha  occ. eigenvalues --   -0.41140  -0.36209  -0.35448
 Alpha virt. eigenvalues --    0.01760   0.02857   0.03153   0.03645   0.04438
 Alpha virt. eigenvalues --    0.04603   0.05375   0.06015   0.06620   0.07215
 Alpha virt. eigenvalues --    0.08125   0.08934   0.09328   0.09663   0.09789

 Mulliken charges:
               1
     1  C    1.362051
     2  Si   0.721655
     3  O   -1.064626
     4  O   -1.165806
     5  B   -0.432094
     6  C   -0.153677
     7  H    0.416927
     8  C    0.359124
     9  C    0.608025
    10  C    0.167535
    11  C    0.372857
    12  C    0.297163
    13  H   -0.211827
    14  H   -0.349282
    15  H   -0.310836
    16  H   -0.252740
    17  H   -0.208306
    18  H    0.145655
    19  H   -0.188359
    20  H   -0.113438
 Sum of Mulliken charges =  -0.00000

 Dipole moment (field-independent basis, Debye):
    X=             -1.6425    Y=              2.9363    Z=             -0.7931  Tot=              3.4567

 Test job not archived.
 1\1\GINC-SE166\SP\RHF\Aug-CC-pVDZ\C7H9B1O2Si1\OHZDE\09-Apr-2025\0\\#t
 hf aug-cc-pvdz iop(5/13=1,5/36=2,99/5=2) pseudo=read geom=check guess=
 (read,tcheck) scf=(maxcycle=1)\\title\\0,1\C,0,2.608298,-0.621406,-0.0
 43532\Si,0,1.971981,1.166295,0.358204\O,0,2.07333,-1.612925,0.38145\O,
 0,3.720344,-0.748312,-0.824551\B,0,0.020344,1.586052,0.027655\C,0,-1.1
 93974,0.657213,-0.002794\H,0,4.033843,0.128553,-1.078685\C,0,-2.474768
 ,1.20888,-0.250092\C,0,-1.113461,-0.739395,0.212196\C,0,-2.25208,-1.53
 5242,0.180635\C,0,-3.498682,-0.960544,-0.069401\C,0,-3.611946,0.414105

 Normal termination of Gaussian 16 at Wed Apr  9 00:50:09 2025.
