 Gaussian 16, Revision C.01,

 ----------------------------------------------------------------------
 #t hf aug-cc-pvdz symm=none int=(grid=ultrafine) guess=(read,tcheck) s
 table=(opt,rrhf)
 ----------------------------------------------------------------------
 -----
 title
 -----
 Symbolic Z-matrix:
 Charge =  0 Multiplicity = 1

 SCF Done:  E(RHF) =  -1723.26331550     A.U. after   17 cycles
 Normal termination of Gaussian 16 at Tue Apr  8 23:45:02 2025.
 Gaussian 16:  ES64L-G16RevC.01  3-Jul-2019

 ----------------------------------------------------------------------
 #t hf aug-cc-pvdz iop(5/13=1,5/36=2,99/5=2) pseudo=read geom=check gue
 ss=(read,tcheck) scf=(maxcycle=1)
 ----------------------------------------------------------------------
 -----
 title
 -----
 Structure from the checkpoint file:  "BDE49_nonexpt_1695_mol1.chk"
 Charge =  0 Multiplicity = 1

                         Standard orientation:
 ---------------------------------------------------------------------
 Center     Atomic      Atomic             Coordinates (Angstroms)
 Number     Number       Type             X           Y           Z
 ---------------------------------------------------------------------
      1         14           0       -0.453274    0.037411    0.306467
      2          7           0       -1.301311   -1.411917   -0.519174
      3          7           0       -0.907920    1.452932   -0.839488
      4         15           0        1.793900   -0.283782    0.162489
      5         17           0       -1.297222    0.417845    2.101501
      6          8           0        2.021761   -0.419977   -1.412562
      7          8           0       -1.998416    1.499215   -1.374420
      8          8           0       -2.356964   -1.873957   -0.150286
      9          8           0       -0.014615    2.297710   -0.955336
     10          8           0       -0.634813   -1.809425   -1.485773
     11          8           0        2.209048   -1.368075    1.047112
     12          1           0        1.573465   -1.192179   -1.792141
     13          8           0        2.429833    1.137622    0.456987
     14          1           0        2.134598    1.829776   -0.156390
 ---------------------------------------------------------------------

 SCF Done:  E(RHF) =  -1724.01528106     A.U. after    2 cycles

 The electronic state is 1-A.
 Alpha  occ. eigenvalues -- -105.64669 -84.48225 -69.73057 -20.65361 -20.65091
 Alpha  occ. eigenvalues --  -20.64243 -20.63959 -20.63511 -20.63505 -20.54976
 Alpha  occ. eigenvalues --  -15.81472 -15.81453 -10.69592  -7.86492  -7.86135
 Alpha  occ. eigenvalues --   -7.86126  -6.93440  -6.39173  -4.47638  -4.46919
 Alpha  occ. eigenvalues --   -4.45825  -4.14450  -4.14422  -4.14280  -1.71343
 Alpha  occ. eigenvalues --   -1.71062  -1.58001  -1.55492  -1.55422  -1.51463
 Alpha  occ. eigenvalues --   -1.43426  -1.15397  -1.06759  -1.02643  -0.90348
 Alpha  occ. eigenvalues --   -0.87881  -0.85005  -0.79680  -0.79420  -0.78594
 Alpha  occ. eigenvalues --   -0.78494  -0.77656  -0.74986  -0.68741  -0.66903
 Alpha  occ. eigenvalues --   -0.62065  -0.61349  -0.59043  -0.57386  -0.56972
 Alpha  occ. eigenvalues --   -0.55392  -0.54716  -0.53977  -0.52647  -0.51024
 Alpha  occ. eigenvalues --   -0.50381  -0.49861  -0.49467  -0.46590
 Alpha virt. eigenvalues --   -0.00763   0.00053   0.03668   0.04754   0.05031
 Alpha virt. eigenvalues --    0.06191   0.06752   0.07340   0.08719   0.08813
 Alpha virt. eigenvalues --    0.09678   0.09845   0.11254   0.11789   0.13352

 Mulliken charges:
               1
     1  Si   1.532246
     2  N    2.025770
     3  N    1.818712
     4  P    3.275755
     5  Cl  -0.491308
     6  O   -1.406852
     7  O   -1.171468
     8  O   -1.200576
     9  O   -1.177381
    10  O   -1.268197
    11  O   -1.493688
    12  H    0.504573
    13  O   -1.413074
    14  H    0.465491
 Sum of Mulliken charges =   0.00000

 Dipole moment (field-independent basis, Debye):
    X=             -0.0427    Y=              1.7200    Z=              0.1469  Tot=              1.7268

 Test job not archived.
 1\1\GINC-SE141\SP\RHF\Aug-CC-pVDZ\Cl1H2N2O7P1Si1\OHZDE\08-Apr-2025\0\\
 #t hf aug-cc-pvdz iop(5/13=1,5/36=2,99/5=2) pseudo=read geom=check gue
 ss=(read,tcheck) scf=(maxcycle=1)\\title\\0,1\Si,0,-0.453274,0.037411,
 0.306467\N,0,-1.301312,-1.411916,-0.519174\N,0,-0.90792,1.452932,-0.83
 9488\P,0,1.7939,-0.283782,0.162489\Cl,0,-1.297222,0.417846,2.101501\O,
 0,2.021761,-0.419977,-1.412562\O,0,-1.998416,1.499216,-1.37442\O,0,-2.
 356965,-1.873956,-0.150286\O,0,-0.014614,2.29771,-0.955336\O,0,-0.6348
 14,-1.809425,-1.485773\O,0,2.209048,-1.368076,1.047112\H,0,1.573465,-1

 Normal termination of Gaussian 16 at Tue Apr  8 23:45:12 2025.
