 Gaussian 16, Revision C.01,

 ----------------------------------------------------------------------
 #t hf aug-cc-pvdz symm=none int=(grid=ultrafine) guess=(read,tcheck) s
 table=(opt,rrhf)
 ----------------------------------------------------------------------
 -----
 title
 -----
 Symbolic Z-matrix:
 Charge =  0 Multiplicity = 1

 SCF Done:  E(RHF) =  -884.905662198     A.U. after   15 cycles
 Normal termination of Gaussian 16 at Wed Apr  9 00:10:28 2025.
 Gaussian 16:  ES64L-G16RevC.01  3-Jul-2019

 ----------------------------------------------------------------------
 #t hf aug-cc-pvdz iop(5/13=1,5/36=2,99/5=2) pseudo=read geom=check gue
 ss=(read,tcheck) scf=(maxcycle=1)
 ----------------------------------------------------------------------
 -----
 title
 -----
 Structure from the checkpoint file:  "BDE49_nonexpt_2340_mol1.chk"
 Charge =  0 Multiplicity = 1

                         Standard orientation:
 ---------------------------------------------------------------------
 Center     Atomic      Atomic             Coordinates (Angstroms)
 Number     Number       Type             X           Y           Z
 ---------------------------------------------------------------------
      1         14           0        1.091426   -1.227502    0.213124
      2         14           0       -1.073976   -1.087705   -0.698512
      3          6           0       -2.039257    0.289315    0.281379
      4          1           0       -1.805134   -2.359843   -0.497774
      5          1           0       -0.971299   -0.803964   -2.152080
      6          8           0       -2.362549    0.018500    1.419565
      7          6           0        1.880170    0.537394   -0.041681
      8          1           0        1.079633   -1.520059    1.668247
      9          1           0        1.947415   -2.250631   -0.442583
     10          8           0        1.159393    1.434871   -0.436939
     11          6           0       -2.325850    1.631584   -0.349987
     12          1           0       -2.910703    1.498925   -1.266306
     13          1           0       -1.376797    2.095679   -0.636191
     14          1           0       -2.865787    2.269462    0.351964
     15          6           0        3.344701    0.775400    0.259609
     16          1           0        3.963290    0.125532   -0.368443
     17          1           0        3.559836    0.507676    1.299593
     18          1           0        3.601915    1.820983    0.082091
 ---------------------------------------------------------------------

 SCF Done:  E(RHF) =  -885.280332629     A.U. after    2 cycles

 The electronic state is 1-A.
 Alpha  occ. eigenvalues --  -69.54437 -69.53882 -20.55837 -20.54322 -11.34295
 Alpha  occ. eigenvalues --  -11.33077 -11.25443 -11.23702  -6.21645  -6.21069
 Alpha  occ. eigenvalues --   -3.96975  -3.96962  -3.96954  -3.96396  -3.96390
 Alpha  occ. eigenvalues --   -3.96386  -1.48392  -1.47005  -1.02473  -1.00953
 Alpha  occ. eigenvalues --   -0.83562  -0.79720  -0.73394  -0.69763  -0.63998
 Alpha  occ. eigenvalues --   -0.63366  -0.62219  -0.61586  -0.61009  -0.59805
 Alpha  occ. eigenvalues --   -0.55258  -0.53933  -0.52089  -0.50628  -0.49753
 Alpha  occ. eigenvalues --   -0.48738  -0.43122  -0.39400  -0.37664
 Alpha virt. eigenvalues --    0.02939   0.03517   0.04308   0.04601   0.05614
 Alpha virt. eigenvalues --    0.05695   0.06194   0.06516   0.07274   0.08262
 Alpha virt. eigenvalues --    0.08444   0.08882   0.09043   0.09376   0.09552

 Mulliken charges:
               1
     1  Si   0.706779
     2  Si   0.426096
     3  C    0.688383
     4  H   -0.107916
     5  H   -0.029235
     6  O   -1.162010
     7  C    0.747771
     8  H   -0.131795
     9  H   -0.129417
    10  O   -1.134168
    11  C   -0.430833
    12  H    0.222597
    13  H    0.257219
    14  H    0.131270
    15  C   -0.636876
    16  H    0.228032
    17  H    0.229466
    18  H    0.124638
 Sum of Mulliken charges =  -0.00000

 Dipole moment (field-independent basis, Debye):
    X=              2.6015    Y=             -0.7454    Z=             -1.6462  Tot=              3.1675

 Test job not archived.
 1\1\GINC-SE461\SP\RHF\Aug-CC-pVDZ\C4H10O2Si2\OHZDE\09-Apr-2025\0\\#t h
 f aug-cc-pvdz iop(5/13=1,5/36=2,99/5=2) pseudo=read geom=check guess=(
 read,tcheck) scf=(maxcycle=1)\\title\\0,1\Si,0,-1.091426,1.227502,0.21
 3124\Si,0,1.073976,1.087705,-0.698512\C,0,2.039257,-0.289315,0.281379\
 H,0,1.805134,2.359843,-0.497774\H,0,0.971299,0.803964,-2.15208\O,0,2.3
 62549,-0.0185,1.419565\C,0,-1.88017,-0.537394,-0.041681\H,0,-1.079633,
 1.520059,1.668247\H,0,-1.947415,2.250631,-0.442583\O,0,-1.159393,-1.43
 4871,-0.436939\C,0,2.32585,-1.631584,-0.349987\H,0,2.910703,-1.498925,

 Normal termination of Gaussian 16 at Wed Apr  9 00:10:49 2025.
