 Gaussian 16, Revision C.01,

 ----------------------------------------------------------------------
 #t hf aug-cc-pvdz symm=none int=(grid=ultrafine) guess=(read,tcheck) s
 table=(opt,rrhf)
 ----------------------------------------------------------------------
 -----
 title
 -----
 Symbolic Z-matrix:
 Charge =  0 Multiplicity = 1

 SCF Done:  E(RHF) =  -1053.75210074     A.U. after   15 cycles
 Normal termination of Gaussian 16 at Tue Apr  8 23:51:02 2025.
 Gaussian 16:  ES64L-G16RevC.01  3-Jul-2019

 ----------------------------------------------------------------------
 #t hf aug-cc-pvdz iop(5/13=1,5/36=2,99/5=2) pseudo=read geom=check gue
 ss=(read,tcheck) scf=(maxcycle=1)
 ----------------------------------------------------------------------
 -----
 title
 -----
 Structure from the checkpoint file:  "BDE49_nonexpt_1874_mol1.chk"
 Charge =  0 Multiplicity = 1

                         Standard orientation:
 ---------------------------------------------------------------------
 Center     Atomic      Atomic             Coordinates (Angstroms)
 Number     Number       Type             X           Y           Z
 ---------------------------------------------------------------------
      1          6           0       -0.826370   -1.072302    0.671124
      2         14           0        0.690700   -1.200412   -0.479298
      3          6           0       -1.930196   -0.259414    0.094042
      4          8           0       -2.994997   -0.597751   -0.280539
      5         17           0       -1.435997    1.528443   -0.065324
      6          6           0        1.994096    0.069663    0.197047
      7          1           0        0.318051   -0.987854   -1.895113
      8          1           0        1.279992   -2.549567   -0.317779
      9          8           0        2.004972    0.222274    1.401746
     10          6           0        2.957039    0.786659   -0.719044
     11          1           0        2.394152    1.427417   -1.406396
     12          1           0        3.503469    0.063839   -1.334930
     13          1           0        3.656652    1.388455   -0.137122
     14          1           0       -0.436813   -0.600851    1.578493
     15          1           0       -1.220561   -2.063018    0.904845
 ---------------------------------------------------------------------

 SCF Done:  E(RHF) =  -1054.16455977     A.U. after    2 cycles

 The electronic state is 1-A.
 Alpha  occ. eigenvalues -- -105.57435 -69.56731 -20.59052 -20.56184 -11.43074
 Alpha  occ. eigenvalues --  -11.34681 -11.27311 -11.25882 -10.62261  -7.79170
 Alpha  occ. eigenvalues --   -7.78836  -7.78813  -6.23777  -3.99137  -3.99113
 Alpha  occ. eigenvalues --   -3.99109  -1.54139  -1.48840  -1.10200  -1.03023
 Alpha  occ. eigenvalues --   -1.02328  -0.83063  -0.78076  -0.72906  -0.68896
 Alpha  occ. eigenvalues --   -0.68303  -0.65507  -0.63947  -0.62080  -0.60894
 Alpha  occ. eigenvalues --   -0.59114  -0.55235  -0.52816  -0.50642  -0.49392
 Alpha  occ. eigenvalues --   -0.47678  -0.47275  -0.44916  -0.40035
 Alpha virt. eigenvalues --    0.02676   0.03527   0.04321   0.04728   0.05950
 Alpha virt. eigenvalues --    0.06501   0.06768   0.08006   0.08476   0.08768
 Alpha virt. eigenvalues --    0.09636   0.10473   0.10921   0.11615   0.12153

 Mulliken charges:
               1
     1  C   -0.582898
     2  Si   1.080673
     3  C    0.947219
     4  O   -1.099119
     5  Cl  -0.177645
     6  C    0.801983
     7  H   -0.049995
     8  H   -0.132954
     9  O   -1.177369
    10  C   -0.560955
    11  H    0.237661
    12  H    0.237085
    13  H    0.148674
    14  H    0.265884
    15  H    0.061756
 Sum of Mulliken charges =  -0.00000

 Dipole moment (field-independent basis, Debye):
    X=              2.6466    Y=             -1.7410    Z=             -1.3829  Tot=              3.4565

 Test job not archived.
 1\1\GINC-SE402\SP\RHF\Aug-CC-pVDZ\C4H7Cl1O2Si1\OHZDE\08-Apr-2025\0\\#t
  hf aug-cc-pvdz iop(5/13=1,5/36=2,99/5=2) pseudo=read geom=check guess
 =(read,tcheck) scf=(maxcycle=1)\\title\\0,1\C,0,-0.82637,-1.072302,0.6
 71124\Si,0,0.6907,-1.200412,-0.479298\C,0,-1.930196,-0.259414,0.094042
 \O,0,-2.994997,-0.59775,-0.280539\Cl,0,-1.435997,1.528443,-0.065324\C,
 0,1.994096,0.069663,0.197047\H,0,0.318051,-0.987854,-1.895113\H,0,1.27
 9992,-2.549567,-0.317779\O,0,2.004972,0.222274,1.401746\C,0,2.957039,0
 .786658,-0.719044\H,0,2.394152,1.427417,-1.406396\H,0,3.503469,0.06383

 Normal termination of Gaussian 16 at Tue Apr  8 23:51:08 2025.
