 Gaussian 16, Revision C.01,

 ----------------------------------------------------------------------
 #t hf aug-cc-pvdz symm=none int=(grid=ultrafine) guess=(read,tcheck) s
 table=(opt,rrhf)
 ----------------------------------------------------------------------
 -----
 title
 -----
 Symbolic Z-matrix:
 Charge =  0 Multiplicity = 1

 SCF Done:  E(RHF) =  -852.713356350     A.U. after   15 cycles
 Normal termination of Gaussian 16 at Wed Apr  9 00:51:22 2025.
 Gaussian 16:  ES64L-G16RevC.01  3-Jul-2019

 ----------------------------------------------------------------------
 #t hf aug-cc-pvdz iop(5/13=1,5/36=2,99/5=2) pseudo=read geom=check gue
 ss=(read,tcheck) scf=(maxcycle=1)
 ----------------------------------------------------------------------
 -----
 title
 -----
 Structure from the checkpoint file:  "BDE49_nonexpt_925_mol1.chk"
 Charge =  0 Multiplicity = 1

                         Standard orientation:
 ---------------------------------------------------------------------
 Center     Atomic      Atomic             Coordinates (Angstroms)
 Number     Number       Type             X           Y           Z
 ---------------------------------------------------------------------
      1         17           0       -2.695136   -0.567524    0.021439
      2          8           0        2.261139   -2.081292    0.028734
      3          7           0       -1.495789    0.720409   -0.013563
      4          7           0        0.199061   -1.027899   -0.025429
      5          7           0        0.800547    1.111713   -0.131203
      6          6           0       -0.284574    0.274911   -0.052024
      7          6           0        1.581719   -1.089159    0.006891
      8          6           0        2.038965    0.370036    0.017975
      9          6           0        0.709322    2.546764    0.055077
     10          1           0       -0.406125   -1.835418   -0.022637
     11          1           0        2.551054    0.581699    0.966193
     12          1           0        2.741949    0.554162   -0.800275
     13          1           0        0.883499    2.835009    1.099503
     14          1           0        1.446489    3.045647   -0.578091
     15          1           0       -0.287989    2.872273   -0.235176
 ---------------------------------------------------------------------

 SCF Done:  E(RHF) =  -853.183312024     A.U. after    2 cycles

 The electronic state is 1-A.
 Alpha  occ. eigenvalues -- -105.58406 -20.55351 -15.57694 -15.55420 -15.54360
 Alpha  occ. eigenvalues --  -11.40108 -11.39547 -11.31749 -11.29238 -10.62920
 Alpha  occ. eigenvalues --   -7.79867  -7.79441  -7.79402  -1.50346  -1.37530
 Alpha  occ. eigenvalues --   -1.24561  -1.23711  -1.05812  -1.02868  -0.96671
 Alpha  occ. eigenvalues --   -0.89395  -0.85374  -0.76127  -0.73379  -0.69552
 Alpha  occ. eigenvalues --   -0.68126  -0.66709  -0.64192  -0.63189  -0.61776
 Alpha  occ. eigenvalues --   -0.58165  -0.56624  -0.54045  -0.50321  -0.46007
 Alpha  occ. eigenvalues --   -0.45317  -0.44653  -0.39722
 Alpha virt. eigenvalues --    0.02720   0.03885   0.04344   0.04929   0.05941
 Alpha virt. eigenvalues --    0.06093   0.07630   0.08414   0.09816   0.10204
 Alpha virt. eigenvalues --    0.11634   0.12261   0.13083   0.13411   0.14010

 Mulliken charges:
               1
     1  Cl   0.010986
     2  O   -1.352970
     3  N    0.645660
     4  N    0.602934
     5  N    0.606944
     6  C   -1.587695
     7  C    0.798075
     8  C   -0.283342
     9  C   -0.273664
    10  H    0.131768
    11  H    0.176740
    12  H    0.126212
    13  H    0.173206
    14  H    0.108091
    15  H    0.117057
 Sum of Mulliken charges =   0.00000

 Dipole moment (field-independent basis, Debye):
    X=              2.5416    Y=              2.2382    Z=              0.1895  Tot=              3.3919

 Test job not archived.
 1\1\GINC-SE220\SP\RHF\Aug-CC-pVDZ\C4H6Cl1N3O1\OHZDE\09-Apr-2025\0\\#t
 hf aug-cc-pvdz iop(5/13=1,5/36=2,99/5=2) pseudo=read geom=check guess=
 (read,tcheck) scf=(maxcycle=1)\\title\\0,1\Cl,0,-2.695136,-0.567524,0.
 021439\O,0,2.261139,-2.081292,0.028734\N,0,-1.495789,0.720409,-0.01356
 3\N,0,0.199061,-1.027899,-0.025429\N,0,0.800547,1.111713,-0.131203\C,0
 ,-0.284574,0.274911,-0.052024\C,0,1.581719,-1.089159,0.006891\C,0,2.03
 8965,0.370036,0.017975\C,0,0.709322,2.546764,0.055077\H,0,-0.406125,-1
 .835418,-0.022637\H,0,2.551054,0.581699,0.966193\H,0,2.741949,0.554162

 Normal termination of Gaussian 16 at Wed Apr  9 00:51:29 2025.
