 Gaussian 16, Revision C.01,

 ----------------------------------------------------------------------
 #t hf aug-cc-pvdz symm=none int=(grid=ultrafine) guess=(read,tcheck) s
 table=(opt,rrhf)
 ----------------------------------------------------------------------
 -----
 title
 -----
 Symbolic Z-matrix:
 Charge =  0 Multiplicity = 1

 SCF Done:  E(RHF) =  -2066.39956678     A.U. after   13 cycles

 1\1\GINC-SE340\Stability\RHF\Aug-CC-pVDZ\C6H2Cl4\OHZDE\08-Apr-2025\0\\
 #t hf aug-cc-pvdz symm=none int=(grid=ultrafine) guess=(read,tcheck) s
 table=(opt,rrhf)\\title\\0,1\C,0,0.,0.,1.388092\C,0,0.,1.208415,0.6994
 44\C,0,0.,1.208415,-0.699444\C,0,0.,0.,-1.388092\C,0,0.,-1.208415,-0.6
 99444\C,0,0.,-1.208415,0.699444\H,0,0.,0.,2.469017\Cl,0,0.,2.689855,1.
 610899\Cl,0,0.,-2.689855,1.610899\H,0,0.,0.,-2.469017\Cl,0,0.,2.689855
 ,-1.610899\Cl,0,0.,-2.689855,-1.610899\\Version=ES64L-G16RevC.01\HF=-2
 066.3995668\RMSD=3.444e-09\Dipole=0.,0.,0.\Quadrupole=-0.7649051,-3.14

 Normal termination of Gaussian 16 at Tue Apr  8 22:48:58 2025.
 Gaussian 16:  ES64L-G16RevC.01  3-Jul-2019

 ----------------------------------------------------------------------
 #t hf aug-cc-pvdz iop(5/13=1,5/36=2,99/5=2) pseudo=read geom=check gue
 ss=(read,tcheck) scf=(maxcycle=1)
 ----------------------------------------------------------------------
 -----
 title
 -----
 Structure from the checkpoint file:  "BDE49_expt_1683_mol1.chk"
 Charge =  0 Multiplicity = 1

                         Standard orientation:
 ---------------------------------------------------------------------
 Center     Atomic      Atomic             Coordinates (Angstroms)
 Number     Number       Type             X           Y           Z
 ---------------------------------------------------------------------
      1          6           0        0.000000    0.000000    1.388092
      2          6           0        0.000000    1.208415    0.699444
      3          6           0        0.000000    1.208415   -0.699444
      4          6           0        0.000000    0.000000   -1.388092
      5          6           0       -0.000000   -1.208415   -0.699444
      6          6           0       -0.000000   -1.208415    0.699444
      7          1           0        0.000000    0.000000    2.469017
      8         17           0        0.000000    2.689855    1.610899
      9         17           0       -0.000000   -2.689855    1.610899
     10          1           0        0.000000    0.000000   -2.469017
     11         17           0        0.000000    2.689855   -1.610899
     12         17           0       -0.000000   -2.689855   -1.610899
 ---------------------------------------------------------------------

 SCF Done:  E(RHF) =  -2066.92748592     A.U. after    2 cycles

 The electronic state is 1-AG.
 Alpha  occ. eigenvalues -- -105.59745-105.59744-105.59744-105.59744 -11.34899
 Alpha  occ. eigenvalues --  -11.34879 -11.34825 -11.34796 -11.29712 -11.29664
 Alpha  occ. eigenvalues --  -10.64546 -10.64545 -10.64545 -10.64545  -7.81528
 Alpha  occ. eigenvalues --   -7.81524  -7.81513  -7.81512  -7.81098  -7.81096
 Alpha  occ. eigenvalues --   -7.81091  -7.81089  -7.81083  -7.81082  -7.81081
 Alpha  occ. eigenvalues --   -7.81080  -1.24904  -1.17926  -1.14214  -1.11045
 Alpha  occ. eigenvalues --   -1.07776  -1.01878  -0.97633  -0.89331  -0.83151
 Alpha  occ. eigenvalues --   -0.74161  -0.71445  -0.67678  -0.63350  -0.62311
 Alpha  occ. eigenvalues --   -0.62193  -0.58180  -0.57208  -0.56032  -0.52591
 Alpha  occ. eigenvalues --   -0.51098  -0.50778  -0.49545  -0.48180  -0.47466
 Alpha  occ. eigenvalues --   -0.46770  -0.38143  -0.36120
 Alpha virt. eigenvalues --    0.03973   0.04118   0.05754   0.06468   0.06962
 Alpha virt. eigenvalues --    0.07280   0.08254   0.09955   0.10072   0.11168
 Alpha virt. eigenvalues --    0.11623   0.12087   0.12467   0.12943   0.13884

 Mulliken charges:
               1
     1  C    0.378342
     2  C    0.114387
     3  C    0.114387
     4  C    0.378342
     5  C    0.114387
     6  C    0.114387
     7  H   -0.070502
     8  Cl  -0.268307
     9  Cl  -0.268307
    10  H   -0.070502
    11  Cl  -0.268307
    12  Cl  -0.268307
 Sum of Mulliken charges =  -0.00000

 Dipole moment (field-independent basis, Debye):
    X=              0.0000    Y=              0.0000    Z=              0.0000  Tot=              0.0000

 Test job not archived.
 1\1\GINC-SE340\SP\RHF\Aug-CC-pVDZ\C6H2Cl4\OHZDE\08-Apr-2025\0\\#t hf a
 ug-cc-pvdz iop(5/13=1,5/36=2,99/5=2) pseudo=read geom=check guess=(rea
 d,tcheck) scf=(maxcycle=1)\\title\\0,1\C,0,0.,0.,1.388092\C,0,0.,1.208
 415,0.699444\C,0,0.,1.208415,-0.699444\C,0,0.,0.,-1.388092\C,0,0.,-1.2
 08415,-0.699444\C,0,0.,-1.208415,0.699444\H,0,0.,0.,2.469017\Cl,0,0.,2
 .689855,1.610899\Cl,0,0.,-2.689855,1.610899\H,0,0.,0.,-2.469017\Cl,0,0
 .,2.689855,-1.610899\Cl,0,0.,-2.689855,-1.610899\\Version=ES64L-G16Rev
 C.01\State=1-AG\HF=-2066.9274859\RMSD=4.511e-02\Dipole=0.,0.,0.\Quadru

 Normal termination of Gaussian 16 at Tue Apr  8 22:49:03 2025.
