 Gaussian 16, Revision C.01,

 ----------------------------------------------------------------------
 #t hf aug-cc-pvdz symm=none int=(grid=ultrafine) guess=(read,tcheck) s
 table=(opt,rrhf)
 ----------------------------------------------------------------------
 -----
 title
 -----
 Symbolic Z-matrix:
 Charge =  0 Multiplicity = 1

 SCF Done:  E(RHF) =  -327.062771240     A.U. after   15 cycles
 Normal termination of Gaussian 16 at Wed Apr  9 00:38:00 2025.
 Gaussian 16:  ES64L-G16RevC.01  3-Jul-2019

 ----------------------------------------------------------------------
 #t hf aug-cc-pvdz iop(5/13=1,5/36=2,99/5=2) pseudo=read geom=check gue
 ss=(read,tcheck) scf=(maxcycle=1)
 ----------------------------------------------------------------------
 -----
 title
 -----
 Structure from the checkpoint file:  "BDE49_nonexpt_561_mol1.chk"
 Charge =  0 Multiplicity = 1

                         Standard orientation:
 ---------------------------------------------------------------------
 Center     Atomic      Atomic             Coordinates (Angstroms)
 Number     Number       Type             X           Y           Z
 ---------------------------------------------------------------------
      1          6           0        0.001345    1.114285   -0.000008
      2          6           0        1.379910    1.279657   -0.000002
      3          6           0        2.202577    0.154731    0.000006
      4          7           0        1.722499   -1.091206    0.000009
      5          6           0        0.400540   -1.243648    0.000004
      6          6           0       -0.515839   -0.183457   -0.000004
      7          1           0        1.813410    2.272865   -0.000004
      8          1           0        3.283530    0.255874    0.000011
      9          1           0       -0.660532    1.970217   -0.000015
     10          5           0       -3.004527    0.390237   -0.000003
     11          1           0        0.032990   -2.269285    0.000006
     12          7           0       -1.898477   -0.467501   -0.000011
     13          1           0       -2.857978    1.569887    0.000040
     14          1           0       -4.085995   -0.106268    0.000026
     15          1           0       -2.082143   -1.462934   -0.000017
 ---------------------------------------------------------------------

 SCF Done:  E(RHF) =  -327.397876272     A.U. after    2 cycles

 The electronic state is 1-A.
 Alpha  occ. eigenvalues --  -15.52679 -15.51149 -11.29658 -11.28033 -11.27548
 Alpha  occ. eigenvalues --  -11.26277 -11.25494  -7.59951  -1.27076  -1.22757
 Alpha  occ. eigenvalues --   -1.08579  -1.02871  -0.88840  -0.88268  -0.77231
 Alpha  occ. eigenvalues --   -0.75730  -0.71818  -0.67653  -0.62571  -0.60678
 Alpha  occ. eigenvalues --   -0.58996  -0.58612  -0.55508  -0.52437  -0.49065
 Alpha  occ. eigenvalues --   -0.45801  -0.39939  -0.33778
 Alpha virt. eigenvalues --    0.03139   0.03436   0.03983   0.04149   0.04909
 Alpha virt. eigenvalues --    0.05540   0.06779   0.07085   0.08535   0.09319
 Alpha virt. eigenvalues --    0.10137   0.11271   0.11835   0.12505   0.12509

 Mulliken charges:
               1
     1  C    1.188016
     2  C    0.521322
     3  C   -0.769768
     4  N    0.981020
     5  C   -0.676549
     6  C   -1.303493
     7  H   -0.204312
     8  H   -0.167823
     9  H   -0.310953
    10  B   -0.760958
    11  H   -0.226060
    12  N    1.289793
    13  H    0.169527
    14  H    0.343679
    15  H   -0.073440
 Sum of Mulliken charges =  -0.00000

 Dipole moment (field-independent basis, Debye):
    X=             -1.1965    Y=              1.3144    Z=             -0.0001  Tot=              1.7774

 Test job not archived.
 1\1\GINC-SE141\SP\RHF\Aug-CC-pVDZ\C5H7B1N2\OHZDE\09-Apr-2025\0\\#t hf
 aug-cc-pvdz iop(5/13=1,5/36=2,99/5=2) pseudo=read geom=check guess=(re
 ad,tcheck) scf=(maxcycle=1)\\title\\0,1\C,0,-0.001345,1.114285,0.00000
 8\C,0,-1.37991,1.279657,0.000002\C,0,-2.202577,0.154731,-0.000006\N,0,
 -1.722499,-1.091206,-0.000009\C,0,-0.40054,-1.243648,-0.000004\C,0,0.5
 15839,-0.183457,0.000004\H,0,-1.81341,2.272865,0.000004\H,0,-3.28353,0
 .255874,-0.000011\H,0,0.660532,1.970217,0.000015\B,0,3.004527,0.390237
 ,0.000003\H,0,-0.03299,-2.269285,-0.000006\N,0,1.898477,-0.467501,0.00

 Normal termination of Gaussian 16 at Wed Apr  9 00:38:06 2025.
