 Gaussian 16, Revision C.01,

 ----------------------------------------------------------------------
 #t hf aug-cc-pvdz symm=none int=(grid=ultrafine) guess=(read,tcheck) s
 table=(opt,rrhf)
 ----------------------------------------------------------------------
 -----
 title
 -----
 Symbolic Z-matrix:
 Charge =  0 Multiplicity = 1

 SCF Done:  E(RHF) =  -1099.80678943     A.U. after   14 cycles
 Normal termination of Gaussian 16 at Wed Apr  9 00:26:20 2025.
 Gaussian 16:  ES64L-G16RevC.01  3-Jul-2019

 ----------------------------------------------------------------------
 #t hf aug-cc-pvdz iop(5/13=1,5/36=2,99/5=2) pseudo=read geom=check gue
 ss=(read,tcheck) scf=(maxcycle=1)
 ----------------------------------------------------------------------
 -----
 title
 -----
 Structure from the checkpoint file:  "BDE49_nonexpt_2730_mol1.chk"
 Charge =  0 Multiplicity = 1

                         Standard orientation:
 ---------------------------------------------------------------------
 Center     Atomic      Atomic             Coordinates (Angstroms)
 Number     Number       Type             X           Y           Z
 ---------------------------------------------------------------------
      1          6           0       -3.138824   -0.615800    0.264299
      2          6           0       -1.770766   -0.384980   -0.336445
      3          1           0       -3.798249   -1.021351   -0.503893
      4          1           0       -3.566813    0.293419    0.689251
      5          1           0       -3.038059   -1.356308    1.063128
      6          6           0        3.138719   -0.615916   -0.264441
      7          6           0        1.770705   -0.384967    0.336355
      8          1           0        3.037932   -1.356808   -1.062911
      9          1           0        3.798282   -1.021039    0.503858
     10          1           0        3.566560    0.293150   -0.689869
     11          8           0       -1.272835   -1.045854   -1.196779
     12          8           0        1.273104   -1.045246    1.197338
     13         16           0       -0.913773    1.028379    0.479452
     14         16           0        0.913723    1.028353   -0.479618
 ---------------------------------------------------------------------

 SCF Done:  E(RHF) =  -1100.23057159     A.U. after    2 cycles

 The electronic state is 1-A.
 Alpha  occ. eigenvalues --  -93.99344 -93.99334 -20.56177 -20.56176 -11.38719
 Alpha  occ. eigenvalues --  -11.38717 -11.26727 -11.26726  -8.27394  -8.27369
 Alpha  occ. eigenvalues --   -6.25191  -6.25148  -6.24951  -6.24940  -6.24738
 Alpha  occ. eigenvalues --   -6.24737  -1.50601  -1.50421  -1.12386  -1.05995
 Alpha  occ. eigenvalues --   -1.02903  -0.93740  -0.77948  -0.74368  -0.68105
 Alpha  occ. eigenvalues --   -0.65822  -0.65679  -0.63658  -0.63186  -0.62786
 Alpha  occ. eigenvalues --   -0.57790  -0.57485  -0.53564  -0.52791  -0.49107
 Alpha  occ. eigenvalues --   -0.43378  -0.42832  -0.39521  -0.37968
 Alpha virt. eigenvalues --    0.03515   0.03629   0.05314   0.05413   0.05872
 Alpha virt. eigenvalues --    0.05984   0.07776   0.08780   0.09770   0.09825
 Alpha virt. eigenvalues --    0.11252   0.11890   0.12170   0.12651   0.13047

 Mulliken charges:
               1
     1  C   -0.523955
     2  C    0.929880
     3  H    0.192349
     4  H    0.216443
     5  H    0.299193
     6  C   -0.524050
     7  C    0.930185
     8  H    0.299165
     9  H    0.192334
    10  H    0.216443
    11  O   -1.192957
    12  O   -1.193023
    13  S    0.079044
    14  S    0.078949
 Sum of Mulliken charges =  -0.00000

 Dipole moment (field-independent basis, Debye):
    X=             -0.0005    Y=              0.4108    Z=             -0.0009  Tot=              0.4108

 Test job not archived.
 1\1\GINC-SE127\SP\RHF\Aug-CC-pVDZ\C4H6O2S2\OHZDE\09-Apr-2025\0\\#t hf
 aug-cc-pvdz iop(5/13=1,5/36=2,99/5=2) pseudo=read geom=check guess=(re
 ad,tcheck) scf=(maxcycle=1)\\title\\0,1\C,0,-3.138824,-0.6158,0.264299
 \C,0,-1.770766,-0.38498,-0.336445\H,0,-3.798249,-1.021351,-0.503893\H,
 0,-3.566813,0.293419,0.689251\H,0,-3.038059,-1.356308,1.063128\C,0,3.1
 38719,-0.615916,-0.264441\C,0,1.770705,-0.384967,0.336355\H,0,3.037932
 ,-1.356808,-1.062911\H,0,3.798282,-1.021039,0.503858\H,0,3.56656,0.293
 15,-0.689869\O,0,-1.272835,-1.045854,-1.196779\O,0,1.273104,-1.045246,

 Normal termination of Gaussian 16 at Wed Apr  9 00:26:26 2025.
