 Gaussian 16, Revision C.01,

 ----------------------------------------------------------------------
 #t hf aug-cc-pvdz symm=none int=(grid=ultrafine) guess=(read,tcheck) s
 table=(opt,rrhf)
 ----------------------------------------------------------------------
 -----
 title
 -----
 Symbolic Z-matrix:
 Charge =  0 Multiplicity = 1

 SCF Done:  E(RHF) =  -482.691587546     A.U. after   16 cycles
 Normal termination of Gaussian 16 at Wed Apr  9 00:31:44 2025.
 Gaussian 16:  ES64L-G16RevC.01  3-Jul-2019

 ----------------------------------------------------------------------
 #t hf aug-cc-pvdz iop(5/13=1,5/36=2,99/5=2) pseudo=read geom=check gue
 ss=(read,tcheck) scf=(maxcycle=1)
 ----------------------------------------------------------------------
 -----
 title
 -----
 Structure from the checkpoint file:  "BDE49_nonexpt_345_mol1.chk"
 Charge =  0 Multiplicity = 1

                         Standard orientation:
 ---------------------------------------------------------------------
 Center     Atomic      Atomic             Coordinates (Angstroms)
 Number     Number       Type             X           Y           Z
 ---------------------------------------------------------------------
      1          6           0       -3.032706   -0.185525    0.107497
      2          6           0       -1.699792   -0.480512   -0.518943
      3          8           0       -3.460529   -0.690137    1.115050
      4          8           0       -3.722514    0.761995   -0.577727
      5          5           0       -0.586283    0.582293   -0.156205
      6          1           0       -1.802227   -0.408115   -1.611911
      7          1           0       -1.421392   -1.505472   -0.270345
      8          6           0        0.919614    0.254752   -0.065208
      9          1           0       -4.537414    0.917730   -0.077740
     10          6           0        1.838384    1.299041    0.169427
     11          6           0        1.441523   -1.047127   -0.212351
     12          6           0        2.806478   -1.293599   -0.132530
     13          6           0        3.690032   -0.238095    0.098849
     14          6           0        3.205960    1.060534    0.250375
     15          1           0        3.893857    1.878686    0.431926
     16          1           0        1.462117    2.309495    0.288700
     17          1           0        0.767480   -1.878329   -0.388552
     18          1           0        3.186451   -2.302596   -0.247136
     19          1           0        4.755695   -0.429723    0.163022
     20          1           0       -0.925761    1.715181    0.011783
 ---------------------------------------------------------------------

 SCF Done:  E(RHF) =  -483.179735390     A.U. after    2 cycles

 The electronic state is 1-A.
 Alpha  occ. eigenvalues --  -20.59666 -20.53280 -11.39288 -11.26348 -11.26049
 Alpha  occ. eigenvalues --  -11.25945 -11.25160 -11.25085 -11.23551 -11.22952
 Alpha  occ. eigenvalues --   -7.60650  -1.54289  -1.44703  -1.16254  -1.04000
 Alpha  occ. eigenvalues --   -1.02771  -1.01825  -0.85143  -0.84376  -0.81755
 Alpha  occ. eigenvalues --   -0.74155  -0.70691  -0.69188  -0.67714  -0.65118
 Alpha  occ. eigenvalues --   -0.64774  -0.61687  -0.61128  -0.58744  -0.57664
 Alpha  occ. eigenvalues --   -0.55061  -0.51986  -0.51788  -0.49239  -0.48379
 Alpha  occ. eigenvalues --   -0.46190  -0.43854  -0.36110  -0.35625
 Alpha virt. eigenvalues --    0.02982   0.03184   0.03585   0.04097   0.04449
 Alpha virt. eigenvalues --    0.04699   0.05236   0.06538   0.07240   0.07988
 Alpha virt. eigenvalues --    0.08431   0.09311   0.09948   0.10922   0.11185

 Mulliken charges:
               1
     1  C    2.159198
     2  C   -0.674045
     3  O   -1.301442
     4  O   -1.262451
     5  B    0.062834
     6  H    0.227497
     7  H    0.055989
     8  C   -0.108044
     9  H    0.401250
    10  C    0.053794
    11  C    0.600885
    12  C    0.287212
    13  C    0.405342
    14  C    0.289132
    15  H   -0.213941
    16  H   -0.350433
    17  H   -0.338437
    18  H   -0.248455
    19  H   -0.210991
    20  H    0.165105
 Sum of Mulliken charges =  -0.00000

 Dipole moment (field-independent basis, Debye):
    X=              2.2309    Y=              0.4732    Z=             -1.5349  Tot=              2.7489

 Test job not archived.
 1\1\GINC-SE184\SP\RHF\Aug-CC-pVDZ\C8H9B1O2\OHZDE\09-Apr-2025\0\\#t hf
 aug-cc-pvdz iop(5/13=1,5/36=2,99/5=2) pseudo=read geom=check guess=(re
 ad,tcheck) scf=(maxcycle=1)\\title\\0,1\C,0,-3.032706,-0.185525,0.1074
 97\C,0,-1.699792,-0.480512,-0.518943\O,0,-3.460529,-0.690137,1.11505\O
 ,0,-3.722514,0.761995,-0.577727\B,0,-0.586283,0.582293,-0.156205\H,0,-
 1.802227,-0.408115,-1.611911\H,0,-1.421392,-1.505472,-0.270345\C,0,0.9
 19614,0.254752,-0.065208\H,0,-4.537414,0.91773,-0.07774\C,0,1.838384,1
 .299041,0.169427\C,0,1.441523,-1.047127,-0.212351\C,0,2.806478,-1.2935

 Normal termination of Gaussian 16 at Wed Apr  9 00:32:19 2025.
