 Gaussian 16, Revision C.01,

 ----------------------------------------------------------------------
 #t hf aug-cc-pvdz symm=none int=(grid=ultrafine) guess=(read,tcheck) s
 table=(opt,rrhf)
 ----------------------------------------------------------------------
 -----
 title
 -----
 Symbolic Z-matrix:
 Charge =  0 Multiplicity = 1

 SCF Done:  E(RHF) =  -628.885785182     A.U. after   16 cycles
 Normal termination of Gaussian 16 at Tue Apr  8 23:16:48 2025.
 Gaussian 16:  ES64L-G16RevC.01  3-Jul-2019

 ----------------------------------------------------------------------
 #t hf aug-cc-pvdz iop(5/13=1,5/36=2,99/5=2) pseudo=read geom=check gue
 ss=(read,tcheck) scf=(maxcycle=1)
 ----------------------------------------------------------------------
 -----
 title
 -----
 Structure from the checkpoint file:  "BDE49_nonexpt_1020_mol1.chk"
 Charge =  0 Multiplicity = 1

                         Standard orientation:
 ---------------------------------------------------------------------
 Center     Atomic      Atomic             Coordinates (Angstroms)
 Number     Number       Type             X           Y           Z
 ---------------------------------------------------------------------
      1         17           0        1.586366   -0.259019    0.047445
      2          7           0       -1.145502    0.525785    0.282758
      3          8           0       -0.122497    0.898647   -0.352235
      4          6           0       -1.813927   -0.705420   -0.105633
      5          1           0       -1.174499    0.788456    1.270089
      6          1           0       -1.154017   -1.552667    0.118724
      7          1           0       -2.011800   -0.676567   -1.176439
      8          1           0       -2.745854   -0.793046    0.453438
 ---------------------------------------------------------------------

 SCF Done:  E(RHF) =  -629.134445083     A.U. after    2 cycles

 The electronic state is 1-A.
 Alpha  occ. eigenvalues -- -105.52714 -20.71237 -15.64779 -11.30795 -10.57175
 Alpha  occ. eigenvalues --   -7.74024  -7.73707  -7.73692  -1.60724  -1.17609
 Alpha  occ. eigenvalues --   -0.98572  -0.95008  -0.80673  -0.74018  -0.70818
 Alpha  occ. eigenvalues --   -0.61208  -0.58205  -0.55377  -0.42612  -0.41970
 Alpha  occ. eigenvalues --   -0.39008
 Alpha virt. eigenvalues --    0.00546   0.02381   0.04354   0.05107   0.06018
 Alpha virt. eigenvalues --    0.09759   0.12787   0.13041   0.13752   0.15034
 Alpha virt. eigenvalues --    0.15405   0.17229   0.18238   0.18634   0.20209

 Mulliken charges:
               1
     1  Cl  -0.310894
     2  N    0.997029
     3  O   -0.906656
     4  C   -0.383837
     5  H    0.175206
     6  H    0.198183
     7  H    0.128077
     8  H    0.102890
 Sum of Mulliken charges =  -0.00000

 Dipole moment (field-independent basis, Debye):
    X=             -5.0486    Y=             -0.2107    Z=              1.1460  Tot=              5.1813

 Test job not archived.
 1\1\GINC-SE048\SP\RHF\Aug-CC-pVDZ\C1H4Cl1N1O1\OHZDE\08-Apr-2025\0\\#t
 hf aug-cc-pvdz iop(5/13=1,5/36=2,99/5=2) pseudo=read geom=check guess=
 (read,tcheck) scf=(maxcycle=1)\\title\\0,1\Cl,0,1.586366,-0.259019,0.0
 47445\N,0,-1.145502,0.525785,0.282758\O,0,-0.122497,0.898647,-0.352235
 \C,0,-1.813927,-0.70542,-0.105633\H,0,-1.174499,0.788456,1.270089\H,0,
 -1.154017,-1.552667,0.118724\H,0,-2.0118,-0.676567,-1.176439\H,0,-2.74
 5854,-0.793046,0.453438\\Version=ES64L-G16RevC.01\State=1-A\HF=-629.13
 44451\RMSD=1.115e-02\Dipole=-1.9862736,-0.0828951,0.4508805\Quadrupole

 Normal termination of Gaussian 16 at Tue Apr  8 23:16:50 2025.
