 Gaussian 16, Revision C.01,

 ----------------------------------------------------------------------
 #t hf aug-cc-pvdz symm=none int=(grid=ultrafine) guess=(read,tcheck) s
 table=(opt,rrhf)
 ----------------------------------------------------------------------
 -----
 title
 -----
 Symbolic Z-matrix:
 Charge =  0 Multiplicity = 1

 SCF Done:  E(RHF) =  -1984.97028545     A.U. after   16 cycles
 Normal termination of Gaussian 16 at Wed Apr  9 00:49:42 2025.
 Gaussian 16:  ES64L-G16RevC.01  3-Jul-2019

 ----------------------------------------------------------------------
 #t hf aug-cc-pvdz iop(5/13=1,5/36=2,99/5=2) pseudo=read geom=check gue
 ss=(read,tcheck) scf=(maxcycle=1)
 ----------------------------------------------------------------------
 -----
 title
 -----
 Structure from the checkpoint file:  "BDE49_nonexpt_870_mol1.chk"
 Charge =  0 Multiplicity = 1

                         Standard orientation:
 ---------------------------------------------------------------------
 Center     Atomic      Atomic             Coordinates (Angstroms)
 Number     Number       Type             X           Y           Z
 ---------------------------------------------------------------------
      1          5           0        1.884307    0.118344   -0.000003
      2         17           0       -3.407443   -0.714800    0.000013
      3         17           0       -0.458960   -1.948153    0.000030
      4         16           0        2.654748   -0.100808    1.618852
      5         16           0        2.654745   -0.100859   -1.618852
      6          7           0       -2.233349    1.622914   -0.000023
      7          6           0       -2.001285    0.328006   -0.000003
      8          6           0       -0.709327   -0.221180    0.000004
      9          6           0        0.393347    0.638260   -0.000010
     10          6           0        0.126591    2.014675   -0.000031
     11          1           0        0.939111    2.731529   -0.000043
     12          6           0       -1.189335    2.455677   -0.000037
     13          1           0       -1.425042    3.514879   -0.000053
     14          1           0        3.877429   -0.497158   -1.222647
     15          1           0        3.877432   -0.497120    1.222656
 ---------------------------------------------------------------------

 SCF Done:  E(RHF) =  -1985.50683194     A.U. after    2 cycles

 The electronic state is 1-A.
 Alpha  occ. eigenvalues -- -105.58930-105.58037 -93.97689 -93.97681 -15.53484
 Alpha  occ. eigenvalues --  -11.36668 -11.33718 -11.30756 -11.28600 -11.27589
 Alpha  occ. eigenvalues --  -10.63728 -10.62863  -8.25963  -8.25953  -7.80701
 Alpha  occ. eigenvalues --   -7.80294  -7.80269  -7.79827  -7.79401  -7.79399
 Alpha  occ. eigenvalues --   -7.68527  -6.23800  -6.23785  -6.23641  -6.23626
 Alpha  occ. eigenvalues --   -6.23482  -6.23478  -1.30614  -1.16624  -1.12731
 Alpha  occ. eigenvalues --   -1.07619  -1.06155  -1.02241  -1.00861  -0.89983
 Alpha  occ. eigenvalues --   -0.88141  -0.74950  -0.74147  -0.68301  -0.65599
 Alpha  occ. eigenvalues --   -0.63186  -0.62049  -0.60489  -0.56835  -0.55793
 Alpha  occ. eigenvalues --   -0.54916  -0.52078  -0.50495  -0.49697  -0.47570
 Alpha  occ. eigenvalues --   -0.46808  -0.46524  -0.44681  -0.41449  -0.39607
 Alpha  occ. eigenvalues --   -0.36373
 Alpha virt. eigenvalues --    0.02527   0.03420   0.04505   0.04545   0.05134
 Alpha virt. eigenvalues --    0.05870   0.06089   0.07262   0.07899   0.07990
 Alpha virt. eigenvalues --    0.08358   0.08807   0.09800   0.10827   0.11565

 Mulliken charges:
               1
     1  B    1.089818
     2  Cl  -0.047513
     3  Cl  -0.339527
     4  S   -0.716859
     5  S   -0.716858
     6  N    1.503502
     7  C   -2.025094
     8  C    0.899787
     9  C    0.338611
    10  C    1.029498
    11  H   -0.345038
    12  C   -0.999200
    13  H   -0.198982
    14  H    0.263928
    15  H    0.263929
 Sum of Mulliken charges =  -0.00000

 Dipole moment (field-independent basis, Debye):
    X=              4.7077    Y=              1.0388    Z=             -0.0000  Tot=              4.8210

 Test job not archived.
 1\1\GINC-SE186\SP\RHF\Aug-CC-pVDZ\C5H4B1Cl2N1S2\OHZDE\09-Apr-2025\0\\#
 t hf aug-cc-pvdz iop(5/13=1,5/36=2,99/5=2) pseudo=read geom=check gues
 s=(read,tcheck) scf=(maxcycle=1)\\title\\0,1\B,0,-1.884307,0.118344,0.
 000003\Cl,0,3.407443,-0.7148,-0.000013\Cl,0,0.45896,-1.948153,-0.00003
 \S,0,-2.654748,-0.100808,-1.618852\S,0,-2.654745,-0.100859,1.618852\N,
 0,2.233349,1.622914,0.000023\C,0,2.001285,0.328006,0.000003\C,0,0.7093
 27,-0.22118,-0.000004\C,0,-0.393347,0.63826,0.00001\C,0,-0.126591,2.01
 4675,0.000031\H,0,-0.939111,2.731529,0.000043\C,0,1.189335,2.455677,0.

 Normal termination of Gaussian 16 at Wed Apr  9 00:49:53 2025.
