 Gaussian 16, Revision C.01,

 ----------------------------------------------------------------------
 #t hf aug-cc-pvdz symm=none int=(grid=ultrafine) guess=(read,tcheck) s
 table=(opt,rrhf)
 ----------------------------------------------------------------------
 -----
 title
 -----
 Symbolic Z-matrix:
 Charge =  0 Multiplicity = 1

 SCF Done:  E(RHF) =  -1180.06728977     A.U. after   17 cycles
 Normal termination of Gaussian 16 at Wed Apr  9 00:44:37 2025.
 Gaussian 16:  ES64L-G16RevC.01  3-Jul-2019

 ----------------------------------------------------------------------
 #t hf aug-cc-pvdz iop(5/13=1,5/36=2,99/5=2) pseudo=read geom=check gue
 ss=(read,tcheck) scf=(maxcycle=1)
 ----------------------------------------------------------------------
 -----
 title
 -----
 Structure from the checkpoint file:  "BDE49_nonexpt_768_mol1.chk"
 Charge =  0 Multiplicity = 1

                         Standard orientation:
 ---------------------------------------------------------------------
 Center     Atomic      Atomic             Coordinates (Angstroms)
 Number     Number       Type             X           Y           Z
 ---------------------------------------------------------------------
      1         15           0       -0.121576    0.309336    0.844820
      2          5           0        1.508057   -0.420766   -0.036885
      3          7           0       -1.316658   -0.837084   -0.042469
      4         17           0       -0.413323    2.068823   -0.203110
      5          8           0       -2.261541   -0.432495   -0.670735
      6          8           0        2.498035    0.478182   -0.215325
      7          8           0        1.632357   -1.730751   -0.313731
      8          8           0       -1.067810   -2.027383    0.198531
      9          1           0        0.817380   -2.233610   -0.146113
     10          1           0        3.300747    0.086583   -0.581531
 ---------------------------------------------------------------------

 SCF Done:  E(RHF) =  -1180.55000143     A.U. after    2 cycles

 The electronic state is 1-A.
 Alpha  occ. eigenvalues -- -105.59948 -84.39118 -20.62642 -20.60842 -20.59742
 Alpha  occ. eigenvalues --  -20.59082 -15.79709 -10.64806  -7.81724  -7.81328
 Alpha  occ. eigenvalues --   -7.81301  -7.70319  -6.85640  -4.38121  -4.37555
 Alpha  occ. eigenvalues --   -4.36951  -1.69088  -1.53204  -1.51902  -1.48194
 Alpha  occ. eigenvalues --   -1.11723  -1.02343  -0.87163  -0.82149  -0.78069
 Alpha  occ. eigenvalues --   -0.76691  -0.75560  -0.72501  -0.65014  -0.61139
 Alpha  occ. eigenvalues --   -0.60229  -0.54621  -0.53370  -0.52715  -0.51486
 Alpha  occ. eigenvalues --   -0.50170  -0.47683  -0.46985  -0.39121
 Alpha virt. eigenvalues --    0.03252   0.03480   0.04457   0.05278   0.05640
 Alpha virt. eigenvalues --    0.06636   0.07097   0.08176   0.09218   0.10381
 Alpha virt. eigenvalues --    0.11942   0.12465   0.14010   0.15547   0.16825

 Mulliken charges:
               1
     1  P    0.197872
     2  B    1.846355
     3  N    1.873556
     4  Cl  -0.445804
     5  O   -1.145069
     6  O   -1.079002
     7  O   -1.261109
     8  O   -1.245396
     9  H    0.721435
    10  H    0.537161
 Sum of Mulliken charges =   0.00000

 Dipole moment (field-independent basis, Debye):
    X=              3.0472    Y=              0.3145    Z=              1.0638  Tot=              3.2429

 Test job not archived.
 1\1\GINC-SE174\SP\RHF\Aug-CC-pVDZ\B1Cl1H2N1O4P1\OHZDE\09-Apr-2025\0\\#
 t hf aug-cc-pvdz iop(5/13=1,5/36=2,99/5=2) pseudo=read geom=check gues
 s=(read,tcheck) scf=(maxcycle=1)\\title\\0,1\P,0,-0.121576,0.309336,0.
 84482\B,0,1.508057,-0.420767,-0.036885\N,0,-1.316658,-0.837084,-0.0424
 69\Cl,0,-0.413322,2.068823,-0.20311\O,0,-2.261541,-0.432494,-0.670735\
 O,0,2.498035,0.478181,-0.215325\O,0,1.632356,-1.730752,-0.313731\O,0,-
 1.067811,-2.027383,0.198531\H,0,0.817379,-2.23361,-0.146113\H,0,3.3007
 47,0.086582,-0.581531\\Version=ES64L-G16RevC.01\State=1-A\HF=-1180.550

 Normal termination of Gaussian 16 at Wed Apr  9 00:44:42 2025.
