 Gaussian 16, Revision C.01,

 ----------------------------------------------------------------------
 #t hf aug-cc-pvdz symm=none int=(grid=ultrafine) guess=(read,tcheck) s
 table=(opt,rrhf)
 ----------------------------------------------------------------------
 -----
 title
 -----
 Symbolic Z-matrix:
 Charge =  0 Multiplicity = 1

 SCF Done:  E(RHF) =  -2117.16626577     A.U. after   13 cycles
 Normal termination of Gaussian 16 at Wed Apr  9 00:16:50 2025.
 Gaussian 16:  ES64L-G16RevC.01  3-Jul-2019

 ----------------------------------------------------------------------
 #t hf aug-cc-pvdz iop(5/13=1,5/36=2,99/5=2) pseudo=read geom=check gue
 ss=(read,tcheck) scf=(maxcycle=1)
 ----------------------------------------------------------------------
 -----
 title
 -----
 Structure from the checkpoint file:  "BDE49_nonexpt_249_mol1.chk"
 Charge =  0 Multiplicity = 1

                         Standard orientation:
 ---------------------------------------------------------------------
 Center     Atomic      Atomic             Coordinates (Angstroms)
 Number     Number       Type             X           Y           Z
 ---------------------------------------------------------------------
      1         17           0        3.899109    1.505304   -0.000003
      2         17           0        3.899109   -1.505304   -0.000003
      3          5           0        2.972511    0.000000    0.000003
      4          6           0        1.421856    0.000000    0.000005
      5          6           0        0.693536   -1.205024    0.000006
      6          1           0        1.223460   -2.149598    0.000005
      7          6           0        0.693536    1.205024    0.000006
      8          1           0        1.223460    2.149598    0.000005
      9         17           0       -3.899109   -1.505304   -0.000007
     10         17           0       -3.899109    1.505304   -0.000008
     11          5           0       -2.972511    0.000000    0.000011
     12          6           0       -1.421856    0.000000    0.000009
     13          6           0       -0.693536    1.205024    0.000008
     14          1           0       -1.223460    2.149598    0.000008
     15          6           0       -0.693536   -1.205024    0.000008
     16          1           0       -1.223460   -2.149598    0.000009
 ---------------------------------------------------------------------

 SCF Done:  E(RHF) =  -2117.74755924     A.U. after    2 cycles

 The electronic state is 1-A.
 Alpha  occ. eigenvalues -- -105.58148-105.58147-105.58147-105.58147 -11.27405
 Alpha  occ. eigenvalues --  -11.27386 -11.27333 -11.27304 -11.26446 -11.26403
 Alpha  occ. eigenvalues --  -10.63174 -10.63174 -10.63144 -10.63144  -7.80068
 Alpha  occ. eigenvalues --   -7.80067  -7.80045  -7.80043  -7.79775  -7.79774
 Alpha  occ. eigenvalues --   -7.79771  -7.79770  -7.79742  -7.79741  -7.79735
 Alpha  occ. eigenvalues --   -7.79732  -7.72631  -7.72488  -1.18432  -1.12174
 Alpha  occ. eigenvalues --   -1.11191  -1.06745  -1.06324  -1.04147  -1.04036
 Alpha  occ. eigenvalues --   -0.87354  -0.85956  -0.76330  -0.72400  -0.67946
 Alpha  occ. eigenvalues --   -0.66727  -0.65678  -0.62619  -0.61385  -0.58790
 Alpha  occ. eigenvalues --   -0.57413  -0.55827  -0.54305  -0.53907  -0.52425
 Alpha  occ. eigenvalues --   -0.51383  -0.48592  -0.48439  -0.48329  -0.48314
 Alpha  occ. eigenvalues --   -0.46864  -0.46769  -0.38210  -0.37112
 Alpha virt. eigenvalues --   -0.00260   0.03246   0.03579   0.03990   0.04181
 Alpha virt. eigenvalues --    0.05355   0.05851   0.05946   0.06546   0.07673
 Alpha virt. eigenvalues --    0.08077   0.08704   0.08840   0.09113   0.10229

 Mulliken charges:
               1
     1  Cl  -0.360406
     2  Cl  -0.360406
     3  B    0.528954
     4  C    0.747714
     5  C    0.074236
     6  H   -0.352164
     7  C    0.074236
     8  H   -0.352164
     9  Cl  -0.360406
    10  Cl  -0.360406
    11  B    0.528954
    12  C    0.747714
    13  C    0.074236
    14  H   -0.352164
    15  C    0.074236
    16  H   -0.352164
 Sum of Mulliken charges =  -0.00000

 Dipole moment (field-independent basis, Debye):
    X=              0.0000    Y=             -0.0000    Z=              0.0000  Tot=              0.0000

 Test job not archived.
 1\1\GINC-SE094\SP\RHF\Aug-CC-pVDZ\C6H4B2Cl4\OHZDE\09-Apr-2025\0\\#t hf
  aug-cc-pvdz iop(5/13=1,5/36=2,99/5=2) pseudo=read geom=check guess=(r
 ead,tcheck) scf=(maxcycle=1)\\title\\0,1\Cl,0,-3.899109,1.505304,0.000
 003\Cl,0,-3.899109,-1.505304,0.000003\B,0,-2.972511,0.,-0.000003\C,0,-
 1.421856,0.,-0.000005\C,0,-0.693536,-1.205024,-0.000006\H,0,-1.22346,-
 2.149598,-0.000005\C,0,-0.693536,1.205024,-0.000006\H,0,-1.22346,2.149
 598,-0.000005\Cl,0,3.899109,-1.505304,0.000007\Cl,0,3.899109,1.505304,
 0.000008\B,0,2.972511,0.,-0.000011\C,0,1.421856,0.,-0.000009\C,0,0.693

 Normal termination of Gaussian 16 at Wed Apr  9 00:17:01 2025.
