 Gaussian 16, Revision C.01,

 ----------------------------------------------------------------------
 #t hf aug-cc-pvdz symm=none int=(grid=ultrafine) guess=(read,tcheck) s
 table=(opt,rrhf)
 ----------------------------------------------------------------------
 -----
 title
 -----
 Symbolic Z-matrix:
 Charge =  0 Multiplicity = 1

 SCF Done:  E(RHF) =  -1420.94246520     A.U. after   17 cycles
 Normal termination of Gaussian 16 at Tue Apr  8 23:49:07 2025.
 Gaussian 16:  ES64L-G16RevC.01  3-Jul-2019

 ----------------------------------------------------------------------
 #t hf aug-cc-pvdz iop(5/13=1,5/36=2,99/5=2) pseudo=read geom=check gue
 ss=(read,tcheck) scf=(maxcycle=1)
 ----------------------------------------------------------------------
 -----
 title
 -----
 Structure from the checkpoint file:  "BDE49_nonexpt_1717_mol1.chk"
 Charge =  0 Multiplicity = 1

                         Standard orientation:
 ---------------------------------------------------------------------
 Center     Atomic      Atomic             Coordinates (Angstroms)
 Number     Number       Type             X           Y           Z
 ---------------------------------------------------------------------
      1          6           0        3.733845    0.160419    0.031579
      2          6           0        3.124025    1.426147   -0.014563
      3          6           0        1.750837    1.531447   -0.060999
      4          6           0        2.939263   -0.993568    0.033892
      5          6           0        1.556135   -0.875459   -0.014408
      6          6           0        0.939729    0.379286   -0.067057
      7          1           0        3.759246    2.303061   -0.013819
      8          1           0        1.274100    2.502486   -0.096579
      9          1           0        3.385216   -1.977268    0.078175
     10          1           0        0.956037   -1.776591    0.003479
     11          6           0       -0.521491    0.567945   -0.123251
     12         16           0       -1.504563   -0.933915   -0.414259
     13         15           0       -3.504254   -0.249986    0.013866
     14          8           0       -4.444921   -1.240086   -0.501396
     15          8           0       -1.037928    1.671317   -0.023059
     16          8           0        5.083576    0.162902    0.074683
     17          6           0        5.778814   -1.081812    0.115700
     18          1           0        5.522170   -1.650158    1.015164
     19          1           0        6.835946   -0.825963    0.138806
     20          1           0        5.568816   -1.682907   -0.774466
     21          8           0       -3.566285    1.216310   -0.532647
     22          1           0       -2.702592    1.677871   -0.366957
     23          8           0       -3.538360   -0.025537    1.602042
     24          1           0       -3.737716   -0.843774    2.074018
 ---------------------------------------------------------------------

 SCF Done:  E(RHF) =  -1421.72428519     A.U. after    2 cycles

 The electronic state is 1-A.
 Alpha  occ. eigenvalues --  -93.98386 -84.45420 -20.60450 -20.60075 -20.58480
 Alpha  occ. eigenvalues --  -20.57588 -20.51282 -11.41037 -11.34902 -11.31994
 Alpha  occ. eigenvalues --  -11.29083 -11.28213 -11.27333 -11.26778 -11.26227
 Alpha  occ. eigenvalues --   -8.26741  -6.90490  -6.24510  -6.24349  -6.24151
 Alpha  occ. eigenvalues --   -4.44656  -4.43918  -4.42810  -1.54333  -1.53064
 Alpha  occ. eigenvalues --   -1.51612  -1.47421  -1.39795  -1.19086  -1.09440
 Alpha  occ. eigenvalues --   -1.05666  -1.04882  -0.98252  -0.89779  -0.87448
 Alpha  occ. eigenvalues --   -0.84281  -0.80823  -0.75904  -0.74581  -0.71913
 Alpha  occ. eigenvalues --   -0.70758  -0.68383  -0.68119  -0.66384  -0.64666
 Alpha  occ. eigenvalues --   -0.64005  -0.63410  -0.61699  -0.60732  -0.59564
 Alpha  occ. eigenvalues --   -0.57710  -0.57142  -0.55832  -0.55482  -0.53766
 Alpha  occ. eigenvalues --   -0.51779  -0.49696  -0.49643  -0.46996  -0.44611
 Alpha  occ. eigenvalues --   -0.44273  -0.41390  -0.38273  -0.35186
 Alpha virt. eigenvalues --    0.02262   0.02924   0.03456   0.03924   0.04225
 Alpha virt. eigenvalues --    0.04474   0.05243   0.06300   0.07371   0.07814
 Alpha virt. eigenvalues --    0.08082   0.08477   0.09885   0.10139   0.10764

 Mulliken charges:
               1
     1  C    1.158237
     2  C    0.611113
     3  C   -0.042792
     4  C   -0.042071
     5  C    0.273712
     6  C    2.187935
     7  H   -0.307252
     8  H   -0.359287
     9  H   -0.408630
    10  H   -0.225913
    11  C    0.000415
    12  S   -0.360436
    13  P    3.666399
    14  O   -1.419868
    15  O   -1.636506
    16  O   -1.839648
    17  C    0.092534
    18  H    0.184237
    19  H   -0.033861
    20  H    0.186196
    21  O   -1.527715
    22  H    0.726896
    23  O   -1.242468
    24  H    0.358773
 Sum of Mulliken charges =  -0.00000

 Dipole moment (field-independent basis, Debye):
    X=              7.8054    Y=             -1.3385    Z=              2.2403  Tot=              8.2301

 Test job not archived.
 1\1\GINC-SE073\SP\RHF\Aug-CC-pVDZ\C8H9O5P1S1\OHZDE\08-Apr-2025\0\\#t h
 f aug-cc-pvdz iop(5/13=1,5/36=2,99/5=2) pseudo=read geom=check guess=(
 read,tcheck) scf=(maxcycle=1)\\title\\0,1\C,0,3.733845,0.160419,0.0315
 79\C,0,3.124025,1.426147,-0.014563\C,0,1.750837,1.531447,-0.060999\C,0
 ,2.939263,-0.993568,0.033892\C,0,1.556135,-0.875459,-0.014408\C,0,0.93
 9729,0.379286,-0.067057\H,0,3.759246,2.303061,-0.013819\H,0,1.2741,2.5
 02486,-0.096579\H,0,3.385216,-1.977268,0.078175\H,0,0.956037,-1.776591
 ,0.003479\C,0,-0.521491,0.567945,-0.123251\S,0,-1.504563,-0.933915,-0.

 Normal termination of Gaussian 16 at Tue Apr  8 23:49:30 2025.
