 Gaussian 16, Revision C.01,

 ----------------------------------------------------------------------
 #t hf aug-cc-pvdz symm=none int=(grid=ultrafine) guess=(read,tcheck) s
 table=(opt,rrhf)
 ----------------------------------------------------------------------
 -----
 title
 -----
 Symbolic Z-matrix:
 Charge =  0 Multiplicity = 1

 SCF Done:  E(RHF) =  -760.522947105     A.U. after   18 cycles
 Normal termination of Gaussian 16 at Tue Apr  8 23:33:04 2025.
 Gaussian 16:  ES64L-G16RevC.01  3-Jul-2019

 ----------------------------------------------------------------------
 #t hf aug-cc-pvdz iop(5/13=1,5/36=2,99/5=2) pseudo=read geom=check gue
 ss=(read,tcheck) scf=(maxcycle=1)
 ----------------------------------------------------------------------
 -----
 title
 -----
 Structure from the checkpoint file:  "BDE49_nonexpt_1392_mol1.chk"
 Charge =  0 Multiplicity = 1

                         Standard orientation:
 ---------------------------------------------------------------------
 Center     Atomic      Atomic             Coordinates (Angstroms)
 Number     Number       Type             X           Y           Z
 ---------------------------------------------------------------------
      1          6           0        1.634096   -1.403164    0.037931
      2          6           0        2.913516   -0.861189    0.110907
      3          6           0        3.086633    0.522696    0.082947
      4          6           0        1.976803    1.350235   -0.003272
      5          6           0        0.674547    0.821648   -0.053308
      6          6           0        0.505228   -0.581379   -0.030988
      7         15           0       -1.146638   -1.346265   -0.253414
      8          6           0       -2.308812    0.090225    0.064294
      9          1           0        4.081540    0.950114    0.125603
     10          1           0        3.773857   -1.517295    0.177529
     11          1           0        2.105761    2.427361   -0.025049
     12          8           0       -3.484917   -0.137106    0.273063
     13          6           0       -0.451019    1.747443   -0.092045
     14          6           0       -1.766093    1.448172   -0.044019
     15          1           0       -0.178416    2.798888   -0.131788
     16          1           0       -2.508788    2.239919   -0.021527
     17          1           0        1.511932   -2.481622    0.033544
     18          1           0       -1.296375   -1.934668    1.023714
 ---------------------------------------------------------------------

 SCF Done:  E(RHF) =  -760.986355245     A.U. after    2 cycles

 The electronic state is 1-A.
 Alpha  occ. eigenvalues --  -84.29010 -20.54065 -11.34885 -11.28873 -11.27586
 Alpha  occ. eigenvalues --  -11.27489 -11.26828 -11.26699 -11.26532 -11.26277
 Alpha  occ. eigenvalues --  -11.25943  -6.76230  -4.29260  -4.28922  -4.28078
 Alpha  occ. eigenvalues --   -1.47133  -1.18856  -1.11277  -1.05072  -1.02699
 Alpha  occ. eigenvalues --   -0.94720  -0.87552  -0.84087  -0.83859  -0.73160
 Alpha  occ. eigenvalues --   -0.71067  -0.70161  -0.65598  -0.64036  -0.62960
 Alpha  occ. eigenvalues --   -0.59930  -0.58883  -0.57525  -0.54626  -0.53788
 Alpha  occ. eigenvalues --   -0.52805  -0.49430  -0.43770  -0.41152  -0.38411
 Alpha  occ. eigenvalues --   -0.34339  -0.32105
 Alpha virt. eigenvalues --    0.02648   0.02968   0.03357   0.03616   0.04831
 Alpha virt. eigenvalues --    0.05467   0.06490   0.07548   0.07870   0.08242
 Alpha virt. eigenvalues --    0.09166   0.09527   0.10756   0.11311   0.11708

 Mulliken charges:
               1
     1  C    0.111467
     2  C   -0.125753
     3  C   -0.086618
     4  C    0.281859
     5  C    0.794499
     6  C    0.354992
     7  P    0.605214
     8  C    0.184039
     9  H   -0.230442
    10  H   -0.227430
    11  H   -0.304967
    12  O   -1.352043
    13  C    0.228135
    14  C    0.127289
    15  H   -0.309588
    16  H   -0.279427
    17  H   -0.259796
    18  H    0.488571
 Sum of Mulliken charges =   0.00000

 Dipole moment (field-independent basis, Debye):
    X=              4.6685    Y=              1.0406    Z=              0.0089  Tot=              4.7831

 Test job not archived.
 1\1\GINC-SE159\SP\RHF\Aug-CC-pVDZ\C9H7O1P1\OHZDE\08-Apr-2025\0\\#t hf
 aug-cc-pvdz iop(5/13=1,5/36=2,99/5=2) pseudo=read geom=check guess=(re
 ad,tcheck) scf=(maxcycle=1)\\title\\0,1\C,0,1.634096,-1.403164,0.03793
 1\C,0,2.913516,-0.861189,0.110907\C,0,3.086633,0.522696,0.082947\C,0,1
 .976803,1.350235,-0.003272\C,0,0.674547,0.821648,-0.053308\C,0,0.50522
 8,-0.581379,-0.030988\P,0,-1.146638,-1.346265,-0.253414\C,0,-2.308812,
 0.090225,0.064294\H,0,4.08154,0.950114,0.125603\H,0,3.773857,-1.517295
 ,0.177529\H,0,2.105761,2.427361,-0.025049\O,0,-3.484917,-0.137106,0.27

 Normal termination of Gaussian 16 at Tue Apr  8 23:33:16 2025.
