 Gaussian 16, Revision C.01,

 ----------------------------------------------------------------------
 #t hf aug-cc-pvdz symm=none int=(grid=ultrafine) guess=(read,tcheck) s
 table=(opt,rrhf)
 ----------------------------------------------------------------------
 -----
 title
 -----
 Symbolic Z-matrix:
 Charge =  0 Multiplicity = 1

 SCF Done:  E(RHF) =  -507.339924611     A.U. after   11 cycles
 Normal termination of Gaussian 16 at Tue Apr  8 22:57:52 2025.
 Gaussian 16:  ES64L-G16RevC.01  3-Jul-2019

 ----------------------------------------------------------------------
 #t hf aug-cc-pvdz iop(5/13=1,5/36=2,99/5=2) pseudo=read geom=check gue
 ss=(read,tcheck) scf=(maxcycle=1)
 ----------------------------------------------------------------------
 -----
 title
 -----
 Structure from the checkpoint file:  "BDE49_expt_1929_mol1.chk"
 Charge =  0 Multiplicity = 1

                         Standard orientation:
 ---------------------------------------------------------------------
 Center     Atomic      Atomic             Coordinates (Angstroms)
 Number     Number       Type             X           Y           Z
 ---------------------------------------------------------------------
      1         14           0        0.000009   -0.000004    0.025020
      2          9           0       -0.000022   -0.000035    1.654099
      3          6           0       -0.987588   -1.487201   -0.524975
      4          1           0       -0.542852   -2.415894   -0.156061
      5          1           0       -1.026882   -1.546555   -1.617487
      6          1           0       -2.016135   -1.437441   -0.156225
      7          6           0       -0.794187    1.598879   -0.524933
      8          1           0       -1.820718    1.678155   -0.155721
      9          1           0       -0.826283    1.662494   -1.617442
     10          1           0       -0.236679    2.464760   -0.156429
     11          6           0        1.781789   -0.111645   -0.524848
     12          1           0        2.252886   -1.027405   -0.156316
     13          1           0        2.363707    0.737710   -0.155607
     14          1           0        1.852944   -0.115663   -1.617349
 ---------------------------------------------------------------------

 SCF Done:  E(RHF) =  -507.602093929     A.U. after    2 cycles

 The electronic state is 1-A.
 Alpha  occ. eigenvalues --  -69.55460 -26.42554 -11.21596 -11.21591 -11.21591
 Alpha  occ. eigenvalues --   -6.22088  -3.97517  -3.97290  -3.97290  -1.53472
 Alpha  occ. eigenvalues --   -0.98327  -0.93776  -0.93776  -0.71297  -0.62128
 Alpha  occ. eigenvalues --   -0.62128  -0.59991  -0.57137  -0.57137  -0.55303
 Alpha  occ. eigenvalues --   -0.54919  -0.54919  -0.54470  -0.44686  -0.44686
 Alpha virt. eigenvalues --    0.03164   0.04204   0.04204   0.04613   0.06744
 Alpha virt. eigenvalues --    0.06744   0.07270   0.07271   0.07879   0.09153
 Alpha virt. eigenvalues --    0.11030   0.11031   0.12955   0.14498   0.16417

 Mulliken charges:
               1
     1  Si   3.095277
     2  F   -1.033177
     3  C   -0.621705
     4  H   -0.047436
     5  H    0.029212
     6  H   -0.047435
     7  C   -0.621718
     8  H   -0.047440
     9  H    0.029237
    10  H   -0.047455
    11  C   -0.621711
    12  H   -0.047409
    13  H   -0.047399
    14  H    0.029157
 Sum of Mulliken charges =  -0.00000

 Dipole moment (field-independent basis, Debye):
    X=              0.0001    Y=              0.0000    Z=             -1.9306  Tot=              1.9306

 Test job not archived.
 1\1\GINC-SE453\SP\RHF\Aug-CC-pVDZ\C3H9F1Si1\OHZDE\08-Apr-2025\0\\#t hf
  aug-cc-pvdz iop(5/13=1,5/36=2,99/5=2) pseudo=read geom=check guess=(r
 ead,tcheck) scf=(maxcycle=1)\\title\\0,1\Si,0,0.000009,-0.000004,0.025
 02\F,0,-0.000022,-0.000035,1.654099\C,0,-0.98386,-1.48967,-0.524975\H,
 0,-0.5368,-2.417246,-0.156061\H,0,-1.023005,-1.549122,-1.617487\H,0,-2
 .012529,-1.442486,-0.156225\C,0,-0.798189,1.596885,-0.524933\H,0,-1.82
 4915,1.67359,-0.155721\H,0,-0.830444,1.660419,-1.617442\H,0,-0.242851,
 2.464159,-0.156429\C,0,1.782063,-0.107182,-0.524848\H,0,2.255452,-1.02

 Normal termination of Gaussian 16 at Tue Apr  8 22:57:56 2025.
