 Gaussian 16, Revision C.01,

 ----------------------------------------------------------------------
 #t hf aug-cc-pvdz symm=none int=(grid=ultrafine) guess=(read,tcheck) s
 table=opt
 ----------------------------------------------------------------------
 -----
 title
 -----
 Symbolic Z-matrix:
 Charge =  0 Multiplicity = 2

 SCF Done:  E(UHF) =  -139.721752858     A.U. after   15 cycles
 Normal termination of Gaussian 16 at Wed Apr  9 00:34:57 2025.
 Gaussian 16:  ES64L-G16RevC.01  3-Jul-2019

 ----------------------------------------------------------------------
 #t hf aug-cc-pvdz iop(5/13=1,5/36=2,99/5=2) pseudo=read geom=check gue
 ss=(read,tcheck) scf=(maxcycle=1)
 ----------------------------------------------------------------------
 -----
 title
 -----
 Structure from the checkpoint file:  "BDE49_nonexpt_45_mol2.chk"
 Charge =  0 Multiplicity = 2

                         Standard orientation:
 ---------------------------------------------------------------------
 Center     Atomic      Atomic             Coordinates (Angstroms)
 Number     Number       Type             X           Y           Z
 ---------------------------------------------------------------------
      1          5           0       -1.401575    0.108253   -0.000001
      2          8           0       -0.226450   -0.494710   -0.000002
      3          6           0        1.047730    0.183429    0.000002
      4          1           0        1.596937   -0.125870   -0.889811
      5          1           0        1.596937   -0.125881    0.889812
      6          1           0        0.910661    1.267534    0.000009
      7          1           0       -1.571442    1.300057    0.000004
 ---------------------------------------------------------------------

 SCF Done:  E(UHF) =  -139.862019761     A.U. after    2 cycles

 The electronic state is 2-A.
 Alpha  occ. eigenvalues --  -20.56898 -11.30724  -7.63670  -1.48113  -0.96786
 Alpha  occ. eigenvalues --   -0.74093  -0.65487  -0.64679  -0.59499  -0.51496
 Alpha  occ. eigenvalues --   -0.48839  -0.32859
 Alpha virt. eigenvalues --    0.03450   0.04082   0.04915   0.05579   0.07056
 Alpha virt. eigenvalues --    0.07452   0.08787   0.11606   0.13263   0.13980
 Alpha virt. eigenvalues --    0.15768   0.16305   0.17266   0.22932   0.24082

  Beta  occ. eigenvalues --  -20.56932 -11.30533  -7.61762  -1.47960  -0.95997
  Beta  occ. eigenvalues --   -0.72690  -0.64847  -0.64209  -0.56851  -0.49734
  Beta  occ. eigenvalues --   -0.49175
  Beta virt. eigenvalues --    0.03418   0.04290   0.04458   0.05285   0.07288
  Beta virt. eigenvalues --    0.07532   0.08717   0.09668   0.13714   0.14166
  Beta virt. eigenvalues --    0.14393   0.16029   0.18116   0.19563   0.23065

 Mulliken charges and spin densities:
               1          2
     1  B    0.059041   1.027882
     2  O   -0.845078  -0.143895
     3  C    0.443802   0.055416
     4  H    0.094222  -0.002029
     5  H    0.094223  -0.002029
     6  H    0.075491  -0.004551
     7  H    0.078299   0.069205
 Sum of Mulliken charges =  -0.00000   1.00000

 Dipole moment (field-independent basis, Debye):
    X=              2.0618    Y=              1.1664    Z=              0.0000  Tot=              2.3689
                          Isotropic Fermi Contact Couplings
        Atom                 a.u.       MegaHertz       Gauss      10(-4) cm-1
     1  B(11)              0.33011     473.49243     168.95387     157.94007
     2  O(17)              0.09682     -58.69091     -20.94238     -19.57718
     3  C(13)              0.04485      50.41934      17.99087      16.81808
     4  H(1)              -0.00100      -4.48029      -1.59868      -1.49446
     5  H(1)              -0.00100      -4.48028      -1.59867      -1.49446
     6  H(1)              -0.00101      -4.52596      -1.61497      -1.50970
     7  H(1)               0.02659     118.85367      42.40994      39.64532
 --------------------------------------------------------

 Normal termination of Gaussian 16 at Wed Apr  9 00:34:59 2025.
