 Gaussian 16, Revision C.01,

 ----------------------------------------------------------------------
 #t hf aug-cc-pvdz symm=none int=(grid=ultrafine) guess=(read,tcheck) s
 table=(opt,rrhf)
 ----------------------------------------------------------------------
 -----
 title
 -----
 Symbolic Z-matrix:
 Charge =  0 Multiplicity = 1

 SCF Done:  E(RHF) =  -1161.81987895     A.U. after   16 cycles
 Normal termination of Gaussian 16 at Wed Apr  9 00:50:06 2025.
 Gaussian 16:  ES64L-G16RevC.01  3-Jul-2019

 ----------------------------------------------------------------------
 #t hf aug-cc-pvdz iop(5/13=1,5/36=2,99/5=2) pseudo=read geom=check gue
 ss=(read,tcheck) scf=(maxcycle=1)
 ----------------------------------------------------------------------
 -----
 title
 -----
 Structure from the checkpoint file:  "BDE49_nonexpt_884_mol1.chk"
 Charge =  0 Multiplicity = 1

                         Standard orientation:
 ---------------------------------------------------------------------
 Center     Atomic      Atomic             Coordinates (Angstroms)
 Number     Number       Type             X           Y           Z
 ---------------------------------------------------------------------
      1          8           0       -0.853979    0.571381   -0.000027
      2          6           0        0.140551   -0.374962   -0.000004
      3          6           0       -0.449180   -1.623425    0.000005
      4          6           0       -1.849088   -1.435711   -0.000013
      5          6           0       -2.050385   -0.077837   -0.000034
      6          5           0        1.610371    0.092889    0.000007
      7         16           0        2.895572   -1.193326    0.000024
      8         16           0        2.071569    1.843635   -0.000010
      9          6           0       -3.262390    0.737622   -0.000062
     10          8           0       -4.379331    0.270545    0.000067
     11          1           0       -3.076935    1.830590    0.000054
     12          1           0        0.077290   -2.565322    0.000022
     13          1           0       -2.627054   -2.181928   -0.000013
     14          1           0        0.822115    2.340761   -0.000025
     15          1           0        3.967900   -0.383025    0.000027
 ---------------------------------------------------------------------

 SCF Done:  E(RHF) =  -1162.29821846     A.U. after    2 cycles

 The electronic state is 1-A.
 Alpha  occ. eigenvalues --  -93.96639 -93.96594 -20.64252 -20.56256 -11.36484
 Alpha  occ. eigenvalues --  -11.32635 -11.31204 -11.27657 -11.27600  -8.24958
 Alpha  occ. eigenvalues --   -8.24892  -7.67151  -6.22787  -6.22732  -6.22642
 Alpha  occ. eigenvalues --   -6.22597  -6.22477  -6.22435  -1.57504  -1.48962
 Alpha  occ. eigenvalues --   -1.12791  -1.08094  -1.04583  -1.01357  -0.91312
 Alpha  occ. eigenvalues --   -0.84327  -0.80378  -0.75988  -0.70707  -0.66986
 Alpha  occ. eigenvalues --   -0.65621  -0.63237  -0.61583  -0.60839  -0.58000
 Alpha  occ. eigenvalues --   -0.56507  -0.54970  -0.49154  -0.47386  -0.45875
 Alpha  occ. eigenvalues --   -0.44626  -0.42832  -0.38691  -0.35054
 Alpha virt. eigenvalues --    0.02221   0.03260   0.03478   0.04031   0.04625
 Alpha virt. eigenvalues --    0.05412   0.06039   0.06602   0.08314   0.08668
 Alpha virt. eigenvalues --    0.09226   0.09748   0.10805   0.11863   0.11964

 Mulliken charges:
               1
     1  O   -1.696207
     2  C    0.727681
     3  C    0.353194
     4  C   -0.071554
     5  C    1.169994
     6  B    0.941757
     7  S   -0.675539
     8  S   -0.738430
     9  C    1.054034
    10  O   -1.254016
    11  H    0.038837
    12  H   -0.235813
    13  H   -0.175409
    14  H    0.330472
    15  H    0.231000
 Sum of Mulliken charges =  -0.00000

 Dipole moment (field-independent basis, Debye):
    X=              1.7008    Y=             -0.0167    Z=             -0.0001  Tot=              1.7008

 Test job not archived.
 1\1\GINC-SE363\SP\RHF\Aug-CC-pVDZ\C5H5B1O2S2\OHZDE\09-Apr-2025\0\\#t h
 f aug-cc-pvdz iop(5/13=1,5/36=2,99/5=2) pseudo=read geom=check guess=(
 read,tcheck) scf=(maxcycle=1)\\title\\0,1\O,0,-0.853979,0.571381,-0.00
 0027\C,0,0.140551,-0.374962,-0.000004\C,0,-0.44918,-1.623425,0.000005\
 C,0,-1.849088,-1.435711,-0.000013\C,0,-2.050385,-0.077837,-0.000034\B,
 0,1.610371,0.092889,0.000007\S,0,2.895572,-1.193326,0.000024\S,0,2.071
 569,1.843635,-0.00001\C,0,-3.26239,0.737622,-0.000062\O,0,-4.379331,0.
 270545,0.000067\H,0,-3.076935,1.83059,0.000054\H,0,0.07729,-2.565322,0

 Normal termination of Gaussian 16 at Wed Apr  9 00:50:14 2025.
