 Gaussian 16, Revision C.01,

 ----------------------------------------------------------------------
 #t hf aug-cc-pvdz symm=none int=(grid=ultrafine) guess=(read,tcheck) s
 table=(opt,rrhf)
 ----------------------------------------------------------------------
 -----
 title
 -----
 Symbolic Z-matrix:
 Charge =  0 Multiplicity = 1

 SCF Done:  E(RHF) =  -875.908908935     A.U. after   12 cycles
 Normal termination of Gaussian 16 at Tue Apr  8 23:27:01 2025.
 Gaussian 16:  ES64L-G16RevC.01  3-Jul-2019

 ----------------------------------------------------------------------
 #t hf aug-cc-pvdz iop(5/13=1,5/36=2,99/5=2) pseudo=read geom=check gue
 ss=(read,tcheck) scf=(maxcycle=1)
 ----------------------------------------------------------------------
 -----
 title
 -----
 Structure from the checkpoint file:  "BDE49_nonexpt_1300_mol1.chk"
 Charge =  0 Multiplicity = 1

                         Standard orientation:
 ---------------------------------------------------------------------
 Center     Atomic      Atomic             Coordinates (Angstroms)
 Number     Number       Type             X           Y           Z
 ---------------------------------------------------------------------
      1          6           0        0.228634    0.810872    0.000000
      2         15           0       -0.841480   -0.763886   -0.000000
      3          9           0       -0.073666    1.542825    1.091159
      4          9           0        1.544706    0.572196    0.000000
      5          9           0       -0.073666    1.542825   -1.091159
      6          9           0       -0.073666   -1.462642   -1.222881
      7          9           0       -0.073666   -1.462642    1.222881
 ---------------------------------------------------------------------

 SCF Done:  E(RHF) =  -876.433810609     A.U. after    2 cycles

 The electronic state is 1-A'.
 Alpha  occ. eigenvalues --  -84.46027 -26.53022 -26.53019 -26.52813 -26.51787
 Alpha  occ. eigenvalues --  -26.51785 -11.53666  -6.91634  -4.44356  -4.43688
 Alpha  occ. eigenvalues --   -4.42862  -1.73618  -1.65675  -1.63642  -1.63604
 Alpha  occ. eigenvalues --   -1.61354  -1.00816  -0.91056  -0.83026  -0.82975
 Alpha  occ. eigenvalues --   -0.81399  -0.74576  -0.73139  -0.70683  -0.70553
 Alpha  occ. eigenvalues --   -0.69966  -0.68507  -0.65942  -0.65812  -0.65134
 Alpha  occ. eigenvalues --   -0.64148  -0.57256  -0.42696
 Alpha virt. eigenvalues --    0.05745   0.06366   0.07389   0.08226   0.11417
 Alpha virt. eigenvalues --    0.11502   0.11720   0.15271   0.15571   0.20571
 Alpha virt. eigenvalues --    0.20734   0.22172   0.25827   0.26641   0.27853

 Mulliken charges:
               1
     1  C    1.485326
     2  P    2.027631
     3  F   -0.677711
     4  F   -0.719997
     5  F   -0.677711
     6  F   -0.718769
     7  F   -0.718769
 Sum of Mulliken charges =  -0.00000

 Dipole moment (field-independent basis, Debye):
    X=             -1.5162    Y=             -0.4619    Z=              0.0000  Tot=              1.5850

 Test job not archived.
 1\1\GINC-SE247\SP\RHF\Aug-CC-pVDZ\C1F5P1\OHZDE\08-Apr-2025\0\\#t hf au
 g-cc-pvdz iop(5/13=1,5/36=2,99/5=2) pseudo=read geom=check guess=(read
 ,tcheck) scf=(maxcycle=1)\\title\\0,1\C,0,0.228634,0.810872,0.\P,0,-0.
 84148,-0.763886,0.\F,0,-0.073666,1.542825,1.091159\F,0,1.544706,0.5721
 96,0.\F,0,-0.073666,1.542825,-1.091159\F,0,-0.073666,-1.462642,-1.2228
 81\F,0,-0.073666,-1.462642,1.222881\\Version=ES64L-G16RevC.01\State=1-
 A'\HF=-876.4338106\RMSD=8.275e-03\Dipole=-0.5965288,-0.1817091,0.\Quad
 rupole=0.8658687,-0.336284,-0.5295848,0.8399473,0.,0.\PG=CS [SG(C1F1P1

 Normal termination of Gaussian 16 at Tue Apr  8 23:27:04 2025.
