 Gaussian 16, Revision C.01,

 ----------------------------------------------------------------------
 #t hf aug-cc-pvdz symm=none int=(grid=ultrafine) guess=(read,tcheck) s
 table=(opt,rrhf)
 ----------------------------------------------------------------------
 -----
 title
 -----
 Symbolic Z-matrix:
 Charge =  0 Multiplicity = 1

 SCF Done:  E(RHF) =  -962.594663172     A.U. after   16 cycles
 Normal termination of Gaussian 16 at Tue Apr  8 23:32:26 2025.
 Gaussian 16:  ES64L-G16RevC.01  3-Jul-2019

 ----------------------------------------------------------------------
 #t hf aug-cc-pvdz iop(5/13=1,5/36=2,99/5=2) pseudo=read geom=check gue
 ss=(read,tcheck) scf=(maxcycle=1)
 ----------------------------------------------------------------------
 -----
 title
 -----
 Structure from the checkpoint file:  "BDE49_nonexpt_1369_mol1.chk"
 Charge =  0 Multiplicity = 1

                         Standard orientation:
 ---------------------------------------------------------------------
 Center     Atomic      Atomic             Coordinates (Angstroms)
 Number     Number       Type             X           Y           Z
 ---------------------------------------------------------------------
      1          6           0       -0.692621    0.110574    0.336074
      2          6           0        0.803818    0.028401    0.162173
      3          6           0        1.631973   -0.137964    1.276687
      4          1           0        1.196972   -0.158924    2.269989
      5          6           0        3.007628   -0.265828    1.117256
      6          1           0        3.640866   -0.388269    1.988395
      7          6           0        3.571140   -0.227287   -0.157681
      8          1           0        4.643847   -0.322814   -0.280283
      9          6           0        2.753080   -0.058422   -1.271373
     10          1           0        3.186365   -0.020504   -2.264134
     11          6           0        1.374140    0.066355   -1.116224
     12          1           0        0.742496    0.217999   -1.983406
     13          7           0       -1.210278    1.276704   -0.413367
     14         15           0       -1.438667   -1.454191   -0.409762
     15          9           0       -0.835906    2.391756    0.365081
     16          9           0       -2.607558    1.240098   -0.207114
     17          9           0       -2.824889   -1.574148    0.441894
     18          1           0       -0.649942   -2.266645    0.444811
     19          1           0       -0.988418    0.200761    1.384404
 ---------------------------------------------------------------------

 SCF Done:  E(RHF) =  -963.234387276     A.U. after    2 cycles

 The electronic state is 1-A.
 Alpha  occ. eigenvalues --  -84.36316 -26.50432 -26.50282 -26.46753 -15.72174
 Alpha  occ. eigenvalues --  -11.31903 -11.28014 -11.26746 -11.26612 -11.26453
 Alpha  occ. eigenvalues --  -11.26381 -11.26333  -6.82571  -4.35484  -4.34757
 Alpha  occ. eigenvalues --   -4.34083  -1.66299  -1.57952  -1.57549  -1.20751
 Alpha  occ. eigenvalues --   -1.16285  -1.05407  -1.04035  -0.96200  -0.86787
 Alpha  occ. eigenvalues --   -0.86012  -0.83599  -0.76939  -0.76836  -0.75134
 Alpha  occ. eigenvalues --   -0.71434  -0.68224  -0.67080  -0.66444  -0.65241
 Alpha  occ. eigenvalues --   -0.64560  -0.63230  -0.62867  -0.61934  -0.60757
 Alpha  occ. eigenvalues --   -0.60000  -0.54111  -0.53133  -0.52857  -0.51221
 Alpha  occ. eigenvalues --   -0.49975  -0.39421  -0.36772  -0.35348
 Alpha virt. eigenvalues --    0.02772   0.03228   0.03926   0.04873   0.05376
 Alpha virt. eigenvalues --    0.06263   0.07390   0.07681   0.08082   0.08764
 Alpha virt. eigenvalues --    0.09324   0.10091   0.11134   0.12680   0.12949

 Mulliken charges:
               1
     1  C   -1.301006
     2  C    2.037184
     3  C    0.048545
     4  H   -0.296437
     5  C    0.276746
     6  H   -0.230735
     7  C    0.077967
     8  H   -0.210908
     9  C    0.214088
    10  H   -0.231413
    11  C   -0.487177
    12  H   -0.302638
    13  N    1.479596
    14  P    1.029950
    15  F   -0.670344
    16  F   -0.677648
    17  F   -0.854478
    18  H    0.171834
    19  H   -0.073125
 Sum of Mulliken charges =  -0.00000

 Dipole moment (field-independent basis, Debye):
    X=              3.4435    Y=             -1.8527    Z=              0.6510  Tot=              3.9641

 Test job not archived.
 1\1\GINC-SE099\SP\RHF\Aug-CC-pVDZ\C7H7F3N1P1\OHZDE\08-Apr-2025\0\\#t h
 f aug-cc-pvdz iop(5/13=1,5/36=2,99/5=2) pseudo=read geom=check guess=(
 read,tcheck) scf=(maxcycle=1)\\title\\0,1\C,0,-0.692621,0.110574,0.336
 074\C,0,0.803818,0.028401,0.162173\C,0,1.631973,-0.137964,1.276687\H,0
 ,1.196972,-0.158924,2.269989\C,0,3.007628,-0.265828,1.117256\H,0,3.640
 866,-0.388269,1.988395\C,0,3.57114,-0.227287,-0.157681\H,0,4.643847,-0
 .322814,-0.280283\C,0,2.75308,-0.058422,-1.271373\H,0,3.186365,-0.0205
 04,-2.264134\C,0,1.37414,0.066355,-1.116224\H,0,0.742496,0.217999,-1.9

 Normal termination of Gaussian 16 at Tue Apr  8 23:32:40 2025.
