 Gaussian 16, Revision C.01,

 ----------------------------------------------------------------------
 #t hf aug-cc-pvdz symm=none int=(grid=ultrafine) guess=(read,tcheck) s
 table=(opt,rrhf)
 ----------------------------------------------------------------------
 -----
 title
 -----
 Symbolic Z-matrix:
 Charge =  0 Multiplicity = 1

 SCF Done:  E(RHF) =  -1165.03418002     A.U. after   17 cycles
 Normal termination of Gaussian 16 at Wed Apr  9 00:52:06 2025.
 Gaussian 16:  ES64L-G16RevC.01  3-Jul-2019

 ----------------------------------------------------------------------
 #t hf aug-cc-pvdz iop(5/13=1,5/36=2,99/5=2) pseudo=read geom=check gue
 ss=(read,tcheck) scf=(maxcycle=1)
 ----------------------------------------------------------------------
 -----
 title
 -----
 Structure from the checkpoint file:  "BDE49_nonexpt_917_mol1.chk"
 Charge =  0 Multiplicity = 1

                         Standard orientation:
 ---------------------------------------------------------------------
 Center     Atomic      Atomic             Coordinates (Angstroms)
 Number     Number       Type             X           Y           Z
 ---------------------------------------------------------------------
      1          5           0        1.393549   -0.015202   -0.000249
      2         16           0        2.716705   -1.288047    0.000073
      3         16           0        1.797048    1.762951    0.000050
      4          6           0       -0.079749   -0.534489   -0.000129
      5          6           0       -1.215293    0.316324   -0.000045
      6          1           0       -1.579012    3.563563   -0.000037
      7          1           0       -2.662925    2.468734   -0.894965
      8          1           0       -2.662788    2.468744    0.895067
      9          8           0       -0.964990    1.650617   -0.000073
     10          6           0       -2.041840    2.578522    0.000004
     11          6           0       -2.513589   -0.203997    0.000055
     12          1           0       -3.370391    0.455332    0.000115
     13          6           0       -2.710244   -1.581071    0.000080
     14          1           0       -3.721654   -1.972435    0.000159
     15          6           0       -1.621673   -2.447482    0.000006
     16          1           0       -1.770864   -3.520429    0.000025
     17          6           0       -0.337431   -1.918564   -0.000095
     18          1           0        0.499289   -2.607819   -0.000152
     19          1           0        3.137046    1.634780    0.000131
     20          1           0        3.782344   -0.473327    0.000266
 ---------------------------------------------------------------------

 SCF Done:  E(RHF) =  -1165.52888816     A.U. after    2 cycles

 The electronic state is 1-A.
 Alpha  occ. eigenvalues --  -93.94676 -93.94478 -20.58027 -11.32381 -11.30255
 Alpha  occ. eigenvalues --  -11.26219 -11.25807 -11.24390 -11.23833 -11.23039
 Alpha  occ. eigenvalues --   -8.22981  -8.22702  -7.65151  -6.20829  -6.20665
 Alpha  occ. eigenvalues --   -6.20527  -6.20510  -6.20367  -6.20214  -1.50888
 Alpha  occ. eigenvalues --   -1.15803  -1.05530  -1.02778  -1.01958  -0.98847
 Alpha  occ. eigenvalues --   -0.95352  -0.85423  -0.82423  -0.74570  -0.69506
 Alpha  occ. eigenvalues --   -0.68784  -0.66488  -0.65032  -0.63422  -0.59768
 Alpha  occ. eigenvalues --   -0.57244  -0.56112  -0.54324  -0.54264  -0.52502
 Alpha  occ. eigenvalues --   -0.51100  -0.47942  -0.47864  -0.43434  -0.42397
 Alpha  occ. eigenvalues --   -0.36764  -0.35295  -0.32591
 Alpha virt. eigenvalues --    0.02985   0.03507   0.04003   0.04479   0.04653
 Alpha virt. eigenvalues --    0.05295   0.05723   0.06639   0.06797   0.07187
 Alpha virt. eigenvalues --    0.07610   0.09556   0.09840   0.10107   0.11619

 Mulliken charges:
               1
     1  B    0.753167
     2  S   -0.678520
     3  S   -0.647548
     4  C   -0.419262
     5  C    2.296308
     6  H   -0.046527
     7  H    0.214900
     8  H    0.214886
     9  O   -2.066831
    10  C    0.131553
    11  C    0.141285
    12  H   -0.429826
    13  C    0.538422
    14  H   -0.231301
    15  C    0.072242
    16  H   -0.250603
    17  C    0.337337
    18  H   -0.360112
    19  H    0.240739
    20  H    0.189691
 Sum of Mulliken charges =  -0.00000

 Dipole moment (field-independent basis, Debye):
    X=             -2.0084    Y=              0.8585    Z=              0.0001  Tot=              2.1842

 Test job not archived.
 1\1\GINC-SE332\SP\RHF\Aug-CC-pVDZ\C7H9B1O1S2\OHZDE\09-Apr-2025\0\\#t h
 f aug-cc-pvdz iop(5/13=1,5/36=2,99/5=2) pseudo=read geom=check guess=(
 read,tcheck) scf=(maxcycle=1)\\title\\0,1\B,0,1.393549,-0.015202,-0.00
 0249\S,0,2.716705,-1.288047,0.000073\S,0,1.797048,1.762951,0.00005\C,0
 ,-0.079749,-0.534489,-0.000129\C,0,-1.215293,0.316324,-0.000045\H,0,-1
 .579011,3.563563,-0.000037\H,0,-2.662924,2.468735,-0.894965\H,0,-2.662
 787,2.468745,0.895067\O,0,-0.96499,1.650617,-0.000073\C,0,-2.041839,2.
 578522,0.000004\C,0,-2.513589,-0.203996,0.000055\H,0,-3.370391,0.45533

 Normal termination of Gaussian 16 at Wed Apr  9 00:52:18 2025.
