 Gaussian 16, Revision C.01,

 ----------------------------------------------------------------------
 #t hf aug-cc-pvdz symm=none int=(grid=ultrafine) guess=(read,tcheck) s
 table=(opt,rrhf)
 ----------------------------------------------------------------------
 -----
 title
 -----
 Symbolic Z-matrix:
 Charge =  0 Multiplicity = 1

 SCF Done:  E(RHF) =  -366.185486702     A.U. after   14 cycles
 Normal termination of Gaussian 16 at Wed Apr  9 00:39:25 2025.
 Gaussian 16:  ES64L-G16RevC.01  3-Jul-2019

 ----------------------------------------------------------------------
 #t hf aug-cc-pvdz iop(5/13=1,5/36=2,99/5=2) pseudo=read geom=check gue
 ss=(read,tcheck) scf=(maxcycle=1)
 ----------------------------------------------------------------------
 -----
 title
 -----
 Structure from the checkpoint file:  "BDE49_nonexpt_594_mol1.chk"
 Charge =  0 Multiplicity = 1

                         Standard orientation:
 ---------------------------------------------------------------------
 Center     Atomic      Atomic             Coordinates (Angstroms)
 Number     Number       Type             X           Y           Z
 ---------------------------------------------------------------------
      1          5           0        0.000000    0.000000   -1.751026
      2          6           0        0.000000    0.000000   -0.170872
      3          6           0        0.003388    1.198957    0.560670
      4          6           0       -0.003388   -1.198957    0.560670
      5          6           0        0.000000   -1.204246    1.953825
      6          6           0       -0.000000   -0.000000    2.655122
      7          6           0       -0.000000    1.204246    1.953825
      8          1           0       -0.000000   -0.000000    3.739767
      9          1           0       -0.005368    2.145819    2.492801
     10          1           0       -0.009193    2.145357    0.028357
     11          1           0        0.009193   -2.145357    0.028357
     12          1           0        0.005368   -2.145819    2.492801
     13          7           0       -0.730290   -0.998683   -2.446676
     14          7           0        0.730290    0.998683   -2.446676
     15          1           0        1.383716    1.601003   -1.975598
     16          1           0        0.777420    1.060904   -3.450863
     17          1           0       -1.383716   -1.601003   -1.975598
     18          1           0       -0.777420   -1.060904   -3.450863
 ---------------------------------------------------------------------

 SCF Done:  E(RHF) =  -366.565823009     A.U. after    2 cycles

 The electronic state is 1-A.
 Alpha  occ. eigenvalues --  -15.47340 -15.47321 -11.23785 -11.23565 -11.23546
 Alpha  occ. eigenvalues --  -11.23482 -11.23453 -11.21287  -7.58528  -1.16993
 Alpha  occ. eigenvalues --   -1.13988  -1.12611  -1.00666  -1.00571  -0.82771
 Alpha  occ. eigenvalues --   -0.82373  -0.74966  -0.72642  -0.69476  -0.68708
 Alpha  occ. eigenvalues --   -0.63631  -0.62971  -0.61966  -0.58928  -0.56338
 Alpha  occ. eigenvalues --   -0.51072  -0.49236  -0.48834  -0.47263  -0.42559
 Alpha  occ. eigenvalues --   -0.33789  -0.33602
 Alpha virt. eigenvalues --    0.02973   0.03838   0.03950   0.05049   0.05217
 Alpha virt. eigenvalues --    0.05749   0.06485   0.07356   0.07567   0.08263
 Alpha virt. eigenvalues --    0.08369   0.09809   0.10235   0.10805   0.11127

 Mulliken charges:
               1
     1  B    0.039806
     2  C   -0.362020
     3  C    0.328984
     4  C    0.328984
     5  C    0.110294
     6  C    0.295838
     7  C    0.110294
     8  H   -0.209696
     9  H   -0.226412
    10  H   -0.372112
    11  H   -0.372112
    12  H   -0.226412
    13  N    0.292803
    14  N    0.292803
    15  H   -0.037951
    16  H    0.022430
    17  H   -0.037951
    18  H    0.022430
 Sum of Mulliken charges =  -0.00000

 Dipole moment (field-independent basis, Debye):
    X=              0.0000    Y=             -0.0000    Z=             -1.0078  Tot=              1.0078

 Test job not archived.
 1\1\GINC-SE126\SP\RHF\Aug-CC-pVDZ\C6H9B1N2\OHZDE\09-Apr-2025\0\\#t hf
 aug-cc-pvdz iop(5/13=1,5/36=2,99/5=2) pseudo=read geom=check guess=(re
 ad,tcheck) scf=(maxcycle=1)\\title\\0,1\B,0,0.,0.,-1.751026\C,0,0.,0.,
 -0.170872\C,0,-0.003388,-1.198957,0.56067\C,0,0.003388,1.198957,0.5606
 7\C,0,0.,1.204246,1.953825\C,0,0.,0.,2.655122\C,0,0.,-1.204246,1.95382
 5\H,0,0.,0.,3.739767\H,0,0.005368,-2.145819,2.492801\H,0,0.009193,-2.1
 45357,0.028357\H,0,-0.009193,2.145357,0.028357\H,0,-0.005368,2.145819,
 2.492801\N,0,0.73029,0.998683,-2.446676\N,0,-0.73029,-0.998683,-2.4466

 Normal termination of Gaussian 16 at Wed Apr  9 00:39:31 2025.
