 Gaussian 16, Revision C.01,

 ----------------------------------------------------------------------
 #t hf aug-cc-pvdz symm=none int=(grid=ultrafine) guess=(read,tcheck) s
 table=(opt,rrhf)
 ----------------------------------------------------------------------
 -----
 title
 -----
 Symbolic Z-matrix:
 Charge =  0 Multiplicity = 1

 SCF Done:  E(RHF) =  -436.545632623     A.U. after   12 cycles
 Normal termination of Gaussian 16 at Tue Apr  8 23:37:06 2025.
 Gaussian 16:  ES64L-G16RevC.01  3-Jul-2019

 ----------------------------------------------------------------------
 #t hf aug-cc-pvdz iop(5/13=1,5/36=2,99/5=2) pseudo=read geom=check gue
 ss=(read,tcheck) scf=(maxcycle=1)
 ----------------------------------------------------------------------
 -----
 title
 -----
 Structure from the checkpoint file:  "BDE49_nonexpt_1533_mol1.chk"
 Charge =  0 Multiplicity = 1

                         Standard orientation:
 ---------------------------------------------------------------------
 Center     Atomic      Atomic             Coordinates (Angstroms)
 Number     Number       Type             X           Y           Z
 ---------------------------------------------------------------------
      1         15           0       -1.144574   -0.015392    0.013268
      2          7           0        0.452461    0.574343   -0.099318
      3          6           0        1.624943   -0.286110    0.015736
      4          1           0        2.533590    0.297877   -0.154218
      5          1           0        1.580509   -1.063592   -0.751594
      6          1           0        1.707185   -0.783356    0.993652
      7          1           0       -1.041388   -1.034765    1.016710
      8          1           0       -1.093554   -0.966458   -1.041222
      9          1           0        0.565389    1.477431    0.338469
 ---------------------------------------------------------------------

 SCF Done:  E(RHF) =  -436.695701118     A.U. after    2 cycles

 The electronic state is 1-A.
 Alpha  occ. eigenvalues --  -84.28832 -15.49511 -11.26577  -6.75558  -4.28448
 Alpha  occ. eigenvalues --   -4.27637  -4.27278  -1.19167  -0.93566  -0.83288
 Alpha  occ. eigenvalues --   -0.67085  -0.61491  -0.60841  -0.53310  -0.50588
 Alpha  occ. eigenvalues --   -0.41109  -0.34657
 Alpha virt. eigenvalues --    0.03572   0.05036   0.05401   0.05784   0.06494
 Alpha virt. eigenvalues --    0.08439   0.09901   0.10592   0.11174   0.13136
 Alpha virt. eigenvalues --    0.15655   0.15952   0.16486   0.18631   0.20004

 Mulliken charges:
               1
     1  P   -0.310924
     2  N   -0.037005
     3  C   -0.474066
     4  H    0.053993
     5  H    0.093812
     6  H    0.150944
     7  H    0.244252
     8  H    0.227100
     9  H    0.051893
 Sum of Mulliken charges =  -0.00000

 Dipole moment (field-independent basis, Debye):
    X=              1.1326    Y=             -0.2109    Z=              0.6604  Tot=              1.3279

 Test job not archived.
 1\1\GINC-SE059\SP\RHF\Aug-CC-pVDZ\C1H6N1P1\OHZDE\08-Apr-2025\0\\#t hf
 aug-cc-pvdz iop(5/13=1,5/36=2,99/5=2) pseudo=read geom=check guess=(re
 ad,tcheck) scf=(maxcycle=1)\\title\\0,1\P,0,-1.144574,-0.015392,0.0132
 68\N,0,0.452461,0.574343,-0.099318\C,0,1.624943,-0.28611,0.015736\H,0,
 2.53359,0.297877,-0.154218\H,0,1.580509,-1.063592,-0.751594\H,0,1.7071
 85,-0.783356,0.993652\H,0,-1.041388,-1.034765,1.01671\H,0,-1.093554,-0
 .966458,-1.041222\H,0,0.565389,1.477431,0.338469\\Version=ES64L-G16Rev
 C.01\State=1-A\HF=-436.6957011\RMSD=1.983e-02\Dipole=0.4455927,-0.0829

 Normal termination of Gaussian 16 at Tue Apr  8 23:37:09 2025.
