 Gaussian 16, Revision C.01,

 ----------------------------------------------------------------------
 #t hf aug-cc-pvdz symm=none int=(grid=ultrafine) guess=(read,tcheck) s
 table=opt
 ----------------------------------------------------------------------
 -----
 title
 -----
 Symbolic Z-matrix:
 Charge =  0 Multiplicity = 2

 SCF Done:  E(UHF) =  -485.854824314     A.U. after   19 cycles
 Normal termination of Gaussian 16 at Tue Apr  8 22:43:31 2025.
 Gaussian 16:  ES64L-G16RevC.01  3-Jul-2019

 ----------------------------------------------------------------------
 #t hf aug-cc-pvdz iop(5/13=1,5/36=2,99/5=2) pseudo=read geom=check gue
 ss=(read,tcheck) scf=(maxcycle=1)
 ----------------------------------------------------------------------
 -----
 title
 -----
 Structure from the checkpoint file:  "BDE49_expt_1472_mol2.chk"
 Charge =  0 Multiplicity = 2

                         Standard orientation:
 ---------------------------------------------------------------------
 Center     Atomic      Atomic             Coordinates (Angstroms)
 Number     Number       Type             X           Y           Z
 ---------------------------------------------------------------------
      1          8           0        1.902357   -0.025412   -0.000019
      2          8           0        0.837439    0.765443   -0.000024
      3          6           0       -0.361354   -0.006008    0.000004
      4          9           0       -0.425564   -0.766275    1.081248
      5          9           0       -1.343319    0.878793   -0.000003
      6          9           0       -0.425588   -0.766317   -1.081209
 ---------------------------------------------------------------------

 SCF Done:  E(UHF) =  -486.296787970     A.U. after    2 cycles

 The electronic state is 2-A.
 Alpha  occ. eigenvalues --  -26.54867 -26.54607 -26.54603 -20.72119 -20.70643
 Alpha  occ. eigenvalues --  -11.60650  -1.79082  -1.72126  -1.66505  -1.66221
 Alpha  occ. eigenvalues --   -1.33249  -0.98204  -0.87370  -0.87099  -0.86489
 Alpha  occ. eigenvalues --   -0.78962  -0.74100  -0.71701  -0.70162  -0.68671
 Alpha  occ. eigenvalues --   -0.67617  -0.66900  -0.65911  -0.55248  -0.54786
 Alpha virt. eigenvalues --    0.08502   0.08832   0.08971   0.09367   0.14916
 Alpha virt. eigenvalues --    0.19562   0.20483   0.21674   0.22234   0.25560
 Alpha virt. eigenvalues --    0.27523   0.27657   0.28843   0.30817   0.31255

  Beta  occ. eigenvalues --  -26.54885 -26.54604 -26.54600 -20.70059 -20.67971
  Beta  occ. eigenvalues --  -11.60694  -1.78105  -1.67273  -1.66486  -1.66205
  Beta  occ. eigenvalues --   -1.23675  -0.97561  -0.86899  -0.86615  -0.85487
  Beta  occ. eigenvalues --   -0.73645  -0.73068  -0.69206  -0.68152  -0.67585
  Beta  occ. eigenvalues --   -0.66125  -0.65894  -0.60061  -0.51459
  Beta virt. eigenvalues --    0.06724   0.08523   0.08858   0.09337   0.09473
  Beta virt. eigenvalues --    0.15167   0.19655   0.21763   0.22155   0.23743
  Beta virt. eigenvalues --    0.25934   0.27702   0.29315   0.29544   0.31394

 Mulliken charges and spin densities:
               1          2
     1  O   -0.238039   0.982239
     2  O   -0.658696   0.033475
     3  C    2.823748  -0.017650
     4  F   -0.637490   0.001764
     5  F   -0.652034  -0.001591
     6  F   -0.637490   0.001764
 Sum of Mulliken charges =  -0.00000   1.00000

 Dipole moment (field-independent basis, Debye):
    X=             -0.2610    Y=             -0.1369    Z=              0.0000  Tot=              0.2947
                          Isotropic Fermi Contact Couplings
        Atom                 a.u.       MegaHertz       Gauss      10(-4) cm-1
     1  O(17)              0.26548    -160.93335     -57.42502     -53.68159
     2  O(17)              0.05898     -35.75143     -12.75700     -11.92539
     3  C(13)             -0.00866      -9.73758      -3.47461      -3.24811
     4  F(19)             -0.00180      -7.58256      -2.70565      -2.52927
     5  F(19)             -0.00307     -12.92942      -4.61354      -4.31279
     6  F(19)             -0.00180      -7.58252      -2.70563      -2.52926
 --------------------------------------------------------
       Center         ----  Spin Dipole Couplings  ----

 Normal termination of Gaussian 16 at Tue Apr  8 22:43:33 2025.
