 Gaussian 16, Revision C.01,

 ----------------------------------------------------------------------
 #t hf aug-cc-pvdz symm=none int=(grid=ultrafine) guess=(read,tcheck) s
 table=(opt,rrhf)
 ----------------------------------------------------------------------
 -----
 title
 -----
 Symbolic Z-matrix:
 Charge =  0 Multiplicity = 1

 SCF Done:  E(RHF) =  -422.835381106     A.U. after   12 cycles
 Normal termination of Gaussian 16 at Wed Apr  9 00:42:57 2025.
 Gaussian 16:  ES64L-G16RevC.01  3-Jul-2019

 ----------------------------------------------------------------------
 #t hf aug-cc-pvdz iop(5/13=1,5/36=2,99/5=2) pseudo=read geom=check gue
 ss=(read,tcheck) scf=(maxcycle=1)
 ----------------------------------------------------------------------
 -----
 title
 -----
 Structure from the checkpoint file:  "BDE49_nonexpt_732_mol1.chk"
 Charge =  0 Multiplicity = 1

                         Standard orientation:
 ---------------------------------------------------------------------
 Center     Atomic      Atomic             Coordinates (Angstroms)
 Number     Number       Type             X           Y           Z
 ---------------------------------------------------------------------
      1         15           0        1.183400   -0.078917   -0.117331
      2          5           0       -0.628616    0.584725    0.019193
      3          7           0       -1.742655   -0.247605    0.010342
      4          1           0       -1.694297   -1.255121    0.028446
      5          1           0       -2.685802    0.109698   -0.010819
      6          1           0       -0.798270    1.765648    0.004649
      7          1           0        1.044996   -1.290848    0.608959
      8          1           0        1.724041    0.663989    0.960372
 ---------------------------------------------------------------------

 SCF Done:  E(RHF) =  -422.968180369     A.U. after    2 cycles

 The electronic state is 1-A.
 Alpha  occ. eigenvalues --  -84.24765 -15.50591  -7.60098  -6.72144  -4.24575
 Alpha  occ. eigenvalues --   -4.24514  -4.23804  -1.17635  -0.86205  -0.74655
 Alpha  occ. eigenvalues --   -0.72050  -0.57101  -0.49702  -0.48793  -0.43186
 Alpha  occ. eigenvalues --   -0.33410
 Alpha virt. eigenvalues --    0.03147   0.04705   0.05084   0.05807   0.06832
 Alpha virt. eigenvalues --    0.07343   0.08901   0.10151   0.10786   0.11655
 Alpha virt. eigenvalues --    0.13566   0.13857   0.14867   0.17782   0.18855

 Mulliken charges:
               1
     1  P   -1.086245
     2  B    0.022558
     3  N    0.192727
     4  H    0.041653
     5  H   -0.025467
     6  H    0.189637
     7  H    0.315681
     8  H    0.349456
 Sum of Mulliken charges =   0.00000

 Dipole moment (field-independent basis, Debye):
    X=             -1.7055    Y=             -0.7178    Z=              0.4153  Tot=              1.8964

 Test job not archived.
 1\1\GINC-SE340\SP\RHF\Aug-CC-pVDZ\B1H5N1P1\OHZDE\09-Apr-2025\0\\#t hf
 aug-cc-pvdz iop(5/13=1,5/36=2,99/5=2) pseudo=read geom=check guess=(re
 ad,tcheck) scf=(maxcycle=1)\\title\\0,1\P,0,1.1834,-0.078917,-0.117331
 \B,0,-0.628616,0.584725,0.019193\N,0,-1.742655,-0.247605,0.010342\H,0,
 -1.694297,-1.255121,0.028446\H,0,-2.685802,0.109698,-0.010819\H,0,-0.7
 9827,1.765648,0.004649\H,0,1.044996,-1.290848,0.608959\H,0,1.724041,0.
 663989,0.960372\\Version=ES64L-G16RevC.01\State=1-A\HF=-422.9681804\RM
 SD=2.831e-02\Dipole=-0.6710011,-0.2823913,0.1634098\Quadrupole=1.63375

 Normal termination of Gaussian 16 at Wed Apr  9 00:42:59 2025.
