 Gaussian 16, Revision C.01,

 ----------------------------------------------------------------------
 #t hf aug-cc-pvdz symm=none int=(grid=ultrafine) guess=(read,tcheck) s
 table=opt
 ----------------------------------------------------------------------
 -----
 title
 -----
 Symbolic Z-matrix:
 Charge =  0 Multiplicity = 2

 SCF Done:  E(UHF) =  -524.874375893     A.U. after   15 cycles
 Normal termination of Gaussian 16 at Tue Apr  8 23:46:04 2025.
 Gaussian 16:  ES64L-G16RevC.01  3-Jul-2019

 ----------------------------------------------------------------------
 #t hf aug-cc-pvdz iop(5/13=1,5/36=2,99/5=2) pseudo=read geom=check gue
 ss=(read,tcheck) scf=(maxcycle=1)
 ----------------------------------------------------------------------
 -----
 title
 -----
 Structure from the checkpoint file:  "BDE49_nonexpt_1742_mol2.chk"
 Charge =  0 Multiplicity = 2

                         Standard orientation:
 ---------------------------------------------------------------------
 Center     Atomic      Atomic             Coordinates (Angstroms)
 Number     Number       Type             X           Y           Z
 ---------------------------------------------------------------------
      1         14           0       -2.627362   -0.499653    0.203947
      2          6           0       -0.865764   -0.890751   -0.378256
      3          6           0        0.233391    0.005930    0.230865
      4          1           0       -0.839172   -0.819472   -1.472582
      5          1           0       -0.657900   -1.940883   -0.140614
      6          6           0       -3.183940    1.241884   -0.274164
      7          1           0       -2.541043    2.000559    0.186586
      8          1           0       -4.208379    1.426543    0.058902
      9          1           0       -3.151148    1.383667   -1.357743
     10          6           0        1.646873   -0.359191   -0.244535
     11          1           0        0.195096   -0.059359    1.324900
     12          1           0        0.034769    1.055324   -0.017899
     13          6           0        2.743730    0.528195    0.355440
     14          1           0        1.686362   -0.295199   -1.339600
     15          1           0        1.850690   -1.408104    0.006235
     16          6           0        4.150615    0.157079   -0.122575
     17          1           0        2.701127    0.464029    1.449449
     18          1           0        2.537674    1.575856    0.104582
     19          1           0        4.399769   -0.874557    0.144847
     20          1           0        4.908504    0.807414    0.322710
     21          1           0        4.234916    0.245320   -1.210249
     22          1           0       -2.717624   -0.664876    1.684571
 ---------------------------------------------------------------------

 SCF Done:  E(UHF) =  -525.170437596     A.U. after    2 cycles

 The electronic state is 2-A.
 Alpha  occ. eigenvalues --  -69.52093 -11.23264 -11.22634 -11.22469 -11.22209
 Alpha  occ. eigenvalues --  -11.21894 -11.21814  -6.19201  -3.95137  -3.94246
 Alpha  occ. eigenvalues --   -3.94234  -1.08441  -1.01803  -0.95304  -0.91869
 Alpha  occ. eigenvalues --   -0.82784  -0.79252  -0.68196  -0.65487  -0.60459
 Alpha  occ. eigenvalues --   -0.59429  -0.57305  -0.56401  -0.56157  -0.53834
 Alpha  occ. eigenvalues --   -0.51803  -0.49540  -0.48969  -0.47113  -0.46800
 Alpha  occ. eigenvalues --   -0.45693  -0.42709  -0.31233
 Alpha virt. eigenvalues --    0.03324   0.03474   0.03679   0.03906   0.04943
 Alpha virt. eigenvalues --    0.05349   0.05557   0.06471   0.07342   0.07698
 Alpha virt. eigenvalues --    0.07826   0.08329   0.09031   0.10101   0.10544

  Beta  occ. eigenvalues --  -69.51551 -11.23172 -11.22630 -11.22445 -11.22207
  Beta  occ. eigenvalues --  -11.21841 -11.21762  -6.18380  -3.93880  -3.93868
  Beta  occ. eigenvalues --   -3.93021  -1.08294  -1.01550  -0.94685  -0.91679
  Beta  occ. eigenvalues --   -0.82497  -0.79192  -0.65546  -0.64647  -0.60381
  Beta  occ. eigenvalues --   -0.58995  -0.56746  -0.56244  -0.55416  -0.53764
  Beta  occ. eigenvalues --   -0.51551  -0.49172  -0.48889  -0.46971  -0.46781
  Beta  occ. eigenvalues --   -0.44899  -0.41916
  Beta virt. eigenvalues --    0.02902   0.03390   0.03669   0.03859   0.04754
  Beta virt. eigenvalues --    0.05185   0.05586   0.06246   0.07068   0.07376
  Beta virt. eigenvalues --    0.07773   0.08064   0.08576   0.09631   0.10195

 Mulliken charges and spin densities:
               1          2
     1  Si   1.037338   1.040835
     2  C   -0.663208  -0.049627
     3  C   -0.196569   0.016738
     4  H    0.154333  -0.006443
     5  H    0.066598   0.001861
     6  C   -0.639734  -0.008749
     7  H    0.056267   0.012162
     8  H   -0.013235  -0.013815
     9  H    0.093527  -0.005403
    10  C   -0.243317  -0.000349
    11  H    0.090117  -0.008284
    12  H    0.085960  -0.003201
    13  C   -0.204804  -0.002005
    14  H    0.106370   0.000263
    15  H    0.107717  -0.000758
    16  C   -0.402531   0.000266
    17  H    0.120881  -0.000037
    18  H    0.123235   0.000212
    19  H    0.159601  -0.000010
    20  H    0.119345   0.000073
    21  H    0.162405  -0.000022
    22  H   -0.120296   0.026295
 Sum of Mulliken charges =  -0.00000   1.00000

 Dipole moment (field-independent basis, Debye):
    X=              0.6319    Y=              0.5596    Z=             -0.3315  Tot=              0.9069
                          Isotropic Fermi Contact Couplings
        Atom                 a.u.       MegaHertz       Gauss      10(-4) cm-1
     1  Si(29)             0.55473    -493.00274    -175.91564    -164.44801
     2  C(13)              0.01543      17.35150       6.19145       5.78784
     3  C(13)              0.02221      24.96611       8.90853       8.32780
     4  H(1)               0.00009       0.41355       0.14757       0.13795
     5  H(1)               0.00035       1.58116       0.56420       0.52742
     6  C(13)              0.01332      14.97863       5.34475       4.99633
     7  H(1)               0.00957      42.77553      15.26337      14.26838
     8  H(1)               0.00034       1.52898       0.54558       0.51001

 Normal termination of Gaussian 16 at Tue Apr  8 23:46:14 2025.
