 Gaussian 16, Revision C.01,

 ----------------------------------------------------------------------
 #t hf aug-cc-pvdz symm=none int=(grid=ultrafine) guess=(read,tcheck) s
 table=(opt,rrhf)
 ----------------------------------------------------------------------
 -----
 title
 -----
 Symbolic Z-matrix:
 Charge =  0 Multiplicity = 1

 SCF Done:  E(RHF) =  -796.731862075     A.U. after   15 cycles
 Normal termination of Gaussian 16 at Wed Apr  9 00:51:42 2025.
 Gaussian 16:  ES64L-G16RevC.01  3-Jul-2019

 ----------------------------------------------------------------------
 #t hf aug-cc-pvdz iop(5/13=1,5/36=2,99/5=2) pseudo=read geom=check gue
 ss=(read,tcheck) scf=(maxcycle=1)
 ----------------------------------------------------------------------
 -----
 title
 -----
 Structure from the checkpoint file:  "BDE49_nonexpt_942_mol1.chk"
 Charge =  0 Multiplicity = 1

                         Standard orientation:
 ---------------------------------------------------------------------
 Center     Atomic      Atomic             Coordinates (Angstroms)
 Number     Number       Type             X           Y           Z
 ---------------------------------------------------------------------
      1         17           0       -0.547216    1.701009   -0.170216
      2          8           0        2.095326    0.594774    0.331774
      3          8           0       -0.947260   -0.875633   -0.414784
      4          7           0       -0.153453    0.018407    0.304266
      5          7           0        1.511535   -1.544825   -0.222064
      6          6           0        1.269641   -0.248284    0.101391
      7          6           0       -2.151238   -1.150731    0.318530
      8          1           0        0.776987   -2.117970   -0.600874
      9          1           0        2.474873   -1.792673   -0.374186
     10          1           0       -2.679212   -1.897966   -0.273216
     11          1           0       -1.913924   -1.536969    1.311810
     12          1           0       -2.757584   -0.245688    0.399268
 ---------------------------------------------------------------------

 SCF Done:  E(RHF) =  -797.142462243     A.U. after    2 cycles

 The electronic state is 1-A.
 Alpha  occ. eigenvalues -- -105.59866 -20.62529 -20.52848 -15.64347 -15.54317
 Alpha  occ. eigenvalues --  -11.41017 -11.31172 -10.64344  -7.81294  -7.80815
 Alpha  occ. eigenvalues --   -7.80788  -1.55299  -1.48876  -1.25238  -1.19051
 Alpha  occ. eigenvalues --   -1.02862  -0.94954  -0.84651  -0.80538  -0.75229
 Alpha  occ. eigenvalues --   -0.70912  -0.68679  -0.65329  -0.62947  -0.61187
 Alpha  occ. eigenvalues --   -0.57123  -0.54370  -0.48853  -0.48195  -0.45921
 Alpha  occ. eigenvalues --   -0.45116  -0.43455
 Alpha virt. eigenvalues --    0.02816   0.03995   0.04649   0.05376   0.06092
 Alpha virt. eigenvalues --    0.07790   0.09728   0.11028   0.11654   0.12417
 Alpha virt. eigenvalues --    0.13075   0.13985   0.14214   0.15553   0.16419

 Mulliken charges:
               1
     1  Cl   0.136267
     2  O   -1.097214
     3  O   -1.335179
     4  N    0.738411
     5  N    0.499802
     6  C    0.217791
     7  C    0.209211
     8  H    0.116407
     9  H    0.147201
    10  H    0.057261
    11  H    0.181552
    12  H    0.128490
 Sum of Mulliken charges =  -0.00000

 Dipole moment (field-independent basis, Debye):
    X=             -2.3845    Y=             -3.9097    Z=             -0.8986  Tot=              4.6668

 Test job not archived.
 1\1\GINC-SE058\SP\RHF\Aug-CC-pVDZ\C2H5Cl1N2O2\OHZDE\09-Apr-2025\0\\#t
 hf aug-cc-pvdz iop(5/13=1,5/36=2,99/5=2) pseudo=read geom=check guess=
 (read,tcheck) scf=(maxcycle=1)\\title\\0,1\Cl,0,-0.547217,1.701009,-0.
 170216\O,0,2.095326,0.594775,0.331774\O,0,-0.947259,-0.875634,-0.41478
 4\N,0,-0.153453,0.018407,0.304266\N,0,1.511536,-1.544824,-0.222064\C,0
 ,1.269641,-0.248283,0.101391\C,0,-2.151237,-1.150733,0.31853\H,0,0.776
 988,-2.11797,-0.600874\H,0,2.474874,-1.792671,-0.374186\H,0,-2.679211,
 -1.897968,-0.273216\H,0,-1.913923,-1.53697,1.31181\H,0,-2.757584,-0.24

 Normal termination of Gaussian 16 at Wed Apr  9 00:51:48 2025.
