 Gaussian 16, Revision C.01,

 ----------------------------------------------------------------------
 #t hf aug-cc-pvdz symm=none int=(grid=ultrafine) guess=(read,tcheck) s
 table=(opt,rrhf)
 ----------------------------------------------------------------------
 -----
 title
 -----
 Symbolic Z-matrix:
 Charge =  0 Multiplicity = 1

 SCF Done:  E(RHF) =  -481.669035570     A.U. after   14 cycles

 1\1\GINC-SE249\Stability\RHF\Aug-CC-pVDZ\C5H6Si1\OHZDE\08-Apr-2025\0\\
 #t hf aug-cc-pvdz symm=none int=(grid=ultrafine) guess=(read,tcheck) s
 table=(opt,rrhf)\\title\\0,1\C,0,0.786382,-0.807506,0.000093\Si,0,-0.4
 19967,0.659769,-0.000082\C,0,-2.135639,0.01905,0.000027\H,0,-0.210342,
 1.480184,-1.210146\H,0,-0.210339,1.480465,1.209792\C,0,2.167692,-0.354
 856,0.000032\C,0,3.292992,0.068939,0.000013\C,0,-3.261444,-0.420021,0.
 000123\H,0,-4.254267,-0.803071,-0.0004\H,0,4.293041,0.4266,-0.000187\H
 ,0,0.580772,-1.427409,-0.879365\H,0,0.580779,-1.427167,0.879726\\Versi

 Normal termination of Gaussian 16 at Tue Apr  8 23:49:25 2025.
 Gaussian 16:  ES64L-G16RevC.01  3-Jul-2019

 ----------------------------------------------------------------------
 #t hf aug-cc-pvdz iop(5/13=1,5/36=2,99/5=2) pseudo=read geom=check gue
 ss=(read,tcheck) scf=(maxcycle=1)
 ----------------------------------------------------------------------
 -----
 title
 -----
 Structure from the checkpoint file:  "BDE49_nonexpt_1833_mol1.chk"
 Charge =  0 Multiplicity = 1

                         Standard orientation:
 ---------------------------------------------------------------------
 Center     Atomic      Atomic             Coordinates (Angstroms)
 Number     Number       Type             X           Y           Z
 ---------------------------------------------------------------------
      1          6           0       -0.786382   -0.807506   -0.000093
      2         14           0        0.419967    0.659769    0.000082
      3          6           0        2.135639    0.019050   -0.000027
      4          1           0        0.210342    1.480184    1.210146
      5          1           0        0.210339    1.480465   -1.209792
      6          6           0       -2.167692   -0.354856   -0.000032
      7          6           0       -3.292992    0.068939   -0.000013
      8          6           0        3.261444   -0.420021   -0.000123
      9          1           0        4.254267   -0.803071    0.000400
     10          1           0       -4.293041    0.426600    0.000187
     11          1           0       -0.580772   -1.427409    0.879365
     12          1           0       -0.580779   -1.427167   -0.879726
 ---------------------------------------------------------------------

 SCF Done:  E(RHF) =  -481.900704976     A.U. after    2 cycles

 The electronic state is 1-A.
 Alpha  occ. eigenvalues --  -69.55389 -11.26002 -11.25785 -11.25110 -11.23532
 Alpha  occ. eigenvalues --  -11.23472  -6.22294  -3.97725  -3.97644  -3.97629
 Alpha  occ. eigenvalues --   -1.06751  -1.03615  -0.96784  -0.79237  -0.73215
 Alpha  occ. eigenvalues --   -0.72224  -0.64646  -0.61428  -0.57280  -0.51685
 Alpha  occ. eigenvalues --   -0.50303  -0.42280  -0.41495  -0.39914  -0.38303
 Alpha virt. eigenvalues --    0.03097   0.03665   0.04439   0.04579   0.04890
 Alpha virt. eigenvalues --    0.07086   0.07745   0.07878   0.09009   0.10014
 Alpha virt. eigenvalues --    0.10394   0.10978   0.12160   0.12337   0.13231

 Mulliken charges:
               1
     1  C   -1.022937
     2  Si   1.030705
     3  C   -0.702797
     4  H   -0.158440
     5  H   -0.158451
     6  C    0.173685
     7  C    0.417852
     8  C    0.793141
     9  H   -0.315102
    10  H   -0.424578
    11  H    0.183452
    12  H    0.183469
 Sum of Mulliken charges =  -0.00000

 Dipole moment (field-independent basis, Debye):
    X=              0.8497    Y=             -0.6212    Z=              0.0008  Tot=              1.0526

 Test job not archived.
 1\1\GINC-SE249\SP\RHF\Aug-CC-pVDZ\C5H6Si1\OHZDE\08-Apr-2025\0\\#t hf a
 ug-cc-pvdz iop(5/13=1,5/36=2,99/5=2) pseudo=read geom=check guess=(rea
 d,tcheck) scf=(maxcycle=1)\\title\\0,1\C,0,0.786382,-0.807506,0.000093
 \Si,0,-0.419967,0.659769,-0.000082\C,0,-2.135639,0.01905,0.000027\H,0,
 -0.210342,1.480184,-1.210146\H,0,-0.210339,1.480465,1.209792\C,0,2.167
 692,-0.354856,0.000032\C,0,3.292992,0.068939,0.000013\C,0,-3.261444,-0
 .420021,0.000123\H,0,-4.254267,-0.803071,-0.0004\H,0,4.293041,0.4266,-
 0.000187\H,0,0.580772,-1.427409,-0.879365\H,0,0.580779,-1.427167,0.879

 Normal termination of Gaussian 16 at Tue Apr  8 23:49:30 2025.
