 Gaussian 16, Revision C.01,

 ----------------------------------------------------------------------
 #t hf aug-cc-pvdz symm=none int=(grid=ultrafine) guess=(read,tcheck) s
 table=(opt,rrhf)
 ----------------------------------------------------------------------
 -----
 title
 -----
 Symbolic Z-matrix:
 Charge =  0 Multiplicity = 1

 SCF Done:  E(RHF) =  -572.887180690     A.U. after   14 cycles
 Normal termination of Gaussian 16 at Wed Apr  9 00:08:47 2025.
 Gaussian 16:  ES64L-G16RevC.01  3-Jul-2019

 ----------------------------------------------------------------------
 #t hf aug-cc-pvdz iop(5/13=1,5/36=2,99/5=2) pseudo=read geom=check gue
 ss=(read,tcheck) scf=(maxcycle=1)
 ----------------------------------------------------------------------
 -----
 title
 -----
 Structure from the checkpoint file:  "BDE49_nonexpt_2282_mol1.chk"
 Charge =  0 Multiplicity = 1

                         Standard orientation:
 ---------------------------------------------------------------------
 Center     Atomic      Atomic             Coordinates (Angstroms)
 Number     Number       Type             X           Y           Z
 ---------------------------------------------------------------------
      1          6           0        2.534727   -0.812066    0.343404
      2          6           0        1.919453    0.396972   -0.384388
      3          1           0        1.975387   -1.725823    0.130690
      4          1           0        2.535385   -0.668542    1.427656
      5          1           0        3.570168   -0.973910    0.032280
      6         14           0        0.149383    0.773398    0.080713
      7          1           0        2.504369    1.303383   -0.182297
      8          1           0        1.959009    0.250115   -1.469501
      9          8           0       -0.706071   -0.654950   -0.371563
     10          7           0       -2.082807   -0.784867   -0.174645
     11          8           0       -2.590215    0.163154    0.314077
     12          1           0       -0.394349    1.921073   -0.674859
     13          1           0       -0.016470    0.985143    1.534355
 ---------------------------------------------------------------------

 SCF Done:  E(RHF) =  -573.202279491     A.U. after    2 cycles

 The electronic state is 1-A.
 Alpha  occ. eigenvalues --  -69.56875 -20.64021 -20.59682 -15.73045 -11.23952
 Alpha  occ. eigenvalues --  -11.23549  -6.23544  -3.98997  -3.98843  -3.98831
 Alpha  occ. eigenvalues --   -1.67300  -1.47299  -1.03990  -0.98030  -0.86496
 Alpha  occ. eigenvalues --   -0.78441  -0.75641  -0.69891  -0.69028  -0.62112
 Alpha  occ. eigenvalues --   -0.59723  -0.55195  -0.53663  -0.52227  -0.50920
 Alpha  occ. eigenvalues --   -0.47231  -0.46858  -0.45265
 Alpha virt. eigenvalues --    0.03455   0.04192   0.04332   0.04917   0.06454
 Alpha virt. eigenvalues --    0.06546   0.07389   0.07774   0.07943   0.09791
 Alpha virt. eigenvalues --    0.10341   0.12945   0.13632   0.14657   0.15039

 Mulliken charges:
               1
     1  C   -0.384384
     2  C   -0.548765
     3  H    0.143386
     4  H    0.125891
     5  H    0.110615
     6  Si   1.721338
     7  H    0.032774
     8  H    0.101679
     9  O   -1.619936
    10  N    1.657911
    11  O   -0.970569
    12  H   -0.205041
    13  H   -0.164898
 Sum of Mulliken charges =  -0.00000

 Dipole moment (field-independent basis, Debye):
    X=              2.3238    Y=              1.2182    Z=              0.1287  Tot=              2.6269

 Test job not archived.
 1\1\GINC-SE166\SP\RHF\Aug-CC-pVDZ\C2H7N1O2Si1\OHZDE\09-Apr-2025\0\\#t
 hf aug-cc-pvdz iop(5/13=1,5/36=2,99/5=2) pseudo=read geom=check guess=
 (read,tcheck) scf=(maxcycle=1)\\title\\0,1\C,0,2.534727,-0.812066,0.34
 3404\C,0,1.919453,0.396972,-0.384388\H,0,1.975387,-1.725823,0.13069\H,
 0,2.535385,-0.668542,1.427656\H,0,3.570168,-0.97391,0.03228\Si,0,0.149
 383,0.773398,0.080713\H,0,2.504369,1.303383,-0.182297\H,0,1.959009,0.2
 50115,-1.469501\O,0,-0.706071,-0.65495,-0.371563\N,0,-2.082807,-0.7848
 67,-0.174645\O,0,-2.590215,0.163154,0.314077\H,0,-0.394349,1.921073,-0

 Normal termination of Gaussian 16 at Wed Apr  9 00:08:52 2025.
