 Gaussian 16, Revision C.01,

 ----------------------------------------------------------------------
 #t hf aug-cc-pvdz symm=none int=(grid=ultrafine) guess=(read,tcheck) s
 table=(opt,rrhf)
 ----------------------------------------------------------------------
 -----
 title
 -----
 Symbolic Z-matrix:
 Charge =  0 Multiplicity = 1

 SCF Done:  E(RHF) =  -654.659298303     A.U. after   14 cycles
 Normal termination of Gaussian 16 at Tue Apr  8 23:50:28 2025.
 Gaussian 16:  ES64L-G16RevC.01  3-Jul-2019

 ----------------------------------------------------------------------
 #t hf aug-cc-pvdz iop(5/13=1,5/36=2,99/5=2) pseudo=read geom=check gue
 ss=(read,tcheck) scf=(maxcycle=1)
 ----------------------------------------------------------------------
 -----
 title
 -----
 Structure from the checkpoint file:  "BDE49_nonexpt_1877_mol1.chk"
 Charge =  0 Multiplicity = 1

                         Standard orientation:
 ---------------------------------------------------------------------
 Center     Atomic      Atomic             Coordinates (Angstroms)
 Number     Number       Type             X           Y           Z
 ---------------------------------------------------------------------
      1         14           0        0.086226    1.141950   -0.194252
      2          6           0       -1.544905    0.671915    0.628561
      3          6           0        1.342544   -0.247001    0.217419
      4          8           0        1.293832   -1.016203    1.116142
      5          1           0        0.631073    2.363613    0.439666
      6          1           0       -0.016169    1.334451   -1.650260
      7          9           0        2.418575   -0.257836   -0.640237
      8          6           0       -2.148232   -0.568597    0.013514
      9          8           0       -1.632010   -1.181412   -0.888291
     10          1           0       -3.116772   -0.904754    0.438407
     11          1           0       -2.273274    1.490966    0.573938
     12          1           0       -1.390213    0.491956    1.700135
 ---------------------------------------------------------------------

 SCF Done:  E(RHF) =  -655.041802539     A.U. after    2 cycles

 The electronic state is 1-A.
 Alpha  occ. eigenvalues --  -69.57072 -26.48403 -20.57911 -20.56988 -11.41788
 Alpha  occ. eigenvalues --  -11.36831 -11.26634  -6.24134  -3.99523  -3.99469
 Alpha  occ. eigenvalues --   -3.99453  -1.62114  -1.50962  -1.50139  -1.04653
 Alpha  occ. eigenvalues --   -0.88355  -0.82864  -0.77034  -0.71073  -0.70702
 Alpha  occ. eigenvalues --   -0.68630  -0.67955  -0.64561  -0.63473  -0.57405
 Alpha  occ. eigenvalues --   -0.54354  -0.52621  -0.51088  -0.50673  -0.45596
 Alpha  occ. eigenvalues --   -0.44084
 Alpha virt. eigenvalues --    0.02411   0.03655   0.04233   0.04752   0.06503
 Alpha virt. eigenvalues --    0.06911   0.07432   0.08975   0.09656   0.10528
 Alpha virt. eigenvalues --    0.11294   0.12158   0.12424   0.13494   0.13848

 Mulliken charges:
               1
     1  Si   1.212439
     2  C   -0.842222
     3  C    1.219689
     4  O   -0.982573
     5  H   -0.233955
     6  H   -0.112631
     7  F   -0.715326
     8  C    1.042530
     9  O   -1.109818
    10  H    0.135735
    11  H    0.115597
    12  H    0.270535
 Sum of Mulliken charges =  -0.00000

 Dipole moment (field-independent basis, Debye):
    X=             -3.3147    Y=              3.5026    Z=              1.2008  Tot=              4.9696

 Test job not archived.
 1\1\GINC-SE342\SP\RHF\Aug-CC-pVDZ\C3H5F1O2Si1\OHZDE\08-Apr-2025\0\\#t
 hf aug-cc-pvdz iop(5/13=1,5/36=2,99/5=2) pseudo=read geom=check guess=
 (read,tcheck) scf=(maxcycle=1)\\title\\0,1\Si,0,0.086226,1.14195,-0.19
 4252\C,0,-1.544905,0.671915,0.628561\C,0,1.342544,-0.247001,0.217419\O
 ,0,1.293832,-1.016203,1.116142\H,0,0.631073,2.363613,0.439666\H,0,-0.0
 16169,1.334451,-1.65026\F,0,2.418575,-0.257836,-0.640237\C,0,-2.148232
 ,-0.568597,0.013514\O,0,-1.63201,-1.181412,-0.888291\H,0,-3.116772,-0.
 904754,0.438407\H,0,-2.273274,1.490966,0.573938\H,0,-1.390213,0.491956

 Normal termination of Gaussian 16 at Tue Apr  8 23:50:33 2025.
