 Gaussian 16, Revision C.01,

 ----------------------------------------------------------------------
 #t hf aug-cc-pvdz symm=none int=(grid=ultrafine) guess=(read,tcheck) s
 table=opt
 ----------------------------------------------------------------------
 -----
 title
 -----
 Symbolic Z-matrix:
 Charge =  0 Multiplicity = 2

 SCF Done:  E(UHF) =  -535.988929666     A.U. after   15 cycles
 Normal termination of Gaussian 16 at Wed Apr  9 00:20:35 2025.
 Gaussian 16:  ES64L-G16RevC.01  3-Jul-2019

 ----------------------------------------------------------------------
 #t hf aug-cc-pvdz iop(5/13=1,5/36=2,99/5=2) pseudo=read geom=check gue
 ss=(read,tcheck) scf=(maxcycle=1)
 ----------------------------------------------------------------------
 -----
 title
 -----
 Structure from the checkpoint file:  "BDE49_nonexpt_2622_mol2.chk"
 Charge =  0 Multiplicity = 2

                         Standard orientation:
 ---------------------------------------------------------------------
 Center     Atomic      Atomic             Coordinates (Angstroms)
 Number     Number       Type             X           Y           Z
 ---------------------------------------------------------------------
      1         16           0        1.128122   -0.128166    0.000008
      2          6           0       -0.514526    0.549467    0.000006
      3          9           0       -1.523405   -0.399889   -0.000020
      4          1           0       -0.626068    1.176434   -0.892015
      5          1           0       -0.626075    1.176423    0.892035
 ---------------------------------------------------------------------

 SCF Done:  E(UHF) =  -536.174199916     A.U. after    2 cycles

 The electronic state is 2-A.
 Alpha  occ. eigenvalues --  -93.98844 -26.46435 -11.36924  -8.27012  -6.26174
 Alpha  occ. eigenvalues --   -6.24415  -6.24093  -1.58740  -1.09221  -0.89357
 Alpha  occ. eigenvalues --   -0.72220  -0.70143  -0.65569  -0.56845  -0.50978
 Alpha  occ. eigenvalues --   -0.45533  -0.41143
 Alpha virt. eigenvalues --    0.03589   0.05001   0.06820   0.09932   0.11575
 Alpha virt. eigenvalues --    0.12766   0.13138   0.15677   0.15836   0.23374
 Alpha virt. eigenvalues --    0.23556   0.25535   0.25758   0.28646   0.30548

  Beta  occ. eigenvalues --  -93.97941 -26.46462 -11.37062  -8.25975  -6.23900
  Beta  occ. eigenvalues --   -6.23546  -6.22158  -1.58798  -1.04520  -0.84708
  Beta  occ. eigenvalues --   -0.71250  -0.70064  -0.64570  -0.55077  -0.49902
  Beta  occ. eigenvalues --   -0.38825
  Beta virt. eigenvalues --   -0.00868   0.03630   0.05217   0.06987   0.09977
  Beta virt. eigenvalues --    0.11838   0.13229   0.14384   0.16125   0.16401
  Beta virt. eigenvalues --    0.23695   0.24311   0.26262   0.26521   0.28706

 Mulliken charges and spin densities:
               1          2
     1  S    0.235950   1.083303
     2  C    0.013234  -0.114544
     3  F   -0.619146  -0.002929
     4  H    0.184978   0.017086
     5  H    0.184984   0.017085
 Sum of Mulliken charges =  -0.00000   1.00000

 Dipole moment (field-independent basis, Debye):
    X=              0.1500    Y=              1.7391    Z=              0.0000  Tot=              1.7456
                          Isotropic Fermi Contact Couplings
        Atom                 a.u.       MegaHertz       Gauss      10(-4) cm-1
     1  S(33)              0.18828      64.66947      23.07568      21.57141
     2  C(13)             -0.02917     -32.78900     -11.69993     -10.93723
     3  F(19)             -0.00613     -25.78367      -9.20026      -8.60051
     4  H(1)               0.01339      59.83101      21.34919      19.95748
     5  H(1)               0.01339      59.83015      21.34889      19.95719
 --------------------------------------------------------
       Center         ----  Spin Dipole Couplings  ----
                      3XX-RR        3YY-RR        3ZZ-RR

 Normal termination of Gaussian 16 at Wed Apr  9 00:20:37 2025.
