 Gaussian 16, Revision C.01,

 ----------------------------------------------------------------------
 #t hf aug-cc-pvdz symm=none int=(grid=ultrafine) guess=(read,tcheck) s
 table=(opt,rrhf)
 ----------------------------------------------------------------------
 -----
 title
 -----
 Symbolic Z-matrix:
 Charge =  0 Multiplicity = 1

 SCF Done:  E(RHF) =  -371.319714241     A.U. after   12 cycles
 Normal termination of Gaussian 16 at Wed Apr  9 00:35:09 2025.
 Gaussian 16:  ES64L-G16RevC.01  3-Jul-2019

 ----------------------------------------------------------------------
 #t hf aug-cc-pvdz iop(5/13=1,5/36=2,99/5=2) pseudo=read geom=check gue
 ss=(read,tcheck) scf=(maxcycle=1)
 ----------------------------------------------------------------------
 -----
 title
 -----
 Structure from the checkpoint file:  "BDE49_nonexpt_446_mol1.chk"
 Charge =  0 Multiplicity = 1

                         Standard orientation:
 ---------------------------------------------------------------------
 Center     Atomic      Atomic             Coordinates (Angstroms)
 Number     Number       Type             X           Y           Z
 ---------------------------------------------------------------------
      1          9           0       -2.373881    0.012930   -0.109345
      2          8           0       -0.421925   -1.224084    0.014723
      3          7           0       -0.316676    1.203623    0.084107
      4          6           0        1.705261   -0.069317   -0.389028
      5          6           0        1.141550    1.246570    0.154205
      6          6           0        0.992435   -1.269310    0.231193
      7          5           0       -1.032618   -0.003831   -0.001020
      8          1           0        1.350404   -2.202889   -0.207337
      9          1           0        1.181708   -1.310619    1.310971
     10          1           0        2.778006   -0.134230   -0.183986
     11          1           0        1.572485   -0.100467   -1.475447
     12          1           0       -0.803718    2.084715    0.111598
     13          1           0        1.522083    2.084506   -0.438454
     14          1           0        1.483703    1.401427    1.187110
 ---------------------------------------------------------------------

 SCF Done:  E(RHF) =  -371.691755925     A.U. after    2 cycles

 The electronic state is 1-A.
 Alpha  occ. eigenvalues --  -26.43582 -20.54296 -15.49024 -11.29731 -11.27855
 Alpha  occ. eigenvalues --  -11.24633  -7.66118  -1.56679  -1.46148  -1.20227
 Alpha  occ. eigenvalues --   -1.05292  -0.93051  -0.84638  -0.75644  -0.73160
 Alpha  occ. eigenvalues --   -0.69207  -0.67861  -0.63456  -0.62216  -0.61922
 Alpha  occ. eigenvalues --   -0.60090  -0.58154  -0.54729  -0.52827  -0.47189
 Alpha  occ. eigenvalues --   -0.46243  -0.42547
 Alpha virt. eigenvalues --    0.03140   0.03821   0.04087   0.04627   0.06157
 Alpha virt. eigenvalues --    0.06340   0.06419   0.06826   0.07232   0.09630
 Alpha virt. eigenvalues --    0.11674   0.13347   0.13809   0.14479   0.14821

 Mulliken charges:
               1
     1  F   -0.904414
     2  O   -1.282234
     3  N    0.517069
     4  C   -0.452743
     5  C   -0.536492
     6  C    0.741803
     7  B    1.226980
     8  H    0.042029
     9  H    0.165094
    10  H    0.155898
    11  H    0.140880
    12  H    0.027711
    13  H    0.070188
    14  H    0.088231
 Sum of Mulliken charges =  -0.00000

 Dipole moment (field-independent basis, Debye):
    X=              3.3829    Y=              1.5561    Z=              0.2980  Tot=              3.7355

 Test job not archived.
 1\1\GINC-SE015\SP\RHF\Aug-CC-pVDZ\C3H7B1F1N1O1\OHZDE\09-Apr-2025\0\\#t
  hf aug-cc-pvdz iop(5/13=1,5/36=2,99/5=2) pseudo=read geom=check guess
 =(read,tcheck) scf=(maxcycle=1)\\title\\0,1\F,0,-2.373881,0.01293,-0.1
 09345\O,0,-0.421925,-1.224084,0.014723\N,0,-0.316676,1.203623,0.084107
 \C,0,1.705261,-0.069317,-0.389028\C,0,1.14155,1.24657,0.154205\C,0,0.9
 92435,-1.26931,0.231193\B,0,-1.032618,-0.003831,-0.00102\H,0,1.350404,
 -2.202889,-0.207337\H,0,1.181708,-1.310619,1.310971\H,0,2.778006,-0.13
 423,-0.183986\H,0,1.572485,-0.100467,-1.475447\H,0,-0.803718,2.084715,

 Normal termination of Gaussian 16 at Wed Apr  9 00:35:13 2025.
