 Gaussian 16, Revision C.01,

 ----------------------------------------------------------------------
 #t hf aug-cc-pvdz symm=none int=(grid=ultrafine) guess=(read,tcheck) s
 table=(opt,rrhf)
 ----------------------------------------------------------------------
 -----
 title
 -----
 Symbolic Z-matrix:
 Charge =  0 Multiplicity = 1

 SCF Done:  E(RHF) =  -708.961539236     A.U. after   15 cycles
 Normal termination of Gaussian 16 at Wed Apr  9 00:45:58 2025.
 Gaussian 16:  ES64L-G16RevC.01  3-Jul-2019

 ----------------------------------------------------------------------
 #t hf aug-cc-pvdz iop(5/13=1,5/36=2,99/5=2) pseudo=read geom=check gue
 ss=(read,tcheck) scf=(maxcycle=1)
 ----------------------------------------------------------------------
 -----
 title
 -----
 Structure from the checkpoint file:  "BDE49_nonexpt_794_mol1.chk"
 Charge =  0 Multiplicity = 1

                         Standard orientation:
 ---------------------------------------------------------------------
 Center     Atomic      Atomic             Coordinates (Angstroms)
 Number     Number       Type             X           Y           Z
 ---------------------------------------------------------------------
      1         14           0        0.131198    0.689724    0.461055
      2          5           0       -1.629700   -0.228812    0.015046
      3          7           0        1.461617   -0.603207    0.028585
      4          8           0       -1.691271   -1.551342   -0.258441
      5          8           0       -2.747073    0.547266    0.010929
      6          8           0        1.109215   -1.790522   -0.063549
      7          8           0        2.617035   -0.237255   -0.115736
      8          6           0        0.607977    2.232804   -0.471417
      9          1           0        0.526546    2.083019   -1.550482
     10          1           0        1.632435    2.525852   -0.235284
     11          1           0       -0.064939    3.048894   -0.192099
     12          1           0       -0.809707   -1.963275   -0.225441
     13          1           0       -3.544249    0.041606   -0.195992
     14          1           0        0.389210    0.832270    1.912068
 ---------------------------------------------------------------------

 SCF Done:  E(RHF) =  -709.403831799     A.U. after    2 cycles

 The electronic state is 1-A.
 Alpha  occ. eigenvalues --  -69.57963 -20.60031 -20.59166 -20.57915 -20.56757
 Alpha  occ. eigenvalues --  -15.75642 -11.24840  -7.66482  -6.24989  -4.00382
 Alpha  occ. eigenvalues --   -4.00209  -4.00162  -1.65778  -1.50113  -1.49456
 Alpha  occ. eigenvalues --   -1.45639  -1.01053  -0.96851  -0.82434  -0.79419
 Alpha  occ. eigenvalues --   -0.74920  -0.74010  -0.72579  -0.67685  -0.62825
 Alpha  occ. eigenvalues --   -0.59555  -0.58913  -0.58456  -0.58147  -0.50656
 Alpha  occ. eigenvalues --   -0.50617  -0.49298  -0.47152  -0.45331  -0.44783
 Alpha virt. eigenvalues --    0.02929   0.03472   0.04077   0.04739   0.05343
 Alpha virt. eigenvalues --    0.05860   0.06372   0.07113   0.08060   0.08383
 Alpha virt. eigenvalues --    0.08978   0.09900   0.10237   0.11190   0.12553

 Mulliken charges:
               1
     1  Si   1.049037
     2  B    1.594344
     3  N    1.794390
     4  O   -1.418732
     5  O   -1.247361
     6  O   -1.217154
     7  O   -1.216740
     8  C   -0.621506
     9  H    0.121269
    10  H    0.053722
    11  H    0.071895
    12  H    0.715956
    13  H    0.551448
    14  H   -0.230569
 Sum of Mulliken charges =   0.00000

 Dipole moment (field-independent basis, Debye):
    X=             -2.5027    Y=              2.5977    Z=              0.1827  Tot=              3.6118

 Test job not archived.
 1\1\GINC-SE222\SP\RHF\Aug-CC-pVDZ\C1H6B1N1O4Si1\OHZDE\09-Apr-2025\0\\#
 t hf aug-cc-pvdz iop(5/13=1,5/36=2,99/5=2) pseudo=read geom=check gues
 s=(read,tcheck) scf=(maxcycle=1)\\title\\0,1\Si,0,0.131198,0.689724,0.
 461055\B,0,-1.6297,-0.228812,0.015046\N,0,1.461617,-0.603207,0.028585\
 O,0,-1.691271,-1.551342,-0.258441\O,0,-2.747073,0.547266,0.010929\O,0,
 1.109215,-1.790522,-0.063549\O,0,2.617035,-0.237255,-0.115736\C,0,0.60
 7977,2.232804,-0.471417\H,0,0.526546,2.083019,-1.550482\H,0,1.632435,2
 .525852,-0.235284\H,0,-0.064939,3.048894,-0.192099\H,0,-0.809707,-1.96

 Normal termination of Gaussian 16 at Wed Apr  9 00:46:05 2025.
