 Gaussian 16, Revision C.01,

 ----------------------------------------------------------------------
 #t hf aug-cc-pvdz symm=none int=(grid=ultrafine) guess=(read,tcheck) s
 table=(opt,rrhf)
 ----------------------------------------------------------------------
 -----
 title
 -----
 Symbolic Z-matrix:
 Charge =  0 Multiplicity = 1

 SCF Done:  E(RHF) =  -170.038694155     A.U. after   12 cycles
 Normal termination of Gaussian 16 at Tue Apr  8 22:52:33 2025.
 Gaussian 16:  ES64L-G16RevC.01  3-Jul-2019

 ----------------------------------------------------------------------
 #t hf aug-cc-pvdz iop(5/13=1,5/36=2,99/5=2) pseudo=read geom=check gue
 ss=(read,tcheck) scf=(maxcycle=1)
 ----------------------------------------------------------------------
 -----
 title
 -----
 Structure from the checkpoint file:  "BDE49_expt_1806_mol1.chk"
 Charge =  0 Multiplicity = 1

                         Standard orientation:
 ---------------------------------------------------------------------
 Center     Atomic      Atomic             Coordinates (Angstroms)
 Number     Number       Type             X           Y           Z
 ---------------------------------------------------------------------
      1          6           0        1.173032   -0.205079    0.000008
      2          8           0       -0.012106    0.575774    0.000009
      3          1           0        1.237700   -0.838757    0.892025
      4          1           0        1.996492    0.512307    0.000002
      5          1           0        1.237685   -0.838772   -0.891997
      6          7           0       -1.148285   -0.311995   -0.000037
      7          1           0       -1.687655   -0.013110   -0.811863
      8          1           0       -1.687563   -0.013426    0.811971
 ---------------------------------------------------------------------

 SCF Done:  E(RHF) =  -170.218389308     A.U. after    2 cycles

 The electronic state is 1-A.
 Alpha  occ. eigenvalues --  -20.56988 -15.54743 -11.27684  -1.47587  -1.11262
 Alpha  occ. eigenvalues --   -0.90509  -0.72506  -0.67913  -0.62517  -0.60209
 Alpha  occ. eigenvalues --   -0.53390  -0.45348  -0.43567
 Alpha virt. eigenvalues --    0.03658   0.04990   0.05747   0.06122   0.07247
 Alpha virt. eigenvalues --    0.10709   0.14191   0.14806   0.16378   0.16839
 Alpha virt. eigenvalues --    0.18716   0.20938   0.21988   0.23751   0.26208

 Mulliken charges:
               1
     1  C    0.251585
     2  O   -1.182186
     3  H    0.131114
     4  H    0.055840
     5  H    0.131100
     6  N    0.414318
     7  H    0.099110
     8  H    0.099121
 Sum of Mulliken charges =  -0.00000

 Dipole moment (field-independent basis, Debye):
    X=             -0.3611    Y=              0.0263    Z=              0.0003  Tot=              0.3621

 Test job not archived.
 1\1\GINC-SE403\SP\RHF\Aug-CC-pVDZ\C1H5N1O1\OHZDE\08-Apr-2025\0\\#t hf
 aug-cc-pvdz iop(5/13=1,5/36=2,99/5=2) pseudo=read geom=check guess=(re
 ad,tcheck) scf=(maxcycle=1)\\title\\0,1\C,0,-1.173032,-0.205079,-0.000
 008\O,0,0.012106,0.575774,-0.000009\H,0,-1.2377,-0.838757,-0.892025\H,
 0,-1.996492,0.512307,-0.000002\H,0,-1.237685,-0.838772,0.891997\N,0,1.
 148285,-0.311995,0.000037\H,0,1.687655,-0.01311,0.811863\H,0,1.687563,
 -0.013426,-0.811971\\Version=ES64L-G16RevC.01\State=1-A\HF=-170.218389
 3\RMSD=8.783e-03\Dipole=0.1420662,0.01036,-0.0001064\Quadrupole=2.8640

 Normal termination of Gaussian 16 at Tue Apr  8 22:52:35 2025.
