 Gaussian 16, Revision C.01,

 ----------------------------------------------------------------------
 #t hf aug-cc-pvdz symm=none int=(grid=ultrafine) guess=(read,tcheck) s
 table=(opt,rrhf)
 ----------------------------------------------------------------------
 -----
 title
 -----
 Symbolic Z-matrix:
 Charge =  0 Multiplicity = 1

 SCF Done:  E(RHF) =  -1028.56329142     A.U. after   15 cycles
 Normal termination of Gaussian 16 at Wed Apr  9 00:20:48 2025.
 Gaussian 16:  ES64L-G16RevC.01  3-Jul-2019

 ----------------------------------------------------------------------
 #t hf aug-cc-pvdz iop(5/13=1,5/36=2,99/5=2) pseudo=read geom=check gue
 ss=(read,tcheck) scf=(maxcycle=1)
 ----------------------------------------------------------------------
 -----
 title
 -----
 Structure from the checkpoint file:  "BDE49_nonexpt_2612_mol1.chk"
 Charge =  0 Multiplicity = 1

                         Standard orientation:
 ---------------------------------------------------------------------
 Center     Atomic      Atomic             Coordinates (Angstroms)
 Number     Number       Type             X           Y           Z
 ---------------------------------------------------------------------
      1         17           0        2.227133    0.624532    0.000063
      2          7           0       -0.636120   -0.802942   -0.000033
      3          6           0       -1.238483    1.587892   -0.000019
      4          6           0       -1.525030    0.109080   -0.000019
      5          6           0       -2.972224   -0.313743    0.000008
      6         16           0        0.912800   -1.123843   -0.000040
      7          1           0       -0.173620    1.804825   -0.000018
      8          1           0       -1.696540    2.052183    0.879802
      9          1           0       -1.696538    2.052185   -0.879841
     10          1           0       -3.061635   -1.399077    0.000002
     11          1           0       -3.485253    0.087783   -0.880448
     12          1           0       -3.485220    0.087769    0.880490
 ---------------------------------------------------------------------

 SCF Done:  E(RHF) =  -1028.87971293     A.U. after    2 cycles

 The electronic state is 1-A.
 Alpha  occ. eigenvalues -- -105.55501 -94.04634 -15.55453 -11.33135 -11.25814
 Alpha  occ. eigenvalues --  -11.25544 -10.60200  -8.31836  -7.77099  -7.76749
 Alpha  occ. eigenvalues --   -7.76700  -6.29643  -6.29329  -6.29021  -1.29323
 Alpha  occ. eigenvalues --   -1.11267  -1.03597  -0.97966  -0.95974  -0.73961
 Alpha  occ. eigenvalues --   -0.68140  -0.66301  -0.64647  -0.58602  -0.57286
 Alpha  occ. eigenvalues --   -0.56145  -0.55485  -0.52304  -0.47087  -0.45243
 Alpha  occ. eigenvalues --   -0.43869  -0.35122
 Alpha virt. eigenvalues --    0.03025   0.04135   0.04180   0.04673   0.05430
 Alpha virt. eigenvalues --    0.07143   0.07866   0.08583   0.09559   0.09586
 Alpha virt. eigenvalues --    0.12544   0.13108   0.13826   0.14251   0.14818

 Mulliken charges:
               1
     1  Cl  -0.376030
     2  N    0.624388
     3  C   -0.073065
     4  C   -1.678049
     5  C   -0.275169
     6  S    0.553092
     7  H    0.053532
     8  H    0.279056
     9  H    0.279064
    10  H    0.103090
    11  H    0.255045
    12  H    0.255045
 Sum of Mulliken charges =   0.00000

 Dipole moment (field-independent basis, Debye):
    X=             -3.9872    Y=              1.1152    Z=             -0.0000  Tot=              4.1402

 Test job not archived.
 1\1\GINC-SE044\SP\RHF\Aug-CC-pVDZ\C3H6Cl1N1S1\OHZDE\09-Apr-2025\0\\#t
 hf aug-cc-pvdz iop(5/13=1,5/36=2,99/5=2) pseudo=read geom=check guess=
 (read,tcheck) scf=(maxcycle=1)\\title\\0,1\Cl,0,2.227133,0.624532,0.00
 0063\N,0,-0.63612,-0.802942,-0.000033\C,0,-1.238483,1.587892,-0.000019
 \C,0,-1.52503,0.10908,-0.000019\C,0,-2.972224,-0.313743,0.000008\S,0,0
 .9128,-1.123843,-0.00004\H,0,-0.17362,1.804825,-0.000018\H,0,-1.69654,
 2.052183,0.879802\H,0,-1.696538,2.052185,-0.879841\H,0,-3.061635,-1.39
 9077,0.000002\H,0,-3.485253,0.087783,-0.880448\H,0,-3.48522,0.087769,0

 Normal termination of Gaussian 16 at Wed Apr  9 00:20:53 2025.
