 Gaussian 16, Revision C.01,

 ----------------------------------------------------------------------
 #t hf aug-cc-pvdz symm=none int=(grid=ultrafine) guess=(read,tcheck) s
 table=(opt,rrhf)
 ----------------------------------------------------------------------
 -----
 title
 -----
 Symbolic Z-matrix:
 Charge =  0 Multiplicity = 1

 SCF Done:  E(RHF) =  -759.197160721     A.U. after   13 cycles
 Normal termination of Gaussian 16 at Tue Apr  8 23:39:58 2025.
 Gaussian 16:  ES64L-G16RevC.01  3-Jul-2019

 ----------------------------------------------------------------------
 #t hf aug-cc-pvdz iop(5/13=1,5/36=2,99/5=2) pseudo=read geom=check gue
 ss=(read,tcheck) scf=(maxcycle=1)
 ----------------------------------------------------------------------
 -----
 title
 -----
 Structure from the checkpoint file:  "BDE49_nonexpt_1611_mol1.chk"
 Charge =  0 Multiplicity = 1

                         Standard orientation:
 ---------------------------------------------------------------------
 Center     Atomic      Atomic             Coordinates (Angstroms)
 Number     Number       Type             X           Y           Z
 ---------------------------------------------------------------------
      1          6           0        1.260049    0.848665    0.207562
      2          8           0        0.321014   -0.143248   -0.295450
      3         15           0       -1.231396    0.032021   -0.046924
      4          8           0       -1.838397    1.311642   -0.422346
      5          8           0       -1.823555   -1.250515   -0.789730
      6          6           0        2.638969    0.515604   -0.333690
      7          1           0        1.242773    0.809566    1.301178
      8          1           0        0.927918    1.836512   -0.120102
      9          6           0        3.172731   -0.839493    0.136355
     10          1           0        3.314044    1.319330   -0.017758
     11          1           0        2.600402    0.549527   -1.427222
     12          1           0        3.260275   -0.872364    1.226760
     13          1           0        4.161730   -1.036748   -0.284365
     14          1           0        2.505548   -1.647001   -0.170709
     15          8           0       -1.364126   -0.361950    1.497406
     16          1           0       -2.176363   -0.011940    1.881718
     17          1           0       -2.155364   -1.023285   -1.666030
 ---------------------------------------------------------------------

 SCF Done:  E(RHF) =  -759.668639547     A.U. after    2 cycles

 The electronic state is 1-A.
 Alpha  occ. eigenvalues --  -84.45569 -20.59504 -20.59387 -20.57825 -20.50602
 Alpha  occ. eigenvalues --  -11.30742 -11.24311 -11.22858  -6.90441  -4.44642
 Alpha  occ. eigenvalues --   -4.43980  -4.43936  -1.55989  -1.47924  -1.47446
 Alpha  occ. eigenvalues --   -1.38924  -1.07178  -0.94902  -0.85872  -0.81698
 Alpha  occ. eigenvalues --   -0.74016  -0.72269  -0.68009  -0.66204  -0.63739
 Alpha  occ. eigenvalues --   -0.61118  -0.60369  -0.58259  -0.56290  -0.54185
 Alpha  occ. eigenvalues --   -0.53908  -0.51871  -0.50110  -0.49496  -0.48090
 Alpha  occ. eigenvalues --   -0.46003  -0.45405
 Alpha virt. eigenvalues --    0.03614   0.03871   0.04054   0.04477   0.05490
 Alpha virt. eigenvalues --    0.06569   0.07252   0.07851   0.08194   0.11030
 Alpha virt. eigenvalues --    0.11101   0.12417   0.13376   0.14355   0.14938

 Mulliken charges:
               1
     1  C    0.558807
     2  O   -1.889712
     3  P    4.385071
     4  O   -1.391767
     5  O   -1.199346
     6  C   -0.521822
     7  H    0.094885
     8  H    0.057611
     9  C   -0.307536
    10  H    0.190829
    11  H    0.153967
    12  H    0.152486
    13  H    0.112671
    14  H    0.189038
    15  O   -1.235112
    16  H    0.317724
    17  H    0.332207
 Sum of Mulliken charges =  -0.00000

 Dipole moment (field-independent basis, Debye):
    X=              1.1471    Y=             -0.5096    Z=              0.4540  Tot=              1.3348

 Test job not archived.
 1\1\GINC-SE082\SP\RHF\Aug-CC-pVDZ\C3H9O4P1\OHZDE\08-Apr-2025\0\\#t hf
 aug-cc-pvdz iop(5/13=1,5/36=2,99/5=2) pseudo=read geom=check guess=(re
 ad,tcheck) scf=(maxcycle=1)\\title\\0,1\C,0,1.260049,0.848665,0.207562
 \O,0,0.321014,-0.143248,-0.29545\P,0,-1.231396,0.032021,-0.046924\O,0,
 -1.838397,1.311642,-0.422346\O,0,-1.823555,-1.250515,-0.78973\C,0,2.63
 8969,0.515604,-0.33369\H,0,1.242773,0.809566,1.301178\H,0,0.927918,1.8
 36512,-0.120102\C,0,3.172731,-0.839493,0.136355\H,0,3.314044,1.31933,-
 0.017758\H,0,2.600402,0.549527,-1.427222\H,0,3.260275,-0.872364,1.2267

 Normal termination of Gaussian 16 at Tue Apr  8 23:40:05 2025.
