 Gaussian 16, Revision C.01,

 ----------------------------------------------------------------------
 #t hf aug-cc-pvdz symm=none int=(grid=ultrafine) guess=(read,tcheck) s
 table=(opt,rrhf)
 ----------------------------------------------------------------------
 -----
 title
 -----
 Symbolic Z-matrix:
 Charge =  0 Multiplicity = 1

 SCF Done:  E(RHF) =  -257.238126625     A.U. after   15 cycles
 Normal termination of Gaussian 16 at Wed Apr  9 00:36:52 2025.
 Gaussian 16:  ES64L-G16RevC.01  3-Jul-2019

 ----------------------------------------------------------------------
 #t hf aug-cc-pvdz iop(5/13=1,5/36=2,99/5=2) pseudo=read geom=check gue
 ss=(read,tcheck) scf=(maxcycle=1)
 ----------------------------------------------------------------------
 -----
 title
 -----
 Structure from the checkpoint file:  "BDE49_nonexpt_542_mol1.chk"
 Charge =  0 Multiplicity = 1

                         Standard orientation:
 ---------------------------------------------------------------------
 Center     Atomic      Atomic             Coordinates (Angstroms)
 Number     Number       Type             X           Y           Z
 ---------------------------------------------------------------------
      1          9           0        2.225759    0.129394    0.220551
      2          6           0       -0.080170    0.489928   -0.179192
      3          6           0        1.047913   -0.514315   -0.143998
      4          1           0        1.193286   -0.947237   -1.140184
      5          1           0        0.835644   -1.310927    0.572586
      6          7           0       -1.277541    0.179843   -0.027175
      7          5           0       -2.577983   -0.176894    0.136056
      8          1           0       -3.049817   -0.152118    1.231590
      9          1           0       -3.210318   -0.505780   -0.820975
     10          1           0        0.225621    1.523400   -0.378890
 ---------------------------------------------------------------------

 SCF Done:  E(RHF) =  -257.490442402     A.U. after    2 cycles

 The electronic state is 1-A.
 Alpha  occ. eigenvalues --  -26.46525 -15.51902 -11.34433 -11.32641  -7.59682
 Alpha  occ. eigenvalues --   -1.58638  -1.24845  -1.01203  -0.89979  -0.77500
 Alpha  occ. eigenvalues --   -0.71483  -0.69901  -0.66813  -0.59851  -0.58391
 Alpha  occ. eigenvalues --   -0.57838  -0.54056  -0.44348  -0.43694
 Alpha virt. eigenvalues --    0.03645   0.04184   0.04769   0.05279   0.05695
 Alpha virt. eigenvalues --    0.06048   0.06992   0.08752   0.09262   0.11423
 Alpha virt. eigenvalues --    0.13073   0.13238   0.14349   0.14864   0.15218

 Mulliken charges:
               1
     1  F   -0.694358
     2  C   -0.956006
     3  C    0.651120
     4  H    0.184262
     5  H    0.106285
     6  N    0.924108
     7  B   -0.590977
     8  H    0.186945
     9  H    0.192930
    10  H   -0.004310
 Sum of Mulliken charges =  -0.00000

 Dipole moment (field-independent basis, Debye):
    X=              0.6405    Y=             -0.4167    Z=             -0.7727  Tot=              1.0867

 Test job not archived.
 1\1\GINC-SE336\SP\RHF\Aug-CC-pVDZ\C2H5B1F1N1\OHZDE\09-Apr-2025\0\\#t h
 f aug-cc-pvdz iop(5/13=1,5/36=2,99/5=2) pseudo=read geom=check guess=(
 read,tcheck) scf=(maxcycle=1)\\title\\0,1\F,0,-2.225759,0.129394,-0.22
 0551\C,0,0.08017,0.489928,0.179192\C,0,-1.047913,-0.514315,0.143998\H,
 0,-1.193286,-0.947237,1.140184\H,0,-0.835644,-1.310927,-0.572586\N,0,1
 .277541,0.179843,0.027175\B,0,2.577983,-0.176894,-0.136056\H,0,3.04981
 7,-0.152118,-1.23159\H,0,3.210318,-0.50578,0.820975\H,0,-0.225621,1.52
 34,0.37889\\Version=ES64L-G16RevC.01\State=1-A\HF=-257.4904424\RMSD=1.

 Normal termination of Gaussian 16 at Wed Apr  9 00:36:55 2025.
