 Gaussian 16, Revision C.01,

 ----------------------------------------------------------------------
 #t hf aug-cc-pvdz symm=none int=(grid=ultrafine) guess=(read,tcheck) s
 table=(opt,rrhf)
 ----------------------------------------------------------------------
 -----
 title
 -----
 Symbolic Z-matrix:
 Charge =  0 Multiplicity = 1

 SCF Done:  E(RHF) =  -308.271439871     A.U. after   13 cycles
 Normal termination of Gaussian 16 at Wed Apr  9 00:38:57 2025.
 Gaussian 16:  ES64L-G16RevC.01  3-Jul-2019

 ----------------------------------------------------------------------
 #t hf aug-cc-pvdz iop(5/13=1,5/36=2,99/5=2) pseudo=read geom=check gue
 ss=(read,tcheck) scf=(maxcycle=1)
 ----------------------------------------------------------------------
 -----
 title
 -----
 Structure from the checkpoint file:  "BDE49_nonexpt_601_mol1.chk"
 Charge =  0 Multiplicity = 1

                         Standard orientation:
 ---------------------------------------------------------------------
 Center     Atomic      Atomic             Coordinates (Angstroms)
 Number     Number       Type             X           Y           Z
 ---------------------------------------------------------------------
      1          6           0       -1.488724    0.287698   -0.000000
      2          5           0        1.029417   -0.030853   -0.000001
      3          8           0        1.419397    1.286705   -0.000002
      4          8           0        1.996744   -1.001479    0.000002
      5          6           0       -2.744816   -0.167151    0.000002
      6          1           0       -3.576835    0.522640    0.000002
      7          1           0       -2.971802   -1.227812    0.000002
      8          1           0        2.878923   -0.620013    0.000001
      9          1           0        0.704118    1.925746   -0.000004
     10          7           0       -0.330874   -0.476551   -0.000000
     11          1           0       -1.317671    1.361461   -0.000000
     12          1           0       -0.475590   -1.476990    0.000001
 ---------------------------------------------------------------------

 SCF Done:  E(RHF) =  -308.585800271     A.U. after    2 cycles

 The electronic state is 1-A.
 Alpha  occ. eigenvalues --  -20.56280 -20.55122 -15.50468 -11.29010 -11.22276
 Alpha  occ. eigenvalues --   -7.65524  -1.48280  -1.44112  -1.22216  -1.01626
 Alpha  occ. eigenvalues --   -0.83381  -0.78771  -0.75504  -0.70892  -0.66353
 Alpha  occ. eigenvalues --   -0.60602  -0.59572  -0.56190  -0.55729  -0.53969
 Alpha  occ. eigenvalues --   -0.51968  -0.49643  -0.34319
 Alpha virt. eigenvalues --    0.03439   0.04210   0.04597   0.05330   0.05715
 Alpha virt. eigenvalues --    0.06337   0.08225   0.09262   0.10164   0.10554
 Alpha virt. eigenvalues --    0.11607   0.12826   0.13948   0.15574   0.16953

 Mulliken charges:
               1
     1  C   -0.570590
     2  B    1.415608
     3  O   -1.332919
     4  O   -1.192520
     5  C    0.188079
     6  H   -0.084851
     7  H   -0.145306
     8  H    0.507514
     9  H    0.616316
    10  N    1.046066
    11  H   -0.379875
    12  H   -0.067521
 Sum of Mulliken charges =  -0.00000

 Dipole moment (field-independent basis, Debye):
    X=             -0.2871    Y=              0.9615    Z=             -0.0000  Tot=              1.0035

 Test job not archived.
 1\1\GINC-SE015\SP\RHF\Aug-CC-pVDZ\C2H6B1N1O2\OHZDE\09-Apr-2025\0\\#t h
 f aug-cc-pvdz iop(5/13=1,5/36=2,99/5=2) pseudo=read geom=check guess=(
 read,tcheck) scf=(maxcycle=1)\\title\\0,1\C,0,1.488724,0.287698,0.\B,0
 ,-1.029417,-0.030853,0.000001\O,0,-1.419397,1.286705,0.000002\O,0,-1.9
 96744,-1.001479,-0.000002\C,0,2.744816,-0.167151,-0.000002\H,0,3.57683
 5,0.522641,-0.000002\H,0,2.971802,-1.227812,-0.000002\H,0,-2.878923,-0
 .620013,-0.000001\H,0,-0.704118,1.925746,0.000004\N,0,0.330874,-0.4765
 51,0.\H,0,1.317671,1.361461,0.\H,0,0.47559,-1.47699,-0.000001\\Version

 Normal termination of Gaussian 16 at Wed Apr  9 00:39:01 2025.
