 Gaussian 16, Revision C.01,

 ----------------------------------------------------------------------
 #t hf aug-cc-pvdz symm=none int=(grid=ultrafine) guess=(read,tcheck) s
 table=(opt,rrhf)
 ----------------------------------------------------------------------
 -----
 title
 -----
 Symbolic Z-matrix:
 Charge =  0 Multiplicity = 1

 SCF Done:  E(RHF) =  -884.010406841     A.U. after   12 cycles
 Normal termination of Gaussian 16 at Wed Apr  9 00:16:41 2025.
 Gaussian 16:  ES64L-G16RevC.01  3-Jul-2019

 ----------------------------------------------------------------------
 #t hf aug-cc-pvdz iop(5/13=1,5/36=2,99/5=2) pseudo=read geom=check gue
 ss=(read,tcheck) scf=(maxcycle=1)
 ----------------------------------------------------------------------
 -----
 title
 -----
 Structure from the checkpoint file:  "BDE49_nonexpt_2507_mol1.chk"
 Charge =  0 Multiplicity = 1

                         Standard orientation:
 ---------------------------------------------------------------------
 Center     Atomic      Atomic             Coordinates (Angstroms)
 Number     Number       Type             X           Y           Z
 ---------------------------------------------------------------------
      1         14           0        1.103849    1.219312   -0.104944
      2          6           0       -0.564495    0.856737    0.693310
      3          6           0       -3.950932   -0.815775   -0.419484
      4          6           0       -2.932721   -0.116550    0.485569
      5          1           0       -3.574232   -1.783495   -0.764866
      6          1           0       -4.893991   -0.994167    0.104227
      7          6           0       -1.590850    0.150889   -0.209180
      8          1           0       -2.757608   -0.726181    1.380395
      9          1           0       -3.349290    0.833363    0.841905
     10          1           0       -1.767679    0.757223   -1.106237
     11          1           0       -1.174450   -0.798357   -0.565458
     12          1           0       -0.963292    1.821904    1.035495
     13          1           0       -0.395382    0.269225    1.604685
     14         16           0        2.198101   -0.536119   -0.725812
     15          6           0        2.611624   -1.288434    0.903269
     16          1           0        1.716548   -1.629468    1.422934
     17          1           0        3.163970   -0.586004    1.527608
     18          1           0        3.245948   -2.149424    0.693667
     19          1           0       -4.172274   -0.212759   -1.305588
     20          1           0        1.935001    1.994955    0.850583
     21          1           0        0.927478    1.989515   -1.358034
 ---------------------------------------------------------------------

 SCF Done:  E(RHF) =  -884.328971593     A.U. after    2 cycles

 The electronic state is 1-A.
 Alpha  occ. eigenvalues --  -93.92965 -69.54401 -11.27094 -11.23303 -11.22897
 Alpha  occ. eigenvalues --  -11.22508 -11.22333  -8.21227  -6.21271  -6.19028
 Alpha  occ. eigenvalues --   -6.18893  -6.18696  -3.96659  -3.96583  -3.96537
 Alpha  occ. eigenvalues --   -1.07799  -1.04896  -0.98668  -0.88576  -0.86496
 Alpha  occ. eigenvalues --   -0.79894  -0.69944  -0.65065  -0.60106  -0.59974
 Alpha  occ. eigenvalues --   -0.59508  -0.57938  -0.55736  -0.52478  -0.51139
 Alpha  occ. eigenvalues --   -0.50832  -0.48302  -0.47329  -0.46743  -0.44453
 Alpha  occ. eigenvalues --   -0.41797  -0.35588
 Alpha virt. eigenvalues --    0.03222   0.03389   0.03786   0.03883   0.05330
 Alpha virt. eigenvalues --    0.05392   0.05727   0.06463   0.07084   0.07976
 Alpha virt. eigenvalues --    0.08275   0.08829   0.09268   0.10456   0.10801

 Mulliken charges:
               1
     1  Si   1.273275
     2  C   -0.563158
     3  C   -0.380763
     4  C   -0.214101
     5  H    0.160589
     6  H    0.114083
     7  C   -0.260347
     8  H    0.120089
     9  H    0.124309
    10  H    0.089934
    11  H    0.095299
    12  H    0.075995
    13  H    0.119756
    14  S   -0.405518
    15  C   -0.681981
    16  H    0.119879
    17  H    0.156746
    18  H    0.139799
    19  H    0.162641
    20  H   -0.089373
    21  H   -0.157153
 Sum of Mulliken charges =  -0.00000

 Dipole moment (field-independent basis, Debye):
    X=             -0.8936    Y=             -0.0729    Z=              1.9236  Tot=              2.1222

 Test job not archived.
 1\1\GINC-SE126\SP\RHF\Aug-CC-pVDZ\C5H14S1Si1\OHZDE\09-Apr-2025\0\\#t h
 f aug-cc-pvdz iop(5/13=1,5/36=2,99/5=2) pseudo=read geom=check guess=(
 read,tcheck) scf=(maxcycle=1)\\title\\0,1\Si,0,1.103849,1.219312,-0.10
 4944\C,0,-0.564495,0.856737,0.69331\C,0,-3.950932,-0.815775,-0.419484\
 C,0,-2.932721,-0.11655,0.485569\H,0,-3.574232,-1.783495,-0.764866\H,0,
 -4.893991,-0.994167,0.104227\C,0,-1.59085,0.150889,-0.20918\H,0,-2.757
 608,-0.726181,1.380395\H,0,-3.34929,0.833363,0.841905\H,0,-1.767679,0.
 757223,-1.106237\H,0,-1.17445,-0.798357,-0.565458\H,0,-0.963292,1.8219

 Normal termination of Gaussian 16 at Wed Apr  9 00:16:52 2025.
