 Gaussian 16, Revision C.01,

 ----------------------------------------------------------------------
 #t hf aug-cc-pvdz symm=none int=(grid=ultrafine) guess=(read,tcheck) s
 table=opt
 ----------------------------------------------------------------------
 -----
 title
 -----
 Symbolic Z-matrix:
 Charge =  0 Multiplicity = 2

 SCF Done:  E(UHF) =  -517.311760057     A.U. after   20 cycles
 Normal termination of Gaussian 16 at Tue Apr  8 23:45:24 2025.
 Gaussian 16:  ES64L-G16RevC.01  3-Jul-2019

 ----------------------------------------------------------------------
 #t hf aug-cc-pvdz iop(5/13=1,5/36=2,99/5=2) pseudo=read geom=check gue
 ss=(read,tcheck) scf=(maxcycle=1)
 ----------------------------------------------------------------------
 -----
 title
 -----
 Structure from the checkpoint file:  "BDE49_nonexpt_1746_mol2.chk"
 Charge =  0 Multiplicity = 2

                         Standard orientation:
 ---------------------------------------------------------------------
 Center     Atomic      Atomic             Coordinates (Angstroms)
 Number     Number       Type             X           Y           Z
 ---------------------------------------------------------------------
      1          6           0       -2.166998    0.445406    0.176586
      2         14           0       -0.751086   -0.713668   -0.218899
      3          1           0       -2.045737    1.375772   -0.381449
      4          1           0       -2.165966    0.687674    1.244180
      5          1           0       -3.131007    0.000146   -0.078049
      6          6           0        0.917819    0.214198   -0.017297
      7          8           0        0.955521    1.415316   -0.081424
      8          8           0        2.073360   -0.493969    0.146506
      9          1           0        1.873319   -1.435993    0.211712
     10          1           0       -0.751379   -1.964654    0.591798
 ---------------------------------------------------------------------

 SCF Done:  E(UHF) =  -517.567029169     A.U. after    2 cycles

 The electronic state is 2-A.
 Alpha  occ. eigenvalues --  -69.56341 -20.60290 -20.54606 -11.38269 -11.24187
 Alpha  occ. eigenvalues --   -6.23531  -3.99474  -3.98583  -3.98546  -1.54078
 Alpha  occ. eigenvalues --   -1.45847  -0.97870  -0.85500  -0.79218  -0.67162
 Alpha  occ. eigenvalues --   -0.64958  -0.62444  -0.59463  -0.58724  -0.55178
 Alpha  occ. eigenvalues --   -0.49454  -0.48630  -0.42709  -0.35019
 Alpha virt. eigenvalues --    0.02976   0.03374   0.04398   0.05142   0.06816
 Alpha virt. eigenvalues --    0.07386   0.07945   0.08914   0.10627   0.11184
 Alpha virt. eigenvalues --    0.13086   0.14024   0.14989   0.15543   0.16356

  Beta  occ. eigenvalues --  -69.55777 -20.60312 -20.54191 -11.38394 -11.24150
  Beta  occ. eigenvalues --   -6.22682  -3.98193  -3.98158  -3.97284  -1.53907
  Beta  occ. eigenvalues --   -1.45167  -0.97165  -0.84872  -0.77752  -0.66261
  Beta  occ. eigenvalues --   -0.63308  -0.61880  -0.59235  -0.57761  -0.54734
  Beta  occ. eigenvalues --   -0.48732  -0.46773  -0.41745
  Beta virt. eigenvalues --    0.00977   0.03304   0.03546   0.04943   0.05459
  Beta virt. eigenvalues --    0.06969   0.07717   0.08189   0.09495   0.10974
  Beta virt. eigenvalues --    0.11656   0.14393   0.14445   0.15603   0.16352

 Mulliken charges and spin densities:
               1          2
     1  C   -0.695372   0.010643
     2  Si   1.103437   0.971908
     3  H    0.106833  -0.000940
     4  H    0.119309   0.009131
     5  H    0.010033  -0.002440
     6  C    1.327353  -0.101880
     7  O   -1.038275   0.104903
     8  O   -1.158287   0.002841
     9  H    0.414061  -0.006783
    10  H   -0.189093   0.012617
 Sum of Mulliken charges =  -0.00000   1.00000

 Dipole moment (field-independent basis, Debye):
    X=             -2.4754    Y=             -3.1986    Z=              0.3442  Tot=              4.0592
                          Isotropic Fermi Contact Couplings
        Atom                 a.u.       MegaHertz       Gauss      10(-4) cm-1
     1  C(13)              0.00839       9.43748       3.36753       3.14800
     2  Si(29)             0.56710    -503.99992    -179.83971    -168.11628
     3  H(1)               0.00027       1.20432       0.42973       0.40172
     4  H(1)               0.00987      44.12614      15.74531      14.71890
     5  H(1)               0.00057       2.54539       0.90826       0.84905
     6  C(13)             -0.00498      -5.60195      -1.99891      -1.86861
     7  O(17)              0.03158     -19.14215      -6.83040      -6.38513
     8  O(17)             -0.00396       2.40236       0.85722       0.80134

 Normal termination of Gaussian 16 at Tue Apr  8 23:45:27 2025.
