 Gaussian 16, Revision C.01,

 ----------------------------------------------------------------------
 #t hf aug-cc-pvdz symm=none int=(grid=ultrafine) guess=(read,tcheck) s
 table=opt
 ----------------------------------------------------------------------
 -----
 title
 -----
 Symbolic Z-matrix:
 Charge =  0 Multiplicity = 2

 SCF Done:  E(UHF) =  -227.197846545     a.u. after   13 cycles
 Normal termination of Gaussian 16 at Tue Apr  8 22:42:36 2025.
 Gaussian 16:  ES64L-G16RevC.01  3-Jul-2019

 ----------------------------------------------------------------------
 #t hf aug-cc-pvdz iop(5/13=1,5/36=2,99/5=2) pseudo=read geom=check gue
 ss=(read,tcheck) scf=(maxcycle=1)
 ----------------------------------------------------------------------
 -----
 title
 -----
 Structure from the checkpoint file:  "BDE49_expt_1454_mol3.chk"
 Charge =  0 Multiplicity = 2

                         Standard orientation:
 ---------------------------------------------------------------------
 Center     Atomic      Atomic             Coordinates (Angstroms)
 Number     Number       Type             X           Y           Z
 ---------------------------------------------------------------------
      1          8           0        0.809489   -1.041122    0.001702
      2          6           0        0.106104    0.000011   -0.008169
      3          8           0        0.809551    1.041090    0.001702
      4          6           0       -1.387291    0.000036   -0.002805
      5          1           0       -1.764073   -0.895868   -0.498458
      6          1           0       -1.764071    0.897176   -0.496208
      7          1           0       -1.737054   -0.001324    1.033275
 ---------------------------------------------------------------------

 SCF Done:  E(UHF) =  -227.418296272     A.U. after    2 cycles

 The electronic state is 2-A.
 Alpha  occ. eigenvalues --  -20.68922 -20.53788 -11.40978 -11.28510  -1.63219
 Alpha  occ. eigenvalues --   -1.43493  -1.05784  -0.83208  -0.77256  -0.70269
 Alpha  occ. eigenvalues --   -0.70046  -0.60639  -0.60546  -0.58208  -0.46985
 Alpha  occ. eigenvalues --   -0.45909
 Alpha virt. eigenvalues --    0.02913   0.04734   0.05338   0.07864   0.11383
 Alpha virt. eigenvalues --    0.11457   0.11842   0.13698   0.14306   0.15194
 Alpha virt. eigenvalues --    0.15662   0.19832   0.22788   0.23451   0.25129

  Beta  occ. eigenvalues --  -20.64821 -20.53279 -11.41276 -11.28426  -1.53171
  Beta  occ. eigenvalues --   -1.38583  -1.04846  -0.79520  -0.69623  -0.67985
  Beta  occ. eigenvalues --   -0.64647  -0.59142  -0.59071  -0.45477  -0.43827
  Beta virt. eigenvalues --    0.02444   0.04312   0.04950   0.05495   0.07955
  Beta virt. eigenvalues --    0.11471   0.11575   0.12524   0.13822   0.14535
  Beta virt. eigenvalues --    0.15201   0.15709   0.19900   0.23165   0.23589

 Mulliken charges and spin densities:
               1          2
     1  O   -0.797747   1.062072
     2  C    1.798301  -0.204535
     3  O   -1.175319   0.081138
     4  C   -0.498944   0.054648
     5  H    0.196382   0.008159
     6  H    0.211430  -0.000768
     7  H    0.265897  -0.000713
 Sum of Mulliken charges =  -0.00000   1.00000

 Dipole moment (field-independent basis, Debye):
    X=             -3.4718    Y=             -1.9098    Z=              0.0108  Tot=              3.9624
                          Isotropic Fermi Contact Couplings
        Atom                 a.u.       MegaHertz       Gauss      10(-4) cm-1
     1  O(17)              0.25899    -157.00115     -56.02191     -52.36995
     2  C(13)             -0.05341     -60.04184     -21.42442     -20.02780
     3  O(17)              0.03685     -22.33992      -7.97144      -7.45180
     4  C(13)              0.01151      12.93870       4.61685       4.31589
     5  H(1)              -0.00007      -0.32380      -0.11554      -0.10801
     6  H(1)               0.00169       7.56894       2.70079       2.52473
     7  H(1)              -0.00079      -3.54757      -1.26586      -1.18334
 --------------------------------------------------------

 Normal termination of Gaussian 16 at Tue Apr  8 22:42:38 2025.
