 Gaussian 16, Revision C.01,

 ----------------------------------------------------------------------
 #t hf aug-cc-pvdz symm=none int=(grid=ultrafine) guess=(read,tcheck) s
 table=(opt,rrhf)
 ----------------------------------------------------------------------
 -----
 title
 -----
 Symbolic Z-matrix:
 Charge =  0 Multiplicity = 1

 SCF Done:  E(RHF) =  -645.270075483     A.U. after   13 cycles
 Normal termination of Gaussian 16 at Tue Apr  8 23:28:18 2025.
 Gaussian 16:  ES64L-G16RevC.01  3-Jul-2019

 ----------------------------------------------------------------------
 #t hf aug-cc-pvdz iop(5/13=1,5/36=2,99/5=2) pseudo=read geom=check gue
 ss=(read,tcheck) scf=(maxcycle=1)
 ----------------------------------------------------------------------
 -----
 title
 -----
 Structure from the checkpoint file:  "BDE49_nonexpt_1328_mol1.chk"
 Charge =  0 Multiplicity = 1

                         Standard orientation:
 ---------------------------------------------------------------------
 Center     Atomic      Atomic             Coordinates (Angstroms)
 Number     Number       Type             X           Y           Z
 ---------------------------------------------------------------------
      1          6           0       -1.125310    0.823028   -0.162657
      2         15           0        0.436306   -0.032571    0.099976
      3          8           0        0.708094   -0.650061    1.408420
      4          8           0        0.454279   -1.091967   -1.118019
      5          6           0       -2.343758   -0.073174    0.092906
      6          1           0       -1.116974    1.208263   -1.186485
      7          1           0       -1.119101    1.687113    0.507503
      8          1           0       -2.356669   -0.919028   -0.597115
      9          1           0       -3.267969    0.492055   -0.045265
     10          1           0       -2.332369   -0.465439    1.111685
     11          8           0        1.500798    1.102445   -0.319128
     12          1           0        2.310241    1.032033    0.201226
     13          1           0        0.847296   -1.928898   -0.842866
 ---------------------------------------------------------------------

 SCF Done:  E(RHF) =  -645.628395386     A.U. after    2 cycles

 The electronic state is 1-A.
 Alpha  occ. eigenvalues --  -84.42171 -20.58781 -20.58683 -20.49998 -11.25659
 Alpha  occ. eigenvalues --  -11.24360  -6.87513  -4.41588  -4.40994  -4.40215
 Alpha  occ. eigenvalues --   -1.52600  -1.47058  -1.38226  -1.06224  -0.90601
 Alpha  occ. eigenvalues --   -0.81164  -0.72620  -0.67730  -0.64799  -0.63227
 Alpha  occ. eigenvalues --   -0.61887  -0.58201  -0.54677  -0.53865  -0.52286
 Alpha  occ. eigenvalues --   -0.51576  -0.50058  -0.45173  -0.44100
 Alpha virt. eigenvalues --    0.03494   0.04053   0.04358   0.05300   0.06164
 Alpha virt. eigenvalues --    0.07167   0.07684   0.10214   0.11866   0.12194
 Alpha virt. eigenvalues --    0.13430   0.14542   0.15248   0.15817   0.16908

 Mulliken charges:
               1
     1  C   -0.955306
     2  P    4.270619
     3  O   -1.500190
     4  O   -1.361538
     5  C   -0.432070
     6  H    0.125306
     7  H    0.122398
     8  H    0.155164
     9  H    0.123087
    10  H    0.159507
    11  O   -1.378708
    12  H    0.341578
    13  H    0.330153
 Sum of Mulliken charges =  -0.00000

 Dipole moment (field-independent basis, Debye):
    X=             -0.3347    Y=              0.5741    Z=             -1.5512  Tot=              1.6876

 Test job not archived.
 1\1\GINC-SE424\SP\RHF\Aug-CC-pVDZ\C2H7O3P1\OHZDE\08-Apr-2025\0\\#t hf
 aug-cc-pvdz iop(5/13=1,5/36=2,99/5=2) pseudo=read geom=check guess=(re
 ad,tcheck) scf=(maxcycle=1)\\title\\0,1\C,0,1.12531,-0.823028,-0.16265
 7\P,0,-0.436306,0.032571,0.099976\O,0,-0.708094,0.650061,1.40842\O,0,-
 0.454279,1.091967,-1.118019\C,0,2.343758,0.073173,0.092906\H,0,1.11697
 4,-1.208263,-1.186485\H,0,1.119101,-1.687113,0.507503\H,0,2.356669,0.9
 19027,-0.597115\H,0,3.267969,-0.492056,-0.045265\H,0,2.332369,0.465438
 ,1.111685\O,0,-1.500798,-1.102445,-0.319128\H,0,-2.310241,-1.032033,0.

 Normal termination of Gaussian 16 at Tue Apr  8 23:28:21 2025.
