 Gaussian 16, Revision C.01,

 ----------------------------------------------------------------------
 #t hf aug-cc-pvdz symm=none int=(grid=ultrafine) guess=(read,tcheck) s
 table=(opt,rrhf)
 ----------------------------------------------------------------------
 -----
 title
 -----
 Symbolic Z-matrix:
 Charge =  0 Multiplicity = 1

 SCF Done:  E(RHF) =  -1138.42023109     A.U. after   15 cycles
 Normal termination of Gaussian 16 at Wed Apr  9 00:21:44 2025.
 Gaussian 16:  ES64L-G16RevC.01  3-Jul-2019

 ----------------------------------------------------------------------
 #t hf aug-cc-pvdz iop(5/13=1,5/36=2,99/5=2) pseudo=read geom=check gue
 ss=(read,tcheck) scf=(maxcycle=1)
 ----------------------------------------------------------------------
 -----
 title
 -----
 Structure from the checkpoint file:  "BDE49_nonexpt_2647_mol1.chk"
 Charge =  0 Multiplicity = 1

                         Standard orientation:
 ---------------------------------------------------------------------
 Center     Atomic      Atomic             Coordinates (Angstroms)
 Number     Number       Type             X           Y           Z
 ---------------------------------------------------------------------
      1          9           0       -2.409310    0.867313    0.117330
      2         16           0       -1.755735   -0.638668   -0.066558
      3         15           0        1.028503   -0.029140   -0.095229
      4          8           0        1.424716   -0.951649   -1.153966
      5          8           0        2.036412    0.165315    1.114914
      6          1           0        2.523724   -0.641146    1.322319
      7          8           0        0.705006    1.464152   -0.514696
      8          1           0        1.015674    1.668262   -1.404874
      9          8           0       -0.315057   -0.449961    0.743740
 ---------------------------------------------------------------------

 SCF Done:  E(RHF) =  -1138.90288597     A.U. after    2 cycles

 The electronic state is 1-A.
 Alpha  occ. eigenvalues --  -94.11168 -84.48634 -26.49547 -20.63699 -20.61815
 Alpha  occ. eigenvalues --  -20.61759 -20.53135  -8.37730  -6.93475  -6.35471
 Alpha  occ. eigenvalues --   -6.35248  -6.34807  -4.47654  -4.46980  -4.46692
 Alpha  occ. eigenvalues --   -1.60908  -1.58312  -1.50940  -1.50415  -1.41639
 Alpha  occ. eigenvalues --   -1.01025  -0.87841  -0.75993  -0.75173  -0.71148
 Alpha  occ. eigenvalues --   -0.68882  -0.68253  -0.65590  -0.65394  -0.60094
 Alpha  occ. eigenvalues --   -0.59536  -0.57306  -0.55030  -0.54802  -0.48658
 Alpha  occ. eigenvalues --   -0.48429  -0.40304
 Alpha virt. eigenvalues --    0.03271   0.04385   0.06488   0.06815   0.08551
 Alpha virt. eigenvalues --    0.09795   0.10938   0.12248   0.12966   0.15853
 Alpha virt. eigenvalues --    0.16665   0.17460   0.18490   0.19747   0.19948

 Mulliken charges:
               1
     1  F   -0.635588
     2  S    1.223606
     3  P    3.955681
     4  O   -1.311592
     5  O   -1.242626
     6  H    0.352545
     7  O   -1.272846
     8  H    0.376393
     9  O   -1.445573
 Sum of Mulliken charges =  -0.00000

 Dipole moment (field-independent basis, Debye):
    X=              1.0857    Y=              0.1277    Z=              0.3492  Tot=              1.1476

 Test job not archived.
 1\1\GINC-SE455\SP\RHF\Aug-CC-pVDZ\F1H2O4P1S1\OHZDE\09-Apr-2025\0\\#t h
 f aug-cc-pvdz iop(5/13=1,5/36=2,99/5=2) pseudo=read geom=check guess=(
 read,tcheck) scf=(maxcycle=1)\\title\\0,1\F,0,-2.40931,0.867313,0.1173
 3\S,0,-1.755735,-0.638668,-0.066558\P,0,1.028503,-0.02914,-0.095229\O,
 0,1.424716,-0.951649,-1.153966\O,0,2.036412,0.165315,1.114914\H,0,2.52
 3724,-0.641146,1.322319\O,0,0.705006,1.464152,-0.514696\H,0,1.015674,1
 .668262,-1.404874\O,0,-0.315057,-0.449961,0.74374\\Version=ES64L-G16Re
 vC.01\State=1-A\HF=-1138.902886\RMSD=8.651e-03\Dipole=0.4271483,0.0502

 Normal termination of Gaussian 16 at Wed Apr  9 00:21:48 2025.
