 Gaussian 16, Revision C.01,

 ----------------------------------------------------------------------
 #t hf aug-cc-pvdz symm=none int=(grid=ultrafine) guess=(read,tcheck) s
 table=(opt,rrhf)
 ----------------------------------------------------------------------
 -----
 title
 -----
 Symbolic Z-matrix:
 Charge =  0 Multiplicity = 1

 SCF Done:  E(RHF) =  -1732.74257166     A.U. after   15 cycles
 Normal termination of Gaussian 16 at Wed Apr  9 00:53:13 2025.
 Gaussian 16:  ES64L-G16RevC.01  3-Jul-2019

 ----------------------------------------------------------------------
 #t hf aug-cc-pvdz iop(5/13=1,5/36=2,99/5=2) pseudo=read geom=check gue
 ss=(read,tcheck) scf=(maxcycle=1)
 ----------------------------------------------------------------------
 -----
 title
 -----
 Structure from the checkpoint file:  "BDE49_nonexpt_983_mol1.chk"
 Charge =  0 Multiplicity = 1

                         Standard orientation:
 ---------------------------------------------------------------------
 Center     Atomic      Atomic             Coordinates (Angstroms)
 Number     Number       Type             X           Y           Z
 ---------------------------------------------------------------------
      1         16           0        1.022015   -1.185062    0.024358
      2          7           0        2.374541    0.087685    0.036409
      3          8           0        2.204360    1.126094    0.607688
      4          8           0        3.341950   -0.326401   -0.561179
      5          8           0       -0.129081   -0.407877    0.943095
      6          6           0       -1.226499    0.193963    0.326038
      7          9           0       -1.911256    0.747095    1.324800
      8         17           0       -2.270149   -1.034703   -0.474741
      9         17           0       -0.774060    1.465588   -0.845310
 ---------------------------------------------------------------------

 SCF Done:  E(RHF) =  -1733.33483944     A.U. after    2 cycles

 The electronic state is 1-A.
 Alpha  occ. eigenvalues -- -105.61870-105.61750 -94.11688 -26.54116 -20.67716
 Alpha  occ. eigenvalues --  -20.63818 -20.63097 -15.83754 -11.55859 -10.66738
 Alpha  occ. eigenvalues --  -10.66620  -8.38724  -7.83681  -7.83569  -7.83251
 Alpha  occ. eigenvalues --   -7.83239  -7.83131  -7.83116  -6.36468  -6.36255
 Alpha  occ. eigenvalues --   -6.35893  -1.72116  -1.70089  -1.57767  -1.56611
 Alpha  occ. eigenvalues --   -1.18190  -1.12474  -1.09942  -0.96489  -0.88961
 Alpha  occ. eigenvalues --   -0.83183  -0.79717  -0.78871  -0.78043  -0.77226
 Alpha  occ. eigenvalues --   -0.75281  -0.66586  -0.64898  -0.62004  -0.56091
 Alpha  occ. eigenvalues --   -0.54217  -0.53181  -0.52186  -0.50946  -0.49555
 Alpha  occ. eigenvalues --   -0.49038  -0.48362  -0.45552
 Alpha virt. eigenvalues --    0.03001   0.04105   0.05419   0.06543   0.07807
 Alpha virt. eigenvalues --    0.08793   0.09475   0.10235   0.11108   0.11416
 Alpha virt. eigenvalues --    0.12059   0.13959   0.14997   0.15653   0.15796

 Mulliken charges:
               1
     1  S    1.009189
     2  N    1.778223
     3  O   -1.098230
     4  O   -1.138304
     5  O   -1.164113
     6  C    1.147010
     7  F   -0.591201
     8  Cl   0.034289
     9  Cl   0.023136
 Sum of Mulliken charges =  -0.00000

 Dipole moment (field-independent basis, Debye):
    X=             -1.5961    Y=             -1.5189    Z=             -0.4111  Tot=              2.2414

 Test job not archived.
 1\1\GINC-SE366\SP\RHF\Aug-CC-pVDZ\C1Cl2F1N1O3S1\OHZDE\09-Apr-2025\0\\#
 t hf aug-cc-pvdz iop(5/13=1,5/36=2,99/5=2) pseudo=read geom=check gues
 s=(read,tcheck) scf=(maxcycle=1)\\title\\0,1\S,0,1.022015,-1.185062,0.
 024358\N,0,2.374541,0.087685,0.036409\O,0,2.20436,1.126094,0.607688\O,
 0,3.34195,-0.326401,-0.561179\O,0,-0.129081,-0.407877,0.943095\C,0,-1.
 226499,0.193963,0.326038\F,0,-1.911256,0.747095,1.3248\Cl,0,-2.270149,
 -1.034703,-0.474741\Cl,0,-0.77406,1.465588,-0.84531\\Version=ES64L-G16
 RevC.01\State=1-A\HF=-1733.3348394\RMSD=8.954e-03\Dipole=-0.627953,-0.

 Normal termination of Gaussian 16 at Wed Apr  9 00:53:17 2025.
