 Gaussian 16, Revision C.01,

 ----------------------------------------------------------------------
 #t hf aug-cc-pvdz symm=none int=(grid=ultrafine) guess=(read,tcheck) s
 table=(opt,rrhf)
 ----------------------------------------------------------------------
 -----
 title
 -----
 Symbolic Z-matrix:
 Charge =  0 Multiplicity = 1

 SCF Done:  E(RHF) =  -1376.48450536     A.U. after   12 cycles

 1\1\GINC-SE419\Stability\RHF\Aug-CC-pVDZ\H6S2Si2\OHZDE\09-Apr-2025\0\\
 #t hf aug-cc-pvdz symm=none int=(grid=ultrafine) guess=(read,tcheck) s
 table=(opt,rrhf)\\title\\0,1\Si,0,1.132637,0.939402,0.335575\Si,0,-1.1
 32637,0.939402,-0.335575\S,0,-2.119819,-0.913038,0.225143\H,0,-1.23971
 1,1.1617,-1.796844\H,0,-1.899402,1.985873,0.379867\H,0,-1.379351,-1.69
 0605,-0.586478\S,0,2.119819,-0.913038,-0.225143\H,0,1.239711,1.1617,1.
 796844\H,0,1.899402,1.985873,-0.379867\H,0,1.379351,-1.690605,0.586478
 \\Version=ES64L-G16RevC.01\HF=-1376.4845054\RMSD=2.039e-09\Dipole=0.,0

 Normal termination of Gaussian 16 at Wed Apr  9 00:12:36 2025.
 Gaussian 16:  ES64L-G16RevC.01  3-Jul-2019

 ----------------------------------------------------------------------
 #t hf aug-cc-pvdz iop(5/13=1,5/36=2,99/5=2) pseudo=read geom=check gue
 ss=(read,tcheck) scf=(maxcycle=1)
 ----------------------------------------------------------------------
 -----
 title
 -----
 Structure from the checkpoint file:  "BDE49_nonexpt_2415_mol1.chk"
 Charge =  0 Multiplicity = 1

                         Standard orientation:
 ---------------------------------------------------------------------
 Center     Atomic      Atomic             Coordinates (Angstroms)
 Number     Number       Type             X           Y           Z
 ---------------------------------------------------------------------
      1         14           0       -0.851188   -0.819119    0.939402
      2         14           0        0.851188    0.819119    0.939402
      3         16           0        0.851188    1.954431   -0.913038
      4          1           0        2.174680    0.190518    1.161700
      5          1           0        0.607790    1.839190    1.985873
      6          1           0        1.191204    0.909725   -1.690605
      7         16           0       -0.851188   -1.954431   -0.913038
      8          1           0       -2.174680   -0.190518    1.161700
      9          1           0       -0.607790   -1.839190    1.985873
     10          1           0       -1.191204   -0.909725   -1.690605
 ---------------------------------------------------------------------

 SCF Done:  E(RHF) =  -1376.67748477     A.U. after    2 cycles

 The electronic state is 1-A.
 Alpha  occ. eigenvalues --  -93.95472 -93.95471 -69.56505 -69.56505  -8.23718
 Alpha  occ. eigenvalues --   -8.23717  -6.23433  -6.23422  -6.21533  -6.21533
 Alpha  occ. eigenvalues --   -6.21429  -6.21429  -6.21202  -6.21202  -3.98813
 Alpha  occ. eigenvalues --   -3.98797  -3.98729  -3.98714  -3.98697  -3.98644
 Alpha  occ. eigenvalues --   -1.01786  -1.00844  -0.77326  -0.69600  -0.56948
 Alpha  occ. eigenvalues --   -0.56925  -0.50677  -0.50215  -0.49004  -0.46080
 Alpha  occ. eigenvalues --   -0.44365  -0.39464  -0.36789
 Alpha virt. eigenvalues --    0.03664   0.03975   0.04047   0.05517   0.06619
 Alpha virt. eigenvalues --    0.06686   0.07278   0.07851   0.08141   0.09697
 Alpha virt. eigenvalues --    0.10406   0.10539   0.11698   0.11845   0.12131

 Mulliken charges:
               1
     1  Si   0.809108
     2  Si   0.809108
     3  S   -0.880667
     4  H   -0.121708
     5  H   -0.141700
     6  H    0.334967
     7  S   -0.880667
     8  H   -0.121708
     9  H   -0.141700
    10  H    0.334967
 Sum of Mulliken charges =  -0.00000

 Dipole moment (field-independent basis, Debye):
    X=              0.0000    Y=             -0.0000    Z=              0.8626  Tot=              0.8626

 Test job not archived.
 1\1\GINC-SE419\SP\RHF\Aug-CC-pVDZ\H6S2Si2\OHZDE\09-Apr-2025\0\\#t hf a
 ug-cc-pvdz iop(5/13=1,5/36=2,99/5=2) pseudo=read geom=check guess=(rea
 d,tcheck) scf=(maxcycle=1)\\title\\0,1\Si,0,1.132637,0.939402,0.335575
 \Si,0,-1.132637,0.939402,-0.335575\S,0,-2.119819,-0.913038,0.225143\H,
 0,-1.239711,1.1617,-1.796844\H,0,-1.899402,1.985873,0.379867\H,0,-1.37
 9351,-1.690605,-0.586478\S,0,2.119819,-0.913038,-0.225143\H,0,1.239711
 ,1.1617,1.796844\H,0,1.899402,1.985873,-0.379867\H,0,1.379351,-1.69060
 5,0.586478\\Version=ES64L-G16RevC.01\State=1-A\HF=-1376.6774848\RMSD=3

 Normal termination of Gaussian 16 at Wed Apr  9 00:12:40 2025.
