 Gaussian 16, Revision C.01,

 ----------------------------------------------------------------------
 #t hf aug-cc-pvdz symm=none int=(grid=ultrafine) guess=(read,tcheck) s
 table=(opt,rrhf)
 ----------------------------------------------------------------------
 -----
 title
 -----
 Symbolic Z-matrix:
 Charge =  0 Multiplicity = 1

 SCF Done:  E(RHF) =  -720.900832134     A.U. after   18 cycles
 Normal termination of Gaussian 16 at Tue Apr  8 23:07:12 2025.
 Gaussian 16:  ES64L-G16RevC.01  3-Jul-2019

 ----------------------------------------------------------------------
 #t hf aug-cc-pvdz iop(5/13=1,5/36=2,99/5=2) pseudo=read geom=check gue
 ss=(read,tcheck) scf=(maxcycle=1)
 ----------------------------------------------------------------------
 -----
 title
 -----
 Structure from the checkpoint file:  "BDE49_expt_1771_mol1.chk"
 Charge =  0 Multiplicity = 1

                         Standard orientation:
 ---------------------------------------------------------------------
 Center     Atomic      Atomic             Coordinates (Angstroms)
 Number     Number       Type             X           Y           Z
 ---------------------------------------------------------------------
      1          6           0       -3.542653    0.848805   -0.808815
      2          6           0       -3.849682   -0.507669   -0.730862
      3          6           0       -2.885762   -1.401770   -0.285791
      4          6           0       -2.273281    1.281968   -0.457030
      5          6           0       -1.305223    0.376826   -0.001465
      6          6           0       -1.601337   -0.993352    0.100712
      7          1           0       -4.280270    1.563514   -1.154485
      8          1           0       -4.833282   -0.866058   -1.011795
      9          1           0       -3.131480   -2.456856   -0.216031
     10          1           0       -2.009921    2.328992   -0.525211
     11          6           0        1.573085   -0.914276    0.394314
     12          6           0        1.211814    0.347652   -0.084656
     13          7           0       -0.029858    0.917540    0.360170
     14          7           0       -0.072464    2.048484    1.135252
     15          8           0        1.000270    2.541581    1.396175
     16          6           0        2.781113   -1.464498   -0.039387
     17          6           0        3.612737   -0.763953   -0.909156
     18          6           0        3.241847    0.499321   -1.365437
     19          6           0        2.036560    1.058443   -0.953792
     20          1           0        3.073597   -2.447077    0.315953
     21          1           0        4.551084   -1.202626   -1.229061
     22          1           0        3.888167    1.048535   -2.039951
     23          1           0        1.735835    2.040186   -1.295992
     24          6           0       -0.657903   -2.079773    0.596775
     25          6           0        0.629709   -1.642547    1.314642
     26          1           0       -0.377919   -2.709711   -0.256652
     27          1           0       -1.229486   -2.725223    1.271538
     28          1           0        0.378803   -1.007148    2.170452
     29          1           0        1.122826   -2.532417    1.713571
 ---------------------------------------------------------------------

 SCF Done:  E(RHF) =  -721.623326474     A.U. after    2 cycles

 The electronic state is 1-A.
 Alpha  occ. eigenvalues --  -20.58132 -15.67452 -15.57228 -11.29514 -11.28582
 Alpha  occ. eigenvalues --  -11.26280 -11.25841 -11.25464 -11.25321 -11.25229
 Alpha  occ. eigenvalues --  -11.25102 -11.25050 -11.24959 -11.24872 -11.24864
 Alpha  occ. eigenvalues --  -11.24849 -11.24793  -1.58750  -1.30783  -1.17056
 Alpha  occ. eigenvalues --   -1.16486  -1.09560  -1.04626  -1.04299  -1.03519
 Alpha  occ. eigenvalues --   -0.99412  -0.93757  -0.90599  -0.85566  -0.84689
 Alpha  occ. eigenvalues --   -0.82023  -0.80270  -0.75944  -0.74451  -0.70286
 Alpha  occ. eigenvalues --   -0.69658  -0.68619  -0.65932  -0.65042  -0.64862
 Alpha  occ. eigenvalues --   -0.62993  -0.62293  -0.61031  -0.60377  -0.57645
 Alpha  occ. eigenvalues --   -0.56609  -0.55213  -0.53591  -0.53063  -0.52044
 Alpha  occ. eigenvalues --   -0.50691  -0.50037  -0.49814  -0.45498  -0.43345
 Alpha  occ. eigenvalues --   -0.35416  -0.34859  -0.34635  -0.34008
 Alpha virt. eigenvalues --    0.02955   0.03060   0.03290   0.03680   0.03801
 Alpha virt. eigenvalues --    0.04645   0.05882   0.06064   0.06281   0.06962
 Alpha virt. eigenvalues --    0.07533   0.08161   0.08367   0.09237   0.10214

 Mulliken charges:
               1
     1  C    0.122763
     2  C   -0.162277
     3  C    0.440087
     4  C    0.457958
     5  C   -1.264956
     6  C    1.111675
     7  H   -0.227067
     8  H   -0.250945
     9  H   -0.374147
    10  H   -0.353796
    11  C    0.502158
    12  C   -1.643877
    13  N    1.598201
    14  N    1.172136
    15  O   -1.157071
    16  C    0.712045
    17  C   -0.044922
    18  C    0.198380
    19  C    0.665012
    20  H   -0.329182
    21  H   -0.246211
    22  H   -0.237895
    23  H   -0.383604
    24  C   -0.666043
    25  C   -0.303919
    26  H    0.255899
    27  H    0.147944
    28  H    0.220752
    29  H    0.040907
 Sum of Mulliken charges =  -0.00000

 Dipole moment (field-independent basis, Debye):
    X=             -0.2149    Y=             -3.0146    Z=             -1.5350  Tot=              3.3897

 Test job not archived.
 1\1\GINC-SE363\SP\RHF\Aug-CC-pVDZ\C14H12N2O1\OHZDE\08-Apr-2025\0\\#t h
 f aug-cc-pvdz iop(5/13=1,5/36=2,99/5=2) pseudo=read geom=check guess=(
 read,tcheck) scf=(maxcycle=1)\\title\\0,1\C,0,-3.542653,0.848805,-0.80
 8815\C,0,-3.849682,-0.507669,-0.730862\C,0,-2.885762,-1.40177,-0.28579
 1\C,0,-2.273281,1.281968,-0.45703\C,0,-1.305223,0.376826,-0.001465\C,0
 ,-1.601337,-0.993352,0.100712\H,0,-4.28027,1.563514,-1.154485\H,0,-4.8
 33282,-0.866058,-1.011795\H,0,-3.13148,-2.456856,-0.216031\H,0,-2.0099
 21,2.328992,-0.525211\C,0,1.573085,-0.914276,0.394314\C,0,1.211814,0.3

 Normal termination of Gaussian 16 at Tue Apr  8 23:07:55 2025.
