 Gaussian 16, Revision C.01,

 ----------------------------------------------------------------------
 #t hf aug-cc-pvdz symm=none int=(grid=ultrafine) guess=(read,tcheck) s
 table=(opt,rrhf)
 ----------------------------------------------------------------------
 -----
 title
 -----
 Symbolic Z-matrix:
 Charge =  0 Multiplicity = 1

 SCF Done:  E(RHF) =  -227.821525282     A.U. after   13 cycles
 Normal termination of Gaussian 16 at Tue Apr  8 22:42:27 2025.
 Gaussian 16:  ES64L-G16RevC.01  3-Jul-2019

 ----------------------------------------------------------------------
 #t hf aug-cc-pvdz iop(5/13=1,5/36=2,99/5=2) pseudo=read geom=check gue
 ss=(read,tcheck) scf=(maxcycle=1)
 ----------------------------------------------------------------------
 -----
 title
 -----
 Structure from the checkpoint file:  "BDE49_expt_1440_mol1.chk"
 Charge =  0 Multiplicity = 1

                         Standard orientation:
 ---------------------------------------------------------------------
 Center     Atomic      Atomic             Coordinates (Angstroms)
 Number     Number       Type             X           Y           Z
 ---------------------------------------------------------------------
      1          6           0        0.832748    0.431310    0.000014
      2          8           0        1.301601   -0.672923   -0.000006
      3          8           0       -0.474822    0.729460    0.000000
      4          1           0        1.409236    1.367362   -0.000015
      5          6           0       -1.370897   -0.400666   -0.000002
      6          1           0       -1.211086   -1.013020   -0.888649
      7          1           0       -2.372375    0.022503   -0.000016
      8          1           0       -1.211104   -1.013008    0.888655
 ---------------------------------------------------------------------

 SCF Done:  E(RHF) =  -228.049319031     A.U. after    2 cycles

 The electronic state is 1-A.
 Alpha  occ. eigenvalues --  -20.60126 -20.54762 -11.39642 -11.30411  -1.55111
 Alpha  occ. eigenvalues --   -1.46194  -0.99403  -0.82792  -0.74389  -0.68633
 Alpha  occ. eigenvalues --   -0.67660  -0.60112  -0.55969  -0.53864  -0.46344
 Alpha  occ. eigenvalues --   -0.45667
 Alpha virt. eigenvalues --    0.03588   0.04382   0.05543   0.05802   0.10008
 Alpha virt. eigenvalues --    0.10115   0.10724   0.14305   0.15559   0.15735
 Alpha virt. eigenvalues --    0.17187   0.17510   0.18561   0.21019   0.25231

 Mulliken charges:
               1
     1  C    1.314375
     2  O   -0.931036
     3  O   -1.061018
     4  H    0.124100
     5  C    0.249607
     6  H    0.148687
     7  H    0.006604
     8  H    0.148682
 Sum of Mulliken charges =  -0.00000

 Dipole moment (field-independent basis, Debye):
    X=             -1.6833    Y=              1.0372    Z=              0.0000  Tot=              1.9772

 Test job not archived.
 1\1\GINC-SE249\SP\RHF\Aug-CC-pVDZ\C2H4O2\OHZDE\08-Apr-2025\0\\#t hf au
 g-cc-pvdz iop(5/13=1,5/36=2,99/5=2) pseudo=read geom=check guess=(read
 ,tcheck) scf=(maxcycle=1)\\title\\0,1\C,0,0.832748,0.43131,0.000014\O,
 0,1.301601,-0.672923,-0.000006\O,0,-0.474822,0.72946,0.\H,0,1.409236,1
 .367362,-0.000015\C,0,-1.370897,-0.400666,-0.000002\H,0,-1.211086,-1.0
 1302,-0.888649\H,0,-2.372375,0.022503,-0.000016\H,0,-1.211104,-1.01300
 8,0.888655\\Version=ES64L-G16RevC.01\State=1-A\HF=-228.049319\RMSD=7.6
 29e-03\Dipole=-0.6622691,0.4080833,0.0000093\Quadrupole=0.3000305,-0.7

 Normal termination of Gaussian 16 at Tue Apr  8 22:42:29 2025.
