 Gaussian 16, Revision C.01,

 ----------------------------------------------------------------------
 #t hf aug-cc-pvdz symm=none int=(grid=ultrafine) guess=(read,tcheck) s
 table=(opt,rrhf)
 ----------------------------------------------------------------------
 -----
 title
 -----
 Symbolic Z-matrix:
 Charge =  0 Multiplicity = 1

 SCF Done:  E(RHF) =  -950.688353078     A.U. after   16 cycles
 Normal termination of Gaussian 16 at Wed Apr  9 00:47:00 2025.
 Gaussian 16:  ES64L-G16RevC.01  3-Jul-2019

 ----------------------------------------------------------------------
 #t hf aug-cc-pvdz iop(5/13=1,5/36=2,99/5=2) pseudo=read geom=check gue
 ss=(read,tcheck) scf=(maxcycle=1)
 ----------------------------------------------------------------------
 -----
 title
 -----
 Structure from the checkpoint file:  "BDE49_nonexpt_744_mol1.chk"
 Charge =  0 Multiplicity = 1

                         Standard orientation:
 ---------------------------------------------------------------------
 Center     Atomic      Atomic             Coordinates (Angstroms)
 Number     Number       Type             X           Y           Z
 ---------------------------------------------------------------------
      1          6           0       -1.328274   -0.873704    0.763749
      2          6           0        0.019050   -0.611703    0.984236
      3          6           0       -2.074811    0.040049    0.029276
      4          6           0       -1.507331    1.201315   -0.485279
      5          6           0       -0.156884    1.442966   -0.270384
      6          6           0        0.632890    0.541079    0.461031
      7          1           0        0.288851    2.341154   -0.680673
      8          1           0       -1.808721   -1.757854    1.159250
      9          1           0        0.593721   -1.301765    1.593894
     10          5           0        3.245882   -0.458972   -0.385683
     11          8           0        2.616069   -1.554932   -0.890669
     12          8           0        4.559110   -0.247704   -0.654753
     13          7           0       -3.508483   -0.226199   -0.205327
     14          8           0       -3.974758   -1.260406    0.254165
     15          8           0       -4.140933    0.602864   -0.845795
     16          1           0       -2.124116    1.887948   -1.048494
     17          1           0        4.929254   -0.924758   -1.234396
     18          1           0        1.668945   -1.581222   -0.717786
     19         15           0        2.412722    0.832616    0.832262
     20          1           0        2.607464    1.966930    0.010621
 ---------------------------------------------------------------------

 SCF Done:  E(RHF) =  -951.330544872     A.U. after    2 cycles

 The electronic state is 1-A.
 Alpha  occ. eigenvalues --  -84.28138 -20.59521 -20.59503 -20.58201 -20.57575
 Alpha  occ. eigenvalues --  -15.79856 -11.32213 -11.29713 -11.29353 -11.29201
 Alpha  occ. eigenvalues --  -11.28266 -11.28089  -7.67557  -6.75458  -4.28510
 Alpha  occ. eigenvalues --   -4.28018  -4.27402  -1.67477  -1.51176  -1.50406
 Alpha  occ. eigenvalues --   -1.46264  -1.21361  -1.12028  -1.06398  -1.00214
 Alpha  occ. eigenvalues --   -0.89326  -0.88597  -0.83677  -0.80959  -0.78780
 Alpha  occ. eigenvalues --   -0.75524  -0.75098  -0.74963  -0.68849  -0.67861
 Alpha  occ. eigenvalues --   -0.66063  -0.64520  -0.63236  -0.59482  -0.57941
 Alpha  occ. eigenvalues --   -0.55680  -0.54958  -0.51643  -0.51199  -0.50324
 Alpha  occ. eigenvalues --   -0.49276  -0.46531  -0.45636  -0.41677  -0.38907
 Alpha  occ. eigenvalues --   -0.33665
 Alpha virt. eigenvalues --    0.01417   0.02618   0.03285   0.03516   0.04409
 Alpha virt. eigenvalues --    0.05466   0.05827   0.06518   0.06602   0.07207
 Alpha virt. eigenvalues --    0.07583   0.08816   0.09495   0.09893   0.10141

 Mulliken charges:
               1
     1  C    0.183882
     2  C    0.394350
     3  C   -0.175774
     4  C    0.266841
     5  C    0.370532
     6  C   -0.008168
     7  H   -0.290103
     8  H   -0.212055
     9  H   -0.300931
    10  B    2.071095
    11  O   -1.331517
    12  O   -1.311692
    13  N    2.983704
    14  O   -1.471601
    15  O   -1.475773
    16  H   -0.206950
    17  H    0.538435
    18  H    0.735564
    19  P   -0.891532
    20  H    0.131693
 Sum of Mulliken charges =   0.00000

 Dipole moment (field-independent basis, Debye):
    X=              3.6578    Y=              0.1996    Z=             -0.1517  Tot=              3.6664

 Test job not archived.
 1\1\GINC-SE166\SP\RHF\Aug-CC-pVDZ\C6H7B1N1O4P1\OHZDE\09-Apr-2025\0\\#t
  hf aug-cc-pvdz iop(5/13=1,5/36=2,99/5=2) pseudo=read geom=check guess
 =(read,tcheck) scf=(maxcycle=1)\\title\\0,1\C,0,-1.328274,-0.873704,0.
 763749\C,0,0.01905,-0.611703,0.984236\C,0,-2.074811,0.040049,0.029276\
 C,0,-1.507331,1.201315,-0.485279\C,0,-0.156884,1.442966,-0.270384\C,0,
 0.63289,0.541079,0.461031\H,0,0.288851,2.341154,-0.680673\H,0,-1.80872
 1,-1.757854,1.15925\H,0,0.593721,-1.301765,1.593894\B,0,3.245882,-0.45
 8972,-0.385683\O,0,2.616069,-1.554932,-0.890669\O,0,4.55911,-0.247704,

 Normal termination of Gaussian 16 at Wed Apr  9 00:47:16 2025.
