 Gaussian 16, Revision C.01,

 ----------------------------------------------------------------------
 #t hf aug-cc-pvdz symm=none int=(grid=ultrafine) guess=(read,tcheck) s
 table=(opt,rrhf)
 ----------------------------------------------------------------------
 -----
 title
 -----
 Symbolic Z-matrix:
 Charge =  0 Multiplicity = 1

 SCF Done:  E(RHF) =  -383.992538658     A.U. after   13 cycles

 1\1\GINC-SE080\Stability\RHF\Aug-CC-pVDZ\C6H12O2\OHZDE\08-Apr-2025\0\\
 #t hf aug-cc-pvdz symm=none int=(grid=ultrafine) guess=(read,tcheck) s
 table=(opt,rrhf)\\title\\0,1\O,0,-0.86245,-0.082083,-0.789166\C,0,-1.8
 13314,0.050089,0.164864\C,0,0.080227,-1.173618,-0.629725\O,0,-1.917517
 ,-0.678734,1.118871\C,0,-2.707439,1.227971,-0.135502\C,0,1.286767,-0.7
 63592,0.20576\H,0,-3.084108,1.165765,-1.158032\H,0,-2.133463,2.1544,-0
 .053637\H,0,-3.532786,1.24551,0.573066\C,0,2.104169,0.385053,-0.395808
 \H,0,1.923252,-1.65041,0.319151\H,0,0.943749,-0.500972,1.211922\C,0,3.

 Normal termination of Gaussian 16 at Tue Apr  8 22:43:27 2025.
 Gaussian 16:  ES64L-G16RevC.01  3-Jul-2019

 ----------------------------------------------------------------------
 #t hf aug-cc-pvdz iop(5/13=1,5/36=2,99/5=2) pseudo=read geom=check gue
 ss=(read,tcheck) scf=(maxcycle=1)
 ----------------------------------------------------------------------
 -----
 title
 -----
 Structure from the checkpoint file:  "BDE49_expt_1453_mol1.chk"
 Charge =  0 Multiplicity = 1

                         Standard orientation:
 ---------------------------------------------------------------------
 Center     Atomic      Atomic             Coordinates (Angstroms)
 Number     Number       Type             X           Y           Z
 ---------------------------------------------------------------------
      1          8           0       -0.862450   -0.082083   -0.789166
      2          6           0       -1.813314    0.050089    0.164864
      3          6           0        0.080227   -1.173618   -0.629725
      4          8           0       -1.917517   -0.678734    1.118871
      5          6           0       -2.707439    1.227971   -0.135502
      6          6           0        1.286767   -0.763592    0.205760
      7          1           0       -3.084108    1.165765   -1.158032
      8          1           0       -2.133463    2.154400   -0.053637
      9          1           0       -3.532786    1.245510    0.573066
     10          6           0        2.104169    0.385053   -0.395808
     11          1           0        1.923252   -1.650410    0.319151
     12          1           0        0.943749   -0.500972    1.211922
     13          6           0        3.294674    0.790204    0.477340
     14          1           0        1.449458    1.248177   -0.551170
     15          1           0        2.461801    0.090421   -1.390127
     16          1           0        2.964366    1.120225    1.467100
     17          1           0        3.858934    1.610163    0.025202
     18          1           0        3.984491   -0.047185    0.622472
     19          1           0        0.372354   -1.428345   -1.650105
     20          1           0       -0.438822   -2.017846   -0.175064
 ---------------------------------------------------------------------

 SCF Done:  E(RHF) =  -384.395256096     A.U. after    2 cycles

 The electronic state is 1-A.
 Alpha  occ. eigenvalues --  -20.58295 -20.53068 -11.38745 -11.29303 -11.25020
 Alpha  occ. eigenvalues --  -11.23246 -11.23009 -11.22508  -1.53477  -1.44608
 Alpha  occ. eigenvalues --   -1.08400  -1.03065  -0.97910  -0.88300  -0.81862
 Alpha  occ. eigenvalues --   -0.76000  -0.70012  -0.68722  -0.66081  -0.63439
 Alpha  occ. eigenvalues --   -0.60193  -0.59984  -0.57574  -0.57032  -0.54065
 Alpha  occ. eigenvalues --   -0.52725  -0.52115  -0.49704  -0.47814  -0.47290
 Alpha  occ. eigenvalues --   -0.44566  -0.43661
 Alpha virt. eigenvalues --    0.03467   0.03640   0.03835   0.04258   0.05606
 Alpha virt. eigenvalues --    0.05980   0.06292   0.06515   0.07505   0.08647
 Alpha virt. eigenvalues --    0.09115   0.09796   0.11013   0.12665   0.13235

 Mulliken charges:
               1
     1  O   -1.304891
     2  C    1.893353
     3  C    0.548432
     4  O   -1.223918
     5  C   -0.685608
     6  C   -0.463724
     7  H    0.215925
     8  H    0.221788
     9  H    0.187131
    10  C   -0.244425
    11  H    0.126337
    12  H    0.126334
    13  C   -0.388029
    14  H    0.165983
    15  H    0.126432
    16  H    0.166704
    17  H    0.114837
    18  H    0.168146
    19  H   -0.000551
    20  H    0.249747
 Sum of Mulliken charges =  -0.00000

 Dipole moment (field-independent basis, Debye):
    X=              0.7772    Y=              0.9380    Z=             -1.5967  Tot=              2.0083

 Test job not archived.
 1\1\GINC-SE080\SP\RHF\Aug-CC-pVDZ\C6H12O2\OHZDE\08-Apr-2025\0\\#t hf a
 ug-cc-pvdz iop(5/13=1,5/36=2,99/5=2) pseudo=read geom=check guess=(rea
 d,tcheck) scf=(maxcycle=1)\\title\\0,1\O,0,-0.86245,-0.082083,-0.78916
 6\C,0,-1.813314,0.050089,0.164864\C,0,0.080227,-1.173618,-0.629725\O,0
 ,-1.917517,-0.678734,1.118871\C,0,-2.707439,1.227971,-0.135502\C,0,1.2
 86767,-0.763592,0.20576\H,0,-3.084108,1.165765,-1.158032\H,0,-2.133463
 ,2.1544,-0.053637\H,0,-3.532786,1.24551,0.573066\C,0,2.104169,0.385053
 ,-0.395808\H,0,1.923252,-1.65041,0.319151\H,0,0.943749,-0.500972,1.211

 Normal termination of Gaussian 16 at Tue Apr  8 22:43:36 2025.
