 Gaussian 16, Revision C.01,

 ----------------------------------------------------------------------
 #t hf aug-cc-pvdz symm=none int=(grid=ultrafine) guess=(read,tcheck) s
 table=(opt,rrhf)
 ----------------------------------------------------------------------
 -----
 title
 -----
 Symbolic Z-matrix:
 Charge =  0 Multiplicity = 1

 SCF Done:  E(RHF) =  -1510.54153833     A.U. after   18 cycles
 Normal termination of Gaussian 16 at Tue Apr  8 23:50:20 2025.
 Gaussian 16:  ES64L-G16RevC.01  3-Jul-2019

 ----------------------------------------------------------------------
 #t hf aug-cc-pvdz iop(5/13=1,5/36=2,99/5=2) pseudo=read geom=check gue
 ss=(read,tcheck) scf=(maxcycle=1)
 ----------------------------------------------------------------------
 -----
 title
 -----
 Structure from the checkpoint file:  "BDE49_nonexpt_1718_mol1.chk"
 Charge =  0 Multiplicity = 1

                         Standard orientation:
 ---------------------------------------------------------------------
 Center     Atomic      Atomic             Coordinates (Angstroms)
 Number     Number       Type             X           Y           Z
 ---------------------------------------------------------------------
      1          6           0       -3.446194   -0.041211    0.017322
      2          6           0       -2.918368    1.243307   -0.053063
      3          6           0       -1.539840    1.392189   -0.084590
      4          6           0       -2.643748   -1.174456    0.058416
      5          6           0       -1.264466   -1.014908    0.024122
      6          6           0       -0.704527    0.266261   -0.051350
      7          1           0       -3.585011    2.093586   -0.081619
      8          1           0       -1.091513    2.375455   -0.135815
      9          1           0       -3.102408   -2.151052    0.119817
     10          1           0       -0.629759   -1.890215    0.069943
     11          6           0        0.769351    0.509133   -0.088130
     12         16           0        1.795979   -0.938420   -0.396180
     13         15           0        3.782881   -0.170810   -0.000720
     14          8           0        4.744607   -1.129961   -0.530273
     15          8           0        1.224829    1.631891    0.044760
     16          7           0       -4.922044   -0.208633    0.053822
     17          8           0       -5.602317    0.805154    0.012771
     18          8           0       -5.355897   -1.348659    0.122390
     19          8           0        3.818926    0.064857    1.581813
     20          1           0        4.075988   -0.731981    2.063248
     21          8           0        3.778480    1.291234   -0.562527
     22          1           0        2.925852    1.743495   -0.350500
 ---------------------------------------------------------------------

 SCF Done:  E(RHF) =  -1511.39573928     A.U. after    2 cycles

 The electronic state is 1-A.
 Alpha  occ. eigenvalues --  -94.00483 -84.47279 -20.61822 -20.61246 -20.61227
 Alpha  occ. eigenvalues --  -20.60482 -20.60253 -20.53007 -15.81499 -11.43424
 Alpha  occ. eigenvalues --  -11.34975 -11.31672 -11.30975 -11.30734 -11.30611
 Alpha  occ. eigenvalues --  -11.30469  -8.28841  -6.92346  -6.26609  -6.26441
 Alpha  occ. eigenvalues --   -6.26248  -4.46524  -4.45788  -4.44648  -1.69269
 Alpha  occ. eigenvalues --   -1.56267  -1.54134  -1.53030  -1.49364  -1.41563
 Alpha  occ. eigenvalues --   -1.23634  -1.15120  -1.09799  -1.08248  -1.02312
 Alpha  occ. eigenvalues --   -0.90972  -0.90615  -0.86420  -0.83460  -0.82713
 Alpha  occ. eigenvalues --   -0.77371  -0.76780  -0.76603  -0.74175  -0.72218
 Alpha  occ. eigenvalues --   -0.69922  -0.68596  -0.66585  -0.66058  -0.65811
 Alpha  occ. eigenvalues --   -0.63181  -0.62809  -0.59826  -0.58842  -0.56908
 Alpha  occ. eigenvalues --   -0.56734  -0.55427  -0.51996  -0.51509  -0.50975
 Alpha  occ. eigenvalues --   -0.48745  -0.47116  -0.46720  -0.46359  -0.43508
 Alpha  occ. eigenvalues --   -0.41489  -0.40387
 Alpha virt. eigenvalues --   -0.01849   0.02470   0.03064   0.03461   0.04901
 Alpha virt. eigenvalues --    0.05640   0.05869   0.06059   0.06701   0.07165
 Alpha virt. eigenvalues --    0.07965   0.09108   0.09654   0.09973   0.10307

 Mulliken charges:
               1
     1  C   -0.457123
     2  C    0.381015
     3  C    0.087656
     4  C   -0.308343
     5  C    0.567999
     6  C    2.109592
     7  H   -0.206431
     8  H   -0.348760
     9  H   -0.218449
    10  H   -0.230186
    11  C   -0.080758
    12  S   -0.340281
    13  P    3.660297
    14  O   -1.405266
    15  O   -1.567084
    16  N    3.002570
    17  O   -1.471851
    18  O   -1.467459
    19  O   -1.249872
    20  H    0.367236
    21  O   -1.513017
    22  H    0.688515
 Sum of Mulliken charges =  -0.00000

 Dipole moment (field-independent basis, Debye):
    X=             -0.8692    Y=              0.4094    Z=              2.1323  Tot=              2.3388

 Test job not archived.
 1\1\GINC-SE084\SP\RHF\Aug-CC-pVDZ\C7H6N1O6P1S1\OHZDE\08-Apr-2025\0\\#t
  hf aug-cc-pvdz iop(5/13=1,5/36=2,99/5=2) pseudo=read geom=check guess
 =(read,tcheck) scf=(maxcycle=1)\\title\\0,1\C,0,-3.446194,-0.041211,0.
 017322\C,0,-2.918368,1.243307,-0.053063\C,0,-1.53984,1.392189,-0.08459
 \C,0,-2.643748,-1.174456,0.058416\C,0,-1.264466,-1.014908,0.024122\C,0
 ,-0.704527,0.266261,-0.05135\H,0,-3.585011,2.093586,-0.081619\H,0,-1.0
 91513,2.375455,-0.135815\H,0,-3.102408,-2.151052,0.119817\H,0,-0.62975
 9,-1.890215,0.069943\C,0,0.769351,0.509133,-0.08813\S,0,1.795979,-0.93

 Normal termination of Gaussian 16 at Tue Apr  8 23:50:44 2025.
