 Gaussian 16, Revision C.01,

 ----------------------------------------------------------------------
 #t hf aug-cc-pvdz symm=none int=(grid=ultrafine) guess=(read,tcheck) s
 table=(opt,rrhf)
 ----------------------------------------------------------------------
 -----
 title
 -----
 Symbolic Z-matrix:
 Charge =  0 Multiplicity = 1

 SCF Done:  E(RHF) =  -622.336340430     A.U. after   16 cycles
 Normal termination of Gaussian 16 at Wed Apr  9 00:30:46 2025.
 Gaussian 16:  ES64L-G16RevC.01  3-Jul-2019

 ----------------------------------------------------------------------
 #t hf aug-cc-pvdz iop(5/13=1,5/36=2,99/5=2) pseudo=read geom=check gue
 ss=(read,tcheck) scf=(maxcycle=1)
 ----------------------------------------------------------------------
 -----
 title
 -----
 Structure from the checkpoint file:  "BDE49_nonexpt_344_mol1.chk"
 Charge =  0 Multiplicity = 1

                         Standard orientation:
 ---------------------------------------------------------------------
 Center     Atomic      Atomic             Coordinates (Angstroms)
 Number     Number       Type             X           Y           Z
 ---------------------------------------------------------------------
      1          6           0        0.059852    0.018593   -0.513659
      2          7           0        0.303254    1.462645   -0.097608
      3          5           0       -1.374837   -0.593370   -0.065812
      4          7           0        1.187565   -0.829442    0.029516
      5          1           0        0.165718    0.026245   -1.599178
      6          8           0        1.886585   -1.400933   -0.784519
      7          8           0       -1.416159   -1.942651   -0.075289
      8          8           0       -0.670214    2.207426   -0.189467
      9          8           0       -2.438170    0.173949    0.228948
     10          8           0        1.418031    1.796050    0.221452
     11          8           0        1.273256   -0.886844    1.242165
     12          1           0       -2.238626    1.120558    0.161840
     13          1           0       -2.274394   -2.299917    0.178683
 ---------------------------------------------------------------------

 SCF Done:  E(RHF) =  -622.930877098     A.U. after    2 cycles

 The electronic state is 1-A.
 Alpha  occ. eigenvalues --  -20.64649 -20.63403 -20.62406 -20.61929 -20.60074
 Alpha  occ. eigenvalues --  -20.59658 -15.84058 -15.82273 -11.39322  -7.70715
 Alpha  occ. eigenvalues --   -1.72455  -1.70130  -1.56168  -1.54344  -1.52562
 Alpha  occ. eigenvalues --   -1.48835  -1.20670  -1.03816  -0.91080  -0.86281
 Alpha  occ. eigenvalues --   -0.83427  -0.82223  -0.79561  -0.79102  -0.77455
 Alpha  occ. eigenvalues --   -0.75521  -0.73972  -0.67358  -0.61422  -0.60687
 Alpha  occ. eigenvalues --   -0.58734  -0.54066  -0.53549  -0.53361  -0.51978
 Alpha  occ. eigenvalues --   -0.51228  -0.49696  -0.47168
 Alpha virt. eigenvalues --    0.01650   0.02878   0.03178   0.04306   0.04785
 Alpha virt. eigenvalues --    0.05114   0.07112   0.08190   0.09518   0.10963
 Alpha virt. eigenvalues --    0.12534   0.13157   0.14502   0.14574   0.15429

 Mulliken charges:
               1
     1  C   -0.523467
     2  N    2.609561
     3  B    1.726151
     4  N    2.817836
     5  H    0.095948
     6  O   -1.363012
     7  O   -1.174458
     8  O   -1.439788
     9  O   -1.174943
    10  O   -1.298624
    11  O   -1.417787
    12  H    0.660747
    13  H    0.481838
 Sum of Mulliken charges =  -0.00000

 Dipole moment (field-independent basis, Debye):
    X=             -3.3819    Y=             -0.2691    Z=             -1.6351  Tot=              3.7661

 Test job not archived.
 1\1\GINC-SE092\SP\RHF\Aug-CC-pVDZ\C1H3B1N2O6\OHZDE\09-Apr-2025\0\\#t h
 f aug-cc-pvdz iop(5/13=1,5/36=2,99/5=2) pseudo=read geom=check guess=(
 read,tcheck) scf=(maxcycle=1)\\title\\0,1\C,0,0.059852,0.018593,-0.513
 659\N,0,0.303255,1.462645,-0.097608\B,0,-1.374837,-0.593369,-0.065812\
 N,0,1.187565,-0.829442,0.029516\H,0,0.165718,0.026245,-1.599178\O,0,1.
 886585,-1.400934,-0.784519\O,0,-1.41616,-1.94265,-0.075289\O,0,-0.6702
 13,2.207426,-0.189467\O,0,-2.43817,0.17395,0.228948\O,0,1.418032,1.796
 05,0.221452\O,0,1.273256,-0.886844,1.242165\H,0,-2.238626,1.120559,0.1

 Normal termination of Gaussian 16 at Wed Apr  9 00:30:53 2025.
