 Gaussian 16, Revision C.01,

 ----------------------------------------------------------------------
 #t hf aug-cc-pvdz symm=none int=(grid=ultrafine) guess=(read,tcheck) s
 table=(opt,rrhf)
 ----------------------------------------------------------------------
 -----
 title
 -----
 Symbolic Z-matrix:
 Charge =  0 Multiplicity = 1

 SCF Done:  E(RHF) =  -956.437436825     A.U. after   13 cycles

 1\1\GINC-SE073\Stability\RHF\Aug-CC-pVDZ\Cl1F1S1\OHZDE\08-Apr-2025\0\\
 #t hf aug-cc-pvdz symm=none int=(grid=ultrafine) guess=(read,tcheck) s
 table=(opt,rrhf)\\title\\0,1\Cl,0,-0.85103,-1.027503,0.\S,0,0.,0.83364
 1,0.\F,0,1.607502,0.458811,0.\\Version=ES64L-G16RevC.01\HF=-956.437436
 8\RMSD=6.030e-09\Dipole=-0.4190866,0.2668129,0.\Quadrupole=-0.9601448,
 1.9085637,-0.9484189,0.032312,0.,0.\PG=Unknown\\@
 The archive entry for this job was punched.

 Normal termination of Gaussian 16 at Tue Apr  8 22:57:34 2025.
 Gaussian 16:  ES64L-G16RevC.01  3-Jul-2019

 ----------------------------------------------------------------------
 #t hf aug-cc-pvdz iop(5/13=1,5/36=2,99/5=2) pseudo=read geom=check gue
 ss=(read,tcheck) scf=(maxcycle=1)
 ----------------------------------------------------------------------
 -----
 title
 -----
 Structure from the checkpoint file:  "BDE49_expt_1934_mol1.chk"
 Charge =  0 Multiplicity = 1

                         Standard orientation:
 ---------------------------------------------------------------------
 Center     Atomic      Atomic             Coordinates (Angstroms)
 Number     Number       Type             X           Y           Z
 ---------------------------------------------------------------------
      1         17           0       -0.851030   -1.027503    0.000000
      2         16           0        0.000000    0.833641   -0.000000
      3          9           0        1.607502    0.458811   -0.000000
 ---------------------------------------------------------------------

 SCF Done:  E(RHF) =  -956.660391128     A.U. after    2 cycles

 The electronic state is 1-A'.
 Alpha  occ. eigenvalues -- -105.61718 -94.10657 -26.50599 -10.66481  -8.37565
 Alpha  occ. eigenvalues --   -7.83415  -7.82954  -7.82897  -6.35267  -6.35053
 Alpha  occ. eigenvalues --   -6.34598  -1.60986  -1.14409  -0.94873  -0.69406
 Alpha  occ. eigenvalues --   -0.68993  -0.68067  -0.54552  -0.54481  -0.51014
 Alpha  occ. eigenvalues --   -0.40141
 Alpha virt. eigenvalues --    0.03578   0.05458   0.10031   0.10840   0.11103
 Alpha virt. eigenvalues --    0.13663   0.14606   0.15701   0.16883   0.25594
 Alpha virt. eigenvalues --    0.27909   0.28061   0.32215   0.33763   0.39314

 Mulliken charges:
               1
     1  Cl  -0.220334
     2  S    0.782965
     3  F   -0.562630
 Sum of Mulliken charges =  -0.00000

 Dipole moment (field-independent basis, Debye):
    X=             -0.8046    Y=              0.6318    Z=              0.0000  Tot=              1.0230

 Test job not archived.
 1\1\GINC-SE073\SP\RHF\Aug-CC-pVDZ\Cl1F1S1\OHZDE\08-Apr-2025\0\\#t hf a
 ug-cc-pvdz iop(5/13=1,5/36=2,99/5=2) pseudo=read geom=check guess=(rea
 d,tcheck) scf=(maxcycle=1)\\title\\0,1\Cl,0,-0.85103,-1.027503,0.\S,0,
 0.,0.833641,0.\F,0,1.607502,0.458811,0.\\Version=ES64L-G16RevC.01\Stat
 e=1-A'\HF=-956.6603911\RMSD=2.671e-03\Dipole=-0.3165471,0.2485566,0.\Q
 uadrupole=-0.7279522,1.7965762,-1.0686239,0.1285165,0.,0.\PG=CS [SG(Cl
 1F1S1)]\\@

 Normal termination of Gaussian 16 at Tue Apr  8 22:57:35 2025.
