 Gaussian 16, Revision C.01,

 ----------------------------------------------------------------------
 #t hf aug-cc-pvdz symm=none int=(grid=ultrafine) guess=(read,tcheck) s
 table=(opt,rrhf)
 ----------------------------------------------------------------------
 -----
 title
 -----
 Symbolic Z-matrix:
 Charge =  0 Multiplicity = 1

 SCF Done:  E(RHF) =  -516.030519408     A.U. after   11 cycles

 1\1\GINC-SE363\Stability\RHF\Aug-CC-pVDZ\H4O3Si1\OHZDE\09-Apr-2025\0\\
 #t hf aug-cc-pvdz symm=none int=(grid=ultrafine) guess=(read,tcheck) s
 table=(opt,rrhf)\\title\\0,1\Si,0,-0.000026,0.002232,0.328146\O,0,0.00
 9079,1.57727,-0.139304\O,0,1.270612,-0.845898,-0.259754\H,0,0.010009,1
 .769242,-1.081222\H,0,2.152332,-0.554971,-0.018778\O,0,-1.280153,-0.83
 1337,-0.259993\H,0,-2.158513,-0.531269,-0.017958\H,0,0.000241,0.085483
 ,1.796323\\Version=ES64L-G16RevC.01\HF=-516.0305194\RMSD=8.732e-09\Dip
 ole=0.0027458,0.5107376,0.0229958\Quadrupole=5.1951738,-4.8685477,-0.3

 Normal termination of Gaussian 16 at Wed Apr  9 00:06:27 2025.
 Gaussian 16:  ES64L-G16RevC.01  3-Jul-2019

 ----------------------------------------------------------------------
 #t hf aug-cc-pvdz iop(5/13=1,5/36=2,99/5=2) pseudo=read geom=check gue
 ss=(read,tcheck) scf=(maxcycle=1)
 ----------------------------------------------------------------------
 -----
 title
 -----
 Structure from the checkpoint file:  "BDE49_nonexpt_2246_mol1.chk"
 Charge =  0 Multiplicity = 1

                         Standard orientation:
 ---------------------------------------------------------------------
 Center     Atomic      Atomic             Coordinates (Angstroms)
 Number     Number       Type             X           Y           Z
 ---------------------------------------------------------------------
      1         14           0       -0.000026    0.002232    0.328146
      2          8           0        0.009082    1.577270   -0.139304
      3          8           0        1.270610   -0.845901   -0.259754
      4          1           0        0.010012    1.769242   -1.081222
      5          1           0        2.152331   -0.554976   -0.018778
      6          8           0       -1.280155   -0.831335   -0.259993
      7          1           0       -2.158514   -0.531265   -0.017958
      8          1           0        0.000241    0.085483    1.796323
 ---------------------------------------------------------------------

 SCF Done:  E(RHF) =  -516.288113049     A.U. after    2 cycles

 The electronic state is 1-A.
 Alpha  occ. eigenvalues --  -69.60112 -20.55337 -20.55183 -20.55182  -6.26130
 Alpha  occ. eigenvalues --   -4.01675  -4.01632  -4.01446  -1.46590  -1.43203
 Alpha  occ. eigenvalues --   -1.42928  -0.79758  -0.73127  -0.67039  -0.60865
 Alpha  occ. eigenvalues --   -0.59830  -0.57941  -0.52245  -0.51293  -0.48730
 Alpha  occ. eigenvalues --   -0.47778
 Alpha virt. eigenvalues --    0.03309   0.04490   0.05159   0.06326   0.07342
 Alpha virt. eigenvalues --    0.08590   0.08942   0.12877   0.18094   0.18097
 Alpha virt. eigenvalues --    0.19667   0.20745   0.22455   0.22473   0.23174

 Mulliken charges:
               1
     1  Si   3.053136
     2  O   -1.366609
     3  O   -1.331142
     4  H    0.399631
     5  H    0.405261
     6  O   -1.331056
     7  H    0.405256
     8  H   -0.234477
 Sum of Mulliken charges =   0.00000

 Dipole moment (field-independent basis, Debye):
    X=              0.0068    Y=              1.2652    Z=              0.0289  Tot=              1.2656

 Test job not archived.
 1\1\GINC-SE363\SP\RHF\Aug-CC-pVDZ\H4O3Si1\OHZDE\09-Apr-2025\0\\#t hf a
 ug-cc-pvdz iop(5/13=1,5/36=2,99/5=2) pseudo=read geom=check guess=(rea
 d,tcheck) scf=(maxcycle=1)\\title\\0,1\Si,0,-0.000026,0.002232,0.32814
 6\O,0,0.009079,1.57727,-0.139304\O,0,1.270612,-0.845898,-0.259754\H,0,
 0.010009,1.769242,-1.081222\H,0,2.152332,-0.554971,-0.018778\O,0,-1.28
 0153,-0.831337,-0.259993\H,0,-2.158513,-0.531269,-0.017958\H,0,0.00024
 1,0.085483,1.796323\\Version=ES64L-G16RevC.01\State=1-A\HF=-516.288113
 \RMSD=6.088e-03\Dipole=0.0026748,0.4977867,0.0113641\Quadrupole=5.1363

 Normal termination of Gaussian 16 at Wed Apr  9 00:06:29 2025.
