 Gaussian 16, Revision C.01,

 ----------------------------------------------------------------------
 #t hf aug-cc-pvdz symm=none int=(grid=ultrafine) guess=(read,tcheck) s
 table=(opt,rrhf)
 ----------------------------------------------------------------------
 -----
 title
 -----
 Symbolic Z-matrix:
 Charge =  0 Multiplicity = 1

 SCF Done:  E(RHF) =  -625.232865227     A.U. after   13 cycles
 Normal termination of Gaussian 16 at Tue Apr  8 23:35:26 2025.
 Gaussian 16:  ES64L-G16RevC.01  3-Jul-2019

 ----------------------------------------------------------------------
 #t hf aug-cc-pvdz iop(5/13=1,5/36=2,99/5=2) pseudo=read geom=check gue
 ss=(read,tcheck) scf=(maxcycle=1)
 ----------------------------------------------------------------------
 -----
 title
 -----
 Structure from the checkpoint file:  "BDE49_nonexpt_1501_mol1.chk"
 Charge =  0 Multiplicity = 1

                         Standard orientation:
 ---------------------------------------------------------------------
 Center     Atomic      Atomic             Coordinates (Angstroms)
 Number     Number       Type             X           Y           Z
 ---------------------------------------------------------------------
      1         15           0       -0.618824   -0.020915   -0.583665
      2          7           0        0.885470   -0.026542    0.419471
      3          8           0        1.644467   -1.165712    0.042250
      4          8           0        1.610999    1.130250   -0.024953
      5          6           0       -1.420179    1.438866    0.212825
      6          1           0       -0.936075    2.351591   -0.134917
      7          1           0       -1.356402    1.383015    1.302346
      8          6           0       -1.454883   -1.389268    0.330325
      9          1           0       -2.490363   -1.458005   -0.013665
     10          1           0       -1.434446   -1.222509    1.409616
     11          1           0       -0.953155   -2.330677    0.103793
     12          1           0       -2.470779    1.466460   -0.088394
     13          1           0        1.808410   -1.076662   -0.913629
     14          1           0        2.123525    1.372398    0.756248
 ---------------------------------------------------------------------

 SCF Done:  E(RHF) =  -625.571336793     A.U. after    2 cycles

 The electronic state is 1-A.
 Alpha  occ. eigenvalues --  -84.29666 -20.59133 -20.58734 -15.60916 -11.23966
 Alpha  occ. eigenvalues --  -11.23718  -6.76479  -4.29277  -4.28832  -4.28147
 Alpha  occ. eigenvalues --   -1.53645  -1.43942  -1.07524  -0.98565  -0.94757
 Alpha  occ. eigenvalues --   -0.78842  -0.73660  -0.66553  -0.64019  -0.62613
 Alpha  occ. eigenvalues --   -0.59720  -0.57036  -0.56523  -0.56437  -0.48928
 Alpha  occ. eigenvalues --   -0.48168  -0.46476  -0.44727  -0.33286
 Alpha virt. eigenvalues --    0.03955   0.04333   0.04728   0.05440   0.06120
 Alpha virt. eigenvalues --    0.06544   0.07267   0.08074   0.08841   0.11512
 Alpha virt. eigenvalues --    0.12328   0.14121   0.15341   0.16298   0.16344

 Mulliken charges:
               1
     1  P    1.174263
     2  N    1.309012
     3  O   -1.224607
     4  O   -1.144617
     5  C   -0.809424
     6  H    0.130394
     7  H    0.132930
     8  C   -0.854953
     9  H    0.136947
    10  H    0.144359
    11  H    0.125523
    12  H    0.148637
    13  H    0.399728
    14  H    0.331808
 Sum of Mulliken charges =  -0.00000

 Dipole moment (field-independent basis, Debye):
    X=             -1.2220    Y=              0.7400    Z=             -0.0543  Tot=              1.4297

 Test job not archived.
 1\1\GINC-SE074\SP\RHF\Aug-CC-pVDZ\C2H8N1O2P1\OHZDE\08-Apr-2025\0\\#t h
 f aug-cc-pvdz iop(5/13=1,5/36=2,99/5=2) pseudo=read geom=check guess=(
 read,tcheck) scf=(maxcycle=1)\\title\\0,1\P,0,-0.618824,-0.020915,-0.5
 83665\N,0,0.88547,-0.026542,0.419471\O,0,1.644467,-1.165712,0.04225\O,
 0,1.610999,1.13025,-0.024953\C,0,-1.420179,1.438866,0.212825\H,0,-0.93
 6075,2.351591,-0.134917\H,0,-1.356402,1.383015,1.302346\C,0,-1.454883,
 -1.389268,0.330325\H,0,-2.490363,-1.458005,-0.013665\H,0,-1.434446,-1.
 222509,1.409616\H,0,-0.953155,-2.330677,0.103793\H,0,-2.470779,1.46646

 Normal termination of Gaussian 16 at Tue Apr  8 23:35:31 2025.
