 Gaussian 16, Revision C.01,

 ----------------------------------------------------------------------
 #t hf aug-cc-pvdz symm=none int=(grid=ultrafine) guess=(read,tcheck) s
 table=(opt,rrhf)
 ----------------------------------------------------------------------
 -----
 title
 -----
 Symbolic Z-matrix:
 Charge =  0 Multiplicity = 1

 SCF Done:  E(RHF) =  -222.614322529     A.U. after   13 cycles
 Normal termination of Gaussian 16 at Wed Apr  9 00:42:12 2025.
 Gaussian 16:  ES64L-G16RevC.01  3-Jul-2019

 ----------------------------------------------------------------------
 #t hf aug-cc-pvdz iop(5/13=1,5/36=2,99/5=2) pseudo=read geom=check gue
 ss=(read,tcheck) scf=(maxcycle=1)
 ----------------------------------------------------------------------
 -----
 title
 -----
 Structure from the checkpoint file:  "BDE49_nonexpt_68_mol1.chk"
 Charge =  0 Multiplicity = 1

                         Standard orientation:
 ---------------------------------------------------------------------
 Center     Atomic      Atomic             Coordinates (Angstroms)
 Number     Number       Type             X           Y           Z
 ---------------------------------------------------------------------
      1          5           0       -1.931537   -1.497902   -0.318308
      2          5           0       -1.042564   -0.487826    0.607716
      3          6           0        0.031449    0.546038    0.074638
      4          7           0        1.259215    0.334176   -0.185424
      5          6           0       -0.511861    1.951838   -0.111866
      6          1           0       -1.343105    1.966519   -0.825101
      7          1           0        0.290696    2.591269   -0.482663
      8          1           0       -0.888568    2.356158    0.833894
      9          6           0        1.799238   -1.004605   -0.003157
     10          1           0        2.538210   -0.987849    0.804468
     11          1           0        2.329740   -1.303483   -0.911814
     12          1           0        1.051015   -1.779755    0.230121
     13          1           0       -1.268192   -0.439027    1.786993
     14          1           0       -2.948495   -1.138032   -0.835747
     15          1           0       -1.618249   -2.636020   -0.506913
 ---------------------------------------------------------------------

 SCF Done:  E(RHF) =  -222.851319407     A.U. after    2 cycles

 The electronic state is 1-A.
 Alpha  occ. eigenvalues --  -15.48680 -11.26722 -11.25437 -11.23501  -7.59428
 Alpha  occ. eigenvalues --   -7.59387  -1.22013  -1.01323  -0.92570  -0.81204
 Alpha  occ. eigenvalues --   -0.72349  -0.67571  -0.62990  -0.61080  -0.58605
 Alpha  occ. eigenvalues --   -0.57211  -0.54487  -0.51538  -0.50401  -0.47541
 Alpha  occ. eigenvalues --   -0.41406  -0.40378
 Alpha virt. eigenvalues --    0.02989   0.03328   0.03562   0.03667   0.05276
 Alpha virt. eigenvalues --    0.05515   0.06096   0.06771   0.06897   0.07719
 Alpha virt. eigenvalues --    0.08697   0.09182   0.09733   0.10311   0.10528

 Mulliken charges:
               1
     1  B   -0.822544
     2  B   -0.054408
     3  C   -0.783921
     4  N    0.673197
     5  C   -0.656856
     6  H    0.234484
     7  H    0.153439
     8  H    0.230176
     9  C   -0.286829
    10  H    0.126468
    11  H    0.097598
    12  H    0.050257
    13  H    0.359810
    14  H    0.339666
    15  H    0.339461
 Sum of Mulliken charges =   0.00000

 Dipole moment (field-independent basis, Debye):
    X=             -1.7970    Y=             -0.6948    Z=              0.6270  Tot=              2.0261

 Test job not archived.
 1\1\GINC-SE038\SP\RHF\Aug-CC-pVDZ\C3H9B2N1\OHZDE\09-Apr-2025\0\\#t hf
 aug-cc-pvdz iop(5/13=1,5/36=2,99/5=2) pseudo=read geom=check guess=(re
 ad,tcheck) scf=(maxcycle=1)\\title\\0,1\B,0,-1.931538,-1.497901,-0.318
 308\B,0,-1.042564,-0.487825,0.607716\C,0,0.031449,0.546038,0.074638\N,
 0,1.259215,0.334175,-0.185424\C,0,-0.51186,1.951838,-0.111866\H,0,-1.3
 43104,1.96652,-0.825101\H,0,0.290698,2.591269,-0.482663\H,0,-0.888567,
 2.356158,0.833894\C,0,1.799237,-1.004606,-0.003157\H,0,2.538209,-0.987
 851,0.804468\H,0,2.329739,-1.303485,-0.911814\H,0,1.051014,-1.779756,0

 Normal termination of Gaussian 16 at Wed Apr  9 00:42:19 2025.
