 Gaussian 16, Revision C.01,

 ----------------------------------------------------------------------
 #t hf aug-cc-pvdz symm=none int=(grid=ultrafine) guess=(read,tcheck) s
 table=(opt,rrhf)
 ----------------------------------------------------------------------
 -----
 title
 -----
 Symbolic Z-matrix:
 Charge =  0 Multiplicity = 1

 SCF Done:  E(RHF) =  -780.561111339     A.U. after   12 cycles
 Normal termination of Gaussian 16 at Tue Apr  8 23:57:53 2025.
 Gaussian 16:  ES64L-G16RevC.01  3-Jul-2019

 ----------------------------------------------------------------------
 #t hf aug-cc-pvdz iop(5/13=1,5/36=2,99/5=2) pseudo=read geom=check gue
 ss=(read,tcheck) scf=(maxcycle=1)
 ----------------------------------------------------------------------
 -----
 title
 -----
 Structure from the checkpoint file:  "BDE49_nonexpt_2053_mol1.chk"
 Charge =  0 Multiplicity = 1

                         Standard orientation:
 ---------------------------------------------------------------------
 Center     Atomic      Atomic             Coordinates (Angstroms)
 Number     Number       Type             X           Y           Z
 ---------------------------------------------------------------------
      1         14           0       -2.172662    0.000002    0.000003
      2          7           0       -0.452849   -0.000002   -0.000007
      3          6           0        0.738682   -0.000013   -0.000014
      4         16           0        2.317535    0.000003    0.000005
      5          1           0       -2.641801    1.389720   -0.163567
      6          1           0       -2.641813   -0.553196    1.285315
      7          1           0       -2.641829   -0.836514   -1.121731
 ---------------------------------------------------------------------

 SCF Done:  E(RHF) =  -780.740663364     A.U. after    2 cycles

 The electronic state is 1-A.
 Alpha  occ. eigenvalues --  -93.95125 -69.58809 -15.53819 -11.39357  -8.23420
 Alpha  occ. eigenvalues --   -6.25457  -6.21319  -6.20872  -6.20872  -4.00960
 Alpha  occ. eigenvalues --   -4.00792  -4.00792  -1.28536  -1.07564  -0.89330
 Alpha  occ. eigenvalues --   -0.67740  -0.61613  -0.61613  -0.61451  -0.51388
 Alpha  occ. eigenvalues --   -0.51388  -0.38580  -0.38580
 Alpha virt. eigenvalues --    0.03234   0.03972   0.05478   0.05478   0.07426
 Alpha virt. eigenvalues --    0.07427   0.07525   0.10228   0.10229   0.12459
 Alpha virt. eigenvalues --    0.12943   0.12954   0.12954   0.14613   0.16035

 Mulliken charges:
               1
     1  Si   0.680353
     2  N    0.400806
     3  C   -0.956669
     4  S    0.287453
     5  H   -0.137314
     6  H   -0.137313
     7  H   -0.137316
 Sum of Mulliken charges =  -0.00000

 Dipole moment (field-independent basis, Debye):
    X=             -2.3259    Y=             -0.0000    Z=              0.0000  Tot=              2.3259

 Test job not archived.
 1\1\GINC-SE095\SP\RHF\Aug-CC-pVDZ\C1H3N1S1Si1\OHZDE\08-Apr-2025\0\\#t
 hf aug-cc-pvdz iop(5/13=1,5/36=2,99/5=2) pseudo=read geom=check guess=
 (read,tcheck) scf=(maxcycle=1)\\title\\0,1\Si,0,2.172662,0.000002,-0.0
 00003\N,0,0.452849,-0.000002,0.000007\C,0,-0.738682,-0.000013,0.000014
 \S,0,-2.317535,0.000003,-0.000005\H,0,2.641801,1.38574,0.194425\H,0,2.
 641813,-0.524483,-1.297296\H,0,2.641829,-0.861247,1.102856\\Version=ES
 64L-G16RevC.01\State=1-A\HF=-780.7406634\RMSD=1.206e-02\Dipole=0.91508
 96,-0.0000043,-0.0000005\Quadrupole=1.5257758,-0.7628877,-0.762888,-0.

 Normal termination of Gaussian 16 at Tue Apr  8 23:57:56 2025.
