 Gaussian 16, Revision C.01,

 ----------------------------------------------------------------------
 #t hf aug-cc-pvdz symm=none int=(grid=ultrafine) guess=(read,tcheck) s
 table=(opt,rrhf)
 ----------------------------------------------------------------------
 -----
 title
 -----
 Symbolic Z-matrix:
 Charge =  0 Multiplicity = 1

 SCF Done:  E(RHF) =  -749.703521220     A.U. after   12 cycles
 Normal termination of Gaussian 16 at Tue Apr  8 23:42:16 2025.
 Gaussian 16:  ES64L-G16RevC.01  3-Jul-2019

 ----------------------------------------------------------------------
 #t hf aug-cc-pvdz iop(5/13=1,5/36=2,99/5=2) pseudo=read geom=check gue
 ss=(read,tcheck) scf=(maxcycle=1)
 ----------------------------------------------------------------------
 -----
 title
 -----
 Structure from the checkpoint file:  "BDE49_nonexpt_1667_mol1.chk"
 Charge =  0 Multiplicity = 1

                         Standard orientation:
 ---------------------------------------------------------------------
 Center     Atomic      Atomic             Coordinates (Angstroms)
 Number     Number       Type             X           Y           Z
 ---------------------------------------------------------------------
      1         15           0        0.830561    0.130263   -0.640708
      2          6           0        1.100236    1.640814    0.428447
      3          1           0        1.042225    1.429749    1.499585
      4          1           0        0.359665    2.403309    0.176429
      5          1           0        2.086825    2.055931    0.206661
      6         14           0       -1.097645   -0.653695    0.279475
      7          6           0        2.039810   -1.053799    0.153073
      8          1           0        3.056303   -0.728380   -0.082788
      9          1           0        1.903289   -2.049921   -0.273644
     10          1           0        1.935845   -1.116687    1.239505
     11          6           0       -2.568326    0.420178   -0.200205
     12          1           0       -2.455680    1.439333    0.179158
     13          1           0       -3.494311    0.010212    0.212488
     14          1           0       -2.674669    0.472074   -1.286746
     15          1           0       -0.987986   -0.723244    1.763777
     16          1           0       -1.293206   -2.037747   -0.224346
 ---------------------------------------------------------------------

 SCF Done:  E(RHF) =  -749.921481318     A.U. after    2 cycles

 The electronic state is 1-A.
 Alpha  occ. eigenvalues --  -84.25200 -69.52513 -11.23791 -11.23689 -11.22115
 Alpha  occ. eigenvalues --   -6.72392  -6.19569  -4.24763  -4.24680  -4.24085
 Alpha  occ. eigenvalues --   -3.94899  -3.94882  -3.94871  -1.00768  -0.95468
 Alpha  occ. eigenvalues --   -0.93828  -0.76658  -0.67450  -0.58959  -0.58714
 Alpha  occ. eigenvalues --   -0.57170  -0.56554  -0.55981  -0.55694  -0.47723
 Alpha  occ. eigenvalues --   -0.47035  -0.44596  -0.39909  -0.30558
 Alpha virt. eigenvalues --    0.03678   0.03831   0.04174   0.04576   0.05897
 Alpha virt. eigenvalues --    0.06011   0.06701   0.07130   0.08191   0.08757
 Alpha virt. eigenvalues --    0.09197   0.09724   0.10393   0.11609   0.11776

 Mulliken charges:
               1
     1  P    0.498370
     2  C   -0.758383
     3  H    0.117392
     4  H    0.047730
     5  H    0.088978
     6  Si   1.392487
     7  C   -0.747131
     8  H    0.082130
     9  H    0.058140
    10  H    0.097955
    11  C   -0.657581
    12  H    0.092239
    13  H   -0.053678
    14  H    0.076465
    15  H   -0.104799
    16  H   -0.230315
 Sum of Mulliken charges =  -0.00000

 Dipole moment (field-independent basis, Debye):
    X=              0.0959    Y=              0.4966    Z=              0.6545  Tot=              0.8272

 Test job not archived.
 1\1\GINC-SE036\SP\RHF\Aug-CC-pVDZ\C3H11P1Si1\OHZDE\08-Apr-2025\0\\#t h
 f aug-cc-pvdz iop(5/13=1,5/36=2,99/5=2) pseudo=read geom=check guess=(
 read,tcheck) scf=(maxcycle=1)\\title\\0,1\P,0,0.830561,0.130263,-0.640
 708\C,0,1.100236,1.640814,0.428447\H,0,1.042225,1.429749,1.499585\H,0,
 0.359665,2.403309,0.176429\H,0,2.086825,2.055931,0.206661\Si,0,-1.0976
 45,-0.653695,0.279475\C,0,2.03981,-1.053799,0.153073\H,0,3.056303,-0.7
 2838,-0.082788\H,0,1.903289,-2.049921,-0.273644\H,0,1.935845,-1.116687
 ,1.239505\C,0,-2.568326,0.420178,-0.200205\H,0,-2.45568,1.439333,0.179

 Normal termination of Gaussian 16 at Tue Apr  8 23:42:21 2025.
