 Gaussian 16, Revision C.01,

 ----------------------------------------------------------------------
 #t hf aug-cc-pvdz symm=none int=(grid=ultrafine) guess=(read,tcheck) s
 table=(opt,rrhf)
 ----------------------------------------------------------------------
 -----
 title
 -----
 Symbolic Z-matrix:
 Charge =  0 Multiplicity = 1

 SCF Done:  E(RHF) =  -1115.38380531     A.U. after   13 cycles
 Normal termination of Gaussian 16 at Wed Apr  9 00:19:58 2025.
 Gaussian 16:  ES64L-G16RevC.01  3-Jul-2019

 ----------------------------------------------------------------------
 #t hf aug-cc-pvdz iop(5/13=1,5/36=2,99/5=2) pseudo=read geom=check gue
 ss=(read,tcheck) scf=(maxcycle=1)
 ----------------------------------------------------------------------
 -----
 title
 -----
 Structure from the checkpoint file:  "BDE49_nonexpt_259_mol1.chk"
 Charge =  0 Multiplicity = 1

                         Standard orientation:
 ---------------------------------------------------------------------
 Center     Atomic      Atomic             Coordinates (Angstroms)
 Number     Number       Type             X           Y           Z
 ---------------------------------------------------------------------
      1         17           0       -1.722188   -1.537526    0.000043
      2         17           0       -1.722187    1.537526   -0.000136
      3          7           0        0.546668    0.000000    0.000064
      4          6           0        2.593435   -0.000017    1.286240
      5          6           0        1.799907   -0.000000    0.000041
      6          6           0        2.593387    0.000016   -1.286188
      7          5           0       -0.807017    0.000000    0.000089
      8          1           0        1.933861   -0.000027    2.151898
      9          1           0        3.243715    0.879573    1.324327
     10          1           0        3.243715   -0.879608    1.324305
     11          1           0        1.933780    0.000027   -2.151821
     12          1           0        3.243665   -0.879573   -1.324300
     13          1           0        3.243665    0.879608   -1.324278
 ---------------------------------------------------------------------

 SCF Done:  E(RHF) =  -1115.74043037     A.U. after    2 cycles

 The electronic state is 1-A.
 Alpha  occ. eigenvalues -- -105.55107-105.55106 -15.50780 -11.34701 -11.26232
 Alpha  occ. eigenvalues --  -11.26220 -10.60110 -10.60075  -7.77003  -7.76981
 Alpha  occ. eigenvalues --   -7.76694  -7.76692  -7.76679  -7.76669  -7.70465
 Alpha  occ. eigenvalues --   -1.25848  -1.08470  -1.04625  -1.03163  -0.98390
 Alpha  occ. eigenvalues --   -0.88307  -0.70419  -0.66235  -0.64833  -0.62556
 Alpha  occ. eigenvalues --   -0.59106  -0.57988  -0.57890  -0.55872  -0.51500
 Alpha  occ. eigenvalues --   -0.47775  -0.47718  -0.45768  -0.43749  -0.42373
 Alpha virt. eigenvalues --    0.02696   0.03727   0.03872   0.04804   0.06492
 Alpha virt. eigenvalues --    0.06590   0.06869   0.07181   0.07731   0.09346
 Alpha virt. eigenvalues --    0.09355   0.12713   0.13041   0.13661   0.13721

 Mulliken charges:
               1
     1  Cl  -0.394631
     2  Cl  -0.394631
     3  N    1.304897
     4  C   -0.286235
     5  C   -1.354701
     6  C   -0.286231
     7  B    0.263199
     8  H    0.081741
     9  H    0.246213
    10  H    0.246212
    11  H    0.081740
    12  H    0.246212
    13  H    0.246215
 Sum of Mulliken charges =   0.00000

 Dipole moment (field-independent basis, Debye):
    X=              5.3851    Y=              0.0000    Z=              0.0002  Tot=              5.3851

 Test job not archived.
 1\1\GINC-SE435\SP\RHF\Aug-CC-pVDZ\C3H6B1Cl2N1\OHZDE\09-Apr-2025\0\\#t
 hf aug-cc-pvdz iop(5/13=1,5/36=2,99/5=2) pseudo=read geom=check guess=
 (read,tcheck) scf=(maxcycle=1)\\title\\0,1\Cl,0,-1.722188,1.537526,-0.
 000043\Cl,0,-1.722187,-1.537526,0.000136\N,0,0.546668,0.,-0.000064\C,0
 ,2.593435,0.000017,-1.28624\C,0,1.799907,0.,-0.000041\C,0,2.593387,-0.
 000016,1.286188\B,0,-0.807017,0.,-0.000089\H,0,1.933861,0.000027,-2.15
 1898\H,0,3.243715,-0.879573,-1.324327\H,0,3.243715,0.879608,-1.324305\
 H,0,1.93378,-0.000027,2.151821\H,0,3.243665,0.879573,1.3243\H,0,3.2436

 Normal termination of Gaussian 16 at Wed Apr  9 00:20:03 2025.
