 Gaussian 16, Revision C.01,

 ----------------------------------------------------------------------
 #t hf aug-cc-pvdz symm=none int=(grid=ultrafine) guess=(read,tcheck) s
 table=(opt,rrhf)
 ----------------------------------------------------------------------
 -----
 title
 -----
 Symbolic Z-matrix:
 Charge =  0 Multiplicity = 1

 SCF Done:  E(RHF) =  -1115.29431396     A.U. after   15 cycles
 Normal termination of Gaussian 16 at Wed Apr  9 00:49:51 2025.
 Gaussian 16:  ES64L-G16RevC.01  3-Jul-2019

 ----------------------------------------------------------------------
 #t hf aug-cc-pvdz iop(5/13=1,5/36=2,99/5=2) pseudo=read geom=check gue
 ss=(read,tcheck) scf=(maxcycle=1)
 ----------------------------------------------------------------------
 -----
 title
 -----
 Structure from the checkpoint file:  "BDE49_nonexpt_842_mol1.chk"
 Charge =  0 Multiplicity = 1

                         Standard orientation:
 ---------------------------------------------------------------------
 Center     Atomic      Atomic             Coordinates (Angstroms)
 Number     Number       Type             X           Y           Z
 ---------------------------------------------------------------------
      1          6           0        2.137158   -0.278960    0.150061
      2          6           0        1.693864    1.038161    0.145069
      3          6           0        0.361542    1.307446   -0.146249
      4          6           0        1.250387   -1.312092   -0.133754
      5          6           0       -0.071476   -1.002018   -0.418668
      6          6           0       -0.555204    0.302693   -0.440676
      7          9           0        3.412754   -0.552979    0.428953
      8          9           0        2.550369    2.027696    0.421583
      9          9           0       -0.023490    2.595928   -0.130988
     10          9           0        1.678396   -2.579162   -0.125702
     11          9           0       -0.911941   -2.021697   -0.685283
     12          5           0       -3.594827   -0.102389    0.653505
     13          8           0       -3.013830   -0.598932    1.767027
     14          1           0       -3.638127   -0.924919    2.425308
     15         14           0       -2.389977    0.620871   -0.814241
     16          1           0       -4.789907   -0.083951    0.550712
     17          1           0       -2.575209    2.080753   -0.977773
     18          1           0       -2.704735   -0.020127   -2.114395
 ---------------------------------------------------------------------

 SCF Done:  E(RHF) =  -1116.09768241     A.U. after    2 cycles

 The electronic state is 1-A.
 Alpha  occ. eigenvalues --  -69.53675 -26.51727 -26.51082 -26.50995 -26.50963
 Alpha  occ. eigenvalues --  -26.50653 -20.59053 -11.38596 -11.37937 -11.37871
 Alpha  occ. eigenvalues --  -11.37423 -11.37367 -11.27520  -7.64134  -6.20898
 Alpha  occ. eigenvalues --   -3.96277  -3.96234  -3.96178  -1.65800  -1.64718
 Alpha  occ. eigenvalues --   -1.64193  -1.63127  -1.62789  -1.48887  -1.20823
 Alpha  occ. eigenvalues --   -1.07098  -1.06155  -0.92555  -0.90949  -0.82787
 Alpha  occ. eigenvalues --   -0.81409  -0.80314  -0.78394  -0.74728  -0.74530
 Alpha  occ. eigenvalues --   -0.74306  -0.73114  -0.72321  -0.71377  -0.70330
 Alpha  occ. eigenvalues --   -0.68486  -0.68217  -0.67332  -0.66285  -0.65972
 Alpha  occ. eigenvalues --   -0.63286  -0.61691  -0.58541  -0.56309  -0.55730
 Alpha  occ. eigenvalues --   -0.53252  -0.51229  -0.49573  -0.43544  -0.37823
 Alpha  occ. eigenvalues --   -0.37376
 Alpha virt. eigenvalues --    0.02548   0.03930   0.04147   0.04374   0.06230
 Alpha virt. eigenvalues --    0.06489   0.06750   0.07658   0.07788   0.08448
 Alpha virt. eigenvalues --    0.08850   0.09631   0.10041   0.10475   0.10856

 Mulliken charges:
               1
     1  C    1.572063
     2  C    0.568263
     3  C    1.493262
     4  C    0.668801
     5  C    2.052885
     6  C   -1.463904
     7  F   -0.992551
     8  F   -0.970882
     9  F   -1.042676
    10  F   -0.963703
    11  F   -1.056581
    12  B    0.353295
    13  O   -1.021616
    14  H    0.495015
    15  Si   0.346073
    16  H    0.111194
    17  H   -0.080527
    18  H   -0.068411
 Sum of Mulliken charges =  -0.00000

 Dipole moment (field-independent basis, Debye):
    X=             -3.3390    Y=             -0.3435    Z=              1.0634  Tot=              3.5211

 Test job not archived.
 1\1\GINC-SE015\SP\RHF\Aug-CC-pVDZ\C6H4B1F5O1Si1\OHZDE\09-Apr-2025\0\\#
 t hf aug-cc-pvdz iop(5/13=1,5/36=2,99/5=2) pseudo=read geom=check gues
 s=(read,tcheck) scf=(maxcycle=1)\\title\\0,1\C,0,2.137158,-0.27896,0.1
 50061\C,0,1.693864,1.038161,0.145069\C,0,0.361542,1.307446,-0.146249\C
 ,0,1.250387,-1.312092,-0.133754\C,0,-0.071476,-1.002018,-0.418668\C,0,
 -0.555204,0.302693,-0.440676\F,0,3.412754,-0.552979,0.428953\F,0,2.550
 369,2.027696,0.421583\F,0,-0.02349,2.595928,-0.130988\F,0,1.678396,-2.
 579162,-0.125702\F,0,-0.911941,-2.021697,-0.685283\B,0,-3.594827,-0.10

 Normal termination of Gaussian 16 at Wed Apr  9 00:50:05 2025.
