 Gaussian 16, Revision C.01,

 ----------------------------------------------------------------------
 #t hf aug-cc-pvdz symm=none int=(grid=ultrafine) guess=(read,tcheck) s
 table=(opt,rrhf)
 ----------------------------------------------------------------------
 -----
 title
 -----
 Symbolic Z-matrix:
 Charge =  0 Multiplicity = 1

 SCF Done:  E(RHF) =  -511.369381914     A.U. after   13 cycles
 Normal termination of Gaussian 16 at Tue Apr  8 23:38:08 2025.
 Gaussian 16:  ES64L-G16RevC.01  3-Jul-2019

 ----------------------------------------------------------------------
 #t hf aug-cc-pvdz iop(5/13=1,5/36=2,99/5=2) pseudo=read geom=check gue
 ss=(read,tcheck) scf=(maxcycle=1)
 ----------------------------------------------------------------------
 -----
 title
 -----
 Structure from the checkpoint file:  "BDE49_nonexpt_1564_mol1.chk"
 Charge =  0 Multiplicity = 1

                         Standard orientation:
 ---------------------------------------------------------------------
 Center     Atomic      Atomic             Coordinates (Angstroms)
 Number     Number       Type             X           Y           Z
 ---------------------------------------------------------------------
      1         15           0        0.649730   -0.730060   -0.076980
      2          7           0       -1.025124   -0.515510    0.294892
      3          8           0       -1.612576    0.733139   -0.135143
      4          6           0        1.420811    0.946678    0.113807
      5          1           0       -2.264087    0.441628   -0.782653
      6          1           0        0.779218    1.727523   -0.294502
      7          1           0        2.379661    0.949007   -0.412652
      8          1           0        1.613537    1.147591    1.170014
      9          1           0        0.499296   -0.680036   -1.484650
     10          1           0       -1.201963   -0.571432    1.293199
 ---------------------------------------------------------------------

 SCF Done:  E(RHF) =  -511.592402162     A.U. after    2 cycles

 The electronic state is 1-A.
 Alpha  occ. eigenvalues --  -84.29045 -20.58576 -15.55038 -11.23333  -6.75858
 Alpha  occ. eigenvalues --   -4.28635  -4.28062  -4.27521  -1.47774  -1.11817
 Alpha  occ. eigenvalues --   -0.97483  -0.80820  -0.70133  -0.66637  -0.61473
 Alpha  occ. eigenvalues --   -0.57908  -0.55723  -0.50772  -0.47736  -0.42941
 Alpha  occ. eigenvalues --   -0.33810
 Alpha virt. eigenvalues --    0.03772   0.04729   0.05039   0.05802   0.06984
 Alpha virt. eigenvalues --    0.07408   0.08994   0.09986   0.11205   0.15280
 Alpha virt. eigenvalues --    0.15700   0.16484   0.17126   0.17869   0.18724

 Mulliken charges:
               1
     1  P    0.360909
     2  N    0.318652
     3  O   -1.044548
     4  C   -0.832019
     5  H    0.328814
     6  H    0.126305
     7  H    0.133012
     8  H    0.118117
     9  H    0.372847
    10  H    0.117911
 Sum of Mulliken charges =  -0.00000

 Dipole moment (field-independent basis, Debye):
    X=             -0.0265    Y=              0.5061    Z=             -0.2157  Tot=              0.5508

 Test job not archived.
 1\1\GINC-SE227\SP\RHF\Aug-CC-pVDZ\C1H6N1O1P1\OHZDE\08-Apr-2025\0\\#t h
 f aug-cc-pvdz iop(5/13=1,5/36=2,99/5=2) pseudo=read geom=check guess=(
 read,tcheck) scf=(maxcycle=1)\\title\\0,1\P,0,0.64973,-0.73006,-0.0769
 8\N,0,-1.025124,-0.51551,0.294892\O,0,-1.612576,0.733139,-0.135143\C,0
 ,1.420811,0.946678,0.113807\H,0,-2.264087,0.441628,-0.782653\H,0,0.779
 218,1.727523,-0.294502\H,0,2.379661,0.949006,-0.412652\H,0,1.613537,1.
 147591,1.170014\H,0,0.499296,-0.680036,-1.48465\H,0,-1.201963,-0.57143
 2,1.293199\\Version=ES64L-G16RevC.01\State=1-A\HF=-511.5924022\RMSD=1.

 Normal termination of Gaussian 16 at Tue Apr  8 23:38:11 2025.
