 Gaussian 16, Revision C.01,

 ----------------------------------------------------------------------
 #t hf aug-cc-pvdz symm=none int=(grid=ultrafine) guess=(read,tcheck) s
 table=opt
 ----------------------------------------------------------------------
 -----
 title
 -----
 Symbolic Z-matrix:
 Charge =  0 Multiplicity = 2

 SCF Done:  E(UHF) =  -931.598118526     A.U. after   15 cycles
 Normal termination of Gaussian 16 at Tue Apr  8 23:57:33 2025.
 Gaussian 16:  ES64L-G16RevC.01  3-Jul-2019

 ----------------------------------------------------------------------
 #t hf aug-cc-pvdz iop(5/13=1,5/36=2,99/5=2) pseudo=read geom=check gue
 ss=(read,tcheck) scf=(maxcycle=1)
 ----------------------------------------------------------------------
 -----
 title
 -----
 Structure from the checkpoint file:  "BDE49_nonexpt_2040_mol2.chk"
 Charge =  0 Multiplicity = 2

                         Standard orientation:
 ---------------------------------------------------------------------
 Center     Atomic      Atomic             Coordinates (Angstroms)
 Number     Number       Type             X           Y           Z
 ---------------------------------------------------------------------
      1         14           0        2.275307   -0.093358    0.057868
      2         15           0       -0.720424    0.006121    0.106279
      3          8           0       -0.811017    0.020626    1.567583
      4          8           0       -1.674856   -1.059626   -0.607125
      5          1           0       -1.893462   -1.783944   -0.009075
      6          8           0       -1.074923    1.357815   -0.659183
      7          1           0       -1.841806    1.799307   -0.275399
      8          8           0        0.704044   -0.294484   -0.504171
      9          1           0        2.416315    1.261440    0.649201
     10          1           0        3.125024   -0.256256   -1.145891
 ---------------------------------------------------------------------

 SCF Done:  E(UHF) =  -931.965445330     A.U. after    2 cycles

 The electronic state is 2-A.
 Alpha  occ. eigenvalues --  -84.46820 -69.59300 -20.60120 -20.59947 -20.58493
 Alpha  occ. eigenvalues --  -20.51217  -6.91607  -6.25863  -4.45789  -4.45122
 Alpha  occ. eigenvalues --   -4.45031  -4.01726  -4.01012  -4.00824  -1.56661
 Alpha  occ. eigenvalues --   -1.48513  -1.47763  -1.39586  -0.89321  -0.77502
 Alpha  occ. eigenvalues --   -0.75107  -0.69525  -0.66073  -0.63837  -0.61183
 Alpha  occ. eigenvalues --   -0.59179  -0.57600  -0.54926  -0.53073  -0.50121
 Alpha  occ. eigenvalues --   -0.46663  -0.46434  -0.35744
 Alpha virt. eigenvalues --    0.03422   0.04176   0.04653   0.06083   0.07067
 Alpha virt. eigenvalues --    0.07539   0.09102   0.10187   0.11126   0.12518
 Alpha virt. eigenvalues --    0.13653   0.13762   0.16563   0.18119   0.18236

  Beta  occ. eigenvalues --  -84.46822 -69.58731 -20.60116 -20.59952 -20.58206
  Beta  occ. eigenvalues --  -20.51225  -6.91610  -6.24966  -4.45789  -4.45129
  Beta  occ. eigenvalues --   -4.45032  -4.00660  -4.00466  -3.99630  -1.56486
  Beta  occ. eigenvalues --   -1.48510  -1.47190  -1.39570  -0.88753  -0.75949
  Beta  occ. eigenvalues --   -0.74990  -0.68798  -0.64538  -0.63743  -0.59934
  Beta  occ. eigenvalues --   -0.58090  -0.57045  -0.54721  -0.52567  -0.48870
  Beta  occ. eigenvalues --   -0.46659  -0.46224
  Beta virt. eigenvalues --    0.02115   0.03527   0.04447   0.04810   0.06274
  Beta virt. eigenvalues --    0.07708   0.08971   0.09391   0.10426   0.11197
  Beta virt. eigenvalues --    0.12806   0.14099   0.14758   0.17750   0.18836

 Mulliken charges and spin densities:
               1          2
     1  Si   1.140480   0.891609
     2  P    4.137455   0.002209
     3  O   -1.353807  -0.000455
     4  O   -1.183337   0.001186
     5  H    0.339051  -0.000194
     6  O   -1.166231   0.001980
     7  H    0.328288   0.000584
     8  O   -1.960536  -0.004119
     9  H   -0.139200   0.061175
    10  H   -0.142163   0.046027
 Sum of Mulliken charges =  -0.00000   1.00000

 Dipole moment (field-independent basis, Debye):
    X=             -0.0806    Y=             -0.2595    Z=             -1.0173  Tot=              1.0530
                          Isotropic Fermi Contact Couplings
        Atom                 a.u.       MegaHertz       Gauss      10(-4) cm-1
     1  Si(29)             0.73255    -651.04025    -232.30735    -217.16365
     2  P(31)             -0.00350      -6.33772      -2.26146      -2.11404
     3  O(17)             -0.00095       0.57700       0.20589       0.19247
     4  O(17)             -0.00069       0.41590       0.14840       0.13873
     5  H(1)               0.00003       0.12068       0.04306       0.04025
     6  O(17)              0.00152      -0.91848      -0.32774      -0.30637
     7  H(1)               0.00015       0.68120       0.24307       0.22722
     8  O(17)              0.03707     -22.47282      -8.01886      -7.49613

 Normal termination of Gaussian 16 at Tue Apr  8 23:57:38 2025.
