 Gaussian 16, Revision C.01,

 ----------------------------------------------------------------------
 #t hf aug-cc-pvdz symm=none int=(grid=ultrafine) guess=(read,tcheck) s
 table=opt
 ----------------------------------------------------------------------
 -----
 title
 -----
 Symbolic Z-matrix:
 Charge =  0 Multiplicity = 2

 SCF Done:  E(UHF) =  -1107.06756276     A.U. after   22 cycles
 Normal termination of Gaussian 16 at Tue Apr  8 23:08:47 2025.
 Gaussian 16:  ES64L-G16RevC.01  3-Jul-2019

 ----------------------------------------------------------------------
 #t hf aug-cc-pvdz iop(5/13=1,5/36=2,99/5=2) pseudo=read geom=check gue
 ss=(read,tcheck) scf=(maxcycle=1)
 ----------------------------------------------------------------------
 -----
 title
 -----
 Structure from the checkpoint file:  "BDE49_expt_620_mol2.chk"
 Charge =  0 Multiplicity = 2

                         Standard orientation:
 ---------------------------------------------------------------------
 Center     Atomic      Atomic             Coordinates (Angstroms)
 Number     Number       Type             X           Y           Z
 ---------------------------------------------------------------------
      1          6           0        0.006565   -0.091561    0.336115
      2          8           0        0.884644   -0.903472   -0.466269
      3          8           0        2.017565   -1.126577    0.174820
      4         17           0       -1.642860   -0.624536   -0.012455
      5          1           0        0.245823   -0.254883    1.380957
      6         17           0        0.260337    1.627162   -0.050254
 ---------------------------------------------------------------------

 SCF Done:  E(UHF) =  -1107.39483418     A.U. after    2 cycles

 The electronic state is 2-A.
 Alpha  occ. eigenvalues -- -105.60576-105.60031 -20.70414 -20.69320 -11.45497
 Alpha  occ. eigenvalues --  -10.65436 -10.64900  -7.82387  -7.81952  -7.81945
 Alpha  occ. eigenvalues --   -7.81860  -7.81417  -7.81414  -1.73160  -1.32760
 Alpha  occ. eigenvalues --   -1.15490  -1.07996  -0.90656  -0.79028  -0.75658
 Alpha  occ. eigenvalues --   -0.72442  -0.65335  -0.62499  -0.54916  -0.52976
 Alpha  occ. eigenvalues --   -0.50787  -0.49013  -0.48711  -0.47659
 Alpha virt. eigenvalues --    0.04055   0.07057   0.07791   0.10053   0.11492
 Alpha virt. eigenvalues --    0.12585   0.13922   0.15153   0.15323   0.15971
 Alpha virt. eigenvalues --    0.16785   0.18038   0.19943   0.20340   0.23372

  Beta  occ. eigenvalues -- -105.60579-105.60025 -20.68555 -20.66341 -11.45563
  Beta  occ. eigenvalues --  -10.65439 -10.64894  -7.82396  -7.81956  -7.81948
  Beta  occ. eigenvalues --   -7.81829  -7.81419  -7.81406  -1.67246  -1.25019
  Beta  occ. eigenvalues --   -1.13106  -1.07934  -0.90070  -0.74305  -0.71283
  Beta  occ. eigenvalues --   -0.68053  -0.62199  -0.55764  -0.52808  -0.49870
  Beta  occ. eigenvalues --   -0.49330  -0.48148  -0.47625
  Beta virt. eigenvalues --    0.04000   0.06913   0.07299   0.08013   0.10134
  Beta virt. eigenvalues --    0.11597   0.13348   0.14355   0.15241   0.15605
  Beta virt. eigenvalues --    0.16014   0.17184   0.18088   0.20254   0.20379

 Mulliken charges and spin densities:
               1          2
     1  C    0.169573  -0.021691
     2  O   -0.484399   0.062855
     3  O   -0.209425   0.958093
     4  Cl   0.067565  -0.001350
     5  H    0.372997  -0.003458
     6  Cl   0.083690   0.005551
 Sum of Mulliken charges =  -0.00000   1.00000

 Dipole moment (field-independent basis, Debye):
    X=             -0.2679    Y=              0.0031    Z=              1.3485  Tot=              1.3748
                          Isotropic Fermi Contact Couplings
        Atom                 a.u.       MegaHertz       Gauss      10(-4) cm-1
     1  C(13)             -0.01351     -15.18437      -5.41816      -5.06496
     2  O(17)              0.07731     -46.86739     -16.72345     -15.63328
     3  O(17)              0.26505    -160.66919     -57.33076     -53.59347
     4  Cl(35)            -0.00027      -0.11831      -0.04222      -0.03946
     5  H(1)               0.00018       0.82594       0.29472       0.27551
     6  Cl(35)            -0.00209      -0.91465      -0.32637      -0.30509
 --------------------------------------------------------
       Center         ----  Spin Dipole Couplings  ----

 Normal termination of Gaussian 16 at Tue Apr  8 23:08:50 2025.
