 Gaussian 16, Revision C.01,

 ----------------------------------------------------------------------
 #t hf aug-cc-pvdz symm=none int=(grid=ultrafine) guess=(read,tcheck) s
 table=(opt,rrhf)
 ----------------------------------------------------------------------
 -----
 title
 -----
 Symbolic Z-matrix:
 Charge =  0 Multiplicity = 1

 SCF Done:  E(RHF) =  -1281.62998749     A.U. after   17 cycles
 Normal termination of Gaussian 16 at Tue Apr  8 23:27:22 2025.
 Gaussian 16:  ES64L-G16RevC.01  3-Jul-2019

 ----------------------------------------------------------------------
 #t hf aug-cc-pvdz iop(5/13=1,5/36=2,99/5=2) pseudo=read geom=check gue
 ss=(read,tcheck) scf=(maxcycle=1)
 ----------------------------------------------------------------------
 -----
 title
 -----
 Structure from the checkpoint file:  "BDE49_nonexpt_1264_mol1.chk"
 Charge =  0 Multiplicity = 1

                         Standard orientation:
 ---------------------------------------------------------------------
 Center     Atomic      Atomic             Coordinates (Angstroms)
 Number     Number       Type             X           Y           Z
 ---------------------------------------------------------------------
      1          6           0       -0.779195   -0.237852   -0.296288
      2          6           0       -1.751687    0.315551   -1.136960
      3          1           0       -1.467945    0.699675   -2.110248
      4          6           0       -3.082075    0.375445   -0.726685
      5          1           0       -3.829397    0.804730   -1.384127
      6          6           0       -3.449751   -0.125512    0.519135
      7          1           0       -4.485904   -0.085629    0.835579
      8          6           0       -2.485576   -0.684820    1.358754
      9          1           0       -2.771233   -1.078606    2.327608
     10          6           0       -1.155228   -0.738844    0.957199
     11          1           0       -0.411057   -1.181880    1.609104
     12         15           0        0.955544   -0.248476   -0.919942
     13         17           0        1.621023   -2.152800   -0.355722
     14          6           0        1.719439    0.717764    0.548494
     15          8           0        2.437240    0.242729    1.385024
     16          6           0        1.392602    2.207465    0.556150
     17          9           0        0.667178    2.558776   -0.578598
     18          1           0        2.323925    2.779178    0.574247
     19          1           0        0.797363    2.441275    1.442617
 ---------------------------------------------------------------------

 SCF Done:  E(RHF) =  -1282.22563050     A.U. after    2 cycles

 The electronic state is 1-A.
 Alpha  occ. eigenvalues -- -105.56146 -84.34417 -26.47984 -20.57325 -11.37050
 Alpha  occ. eigenvalues --  -11.35458 -11.27149 -11.26828 -11.26660 -11.26572
 Alpha  occ. eigenvalues --  -11.26042 -11.26003 -10.61015  -7.77929  -7.77560
 Alpha  occ. eigenvalues --   -7.77549  -6.81010  -4.33616  -4.33239  -4.32902
 Alpha  occ. eigenvalues --   -1.60190  -1.50801  -1.17668  -1.08082  -1.03796
 Alpha  occ. eigenvalues --   -1.03350  -1.02570  -0.89722  -0.85523  -0.83484
 Alpha  occ. eigenvalues --   -0.76610  -0.72904  -0.72513  -0.71306  -0.69171
 Alpha  occ. eigenvalues --   -0.66335  -0.65352  -0.62041  -0.61623  -0.59533
 Alpha  occ. eigenvalues --   -0.59269  -0.57623  -0.53515  -0.52656  -0.52538
 Alpha  occ. eigenvalues --   -0.50964  -0.48578  -0.46804  -0.42153  -0.37706
 Alpha  occ. eigenvalues --   -0.36438  -0.34487
 Alpha virt. eigenvalues --    0.02952   0.03474   0.03697   0.04565   0.04995
 Alpha virt. eigenvalues --    0.06038   0.06557   0.07203   0.07544   0.08656
 Alpha virt. eigenvalues --    0.09390   0.09622   0.10386   0.10567   0.11370

 Mulliken charges:
               1
     1  C    0.680123
     2  C   -0.417713
     3  H   -0.245775
     4  C    0.408015
     5  H   -0.215690
     6  C    0.197939
     7  H   -0.207919
     8  C    0.482935
     9  H   -0.221211
    10  C   -0.096027
    11  H   -0.346594
    12  P    0.936184
    13  Cl  -0.509549
    14  C    0.631306
    15  O   -1.304284
    16  C    0.531465
    17  F   -0.685699
    18  H    0.178857
    19  H    0.203635
 Sum of Mulliken charges =  -0.00000

 Dipole moment (field-independent basis, Debye):
    X=             -2.9481    Y=              2.4660    Z=              0.1294  Tot=              3.8457

 Test job not archived.
 1\1\GINC-SE453\SP\RHF\Aug-CC-pVDZ\C8H7Cl1F1O1P1\OHZDE\08-Apr-2025\0\\#
 t hf aug-cc-pvdz iop(5/13=1,5/36=2,99/5=2) pseudo=read geom=check gues
 s=(read,tcheck) scf=(maxcycle=1)\\title\\0,1\C,0,-0.779195,-0.237852,-
 0.296288\C,0,-1.751687,0.315551,-1.13696\H,0,-1.467945,0.699675,-2.110
 248\C,0,-3.082075,0.375445,-0.726685\H,0,-3.829397,0.80473,-1.384127\C
 ,0,-3.449751,-0.125512,0.519135\H,0,-4.485904,-0.08563,0.835579\C,0,-2
 .485576,-0.68482,1.358754\H,0,-2.771233,-1.078606,2.327608\C,0,-1.1552
 28,-0.738844,0.957199\H,0,-0.411057,-1.18188,1.609104\P,0,0.955544,-0.

 Normal termination of Gaussian 16 at Tue Apr  8 23:27:37 2025.
