 Gaussian 16, Revision C.01,

 ----------------------------------------------------------------------
 #t hf aug-cc-pvdz symm=none int=(grid=ultrafine) guess=(read,tcheck) s
 table=(opt,rrhf)
 ----------------------------------------------------------------------
 -----
 title
 -----
 Symbolic Z-matrix:
 Charge =  0 Multiplicity = 1

 SCF Done:  E(RHF) =  -685.936073706     A.U. after   16 cycles
 Normal termination of Gaussian 16 at Tue Apr  8 23:33:10 2025.
 Gaussian 16:  ES64L-G16RevC.01  3-Jul-2019

 ----------------------------------------------------------------------
 #t hf aug-cc-pvdz iop(5/13=1,5/36=2,99/5=2) pseudo=read geom=check gue
 ss=(read,tcheck) scf=(maxcycle=1)
 ----------------------------------------------------------------------
 -----
 title
 -----
 Structure from the checkpoint file:  "BDE49_nonexpt_1431_mol1.chk"
 Charge =  0 Multiplicity = 1

                         Standard orientation:
 ---------------------------------------------------------------------
 Center     Atomic      Atomic             Coordinates (Angstroms)
 Number     Number       Type             X           Y           Z
 ---------------------------------------------------------------------
      1          6           0       -0.564610    1.403942    0.000002
      2          6           0        0.810557    1.254028    0.000003
      3          6           0        1.404077   -0.020953    0.000000
      4          6           0       -1.399006    0.275664    0.000000
      5          6           0       -0.830856   -0.998866   -0.000003
      6          6           0        0.559691   -1.131845   -0.000004
      7          1           0       -1.025976    2.384226    0.000004
      8          1           0        1.435532    2.140100    0.000005
      9         15           0        3.224466   -0.315278    0.000000
     10          1           0        0.987956   -2.128561   -0.000007
     11          1           0       -1.448008   -1.887106   -0.000006
     12          8           0       -2.735138    0.531261    0.000000
     13          6           0       -3.636839   -0.566953   -0.000003
     14          1           0       -3.512921   -1.188009   -0.894101
     15          1           0       -4.634765   -0.131832   -0.000003
     16          1           0       -3.512922   -1.188013    0.894092
     17          1           0        3.583564    0.594062    1.030367
     18          1           0        3.583570    0.594109   -1.030322
 ---------------------------------------------------------------------

 SCF Done:  E(RHF) =  -686.334524446     A.U. after    2 cycles

 The electronic state is 1-A.
 Alpha  occ. eigenvalues --  -84.27099 -20.57879 -11.31519 -11.30069 -11.25480
 Alpha  occ. eigenvalues --  -11.25408 -11.24320 -11.24252 -11.24023  -6.74138
 Alpha  occ. eigenvalues --   -4.26953  -4.26379  -4.26191  -1.50344  -1.15724
 Alpha  occ. eigenvalues --   -1.03486  -1.02515  -0.95692  -0.86857  -0.84531
 Alpha  occ. eigenvalues --   -0.79684  -0.73061  -0.68355  -0.66196  -0.64445
 Alpha  occ. eigenvalues --   -0.62466  -0.60417  -0.59285  -0.54392  -0.53329
 Alpha  occ. eigenvalues --   -0.51140  -0.49281  -0.47766  -0.46407  -0.35535
 Alpha  occ. eigenvalues --   -0.34592  -0.32268
 Alpha virt. eigenvalues --    0.03261   0.03791   0.03873   0.05150   0.05180
 Alpha virt. eigenvalues --    0.05691   0.06856   0.07310   0.08393   0.08936
 Alpha virt. eigenvalues --    0.09080   0.10388   0.11134   0.11351   0.12259

 Mulliken charges:
               1
     1  C    0.067531
     2  C    1.008575
     3  C    0.121964
     4  C    1.817090
     5  C   -0.043680
     6  C   -0.496599
     7  H   -0.291384
     8  H   -0.256240
     9  P   -0.653211
    10  H   -0.217044
    11  H   -0.427749
    12  O   -1.856200
    13  C    0.123760
    14  H    0.179557
    15  H   -0.034758
    16  H    0.179556
    17  H    0.389418
    18  H    0.389413
 Sum of Mulliken charges =  -0.00000

 Dipole moment (field-independent basis, Debye):
    X=             -1.7274    Y=             -0.6102    Z=              0.0000  Tot=              1.8320

 Test job not archived.
 1\1\GINC-SE460\SP\RHF\Aug-CC-pVDZ\C7H9O1P1\OHZDE\08-Apr-2025\0\\#t hf
 aug-cc-pvdz iop(5/13=1,5/36=2,99/5=2) pseudo=read geom=check guess=(re
 ad,tcheck) scf=(maxcycle=1)\\title\\0,1\C,0,-0.56461,1.403942,0.000002
 \C,0,0.810557,1.254028,0.000003\C,0,1.404077,-0.020953,0.\C,0,-1.39900
 6,0.275664,0.\C,0,-0.830856,-0.998866,-0.000003\C,0,0.559691,-1.131845
 ,-0.000004\H,0,-1.025976,2.384226,0.000004\H,0,1.435532,2.1401,0.00000
 5\P,0,3.224466,-0.315278,0.\H,0,0.987956,-2.128561,-0.000007\H,0,-1.44
 8008,-1.887106,-0.000006\O,0,-2.735138,0.531261,0.\C,0,-3.636839,-0.56

 Normal termination of Gaussian 16 at Tue Apr  8 23:33:18 2025.
