 Gaussian 16, Revision C.01,

 ----------------------------------------------------------------------
 #t hf aug-cc-pvdz symm=none int=(grid=ultrafine) guess=(read,tcheck) s
 table=opt
 ----------------------------------------------------------------------
 -----
 title
 -----
 Symbolic Z-matrix:
 Charge =  0 Multiplicity = 2

 SCF Done:  E(UHF) =  -352.511245149     A.U. after   17 cycles
 Normal termination of Gaussian 16 at Wed Apr  9 00:34:01 2025.
 Gaussian 16:  ES64L-G16RevC.01  3-Jul-2019

 ----------------------------------------------------------------------
 #t hf aug-cc-pvdz iop(5/13=1,5/36=2,99/5=2) pseudo=read geom=check gue
 ss=(read,tcheck) scf=(maxcycle=1)
 ----------------------------------------------------------------------
 -----
 title
 -----
 Structure from the checkpoint file:  "BDE49_nonexpt_419_mol2.chk"
 Charge =  0 Multiplicity = 2

                         Standard orientation:
 ---------------------------------------------------------------------
 Center     Atomic      Atomic             Coordinates (Angstroms)
 Number     Number       Type             X           Y           Z
 ---------------------------------------------------------------------
      1          9           0        2.411499   -0.646745    0.169311
      2          5           0        1.479427    0.051850   -0.429318
      3          6           0        0.040119    0.315689    0.211417
      4          8           0       -0.806650   -0.586591   -0.463403
      5          8           0       -0.365886    1.664789    0.097343
      6          6           0       -2.083162   -0.758607    0.152642
      7          1           0       -1.978829   -1.200746    1.151716
      8          1           0       -2.649604   -1.437596   -0.483780
      9          1           0       -2.610293    0.196019    0.232846
     10          1           0       -0.257650    1.919537   -0.827502
     11          1           0        0.034301    0.116163    1.293640
 ---------------------------------------------------------------------

 SCF Done:  E(UHF) =  -352.853309574     A.U. after    2 cycles

 The electronic state is 2-A.
 Alpha  occ. eigenvalues --  -26.49415 -20.56733 -20.56466 -11.34043 -11.29047
 Alpha  occ. eigenvalues --   -7.69379  -1.62681  -1.50605  -1.44072  -0.98401
 Alpha  occ. eigenvalues --   -0.89258  -0.79642  -0.73364  -0.70821  -0.68614
 Alpha  occ. eigenvalues --   -0.67124  -0.67092  -0.60638  -0.59274  -0.56169
 Alpha  occ. eigenvalues --   -0.48963  -0.47904  -0.44858  -0.36396
 Alpha virt. eigenvalues --    0.03755   0.04020   0.04256   0.04821   0.06285
 Alpha virt. eigenvalues --    0.06749   0.06949   0.08228   0.10318   0.11638
 Alpha virt. eigenvalues --    0.13170   0.13747   0.14575   0.16442   0.17050

  Beta  occ. eigenvalues --  -26.49106 -20.56776 -20.56493 -11.33709 -11.29051
  Beta  occ. eigenvalues --   -7.67503  -1.61826  -1.50568  -1.44134  -0.97838
  Beta  occ. eigenvalues --   -0.88657  -0.78116  -0.72332  -0.69342  -0.68069
  Beta  occ. eigenvalues --   -0.67094  -0.65565  -0.60512  -0.59109  -0.55613
  Beta  occ. eigenvalues --   -0.48364  -0.46507  -0.44825
  Beta virt. eigenvalues --    0.03091   0.03893   0.04323   0.04744   0.06379
  Beta virt. eigenvalues --    0.06686   0.06930   0.07871   0.09113   0.12192
  Beta virt. eigenvalues --    0.12727   0.13936   0.14210   0.15982   0.16528

 Mulliken charges and spin densities:
               1          2
     1  F   -0.499266  -0.037656
     2  B    0.483997   1.022066
     3  C    1.658201   0.024720
     4  O   -1.291263   0.004943
     5  O   -1.170180   0.001542
     6  C    0.172072  -0.006196
     7  H    0.156388   0.001633
     8  H   -0.006965  -0.000629
     9  H    0.193389  -0.000977
    10  H    0.307489  -0.001140
    11  H   -0.003863  -0.008306
 Sum of Mulliken charges =  -0.00000   1.00000

 Dipole moment (field-independent basis, Debye):
    X=             -1.0782    Y=             -0.1449    Z=              0.1532  Tot=              1.0987
                          Isotropic Fermi Contact Couplings
        Atom                 a.u.       MegaHertz       Gauss      10(-4) cm-1
     1  F(19)              0.06811     286.55867     102.25126      95.58568
     2  B(11)              0.32389     464.56960     165.76999     154.96374
     3  C(13)              0.06106      68.64113      24.49286      22.89622
     4  O(17)             -0.00942       5.70889       2.03707       1.90428
     5  O(17)              0.00093      -0.56471      -0.20150      -0.18837
     6  C(13)             -0.00009      -0.10425      -0.03720      -0.03477
     7  H(1)               0.00023       1.01979       0.36389       0.34017
     8  H(1)               0.00030       1.33394       0.47598       0.44495

 Normal termination of Gaussian 16 at Wed Apr  9 00:34:05 2025.
