 Gaussian 16, Revision C.01,

 ----------------------------------------------------------------------
 #t hf aug-cc-pvdz symm=none int=(grid=ultrafine) guess=(read,tcheck) s
 table=(opt,rrhf)
 ----------------------------------------------------------------------
 -----
 title
 -----
 Symbolic Z-matrix:
 Charge =  0 Multiplicity = 1

 SCF Done:  E(RHF) =  -561.387603794     A.U. after   11 cycles
 Normal termination of Gaussian 16 at Tue Apr  8 22:44:19 2025.
 Gaussian 16:  ES64L-G16RevC.01  3-Jul-2019

 ----------------------------------------------------------------------
 #t hf aug-cc-pvdz iop(5/13=1,5/36=2,99/5=2) pseudo=read geom=check gue
 ss=(read,tcheck) scf=(maxcycle=1)
 ----------------------------------------------------------------------
 -----
 title
 -----
 Structure from the checkpoint file:  "BDE49_expt_1491_mol1.chk"
 Charge =  0 Multiplicity = 1

                         Standard orientation:
 ---------------------------------------------------------------------
 Center     Atomic      Atomic             Coordinates (Angstroms)
 Number     Number       Type             X           Y           Z
 ---------------------------------------------------------------------
      1          6           0       -1.892230   -0.462249    0.000013
      2          8           0       -0.785545    0.432383   -0.000022
      3         14           0        0.828054    0.032649    0.000001
      4          6           0        1.730183    1.670588   -0.000062
      5          1           0        1.469660    2.259774   -0.883726
      6          1           0        2.814970    1.524715   -0.000051
      7          1           0        1.469652    2.259847    0.883552
      8          6           0        1.258131   -0.966873    1.533471
      9          1           0        1.011889   -0.417210    2.446830
     10          1           0        2.329395   -1.192094    1.559214
     11          1           0        0.724552   -1.922031    1.562781
     12          6           0        1.258145   -0.967000   -1.533382
     13          1           0        1.011913   -0.417411   -2.446788
     14          1           0        0.724565   -1.922159   -1.562619
     15          1           0        2.329409   -1.192223   -1.559096
     16          6           0       -3.182545    0.340820   -0.000026
     17          1           0       -1.853830   -1.111433    0.885382
     18          1           0       -1.853824   -1.111509   -0.885300
     19          1           0       -3.233099    0.979505    0.884803
     20          1           0       -4.050659   -0.325069    0.000000
     21          1           0       -3.233093    0.979429   -0.884911
 ---------------------------------------------------------------------

 SCF Done:  E(RHF) =  -561.719292182     A.U. after    2 cycles

 The electronic state is 1-A.
 Alpha  occ. eigenvalues --  -69.53000 -20.51788 -11.28556 -11.22185 -11.20620
 Alpha  occ. eigenvalues --  -11.20617 -11.20302  -6.19642  -3.95108  -3.94958
 Alpha  occ. eigenvalues --   -3.94937  -1.42211  -1.01618  -0.96852  -0.92638
 Alpha  occ. eigenvalues --   -0.92539  -0.83844  -0.69947  -0.64910  -0.59747
 Alpha  occ. eigenvalues --   -0.58655  -0.56702  -0.56067  -0.55901  -0.54811
 Alpha  occ. eigenvalues --   -0.53907  -0.53394  -0.52353  -0.52339  -0.46518
 Alpha  occ. eigenvalues --   -0.46158  -0.42571  -0.40835
 Alpha virt. eigenvalues --    0.03369   0.03743   0.03817   0.03992   0.05612
 Alpha virt. eigenvalues --    0.05905   0.06136   0.06590   0.06745   0.08288
 Alpha virt. eigenvalues --    0.08792   0.09042   0.09409   0.10039   0.11486

 Mulliken charges:
               1
     1  C    0.479801
     2  O   -2.145127
     3  Si   3.780497
     4  C   -0.634294
     5  H   -0.017100
     6  H   -0.026254
     7  H   -0.017098
     8  C   -0.647402
     9  H   -0.030971
    10  H   -0.012177
    11  H   -0.075474
    12  C   -0.647400
    13  H   -0.030971
    14  H   -0.075476
    15  H   -0.012177
    16  C   -0.514963
    17  H    0.082169
    18  H    0.082169
    19  H    0.155470
    20  H    0.151307
    21  H    0.155472
 Sum of Mulliken charges =  -0.00000

 Dipole moment (field-independent basis, Debye):
    X=              0.0515    Y=             -0.9832    Z=              0.0000  Tot=              0.9845

 Test job not archived.
 1\1\GINC-SE453\SP\RHF\Aug-CC-pVDZ\C5H14O1Si1\OHZDE\08-Apr-2025\0\\#t h
 f aug-cc-pvdz iop(5/13=1,5/36=2,99/5=2) pseudo=read geom=check guess=(
 read,tcheck) scf=(maxcycle=1)\\title\\0,1\C,0,-1.89223,-0.462249,0.000
 013\O,0,-0.785545,0.432383,-0.000022\Si,0,0.828054,0.032649,0.000001\C
 ,0,1.730183,1.670588,-0.000062\H,0,1.46966,2.259774,-0.883726\H,0,2.81
 497,1.524715,-0.000051\H,0,1.469652,2.259847,0.883552\C,0,1.258131,-0.
 966873,1.533471\H,0,1.011889,-0.41721,2.44683\H,0,2.329395,-1.192094,1
 .559214\H,0,0.724552,-1.922031,1.562781\C,0,1.258145,-0.967,-1.533382\

 Normal termination of Gaussian 16 at Tue Apr  8 22:44:28 2025.
