 Gaussian 16, Revision C.01,

 ----------------------------------------------------------------------
 #t hf aug-cc-pvdz symm=none int=(grid=ultrafine) guess=(read,tcheck) s
 table=(opt,rrhf)
 ----------------------------------------------------------------------
 -----
 title
 -----
 Symbolic Z-matrix:
 Charge =  0 Multiplicity = 1

 SCF Done:  E(RHF) =  -143.522273833     A.U. after   12 cycles
 Normal termination of Gaussian 16 at Wed Apr  9 00:23:46 2025.
 Gaussian 16:  ES64L-G16RevC.01  3-Jul-2019

 ----------------------------------------------------------------------
 #t hf aug-cc-pvdz iop(5/13=1,5/36=2,99/5=2) pseudo=read geom=check gue
 ss=(read,tcheck) scf=(maxcycle=1)
 ----------------------------------------------------------------------
 -----
 title
 -----
 Structure from the checkpoint file:  "BDE49_nonexpt_268_mol1.chk"
 Charge =  0 Multiplicity = 1

                         Standard orientation:
 ---------------------------------------------------------------------
 Center     Atomic      Atomic             Coordinates (Angstroms)
 Number     Number       Type             X           Y           Z
 ---------------------------------------------------------------------
      1          5           0       -1.744349   -0.611687   -0.129407
      2          6           0       -0.783101    0.542631    0.271127
      3          6           0        1.527063   -0.539554    0.177237
      4          6           0        0.622626    0.579119   -0.349230
      5          1           0       -0.737241    0.668969    1.361471
      6          1           0        1.096534    1.547145   -0.151134
      7          1           0        0.538512    0.494462   -1.438462
      8          1           0        1.105246   -1.525590   -0.043682
      9          1           0       -1.361846    1.430305   -0.058547
     10          1           0        2.522065   -0.496846   -0.273965
     11          1           0        1.650982   -0.468173    1.262715
     12          1           0       -2.746610   -0.801716    0.492784
     13          1           0       -1.545428   -1.283291   -1.098947
 ---------------------------------------------------------------------

 SCF Done:  E(RHF) =  -143.686010102     A.U. after    2 cycles

 The electronic state is 1-A.
 Alpha  occ. eigenvalues --  -11.22853 -11.22279 -11.20933  -7.58995  -1.05689
 Alpha  occ. eigenvalues --   -0.93528  -0.81272  -0.68224  -0.61480  -0.60739
 Alpha  occ. eigenvalues --   -0.55953  -0.52070  -0.50283  -0.48345  -0.45569
 Alpha  occ. eigenvalues --   -0.44977
 Alpha virt. eigenvalues --    0.03486   0.03547   0.03869   0.04062   0.05966
 Alpha virt. eigenvalues --    0.06334   0.06645   0.07128   0.08235   0.09634
 Alpha virt. eigenvalues --    0.10948   0.11698   0.12886   0.13155   0.14793

 Mulliken charges:
               1
     1  B   -0.453759
     2  C   -0.204232
     3  C   -0.365961
     4  C   -0.413824
     5  H    0.063233
     6  H    0.145691
     7  H    0.138884
     8  H    0.159380
     9  H    0.130408
    10  H    0.108044
    11  H    0.159937
    12  H    0.245871
    13  H    0.286327
 Sum of Mulliken charges =  -0.00000

 Dipole moment (field-independent basis, Debye):
    X=              0.3197    Y=              0.5045    Z=              0.1079  Tot=              0.6069

 Test job not archived.
 1\1\GINC-SE247\SP\RHF\Aug-CC-pVDZ\C3H9B1\OHZDE\09-Apr-2025\0\\#t hf au
 g-cc-pvdz iop(5/13=1,5/36=2,99/5=2) pseudo=read geom=check guess=(read
 ,tcheck) scf=(maxcycle=1)\\title\\0,1\B,0,-1.744349,-0.611687,-0.12940
 7\C,0,-0.783101,0.542631,0.271127\C,0,1.527063,-0.539554,0.177237\C,0,
 0.622626,0.579119,-0.34923\H,0,-0.737241,0.668969,1.361471\H,0,1.09653
 4,1.547145,-0.151134\H,0,0.538512,0.494462,-1.438462\H,0,1.105246,-1.5
 2559,-0.043682\H,0,-1.361846,1.430305,-0.058547\H,0,2.522065,-0.496846
 ,-0.273965\H,0,1.650982,-0.468173,1.262715\H,0,-2.74661,-0.801716,0.49

 Normal termination of Gaussian 16 at Wed Apr  9 00:23:48 2025.
