 Gaussian 16, Revision C.01,

 ----------------------------------------------------------------------
 #t hf aug-cc-pvdz symm=none int=(grid=ultrafine) guess=(read,tcheck) s
 table=opt
 ----------------------------------------------------------------------
 -----
 title
 -----
 Symbolic Z-matrix:
 Charge =  0 Multiplicity = 2

 SCF Done:  E(UHF) =  -1156.38574617     A.U. after   15 cycles
 Normal termination of Gaussian 16 at Tue Apr  8 23:37:29 2025.
 Gaussian 16:  ES64L-G16RevC.01  3-Jul-2019

 ----------------------------------------------------------------------
 #t hf aug-cc-pvdz iop(5/13=1,5/36=2,99/5=2) pseudo=read geom=check gue
 ss=(read,tcheck) scf=(maxcycle=1)
 ----------------------------------------------------------------------
 -----
 title
 -----
 Structure from the checkpoint file:  "BDE49_nonexpt_1445_mol2.chk"
 Charge =  0 Multiplicity = 2

                         Standard orientation:
 ---------------------------------------------------------------------
 Center     Atomic      Atomic             Coordinates (Angstroms)
 Number     Number       Type             X           Y           Z
 ---------------------------------------------------------------------
      1         15           0        0.000001   -1.377056    0.000021
      2         14           0        1.814772    0.009200    0.001450
      3          6           0        3.279853   -1.052898   -0.530040
      4          1           0        3.407215   -1.911920    0.134574
      5          1           0        4.207105   -0.470213   -0.510327
      6          1           0        3.145829   -1.436177   -1.545553
      7          6           0        2.123647    0.640998    1.754767
      8          1           0        2.218346   -0.187336    2.462121
      9          1           0        1.317968    1.291168    2.103690
     10          1           0        3.056797    1.214410    1.784263
     11          6           0        1.676404    1.472403   -1.184912
     12          1           0        1.486012    1.139202   -2.208816
     13          1           0        2.617349    2.033667   -1.188455
     14          1           0        0.878989    2.163320   -0.900753
     15         14           0       -1.814772    0.009199   -0.001446
     16          6           0       -3.279878   -1.052919    0.529939
     17          1           0       -3.407206   -1.911919   -0.134710
     18          1           0       -4.207129   -0.470234    0.510198
     19          1           0       -3.145903   -1.436230    1.545445
     20          6           0       -2.123559    0.641053   -1.754758
     21          1           0       -2.218222   -0.187260   -2.462144
     22          1           0       -1.317863    1.291235   -2.103619
     23          1           0       -3.056708    1.214465   -1.784283
     24          6           0       -1.676469    1.472366    1.184967
     25          1           0       -1.486126    1.139135    2.208871
     26          1           0       -2.617415    2.033627    1.188480
     27          1           0       -0.879042    2.163295    0.900869
 ---------------------------------------------------------------------

 SCF Done:  E(UHF) =  -1156.76555731     A.U. after    2 cycles

 The electronic state is 2-A.
 Alpha  occ. eigenvalues --  -84.24198 -69.52429 -69.52428 -11.21594 -11.21590
 Alpha  occ. eigenvalues --  -11.21340 -11.21339 -11.20914 -11.20912  -6.71618
 Alpha  occ. eigenvalues --   -6.19308  -6.19287  -4.24495  -4.23733  -4.23270
 Alpha  occ. eigenvalues --   -3.94620  -3.94608  -3.94599  -3.94597  -3.94589
 Alpha  occ. eigenvalues --   -3.94589  -0.98659  -0.97720  -0.93387  -0.93116
 Alpha  occ. eigenvalues --   -0.92795  -0.92563  -0.82110  -0.65018  -0.61612
 Alpha  occ. eigenvalues --   -0.58260  -0.57988  -0.57071  -0.56984  -0.56695
 Alpha  occ. eigenvalues --   -0.56452  -0.55432  -0.54813  -0.54669  -0.54501
 Alpha  occ. eigenvalues --   -0.53919  -0.53834  -0.45370  -0.44923  -0.44443
 Alpha  occ. eigenvalues --   -0.44400  -0.37431  -0.32686  -0.32106
 Alpha virt. eigenvalues --    0.03092   0.03271   0.03727   0.04030   0.05088
 Alpha virt. eigenvalues --    0.05277   0.05347   0.06071   0.06329   0.07469
 Alpha virt. eigenvalues --    0.07754   0.07876   0.08239   0.08351   0.09487

  Beta  occ. eigenvalues --  -84.23575 -69.52468 -69.52468 -11.21569 -11.21566
  Beta  occ. eigenvalues --  -11.21284 -11.21283 -11.20915 -11.20913  -6.70832
  Beta  occ. eigenvalues --   -6.19367  -6.19346  -4.23270  -4.22861  -4.21462
  Beta  occ. eigenvalues --   -3.94736  -3.94726  -3.94641  -3.94639  -3.94625
  Beta  occ. eigenvalues --   -3.94625  -0.98400  -0.97658  -0.93263  -0.93073
  Beta  occ. eigenvalues --   -0.92691  -0.92532  -0.76113  -0.64997  -0.60760
  Beta  occ. eigenvalues --   -0.58061  -0.57934  -0.56921  -0.56906  -0.56598
  Beta  occ. eigenvalues --   -0.55772  -0.55263  -0.54676  -0.54565  -0.54472
  Beta  occ. eigenvalues --   -0.53895  -0.53810  -0.44849  -0.44624  -0.44278
  Beta  occ. eigenvalues --   -0.44115  -0.36514  -0.31102
  Beta virt. eigenvalues --    0.02421   0.03106   0.03275   0.04056   0.05004
  Beta virt. eigenvalues --    0.05128   0.05282   0.05362   0.06345   0.06390
  Beta virt. eigenvalues --    0.07474   0.07764   0.07917   0.08268   0.08359

 Mulliken charges and spin densities:
               1          2
     1  P   -1.170066   1.315721
     2  Si   2.301925  -0.192391
     3  C   -0.481069   0.008843
     4  H   -0.042106   0.003954
     5  H   -0.024648  -0.001270
     6  H   -0.063249   0.004047
     7  C   -0.404781   0.000272
     8  H   -0.052583   0.000611
     9  H   -0.086723   0.005656
    10  H    0.015360   0.001135
    11  C   -0.427354   0.002487
    12  H   -0.039846   0.002460
    13  H   -0.053960  -0.000749
    14  H   -0.055929   0.007085
    15  Si   2.301901  -0.192399
    16  C   -0.481060   0.008844
    17  H   -0.042104   0.003955
    18  H   -0.024647  -0.001270
    19  H   -0.063246   0.004048
    20  C   -0.404770   0.000274
    21  H   -0.052583   0.000611
    22  H   -0.086723   0.005656
    23  H    0.015360   0.001135
    24  C   -0.427355   0.002488
    25  H   -0.039866   0.002459
    26  H   -0.053942  -0.000749
    27  H   -0.055937   0.007085
 Sum of Mulliken charges =   0.00000   1.00000

 Dipole moment (field-independent basis, Debye):
    X=              0.0000    Y=              1.1946    Z=             -0.0000  Tot=              1.1946
                          Isotropic Fermi Contact Couplings
        Atom                 a.u.       MegaHertz       Gauss      10(-4) cm-1
     1  P(31)              0.14015     253.82221      90.57008      84.66598
     2  Si(29)            -0.04493      39.93158      14.24858      13.31974
     3  C(13)             -0.00055      -0.61739      -0.22030      -0.20594
     4  H(1)              -0.00006      -0.27612      -0.09853      -0.09210
     5  H(1)              -0.00031      -1.38176      -0.49305      -0.46090
     6  H(1)               0.00006       0.27135       0.09683       0.09051
     7  C(13)              0.01477      16.60685       5.92574       5.53945
     8  H(1)              -0.00013      -0.60324      -0.21525      -0.20122

 Normal termination of Gaussian 16 at Tue Apr  8 23:37:49 2025.
