 Gaussian 16, Revision C.01,

 ----------------------------------------------------------------------
 #t hf aug-cc-pvdz symm=none int=(grid=ultrafine) guess=(read,tcheck) s
 table=(opt,rrhf)
 ----------------------------------------------------------------------
 -----
 title
 -----
 Symbolic Z-matrix:
 Charge =  0 Multiplicity = 1

 SCF Done:  E(RHF) =  -650.651113802     A.U. after   14 cycles
 Normal termination of Gaussian 16 at Tue Apr  8 23:03:07 2025.
 Gaussian 16:  ES64L-G16RevC.01  3-Jul-2019

 ----------------------------------------------------------------------
 #t hf aug-cc-pvdz iop(5/13=1,5/36=2,99/5=2) pseudo=read geom=check gue
 ss=(read,tcheck) scf=(maxcycle=1)
 ----------------------------------------------------------------------
 -----
 title
 -----
 Structure from the checkpoint file:  "BDE49_expt_331_mol1.chk"
 Charge =  0 Multiplicity = 1

                         Standard orientation:
 ---------------------------------------------------------------------
 Center     Atomic      Atomic             Coordinates (Angstroms)
 Number     Number       Type             X           Y           Z
 ---------------------------------------------------------------------
      1          6           0        0.000242   -0.000058   -0.547785
      2          7           0        1.435409    0.065947   -0.043155
      3          7           0       -0.774622    1.209793   -0.043250
      4          8           0        1.668438    0.787795    0.898275
      5          8           0        2.195576   -0.654941   -0.655389
      6          8           0       -1.516486    1.050590    0.897999
      7          8           0       -0.530801    2.228463   -0.655801
      8          7           0       -0.660230   -1.276052   -0.043492
      9          1           0        0.000346    0.000040   -1.631272
     10          8           0       -1.665113   -1.573235   -0.655253
     11          8           0       -0.152326   -1.838361    0.898577
 ---------------------------------------------------------------------

 SCF Done:  E(RHF) =  -651.259479185     A.U. after    2 cycles

 The electronic state is 1-A.
 Alpha  occ. eigenvalues --  -20.66468 -20.66464 -20.66464 -20.66004 -20.66003
 Alpha  occ. eigenvalues --  -20.66003 -15.86766 -15.86766 -15.86727 -11.49366
 Alpha  occ. eigenvalues --   -1.75656  -1.74216  -1.74216  -1.59011  -1.59011
 Alpha  occ. eigenvalues --   -1.58844  -1.27552  -1.07513  -1.07512  -0.92515
 Alpha  occ. eigenvalues --   -0.88750  -0.88748  -0.86985  -0.81415  -0.81415
 Alpha  occ. eigenvalues --   -0.80373  -0.80372  -0.80311  -0.74593  -0.59506
 Alpha  occ. eigenvalues --   -0.57265  -0.57264  -0.55524  -0.54377  -0.54376
 Alpha  occ. eigenvalues --   -0.52382  -0.50444  -0.50441
 Alpha virt. eigenvalues --   -0.00893  -0.00884   0.00273   0.03196   0.08809
 Alpha virt. eigenvalues --    0.08811   0.09738   0.12402   0.12402   0.12758
 Alpha virt. eigenvalues --    0.13492   0.13493   0.13529   0.18884   0.19228

 Mulliken charges:
               1
     1  C   -0.329029
     2  N    2.813923
     3  N    2.813741
     4  O   -1.341911
     5  O   -1.366754
     6  O   -1.341775
     7  O   -1.366725
     8  N    2.813995
     9  H    0.013377
    10  O   -1.366751
    11  O   -1.342090
 Sum of Mulliken charges =   0.00000

 Dipole moment (field-independent basis, Debye):
    X=              0.0009    Y=             -0.0005    Z=             -2.2143  Tot=              2.2143

 Test job not archived.
 1\1\GINC-SE455\SP\RHF\Aug-CC-pVDZ\C1H1N3O6\OHZDE\08-Apr-2025\0\\#t hf
 aug-cc-pvdz iop(5/13=1,5/36=2,99/5=2) pseudo=read geom=check guess=(re
 ad,tcheck) scf=(maxcycle=1)\\title\\0,1\C,0,0.000242,-0.000058,-0.5477
 85\N,0,1.435408,0.065972,-0.043155\N,0,-0.774643,1.209779,-0.04325\O,0
 ,1.668424,0.787824,0.898275\O,0,2.195587,-0.654903,-0.655389\O,0,-1.51
 6504,1.050564,0.897999\O,0,-0.530839,2.228454,-0.655801\N,0,-0.660208,
 -1.276064,-0.043492\H,0,0.000346,0.00004,-1.631272\O,0,-1.665086,-1.57
 3264,-0.655253\O,0,-0.152294,-1.838364,0.898577\\Version=ES64L-G16RevC

 Normal termination of Gaussian 16 at Tue Apr  8 23:03:12 2025.
