 Gaussian 16, Revision C.01,

 ----------------------------------------------------------------------
 #t hf aug-cc-pvdz symm=none int=(grid=ultrafine) guess=(read,tcheck) s
 table=(opt,rrhf)
 ----------------------------------------------------------------------
 -----
 title
 -----
 Symbolic Z-matrix:
 Charge =  0 Multiplicity = 1

 SCF Done:  E(RHF) =  -756.470603169     A.U. after   11 cycles
 Normal termination of Gaussian 16 at Wed Apr  9 00:13:38 2025.
 Gaussian 16:  ES64L-G16RevC.01  3-Jul-2019

 ----------------------------------------------------------------------
 #t hf aug-cc-pvdz iop(5/13=1,5/36=2,99/5=2) pseudo=read geom=check gue
 ss=(read,tcheck) scf=(maxcycle=1)
 ----------------------------------------------------------------------
 -----
 title
 -----
 Structure from the checkpoint file:  "BDE49_nonexpt_2455_mol1.chk"
 Charge =  0 Multiplicity = 1

                         Standard orientation:
 ---------------------------------------------------------------------
 Center     Atomic      Atomic             Coordinates (Angstroms)
 Number     Number       Type             X           Y           Z
 ---------------------------------------------------------------------
      1         14           0       -2.164807    0.001712   -0.546320
      2         14           0       -0.361924   -0.003087    0.978245
      3          5           0        1.415829    0.000035   -0.009320
      4          1           0       -0.498157   -1.207650    1.836787
      5          1           0       -0.498179    1.196055    1.844343
      6          1           0       -2.114048    1.204908   -1.414334
      7          1           0       -3.468354   -0.000440    0.163442
      8          8           0        1.962854    1.209558   -0.330689
      9          8           0        1.962923   -1.207432   -0.338212
     10          1           0       -2.114149   -1.196068   -1.421798
     11          1           0        2.790851    1.177524   -0.825136
     12          1           0        2.790917   -1.172273   -0.832452
 ---------------------------------------------------------------------

 SCF Done:  E(RHF) =  -756.712736657     A.U. after    2 cycles

 The electronic state is 1-A.
 Alpha  occ. eigenvalues --  -69.51826 -69.50560 -20.57463 -20.57463  -7.65380
 Alpha  occ. eigenvalues --   -6.19013  -6.17938  -3.94365  -3.94363  -3.94356
 Alpha  occ. eigenvalues --   -3.93271  -3.93269  -3.93229  -1.49488  -1.45420
 Alpha  occ. eigenvalues --   -0.80996  -0.75495  -0.74922  -0.68067  -0.64401
 Alpha  occ. eigenvalues --   -0.58223  -0.53753  -0.50831  -0.49416  -0.48712
 Alpha  occ. eigenvalues --   -0.46456  -0.43709  -0.39309
 Alpha virt. eigenvalues --    0.02027   0.04074   0.04894   0.05218   0.06240
 Alpha virt. eigenvalues --    0.06938   0.07356   0.08115   0.08971   0.09166
 Alpha virt. eigenvalues --    0.09533   0.09810   0.10398   0.11452   0.11479

 Mulliken charges:
               1
     1  Si   0.438139
     2  Si  -0.097845
     3  B    1.588909
     4  H   -0.102856
     5  H   -0.102855
     6  H   -0.127982
     7  H   -0.133822
     8  O   -1.148079
     9  O   -1.148081
    10  H   -0.127995
    11  H    0.481237
    12  H    0.481231
 Sum of Mulliken charges =  -0.00000

 Dipole moment (field-independent basis, Debye):
    X=              3.0377    Y=              0.0044    Z=             -1.4035  Tot=              3.3462

 Test job not archived.
 1\1\GINC-SE366\SP\RHF\Aug-CC-pVDZ\B1H7O2Si2\OHZDE\09-Apr-2025\0\\#t hf
  aug-cc-pvdz iop(5/13=1,5/36=2,99/5=2) pseudo=read geom=check guess=(r
 ead,tcheck) scf=(maxcycle=1)\\title\\0,1\Si,0,2.164807,0.001712,0.5463
 2\Si,0,0.361924,-0.003087,-0.978245\B,0,-1.415829,0.000035,0.00932\H,0
 ,0.498157,-1.20765,-1.836787\H,0,0.498179,1.196055,-1.844343\H,0,2.114
 048,1.204908,1.414334\H,0,3.468354,-0.00044,-0.163442\O,0,-1.962854,1.
 209558,0.330689\O,0,-1.962923,-1.207432,0.338212\H,0,2.114149,-1.19606
 8,1.421798\H,0,-2.790851,1.177524,0.825136\H,0,-2.790917,-1.172273,0.8

 Normal termination of Gaussian 16 at Wed Apr  9 00:13:41 2025.
