 Gaussian 16, Revision C.01,

 ----------------------------------------------------------------------
 #t hf aug-cc-pvdz symm=none int=(grid=ultrafine) guess=(read,tcheck) s
 table=(opt,rrhf)
 ----------------------------------------------------------------------
 -----
 title
 -----
 Symbolic Z-matrix:
 Charge =  0 Multiplicity = 1

 SCF Done:  E(RHF) =  -1074.17037192     A.U. after   14 cycles
 Normal termination of Gaussian 16 at Tue Apr  8 23:49:10 2025.
 Gaussian 16:  ES64L-G16RevC.01  3-Jul-2019

 ----------------------------------------------------------------------
 #t hf aug-cc-pvdz iop(5/13=1,5/36=2,99/5=2) pseudo=read geom=check gue
 ss=(read,tcheck) scf=(maxcycle=1)
 ----------------------------------------------------------------------
 -----
 title
 -----
 Structure from the checkpoint file:  "BDE49_nonexpt_1786_mol1.chk"
 Charge =  0 Multiplicity = 1

                         Standard orientation:
 ---------------------------------------------------------------------
 Center     Atomic      Atomic             Coordinates (Angstroms)
 Number     Number       Type             X           Y           Z
 ---------------------------------------------------------------------
      1         14           0       -1.592998   -1.121568   -0.115723
      2          6           0        0.289042   -0.884291   -0.266437
      3         17           0       -2.845460    0.492717    0.408784
      4          7           0        1.098424    0.179675   -0.072421
      5          6           0        0.621634    1.489852    0.379851
      6          8           0        0.693410   -1.996444   -0.623405
      7          6           0        2.540950    0.007570   -0.311635
      8          6           0        0.431584    2.496387   -0.756859
      9          1           0        1.344264    1.871022    1.107691
     10          1           0       -0.316601    1.353356    0.915888
     11          1           0        1.355916    2.648512   -1.319885
     12          1           0        0.120619    3.463737   -0.353402
     13          1           0       -0.339445    2.155314   -1.451250
     14          6           0        3.293575   -0.475809    0.929732
     15          1           0        2.936035    0.966126   -0.656423
     16          1           0        2.654944   -0.715251   -1.119839
     17          1           0        3.175401    0.216743    1.767580
     18          1           0        4.361758   -0.562006    0.712442
     19          1           0        2.927121   -1.457244    1.235204
     20          1           0       -1.795915   -2.143026    0.921959
     21          1           0       -2.046277   -1.559971   -1.442898
 ---------------------------------------------------------------------

 SCF Done:  E(RHF) =  -1074.62092750     A.U. after    2 cycles

 The electronic state is 1-A.
 Alpha  occ. eigenvalues -- -105.56034 -69.58988 -20.52260 -15.53752 -11.35277
 Alpha  occ. eigenvalues --  -11.28762 -11.27670 -11.24227 -11.23404 -10.61003
 Alpha  occ. eigenvalues --   -7.77883  -7.77607  -7.77586  -6.25566  -4.01010
 Alpha  occ. eigenvalues --   -4.00829  -4.00805  -1.46296  -1.26370  -1.05592
 Alpha  occ. eigenvalues --   -1.05001  -1.02604  -0.90140  -0.89244  -0.79967
 Alpha  occ. eigenvalues --   -0.74976  -0.69564  -0.67011  -0.64425  -0.62786
 Alpha  occ. eigenvalues --   -0.60802  -0.58054  -0.56643  -0.55614  -0.54728
 Alpha  occ. eigenvalues --   -0.53756  -0.52881  -0.52157  -0.51892  -0.50730
 Alpha  occ. eigenvalues --   -0.47688  -0.45620  -0.40557  -0.40350
 Alpha virt. eigenvalues --    0.03271   0.03692   0.03962   0.04198   0.05330
 Alpha virt. eigenvalues --    0.05428   0.05731   0.05869   0.06135   0.08669
 Alpha virt. eigenvalues --    0.08890   0.09051   0.09508   0.09878   0.10631

 Mulliken charges:
               1
     1  Si   1.010426
     2  C    0.127677
     3  Cl  -0.610140
     4  N    1.068544
     5  C   -0.525020
     6  O   -1.151960
     7  C   -0.464496
     8  C   -0.268331
     9  H    0.103714
    10  H    0.047621
    11  H    0.120728
    12  H    0.137804
    13  H    0.170734
    14  C   -0.199450
    15  H    0.069099
    16  H    0.123982
    17  H    0.127654
    18  H    0.129698
    19  H    0.178591
    20  H   -0.096993
    21  H   -0.099882
 Sum of Mulliken charges =  -0.00000

 Dipole moment (field-independent basis, Debye):
    X=              1.6604    Y=              2.4539    Z=              0.5279  Tot=              3.0095

 Test job not archived.
 1\1\GINC-SE106\SP\RHF\Aug-CC-pVDZ\C5H12Cl1N1O1Si1\OHZDE\08-Apr-2025\0\
 \#t hf aug-cc-pvdz iop(5/13=1,5/36=2,99/5=2) pseudo=read geom=check gu
 ess=(read,tcheck) scf=(maxcycle=1)\\title\\0,1\Si,0,-1.592998,-1.12156
 8,-0.115723\C,0,0.289042,-0.884291,-0.266437\Cl,0,-2.84546,0.492717,0.
 408784\N,0,1.098424,0.179675,-0.072421\C,0,0.621634,1.489852,0.379851\
 O,0,0.69341,-1.996444,-0.623405\C,0,2.54095,0.00757,-0.311635\C,0,0.43
 1584,2.496387,-0.756859\H,0,1.344264,1.871022,1.107691\H,0,-0.316601,1
 .353356,0.915888\H,0,1.355916,2.648512,-1.319885\H,0,0.120619,3.463737

 Normal termination of Gaussian 16 at Tue Apr  8 23:49:23 2025.
