 Gaussian 16, Revision C.01,

 ----------------------------------------------------------------------
 #t hf aug-cc-pvdz symm=none int=(grid=ultrafine) guess=(read,tcheck) s
 table=(opt,rrhf)
 ----------------------------------------------------------------------
 -----
 title
 -----
 Symbolic Z-matrix:
 Charge =  0 Multiplicity = 1

 SCF Done:  E(RHF) =  -799.824183118     A.U. after   16 cycles
 Normal termination of Gaussian 16 at Tue Apr  8 23:36:07 2025.
 Gaussian 16:  ES64L-G16RevC.01  3-Jul-2019

 ----------------------------------------------------------------------
 #t hf aug-cc-pvdz iop(5/13=1,5/36=2,99/5=2) pseudo=read geom=check gue
 ss=(read,tcheck) scf=(maxcycle=1)
 ----------------------------------------------------------------------
 -----
 title
 -----
 Structure from the checkpoint file:  "BDE49_nonexpt_1436_mol1.chk"
 Charge =  0 Multiplicity = 1

                         Standard orientation:
 ---------------------------------------------------------------------
 Center     Atomic      Atomic             Coordinates (Angstroms)
 Number     Number       Type             X           Y           Z
 ---------------------------------------------------------------------
      1          6           0       -0.450078   -1.666431    0.000185
      2          6           0        0.945751   -1.610740    0.000194
      3          6           0        1.605739   -0.385707   -0.000021
      4          6           0       -1.210598   -0.500187   -0.000006
      5          6           0       -0.552155    0.753256   -0.000222
      6          6           0        0.838310    0.792918   -0.000258
      7          1           0        1.508014   -2.537022    0.000375
      8         15           0        3.442051   -0.196464   -0.000116
      9          1           0       -0.939183   -2.631354    0.000364
     10          8           0       -2.567759   -0.451819   -0.000011
     11          6           0       -3.284640   -1.677320    0.000003
     12          1           0       -3.065436   -2.272077   -0.893992
     13          1           0       -4.338019   -1.402554   -0.000117
     14          1           0       -3.065616   -2.271955    0.894124
     15          1           0        1.347206    1.747799   -0.000500
     16          8           0       -1.365003    1.843448   -0.000508
     17          6           0       -0.763723    3.129593    0.000479
     18          1           0       -1.588440    3.840268    0.000965
     19          1           0       -0.149464    3.288105   -0.893177
     20          1           0       -0.149533    3.286741    0.894417
     21          1           0        3.750103   -1.124008   -1.030225
     22          1           0        3.750061   -1.122305    1.031541
 ---------------------------------------------------------------------

 SCF Done:  E(RHF) =  -800.336790780     A.U. after    2 cycles

 The electronic state is 1-A.
 Alpha  occ. eigenvalues --  -84.27129 -20.57233 -20.56935 -11.30857 -11.30467
 Alpha  occ. eigenvalues --  -11.29631 -11.29371 -11.24632 -11.24547 -11.24498
 Alpha  occ. eigenvalues --  -11.24420  -6.74177  -4.27001  -4.26430  -4.26268
 Alpha  occ. eigenvalues --   -1.50729  -1.48537  -1.15291  -1.03710  -1.02324
 Alpha  occ. eigenvalues --   -0.95544  -0.94981  -0.86783  -0.83099  -0.79725
 Alpha  occ. eigenvalues --   -0.73015  -0.70139  -0.68640  -0.66592  -0.64652
 Alpha  occ. eigenvalues --   -0.63294  -0.62104  -0.60275  -0.58174  -0.54881
 Alpha  occ. eigenvalues --   -0.53837  -0.51932  -0.51317  -0.49435  -0.48466
 Alpha  occ. eigenvalues --   -0.46757  -0.45565  -0.34597  -0.34428  -0.30421
 Alpha virt. eigenvalues --    0.03358   0.03762   0.03815   0.04931   0.05078
 Alpha virt. eigenvalues --    0.05434   0.05810   0.07019   0.07092   0.07829
 Alpha virt. eigenvalues --    0.08639   0.09739   0.09917   0.09996   0.11140

 Mulliken charges:
               1
     1  C    0.603516
     2  C    0.382658
     3  C    0.439636
     4  C    1.595231
     5  C    2.274045
     6  C   -1.142785
     7  H   -0.256951
     8  P   -0.675244
     9  H   -0.432995
    10  O   -2.025944
    11  C    0.141332
    12  H    0.180848
    13  H   -0.031567
    14  H    0.180860
    15  H   -0.451157
    16  O   -2.085984
    17  C    0.156451
    18  H   -0.042493
    19  H    0.191405
    20  H    0.191381
    21  H    0.403756
    22  H    0.404000
 Sum of Mulliken charges =   0.00000

 Dipole moment (field-independent basis, Debye):
    X=             -0.8249    Y=             -0.7108    Z=              0.0015  Tot=              1.0889

 Test job not archived.
 1\1\GINC-SE127\SP\RHF\Aug-CC-pVDZ\C8H11O2P1\OHZDE\08-Apr-2025\0\\#t hf
  aug-cc-pvdz iop(5/13=1,5/36=2,99/5=2) pseudo=read geom=check guess=(r
 ead,tcheck) scf=(maxcycle=1)\\title\\0,1\C,0,-0.450078,-1.666431,0.000
 185\C,0,0.945751,-1.61074,0.000194\C,0,1.605739,-0.385707,-0.000021\C,
 0,-1.210598,-0.500187,-0.000006\C,0,-0.552155,0.753256,-0.000222\C,0,0
 .83831,0.792918,-0.000258\H,0,1.508014,-2.537022,0.000375\P,0,3.442051
 ,-0.196464,-0.000116\H,0,-0.939183,-2.631354,0.000364\O,0,-2.567759,-0
 .451819,-0.000011\C,0,-3.28464,-1.67732,0.000003\H,0,-3.065436,-2.2720

 Normal termination of Gaussian 16 at Tue Apr  8 23:36:22 2025.
