 Gaussian 16, Revision C.01,

 ----------------------------------------------------------------------
 #t hf aug-cc-pvdz symm=none int=(grid=ultrafine) guess=(read,tcheck) s
 table=opt
 ----------------------------------------------------------------------
 -----
 title
 -----
 Symbolic Z-matrix:
 Charge =  0 Multiplicity = 2

 SCF Done:  E(UHF) =  -396.925100589     A.U. after   16 cycles
 Normal termination of Gaussian 16 at Tue Apr  8 23:27:59 2025.
 Gaussian 16:  ES64L-G16RevC.01  3-Jul-2019

 ----------------------------------------------------------------------
 #t hf aug-cc-pvdz iop(5/13=1,5/36=2,99/5=2) pseudo=read geom=check gue
 ss=(read,tcheck) scf=(maxcycle=1)
 ----------------------------------------------------------------------
 -----
 title
 -----
 Structure from the checkpoint file:  "BDE49_nonexpt_1315_mol2.chk"
 Charge =  0 Multiplicity = 2

                         Standard orientation:
 ---------------------------------------------------------------------
 Center     Atomic      Atomic             Coordinates (Angstroms)
 Number     Number       Type             X           Y           Z
 ---------------------------------------------------------------------
      1         15           0       -0.645532   -0.098601    0.008282
      2          7           0        1.055834    0.018146   -0.049380
      3          1           0        1.598137   -0.820356    0.092300
      4          1           0        1.555562    0.866225    0.169168
      5          1           0       -0.861552    1.306123   -0.040039
 ---------------------------------------------------------------------

 SCF Done:  E(UHF) =  -397.023819540     A.U. after    2 cycles

 The electronic state is 2-A.
 Alpha  occ. eigenvalues --  -84.29042 -15.51192  -6.75934  -4.28296  -4.28048
 Alpha  occ. eigenvalues --   -4.27352  -1.18098  -0.84298  -0.72283  -0.58043
 Alpha  occ. eigenvalues --   -0.52758  -0.40643  -0.28822
 Alpha virt. eigenvalues --    0.03157   0.05621   0.06103   0.08490   0.10781
 Alpha virt. eigenvalues --    0.10914   0.16227   0.17374   0.18328   0.20784
 Alpha virt. eigenvalues --    0.21308   0.22728   0.25154   0.26766   0.29857

  Beta  occ. eigenvalues --  -84.28442 -15.50419  -6.75173  -4.27896  -4.27018
  Beta  occ. eigenvalues --   -4.25039  -1.15933  -0.79747  -0.71760  -0.56143
  Beta  occ. eigenvalues --   -0.45577  -0.38009
  Beta virt. eigenvalues --    0.03216   0.05699   0.05790   0.06173   0.08637
  Beta virt. eigenvalues --    0.10975   0.15272   0.16545   0.18115   0.19010
  Beta virt. eigenvalues --    0.21028   0.21631   0.24741   0.27050   0.27273

 Mulliken charges and spin densities:
               1          2
     1  P    0.104605   1.084838
     2  N   -0.176915   0.090091
     3  H   -0.003509  -0.015982
     4  H   -0.008600  -0.021167
     5  H    0.084420  -0.137781
 Sum of Mulliken charges =  -0.00000   1.00000

 Dipole moment (field-independent basis, Debye):
    X=              1.1760    Y=              0.3857    Z=              0.5533  Tot=              1.3557
                          Isotropic Fermi Contact Couplings
        Atom                 a.u.       MegaHertz       Gauss      10(-4) cm-1
     1  P(31)              0.19772     358.09875     127.77854     119.44888
     2  N(14)              0.08536      27.58000       9.84123       9.19970
     3  H(1)              -0.00443     -19.82124      -7.07271      -6.61165
     4  H(1)              -0.00348     -15.57636      -5.55803      -5.19571
     5  H(1)              -0.01170     -52.29881     -18.66152     -17.44501
 --------------------------------------------------------
       Center         ----  Spin Dipole Couplings  ----
                      3XX-RR        3YY-RR        3ZZ-RR

 Normal termination of Gaussian 16 at Tue Apr  8 23:28:00 2025.
