 Gaussian 16, Revision C.01,

 ----------------------------------------------------------------------
 #t hf aug-cc-pvdz symm=none int=(grid=ultrafine) guess=(read,tcheck) s
 table=opt
 ----------------------------------------------------------------------
 -----
 title
 -----
 Symbolic Z-matrix:
 Charge =  0 Multiplicity = 2

 SCF Done:  E(UHF) =  -527.393641793     A.U. after   15 cycles
 Normal termination of Gaussian 16 at Tue Apr  8 23:55:20 2025.
 Gaussian 16:  ES64L-G16RevC.01  3-Jul-2019

 ----------------------------------------------------------------------
 #t hf aug-cc-pvdz iop(5/13=1,5/36=2,99/5=2) pseudo=read geom=check gue
 ss=(read,tcheck) scf=(maxcycle=1)
 ----------------------------------------------------------------------
 -----
 title
 -----
 Structure from the checkpoint file:  "BDE49_nonexpt_1976_mol2.chk"
 Charge =  0 Multiplicity = 2

                         Standard orientation:
 ---------------------------------------------------------------------
 Center     Atomic      Atomic             Coordinates (Angstroms)
 Number     Number       Type             X           Y           Z
 ---------------------------------------------------------------------
      1          6           0       -0.488682    0.019696    0.398913
      2         14           0        1.387163   -0.132343    0.002100
      3          9           0       -0.993610    1.151032   -0.213531
      4          1           0       -0.743569    0.086468    1.460517
      5          9           0       -1.163313   -1.061637   -0.123356
      6          1           0        2.109494    1.007881    0.617647
      7          1           0        1.558189   -0.164287   -1.469058
 ---------------------------------------------------------------------

 SCF Done:  E(UHF) =  -527.642770315     A.U. after    2 cycles

 The electronic state is 2-A.
 Alpha  occ. eigenvalues --  -69.56316 -26.47679 -26.47621 -11.40846  -6.23531
 Alpha  occ. eigenvalues --   -3.99492  -3.98564  -3.98542  -1.63405  -1.57008
 Alpha  occ. eigenvalues --   -0.95195  -0.79230  -0.75558  -0.73190  -0.68139
 Alpha  occ. eigenvalues --   -0.63966  -0.60178  -0.58741  -0.51804  -0.47540
 Alpha  occ. eigenvalues --   -0.36578
 Alpha virt. eigenvalues --    0.03371   0.04271   0.05809   0.06398   0.07076
 Alpha virt. eigenvalues --    0.08647   0.10934   0.11407   0.13872   0.15087
 Alpha virt. eigenvalues --    0.15899   0.17075   0.17996   0.20807   0.22495

  Beta  occ. eigenvalues --  -69.55732 -26.47695 -26.47464 -11.40798  -6.22644
  Beta  occ. eigenvalues --   -3.98165  -3.98140  -3.97256  -1.63233  -1.56802
  Beta  occ. eigenvalues --   -0.94633  -0.77089  -0.75182  -0.72889  -0.65880
  Beta  occ. eigenvalues --   -0.63663  -0.60046  -0.58472  -0.50852  -0.46710
  Beta virt. eigenvalues --    0.00927   0.03797   0.04440   0.05983   0.07277
  Beta virt. eigenvalues --    0.08089   0.08957   0.11337   0.11641   0.15141
  Beta virt. eigenvalues --    0.15787   0.16956   0.18935   0.20139   0.22279

 Mulliken charges and spin densities:
               1          2
     1  C    0.833620   0.008766
     2  Si   0.895625   0.952715
     3  F   -0.694769   0.001251
     4  H    0.024806   0.000918
     5  F   -0.665560  -0.005993
     6  H   -0.191159   0.019980
     7  H   -0.202563   0.022362
 Sum of Mulliken charges =  -0.00000   1.00000

 Dipole moment (field-independent basis, Debye):
    X=              1.6257    Y=             -0.0228    Z=              1.2583  Tot=              2.0559
                          Isotropic Fermi Contact Couplings
        Atom                 a.u.       MegaHertz       Gauss      10(-4) cm-1
     1  C(13)              0.01995      22.42553       8.00199       7.48035
     2  Si(29)             0.61033    -542.41852    -193.54842    -180.93134
     3  F(19)              0.03116     131.12414      46.78835      43.73830
     4  H(1)              -0.00083      -3.70979      -1.32374      -1.23745
     5  F(19)             -0.00299     -12.56406      -4.48317      -4.19092
     6  H(1)               0.00383      17.11242       6.10614       5.70809
     7  H(1)               0.00385      17.19128       6.13428       5.73439
 --------------------------------------------------------

 Normal termination of Gaussian 16 at Tue Apr  8 23:55:22 2025.
