 Gaussian 16, Revision C.01,

 ----------------------------------------------------------------------
 #t hf aug-cc-pvdz symm=none int=(grid=ultrafine) guess=(read,tcheck) s
 table=opt
 ----------------------------------------------------------------------
 -----
 title
 -----
 Symbolic Z-matrix:
 Charge =  0 Multiplicity = 2

 SCF Done:  E(UHF) =  -426.307249356     A.U. after   19 cycles
 Normal termination of Gaussian 16 at Wed Apr  9 00:34:04 2025.
 Gaussian 16:  ES64L-G16RevC.01  3-Jul-2019

 ----------------------------------------------------------------------
 #t hf aug-cc-pvdz iop(5/13=1,5/36=2,99/5=2) pseudo=read geom=check gue
 ss=(read,tcheck) scf=(maxcycle=1)
 ----------------------------------------------------------------------
 -----
 title
 -----
 Structure from the checkpoint file:  "BDE49_nonexpt_420_mol2.chk"
 Charge =  0 Multiplicity = 2

                         Standard orientation:
 ---------------------------------------------------------------------
 Center     Atomic      Atomic             Coordinates (Angstroms)
 Number     Number       Type             X           Y           Z
 ---------------------------------------------------------------------
      1          9           0       -2.984105   -0.363892   -0.021826
      2          5           0       -1.703577   -0.462358    0.260138
      3          8           0       -0.866130    0.530800   -0.146843
      4          6           0        0.497242    0.514871   -0.026990
      5          8           0        1.140044    1.512610    0.079717
      6          8           0        0.957078   -0.736435   -0.086619
      7          6           0        2.390821   -0.869068    0.023584
      8          1           0        2.881609   -0.323588   -0.782607
      9          1           0        2.584852   -1.935499   -0.056378
     10          1           0        2.732057   -0.484716    0.985127
 ---------------------------------------------------------------------

 SCF Done:  E(UHF) =  -426.711335098     A.U. after    2 cycles

 The electronic state is 2-A.
 Alpha  occ. eigenvalues --  -26.49267 -20.62418 -20.62019 -20.56009 -11.47041
 Alpha  occ. eigenvalues --  -11.32087  -7.73820  -1.63217  -1.61121  -1.51644
 Alpha  occ. eigenvalues --   -1.48907  -1.00927  -0.89787  -0.80482  -0.77353
 Alpha  occ. eigenvalues --   -0.73562  -0.72499  -0.68358  -0.67952  -0.66388
 Alpha  occ. eigenvalues --   -0.62710  -0.59494  -0.56827  -0.53649  -0.48998
 Alpha  occ. eigenvalues --   -0.48790  -0.39854
 Alpha virt. eigenvalues --    0.03142   0.04224   0.04785   0.05812   0.06247
 Alpha virt. eigenvalues --    0.06602   0.07156   0.11779   0.12299   0.12496
 Alpha virt. eigenvalues --    0.12701   0.13957   0.15186   0.16514   0.16738

  Beta  occ. eigenvalues --  -26.48929 -20.62388 -20.61757 -20.56013 -11.47038
  Beta  occ. eigenvalues --  -11.32089  -7.71575  -1.62288  -1.60758  -1.51159
  Beta  occ. eigenvalues --   -1.48793  -1.00869  -0.89014  -0.80128  -0.75622
  Beta  occ. eigenvalues --   -0.72459  -0.72367  -0.67873  -0.66395  -0.65146
  Beta  occ. eigenvalues --   -0.62627  -0.58530  -0.56678  -0.53581  -0.48956
  Beta  occ. eigenvalues --   -0.48668
  Beta virt. eigenvalues --    0.02899   0.03966   0.04532   0.05137   0.06233
  Beta virt. eigenvalues --    0.06438   0.06650   0.10183   0.12362   0.12689
  Beta virt. eigenvalues --    0.13845   0.14607   0.15215   0.15577   0.16772

 Mulliken charges and spin densities:
               1          2
     1  F   -0.547468  -0.053965
     2  B    0.823245   1.037304
     3  O   -1.324024   0.044259
     4  C    2.341048   0.018628
     5  O   -0.948731  -0.001547
     6  O   -0.989703  -0.036920
     7  C    0.285273  -0.006089
     8  H    0.168520   0.000623
     9  H    0.023990  -0.000348
    10  H    0.167849  -0.001945
 Sum of Mulliken charges =  -0.00000   1.00000

 Dipole moment (field-independent basis, Debye):
    X=              1.9411    Y=             -2.5190    Z=              0.1776  Tot=              3.1851
                          Isotropic Fermi Contact Couplings
        Atom                 a.u.       MegaHertz       Gauss      10(-4) cm-1
     1  F(19)              0.09557     402.12019     143.48648     134.13286
     2  B(11)              0.45830     657.36929     234.56571     219.27479
     3  O(17)              0.04102     -24.86837      -8.87365      -8.29519
     4  C(13)              0.00025       0.28411       0.10138       0.09477
     5  O(17)             -0.00017       0.10337       0.03688       0.03448
     6  O(17)              0.00736      -4.46233      -1.59227      -1.48847
     7  C(13)             -0.00017      -0.19517      -0.06964      -0.06510
     8  H(1)               0.00005       0.22238       0.07935       0.07418

 Normal termination of Gaussian 16 at Wed Apr  9 00:34:08 2025.
