 Gaussian 16, Revision C.01,

 ----------------------------------------------------------------------
 #t hf aug-cc-pvdz symm=none int=(grid=ultrafine) guess=(read,tcheck) s
 table=(opt,rrhf)
 ----------------------------------------------------------------------
 -----
 title
 -----
 Symbolic Z-matrix:
 Charge =  0 Multiplicity = 1

 SCF Done:  E(RHF) =  -316.481427577     A.U. after   11 cycles

 1\1\GINC-SE072\Stability\RHF\Aug-CC-pVDZ\B1H5Si1\OHZDE\09-Apr-2025\0\\
 #t hf aug-cc-pvdz symm=none int=(grid=ultrafine) guess=(read,tcheck) s
 table=(opt,rrhf)\\title\\0,1\H,0,-2.060018,1.01863,0.002473\H,0,-2.060
 017,-1.01863,0.002473\B,0,-1.441752,0.,-0.020345\Si,0,0.573087,0.,-0.0
 05001\H,0,0.966288,-0.000006,1.433142\H,0,1.169643,-1.204573,-0.633177
 \H,0,1.169644,1.204577,-0.633168\\Version=ES64L-G16RevC.01\HF=-316.481
 4276\RMSD=3.133e-09\Dipole=-0.1821113,0.0000004,-0.059215\Quadrupole=-
 0.7605792,-0.4112855,1.1718647,0.0000011,0.0980104,-0.0000001\PG=Unkno

 Normal termination of Gaussian 16 at Wed Apr  9 00:34:45 2025.
 Gaussian 16:  ES64L-G16RevC.01  3-Jul-2019

 ----------------------------------------------------------------------
 #t hf aug-cc-pvdz iop(5/13=1,5/36=2,99/5=2) pseudo=read geom=check gue
 ss=(read,tcheck) scf=(maxcycle=1)
 ----------------------------------------------------------------------
 -----
 title
 -----
 Structure from the checkpoint file:  "BDE49_nonexpt_459_mol1.chk"
 Charge =  0 Multiplicity = 1

                         Standard orientation:
 ---------------------------------------------------------------------
 Center     Atomic      Atomic             Coordinates (Angstroms)
 Number     Number       Type             X           Y           Z
 ---------------------------------------------------------------------
      1          1           0       -2.060018    1.018630    0.002473
      2          1           0       -2.060017   -1.018630    0.002473
      3          5           0       -1.441752    0.000000   -0.020345
      4         14           0        0.573087    0.000000   -0.005001
      5          1           0        0.966288   -0.000006    1.433142
      6          1           0        1.169643   -1.204573   -0.633177
      7          1           0        1.169644    1.204577   -0.633168
 ---------------------------------------------------------------------

 SCF Done:  E(RHF) =  -316.545427583     A.U. after    2 cycles

 The electronic state is 1-A.
 Alpha  occ. eigenvalues --  -69.51578  -7.61290  -6.18893  -3.94267  -3.94242
 Alpha  occ. eigenvalues --   -3.94224  -0.77376  -0.67198  -0.52105  -0.48631
 Alpha  occ. eigenvalues --   -0.47179  -0.42738
 Alpha virt. eigenvalues --    0.02400   0.03901   0.04261   0.04852   0.07250
 Alpha virt. eigenvalues --    0.07416   0.07718   0.08063   0.09437   0.09850
 Alpha virt. eigenvalues --    0.11426   0.13137   0.14358   0.16717   0.18999

 Mulliken charges:
               1
     1  H    0.343627
     2  H    0.343628
     3  B   -0.939183
     4  Si   0.801885
     5  H   -0.183920
     6  H   -0.183018
     7  H   -0.183018
 Sum of Mulliken charges =  -0.00000

 Dipole moment (field-independent basis, Debye):
    X=             -0.4572    Y=              0.0000    Z=             -0.1397  Tot=              0.4780

 Test job not archived.
 1\1\GINC-SE072\SP\RHF\Aug-CC-pVDZ\B1H5Si1\OHZDE\09-Apr-2025\0\\#t hf a
 ug-cc-pvdz iop(5/13=1,5/36=2,99/5=2) pseudo=read geom=check guess=(rea
 d,tcheck) scf=(maxcycle=1)\\title\\0,1\H,0,-2.060018,1.01863,0.002473\
 H,0,-2.060017,-1.01863,0.002473\B,0,-1.441752,0.,-0.020345\Si,0,0.5730
 87,0.,-0.005001\H,0,0.966288,-0.000006,1.433142\H,0,1.169643,-1.204573
 ,-0.633177\H,0,1.169644,1.204577,-0.633168\\Version=ES64L-G16RevC.01\S
 tate=1-A\HF=-316.5454276\RMSD=1.025e-02\Dipole=-0.1798613,0.0000004,-0
 .0549584\Quadrupole=-0.6847593,-0.4247941,1.1095535,0.0000009,0.095879

 Normal termination of Gaussian 16 at Wed Apr  9 00:34:46 2025.
