 Gaussian 16, Revision C.01,

 ----------------------------------------------------------------------
 #t hf aug-cc-pvdz symm=none int=(grid=ultrafine) guess=(read,tcheck) s
 table=(opt,rrhf)
 ----------------------------------------------------------------------
 -----
 title
 -----
 Symbolic Z-matrix:
 Charge =  0 Multiplicity = 1

 SCF Done:  E(RHF) =  -585.123158300     A.U. after   15 cycles
 Normal termination of Gaussian 16 at Wed Apr  9 00:48:56 2025.
 Gaussian 16:  ES64L-G16RevC.01  3-Jul-2019

 ----------------------------------------------------------------------
 #t hf aug-cc-pvdz iop(5/13=1,5/36=2,99/5=2) pseudo=read geom=check gue
 ss=(read,tcheck) scf=(maxcycle=1)
 ----------------------------------------------------------------------
 -----
 title
 -----
 Structure from the checkpoint file:  "BDE49_nonexpt_848_mol1.chk"
 Charge =  0 Multiplicity = 1

                         Standard orientation:
 ---------------------------------------------------------------------
 Center     Atomic      Atomic             Coordinates (Angstroms)
 Number     Number       Type             X           Y           Z
 ---------------------------------------------------------------------
      1         14           0       -2.531659   -0.343637   -0.410555
      2          5           0       -0.879742    0.817298   -0.271869
      3          6           0        0.582747    0.363638   -0.108637
      4          6           0        1.622098    1.320993   -0.064585
      5          6           0        0.951351   -0.996111   -0.000720
      6          6           0        2.279696   -1.378703    0.141726
      7          6           0        3.280427   -0.407073    0.180524
      8          6           0        2.952150    0.945326    0.077317
      9          1           0        4.317760   -0.704234    0.291765
     10          1           0        3.733197    1.696809    0.108165
     11          1           0        1.366364    2.372042   -0.145041
     12          1           0        0.178572   -1.756005   -0.028722
     13          1           0        2.540139   -2.428105    0.222696
     14          6           0       -3.895678    0.235675    0.767010
     15          1           0       -3.584495    0.134176    1.810371
     16          1           0       -4.805915   -0.353640    0.629268
     17          1           0       -4.141132    1.286272    0.590272
     18          1           0       -1.073148    1.998979   -0.341806
     19          1           0       -2.290315   -1.794800   -0.175553
     20          1           0       -3.035834   -0.229528   -1.810114
 ---------------------------------------------------------------------

 SCF Done:  E(RHF) =  -585.466607827     A.U. after    2 cycles

 The electronic state is 1-A.
 Alpha  occ. eigenvalues --  -69.50215 -11.26146 -11.25609 -11.25589 -11.24741
 Alpha  occ. eigenvalues --  -11.24718 -11.22549 -11.21306  -7.59048  -6.17423
 Alpha  occ. eigenvalues --   -3.92787  -3.92776  -3.92735  -1.15792  -1.02390
 Alpha  occ. eigenvalues --   -1.02280  -0.94548  -0.84566  -0.83820  -0.75010
 Alpha  occ. eigenvalues --   -0.70763  -0.66358  -0.64700  -0.62414  -0.60616
 Alpha  occ. eigenvalues --   -0.56815  -0.56062  -0.54701  -0.51607  -0.50957
 Alpha  occ. eigenvalues --   -0.48406  -0.45838  -0.44965  -0.40168  -0.35712
 Alpha  occ. eigenvalues --   -0.35248
 Alpha virt. eigenvalues --    0.02858   0.03158   0.03362   0.03932   0.04576
 Alpha virt. eigenvalues --    0.04814   0.04981   0.06322   0.06844   0.07125
 Alpha virt. eigenvalues --    0.07454   0.08146   0.08827   0.09799   0.10112

 Mulliken charges:
               1
     1  Si   0.851478
     2  B   -0.521162
     3  C   -0.168885
     4  C    0.242182
     5  C    0.594831
     6  C    0.221794
     7  C    0.383258
     8  C    0.289097
     9  H   -0.210725
    10  H   -0.210955
    11  H   -0.337936
    12  H   -0.307326
    13  H   -0.230670
    14  C   -0.617445
    15  H    0.077084
    16  H   -0.015751
    17  H    0.087592
    18  H    0.152192
    19  H   -0.136128
    20  H   -0.142524
 Sum of Mulliken charges =  -0.00000

 Dipole moment (field-independent basis, Debye):
    X=              1.5028    Y=              0.0712    Z=              0.6222  Tot=              1.6281

 Test job not archived.
 1\1\GINC-SE109\SP\RHF\Aug-CC-pVDZ\C7H11B1Si1\OHZDE\09-Apr-2025\0\\#t h
 f aug-cc-pvdz iop(5/13=1,5/36=2,99/5=2) pseudo=read geom=check guess=(
 read,tcheck) scf=(maxcycle=1)\\title\\0,1\Si,0,-2.531659,-0.343637,-0.
 410555\B,0,-0.879742,0.817298,-0.271869\C,0,0.582747,0.363638,-0.10863
 7\C,0,1.622098,1.320993,-0.064585\C,0,0.951351,-0.996111,-0.00072\C,0,
 2.279696,-1.378703,0.141726\C,0,3.280427,-0.407073,0.180524\C,0,2.9521
 5,0.945326,0.077317\H,0,4.31776,-0.704234,0.291765\H,0,3.733197,1.6968
 09,0.108165\H,0,1.366364,2.372042,-0.145041\H,0,0.178572,-1.756005,-0.

 Normal termination of Gaussian 16 at Wed Apr  9 00:49:07 2025.
