 Gaussian 16, Revision C.01,

 ----------------------------------------------------------------------
 #t hf aug-cc-pvdz symm=none int=(grid=ultrafine) guess=(read,tcheck) s
 table=opt
 ----------------------------------------------------------------------
 -----
 title
 -----
 Symbolic Z-matrix:
 Charge =  0 Multiplicity = 2

 SCF Done:  E(UHF) =  -1020.14859691     A.U. after   23 cycles
 Normal termination of Gaussian 16 at Wed Apr  9 00:16:39 2025.
 Gaussian 16:  ES64L-G16RevC.01  3-Jul-2019

 ----------------------------------------------------------------------
 #t hf aug-cc-pvdz iop(5/13=1,5/36=2,99/5=2) pseudo=read geom=check gue
 ss=(read,tcheck) scf=(maxcycle=1)
 ----------------------------------------------------------------------
 -----
 title
 -----
 Structure from the checkpoint file:  "BDE49_nonexpt_2550_mol2.chk"
 Charge =  0 Multiplicity = 2

                         Standard orientation:
 ---------------------------------------------------------------------
 Center     Atomic      Atomic             Coordinates (Angstroms)
 Number     Number       Type             X           Y           Z
 ---------------------------------------------------------------------
      1         16           0       -1.671321   -0.055067   -0.101118
      2         16           0        0.381037    0.122321    0.090951
      3          8           0        0.809689    1.384267   -0.423099
      4          8           0        0.647183   -0.322602    1.436319
      5          8           0        1.005067   -0.965904   -0.928268
      6          1           0        0.949029   -1.842146   -0.516946
 ---------------------------------------------------------------------

 SCF Done:  E(UHF) =  -1020.48187611     A.U. after    2 cycles

 The electronic state is 2-A.
 Alpha  occ. eigenvalues --  -94.27760 -94.04522 -20.64788 -20.58556 -20.58193
 Alpha  occ. eigenvalues --   -8.52380  -8.32680  -6.50473  -6.50334  -6.50192
 Alpha  occ. eigenvalues --   -6.31780  -6.30062  -6.29641  -1.64411  -1.51453
 Alpha  occ. eigenvalues --   -1.49178  -1.11783  -0.91313  -0.78404  -0.72795
 Alpha  occ. eigenvalues --   -0.72133  -0.66051  -0.59333  -0.56889  -0.54977
 Alpha  occ. eigenvalues --   -0.51282  -0.49789  -0.48965  -0.45581
 Alpha virt. eigenvalues --    0.03111   0.05055   0.08347   0.09611   0.10247
 Alpha virt. eigenvalues --    0.11458   0.11581   0.13486   0.15001   0.17649
 Alpha virt. eigenvalues --    0.18467   0.21613   0.22009   0.23518   0.24335

  Beta  occ. eigenvalues --  -94.27795 -94.03599 -20.64820 -20.58343 -20.58117
  Beta  occ. eigenvalues --   -8.52429  -8.31623  -6.50513  -6.50359  -6.50301
  Beta  occ. eigenvalues --   -6.29532  -6.29092  -6.27664  -1.64322  -1.51418
  Beta  occ. eigenvalues --   -1.48813  -1.05372  -0.89161  -0.77412  -0.72058
  Beta  occ. eigenvalues --   -0.71349  -0.65610  -0.59003  -0.54878  -0.53230
  Beta  occ. eigenvalues --   -0.50488  -0.48195  -0.43464
  Beta virt. eigenvalues --   -0.05378   0.03208   0.05611   0.08812   0.10421
  Beta virt. eigenvalues --    0.10686   0.11540   0.12294   0.13858   0.15383
  Beta virt. eigenvalues --    0.17744   0.18510   0.21933   0.22477   0.24282

 Mulliken charges and spin densities:
               1          2
     1  S    0.266659   1.052537
     2  S    3.061138  -0.073025
     3  O   -1.265062   0.006721
     4  O   -1.266504   0.022793
     5  O   -1.171222  -0.011332
     6  H    0.374990   0.002307
 Sum of Mulliken charges =   0.00000   1.00000

 Dipole moment (field-independent basis, Debye):
    X=             -1.9616    Y=             -2.8647    Z=             -0.9075  Tot=              3.5886
                          Isotropic Fermi Contact Couplings
        Atom                 a.u.       MegaHertz       Gauss      10(-4) cm-1
     1  S(33)              0.17997      61.81602      22.05749      20.61960
     2  S(33)             -0.03894     -13.37361      -4.77204      -4.46096
     3  O(17)              0.00648      -3.93012      -1.40237      -1.31095
     4  O(17)              0.02006     -12.16122      -4.33942      -4.05654
     5  O(17)             -0.00405       2.45693       0.87669       0.81954
     6  H(1)               0.00014       0.61467       0.21933       0.20503
 --------------------------------------------------------
       Center         ----  Spin Dipole Couplings  ----

 Normal termination of Gaussian 16 at Wed Apr  9 00:16:41 2025.
