 Gaussian 16, Revision C.01,

 ----------------------------------------------------------------------
 #t hf aug-cc-pvdz symm=none int=(grid=ultrafine) guess=(read,tcheck) s
 table=(opt,rrhf)
 ----------------------------------------------------------------------
 -----
 title
 -----
 Symbolic Z-matrix:
 Charge =  0 Multiplicity = 1

 SCF Done:  E(RHF) =  -827.124439234     A.U. after   11 cycles
 Normal termination of Gaussian 16 at Tue Apr  8 23:45:14 2025.
 Gaussian 16:  ES64L-G16RevC.01  3-Jul-2019

 ----------------------------------------------------------------------
 #t hf aug-cc-pvdz iop(5/13=1,5/36=2,99/5=2) pseudo=read geom=check gue
 ss=(read,tcheck) scf=(maxcycle=1)
 ----------------------------------------------------------------------
 -----
 title
 -----
 Structure from the checkpoint file:  "BDE49_nonexpt_1750_mol1.chk"
 Charge =  0 Multiplicity = 1

                         Standard orientation:
 ---------------------------------------------------------------------
 Center     Atomic      Atomic             Coordinates (Angstroms)
 Number     Number       Type             X           Y           Z
 ---------------------------------------------------------------------
      1         14           0        0.049521    0.740403    0.051365
      2          6           0       -1.425661   -0.298935    0.477094
      3          6           0       -2.491880   -0.390598   -0.322413
      4          1           0       -1.429818   -0.844192    1.419536
      5          1           0       -2.540955    0.125534   -1.277287
      6          1           0       -3.362313   -0.985576   -0.059695
      7         17           0        1.762330   -0.450268   -0.092348
      8          1           0        0.343211    1.739635    1.097549
      9          1           0       -0.157779    1.390705   -1.257387
 ---------------------------------------------------------------------

 SCF Done:  E(RHF) =  -827.319011471     A.U. after    2 cycles

 The electronic state is 1-A.
 Alpha  occ. eigenvalues -- -105.55178 -69.57859 -11.26959 -11.24596 -10.60183
 Alpha  occ. eigenvalues --   -7.77067  -7.76763  -7.76758  -6.24527  -3.99963
 Alpha  occ. eigenvalues --   -3.99826  -3.99800  -1.06319  -1.04061  -0.81880
 Alpha  occ. eigenvalues --   -0.72930  -0.65102  -0.59634  -0.53593  -0.52959
 Alpha  occ. eigenvalues --   -0.50277  -0.45297  -0.44956  -0.40342
 Alpha virt. eigenvalues --    0.03461   0.04104   0.04512   0.05440   0.06200
 Alpha virt. eigenvalues --    0.07249   0.07969   0.09080   0.10192   0.11769
 Alpha virt. eigenvalues --    0.13301   0.14389   0.14787   0.15245   0.16418

 Mulliken charges:
               1
     1  Si   1.301909
     2  C   -0.236597
     3  C    0.137982
     4  H   -0.136622
     5  H   -0.072995
     6  H   -0.044310
     7  Cl  -0.584224
     8  H   -0.181857
     9  H   -0.183285
 Sum of Mulliken charges =  -0.00000

 Dipole moment (field-independent basis, Debye):
    X=             -2.3726    Y=              0.5351    Z=              0.1094  Tot=              2.4346

 Test job not archived.
 1\1\GINC-SE338\SP\RHF\Aug-CC-pVDZ\C2H5Cl1Si1\OHZDE\08-Apr-2025\0\\#t h
 f aug-cc-pvdz iop(5/13=1,5/36=2,99/5=2) pseudo=read geom=check guess=(
 read,tcheck) scf=(maxcycle=1)\\title\\0,1\Si,0,0.049521,0.740403,0.051
 365\C,0,-1.425661,-0.298935,0.477094\C,0,-2.49188,-0.390598,-0.322413\
 H,0,-1.429818,-0.844192,1.419536\H,0,-2.540955,0.125534,-1.277287\H,0,
 -3.362313,-0.985576,-0.059695\Cl,0,1.76233,-0.450268,-0.092348\H,0,0.3
 43211,1.739635,1.097549\H,0,-0.157779,1.390705,-1.257387\\Version=ES64
 L-G16RevC.01\State=1-A\HF=-827.3190115\RMSD=8.425e-03\Dipole=-0.933451

 Normal termination of Gaussian 16 at Tue Apr  8 23:45:16 2025.
