 Gaussian 16, Revision C.01,

 ----------------------------------------------------------------------
 #t hf aug-cc-pvdz symm=none int=(grid=ultrafine) guess=(read,tcheck) s
 table=(opt,rrhf)
 ----------------------------------------------------------------------
 -----
 title
 -----
 Symbolic Z-matrix:
 Charge =  0 Multiplicity = 1

 SCF Done:  E(RHF) =  -871.439459900     A.U. after   10 cycles
 Normal termination of Gaussian 16 at Tue Apr  8 22:58:38 2025.
 Gaussian 16:  ES64L-G16RevC.01  3-Jul-2019

 ----------------------------------------------------------------------
 #t hf aug-cc-pvdz iop(5/13=1,5/36=2,99/5=2) pseudo=read geom=check gue
 ss=(read,tcheck) scf=(maxcycle=1)
 ----------------------------------------------------------------------
 -----
 title
 -----
 Structure from the checkpoint file:  "BDE49_expt_1939_mol1.chk"
 Charge =  0 Multiplicity = 1

                         Standard orientation:
 ---------------------------------------------------------------------
 Center     Atomic      Atomic             Coordinates (Angstroms)
 Number     Number       Type             X           Y           Z
 ---------------------------------------------------------------------
      1         14           0        1.958631   -0.420723    0.000008
      2         14           0        0.000000    0.893405   -0.000004
      3          1           0        1.993879   -1.286270   -1.203701
      4          1           0        1.993872   -1.286259    1.203724
      5          1           0        3.166734    0.439499    0.000008
      6         14           0       -1.958631   -0.420723   -0.000004
      7          1           0        0.000004    1.769312   -1.200495
      8          1           0       -0.000004    1.769323    1.200479
      9          1           0       -1.993872   -1.286270   -1.203713
     10          1           0       -3.166734    0.439499   -0.000012
     11          1           0       -1.993880   -1.286259    1.203712
 ---------------------------------------------------------------------

 SCF Done:  E(RHF) =  -871.546550294     A.U. after    2 cycles

 The electronic state is 1-A.
 Alpha  occ. eigenvalues --  -69.53048 -69.53048 -69.52611  -6.20237  -6.20235
 Alpha  occ. eigenvalues --   -6.19916  -3.95592  -3.95592  -3.95589  -3.95589
 Alpha  occ. eigenvalues --   -3.95585  -3.95585  -3.95230  -3.95219  -3.95217
 Alpha  occ. eigenvalues --   -0.79812  -0.74244  -0.67536  -0.51609  -0.50196
 Alpha  occ. eigenvalues --   -0.49198  -0.49106  -0.47450  -0.43146  -0.39629
 Alpha virt. eigenvalues --    0.03751   0.03841   0.04211   0.05653   0.06916
 Alpha virt. eigenvalues --    0.07153   0.07271   0.07298   0.08485   0.09394
 Alpha virt. eigenvalues --    0.09411   0.09658   0.10351   0.10423   0.10441

 Mulliken charges:
               1
     1  Si   0.480953
     2  Si   0.094929
     3  H   -0.134020
     4  H   -0.134020
     5  H   -0.135879
     6  Si   0.480953
     7  H   -0.124498
     8  H   -0.124498
     9  H   -0.134020
    10  H   -0.135879
    11  H   -0.134020
 Sum of Mulliken charges =  -0.00000

 Dipole moment (field-independent basis, Debye):
    X=              0.0000    Y=              0.0640    Z=              0.0000  Tot=              0.0640

 Test job not archived.
 1\1\GINC-SE036\SP\RHF\Aug-CC-pVDZ\H8Si3\OHZDE\08-Apr-2025\0\\#t hf aug
 -cc-pvdz iop(5/13=1,5/36=2,99/5=2) pseudo=read geom=check guess=(read,
 tcheck) scf=(maxcycle=1)\\title\\0,1\Si,0,1.958631,-0.420723,0.000008\
 Si,0,0.,0.893405,-0.000004\H,0,1.993879,-1.28627,-1.203701\H,0,1.99387
 2,-1.286259,1.203724\H,0,3.166734,0.439499,0.000008\Si,0,-1.958631,-0.
 420723,-0.000004\H,0,0.000004,1.769312,-1.200495\H,0,-0.000004,1.76932
 3,1.200479\H,0,-1.993872,-1.28627,-1.203713\H,0,-3.166734,0.439499,-0.
 000012\H,0,-1.99388,-1.286259,1.203712\\Version=ES64L-G16RevC.01\State

 Normal termination of Gaussian 16 at Tue Apr  8 22:58:41 2025.
