 Gaussian 16, Revision C.01,

 ----------------------------------------------------------------------
 #t hf aug-cc-pvdz symm=none int=(grid=ultrafine) guess=(read,tcheck) s
 table=(opt,rrhf)
 ----------------------------------------------------------------------
 -----
 title
 -----
 Symbolic Z-matrix:
 Charge =  0 Multiplicity = 1

 SCF Done:  E(RHF) =  -567.770982988     A.U. after   16 cycles
 Normal termination of Gaussian 16 at Wed Apr  9 00:35:18 2025.
 Gaussian 16:  ES64L-G16RevC.01  3-Jul-2019

 ----------------------------------------------------------------------
 #t hf aug-cc-pvdz iop(5/13=1,5/36=2,99/5=2) pseudo=read geom=check gue
 ss=(read,tcheck) scf=(maxcycle=1)
 ----------------------------------------------------------------------
 -----
 title
 -----
 Structure from the checkpoint file:  "BDE49_nonexpt_431_mol1.chk"
 Charge =  0 Multiplicity = 1

                         Standard orientation:
 ---------------------------------------------------------------------
 Center     Atomic      Atomic             Coordinates (Angstroms)
 Number     Number       Type             X           Y           Z
 ---------------------------------------------------------------------
      1          9           0        2.936344   -0.678110    0.000305
      2          9           0        2.194205    1.444105    0.000217
      3          5           0        1.889399    0.154278   -0.000271
      4          6           0        0.459304   -0.427010   -0.000154
      5          6           0       -0.717063    0.361014   -0.000081
      6          6           0       -1.975596   -0.250898    0.000007
      7          1           0       -2.879080    0.342655    0.000061
      8          6           0       -2.072386   -1.640231    0.000029
      9          6           0        0.315110   -1.823798   -0.000126
     10          1           0        1.212624   -2.431313   -0.000181
     11          6           0       -0.931588   -2.437397   -0.000038
     12          1           0       -1.014112   -3.517362   -0.000021
     13          1           0       -3.055463   -2.098461    0.000099
     14          8           0       -0.544374    1.705395   -0.000104
     15          6           0       -1.684890    2.554988   -0.000038
     16          1           0       -1.292373    3.569940   -0.000074
     17          1           0       -2.297882    2.403017    0.894667
     18          1           0       -2.298000    2.402999   -0.894660
 ---------------------------------------------------------------------

 SCF Done:  E(RHF) =  -568.326109854     A.U. after    2 cycles

 The electronic state is 1-A.
 Alpha  occ. eigenvalues --  -26.46136 -26.45860 -20.58218 -11.32967 -11.30369
 Alpha  occ. eigenvalues --  -11.26816 -11.26391 -11.24811 -11.24258 -11.23077
 Alpha  occ. eigenvalues --   -7.70712  -1.61237  -1.57042  -1.50959  -1.16249
 Alpha  occ. eigenvalues --   -1.04029  -1.02998  -0.95789  -0.86325  -0.83115
 Alpha  occ. eigenvalues --   -0.78877  -0.74782  -0.72549  -0.70354  -0.68231
 Alpha  occ. eigenvalues --   -0.67732  -0.66423  -0.66174  -0.63953  -0.61452
 Alpha  occ. eigenvalues --   -0.60235  -0.59771  -0.58108  -0.54396  -0.53571
 Alpha  occ. eigenvalues --   -0.53094  -0.48835  -0.48079  -0.36754  -0.33192
 Alpha virt. eigenvalues --    0.02873   0.03400   0.04104   0.04493   0.05046
 Alpha virt. eigenvalues --    0.05698   0.06286   0.06802   0.06829   0.07658
 Alpha virt. eigenvalues --    0.08660   0.10062   0.11204   0.11655   0.12363

 Mulliken charges:
               1
     1  F   -0.785788
     2  F   -0.735121
     3  B    1.061079
     4  C   -0.032837
     5  C    2.487056
     6  C   -0.220320
     7  H   -0.432454
     8  C    0.433467
     9  C    0.575293
    10  H   -0.314896
    11  C   -0.001849
    12  H   -0.205287
    13  H   -0.228067
    14  O   -2.075616
    15  C    0.115954
    16  H   -0.035013
    17  H    0.197194
    18  H    0.197203
 Sum of Mulliken charges =  -0.00000

 Dipole moment (field-independent basis, Debye):
    X=             -3.7734    Y=             -0.1106    Z=             -0.0014  Tot=              3.7750

 Test job not archived.
 1\1\GINC-SE459\SP\RHF\Aug-CC-pVDZ\C7H7B1F2O1\OHZDE\09-Apr-2025\0\\#t h
 f aug-cc-pvdz iop(5/13=1,5/36=2,99/5=2) pseudo=read geom=check guess=(
 read,tcheck) scf=(maxcycle=1)\\title\\0,1\F,0,2.936344,-0.678109,0.000
 305\F,0,2.194205,1.444106,0.000217\B,0,1.889399,0.154279,-0.000271\C,0
 ,0.459304,-0.42701,-0.000154\C,0,-0.717063,0.361014,-0.000081\C,0,-1.9
 75596,-0.250898,0.000007\H,0,-2.87908,0.342655,0.000061\C,0,-2.072386,
 -1.640231,0.000029\C,0,0.31511,-1.823798,-0.000126\H,0,1.212624,-2.431
 313,-0.000181\C,0,-0.931588,-2.437397,-0.000038\H,0,-1.014111,-3.51736

 Normal termination of Gaussian 16 at Wed Apr  9 00:35:27 2025.
