 Gaussian 16, Revision C.01,

 ----------------------------------------------------------------------
 #t hf aug-cc-pvdz symm=none int=(grid=ultrafine) guess=(read,tcheck) s
 table=(opt,rrhf)
 ----------------------------------------------------------------------
 -----
 title
 -----
 Symbolic Z-matrix:
 Charge =  0 Multiplicity = 1

 SCF Done:  E(RHF) =  -731.187052212     A.U. after   11 cycles

 1\1\GINC-SE403\Stability\RHF\Aug-CC-pVDZ\H6O2Si2\OHZDE\09-Apr-2025\0\\
 #t hf aug-cc-pvdz symm=none int=(grid=ultrafine) guess=(read,tcheck) s
 table=(opt,rrhf)\\title\\0,1\Si,0,-0.580251,0.,0.372139\Si,0,1.746744,
 -0.000001,-0.05631\O,0,-1.260286,-1.385157,-0.220151\H,0,-1.017407,-1.
 704121,-1.091898\O,0,-1.260284,1.385158,-0.220151\H,0,-1.01739,1.70413
 2,-1.09189\H,0,2.404546,1.205745,0.504412\H,0,1.98125,0.000001,-1.5267
 86\H,0,2.404544,-1.20575,0.504409\H,0,-0.921885,-0.000002,1.802555\\Ve
 rsion=ES64L-G16RevC.01\HF=-731.1870522\RMSD=7.810e-09\Dipole=0.5057609

 Normal termination of Gaussian 16 at Wed Apr  9 00:09:31 2025.
 Gaussian 16:  ES64L-G16RevC.01  3-Jul-2019

 ----------------------------------------------------------------------
 #t hf aug-cc-pvdz iop(5/13=1,5/36=2,99/5=2) pseudo=read geom=check gue
 ss=(read,tcheck) scf=(maxcycle=1)
 ----------------------------------------------------------------------
 -----
 title
 -----
 Structure from the checkpoint file:  "BDE49_nonexpt_2335_mol1.chk"
 Charge =  0 Multiplicity = 1

                         Standard orientation:
 ---------------------------------------------------------------------
 Center     Atomic      Atomic             Coordinates (Angstroms)
 Number     Number       Type             X           Y           Z
 ---------------------------------------------------------------------
      1         14           0       -0.580251    0.000000    0.372139
      2         14           0        1.746744   -0.000001   -0.056310
      3          8           0       -1.260286   -1.385157   -0.220151
      4          1           0       -1.017407   -1.704121   -1.091898
      5          8           0       -1.260284    1.385158   -0.220151
      6          1           0       -1.017390    1.704132   -1.091890
      7          1           0        2.404546    1.205745    0.504412
      8          1           0        1.981250    0.000001   -1.526786
      9          1           0        2.404544   -1.205750    0.504409
     10          1           0       -0.921885   -0.000002    1.802555
 ---------------------------------------------------------------------

 SCF Done:  E(RHF) =  -731.406305006     A.U. after    2 cycles

 The electronic state is 1-A.
 Alpha  occ. eigenvalues --  -69.58389 -69.52851 -20.55438 -20.55436  -6.24651
 Alpha  occ. eigenvalues --   -6.20115  -4.00156  -4.00016  -3.99937  -3.95475
 Alpha  occ. eigenvalues --   -3.95467  -3.95443  -1.45077  -1.42987  -0.79787
 Alpha  occ. eigenvalues --   -0.74578  -0.70454  -0.60694  -0.57541  -0.54967
 Alpha  occ. eigenvalues --   -0.51728  -0.50064  -0.49307  -0.48816  -0.40191
 Alpha virt. eigenvalues --    0.02991   0.04223   0.04696   0.05201   0.07077
 Alpha virt. eigenvalues --    0.07455   0.07655   0.07747   0.08501   0.09697
 Alpha virt. eigenvalues --    0.10379   0.10688   0.13831   0.14962   0.15208

 Mulliken charges:
               1
     1  Si   2.273541
     2  Si   0.272529
     3  O   -1.398163
     4  H    0.420952
     5  O   -1.398166
     6  H    0.420954
     7  H   -0.153927
     8  H   -0.144035
     9  H   -0.153927
    10  H   -0.139759
 Sum of Mulliken charges =  -0.00000

 Dipole moment (field-independent basis, Debye):
    X=              1.2323    Y=              0.0000    Z=             -2.0482  Tot=              2.3904

 Test job not archived.
 1\1\GINC-SE403\SP\RHF\Aug-CC-pVDZ\H6O2Si2\OHZDE\09-Apr-2025\0\\#t hf a
 ug-cc-pvdz iop(5/13=1,5/36=2,99/5=2) pseudo=read geom=check guess=(rea
 d,tcheck) scf=(maxcycle=1)\\title\\0,1\Si,0,-0.580251,0.,0.372139\Si,0
 ,1.746744,-0.000001,-0.05631\O,0,-1.260286,-1.385157,-0.220151\H,0,-1.
 017407,-1.704121,-1.091898\O,0,-1.260284,1.385158,-0.220151\H,0,-1.017
 39,1.704132,-1.09189\H,0,2.404546,1.205745,0.504412\H,0,1.98125,0.0000
 01,-1.526786\H,0,2.404544,-1.20575,0.504409\H,0,-0.921885,-0.000002,1.
 802555\\Version=ES64L-G16RevC.01\State=1-A\HF=-731.406305\RMSD=4.841e-

 Normal termination of Gaussian 16 at Wed Apr  9 00:09:34 2025.
