 Gaussian 16, Revision C.01,

 ----------------------------------------------------------------------
 #t hf aug-cc-pvdz symm=none int=(grid=ultrafine) guess=(read,tcheck) s
 table=opt
 ----------------------------------------------------------------------
 -----
 title
 -----
 Symbolic Z-matrix:
 Charge =  0 Multiplicity = 2

 SCF Done:  E(UHF) =  -414.783655148     A.U. after   14 cycles
 Normal termination of Gaussian 16 at Wed Apr  9 00:34:46 2025.
 Gaussian 16:  ES64L-G16RevC.01  3-Jul-2019

 ----------------------------------------------------------------------
 #t hf aug-cc-pvdz iop(5/13=1,5/36=2,99/5=2) pseudo=read geom=check gue
 ss=(read,tcheck) scf=(maxcycle=1)
 ----------------------------------------------------------------------
 -----
 title
 -----
 Structure from the checkpoint file:  "BDE49_nonexpt_458_mol2.chk"
 Charge =  0 Multiplicity = 2

                         Standard orientation:
 ---------------------------------------------------------------------
 Center     Atomic      Atomic             Coordinates (Angstroms)
 Number     Number       Type             X           Y           Z
 ---------------------------------------------------------------------
      1          1           0       -2.575501   -1.247075   -0.000011
      2          5           0       -1.793259   -0.362755   -0.000004
      3         14           0       -0.002435    0.422164    0.000003
      4          9           0        1.259628   -0.595431   -0.000003
      5          1           0        0.119621    1.254729   -1.218018
      6          1           0        0.119618    1.254711    1.218036
 ---------------------------------------------------------------------

 SCF Done:  E(UHF) =  -414.929280925     A.U. after    2 cycles

 The electronic state is 2-A.
 Alpha  occ. eigenvalues --  -69.57882 -26.44346  -7.64612  -6.24508  -3.99930
 Alpha  occ. eigenvalues --   -3.99759  -3.99733  -1.55421  -0.79731  -0.69616
 Alpha  occ. eigenvalues --   -0.63873  -0.63727  -0.61354  -0.49285  -0.48065
 Alpha  occ. eigenvalues --   -0.34181
 Alpha virt. eigenvalues --    0.01054   0.03674   0.04382   0.05800   0.06712
 Alpha virt. eigenvalues --    0.07323   0.07722   0.08189   0.09907   0.11008
 Alpha virt. eigenvalues --    0.13300   0.15538   0.17177   0.20461   0.22976

  Beta  occ. eigenvalues --  -69.57889 -26.44213  -7.63074  -6.24511  -3.99966
  Beta  occ. eigenvalues --   -3.99752  -3.99747  -1.55036  -0.77934  -0.65791
  Beta  occ. eigenvalues --   -0.63606  -0.63139  -0.60640  -0.49345  -0.46546
  Beta virt. eigenvalues --    0.02293   0.02901   0.03832   0.04459   0.07070
  Beta virt. eigenvalues --    0.07361   0.07881   0.08341   0.09507   0.10215
  Beta virt. eigenvalues --    0.11161   0.13926   0.16827   0.18247   0.21779

 Mulliken charges and spin densities:
               1          2
     1  H    0.489485  -0.034744
     2  B   -0.873861   1.107421
     3  Si   1.584887  -0.034578
     4  F   -0.811677  -0.015106
     5  H   -0.194417  -0.011496
     6  H   -0.194417  -0.011496
 Sum of Mulliken charges =  -0.00000   1.00000

 Dipole moment (field-independent basis, Debye):
    X=             -1.4090    Y=              0.2427    Z=              0.0000  Tot=              1.4297
                          Isotropic Fermi Contact Couplings
        Atom                 a.u.       MegaHertz       Gauss      10(-4) cm-1
     1  H(1)              -0.01428     -63.82268     -22.77352     -21.28895
     2  B(11)              0.14602     209.44276      74.73439      69.86259
     3  Si(29)             0.00474      -4.21222      -1.50302      -1.40504
     4  F(19)              0.03568     150.13948      53.57350      50.08114
     5  H(1)              -0.00227     -10.14178      -3.61884      -3.38293
     6  H(1)              -0.00227     -10.14176      -3.61883      -3.38293
 --------------------------------------------------------
       Center         ----  Spin Dipole Couplings  ----

 Normal termination of Gaussian 16 at Wed Apr  9 00:34:47 2025.
