 Gaussian 16, Revision C.01,

 ----------------------------------------------------------------------
 #t hf aug-cc-pvdz symm=none int=(grid=ultrafine) guess=(read,tcheck) s
 table=opt
 ----------------------------------------------------------------------
 -----
 title
 -----
 Symbolic Z-matrix:
 Charge =  0 Multiplicity = 2

 SCF Done:  E(UHF) =  -539.671033641     A.U. after   13 cycles
 Normal termination of Gaussian 16 at Tue Apr  8 22:58:34 2025.
 Gaussian 16:  ES64L-G16RevC.01  3-Jul-2019

 ----------------------------------------------------------------------
 #t hf aug-cc-pvdz iop(5/13=1,5/36=2,99/5=2) pseudo=read geom=check gue
 ss=(read,tcheck) scf=(maxcycle=1)
 ----------------------------------------------------------------------
 -----
 title
 -----
 Structure from the checkpoint file:  "BDE49_expt_1948_mol2.chk"
 Charge =  0 Multiplicity = 2

                         Standard orientation:
 ---------------------------------------------------------------------
 Center     Atomic      Atomic             Coordinates (Angstroms)
 Number     Number       Type             X           Y           Z
 ---------------------------------------------------------------------
      1         15           0        0.000000   -0.000000    0.568498
      2          9           0        0.000000    1.227070   -0.473748
      3          9           0       -0.000000   -1.227070   -0.473748
 ---------------------------------------------------------------------

 SCF Done:  E(UHF) =  -539.886143035     A.U. after    2 cycles

 The electronic state is 2-B1.
 Alpha  occ. eigenvalues --  -84.42485 -26.49790 -26.49789  -6.88326  -4.40699
 Alpha  occ. eigenvalues --   -4.40226  -4.39502  -1.63599  -1.59353  -0.88761
 Alpha  occ. eigenvalues --   -0.72506  -0.71407  -0.70340  -0.67245  -0.63357
 Alpha  occ. eigenvalues --   -0.52060  -0.34034
 Alpha virt. eigenvalues --    0.06291   0.07013   0.08877   0.09026   0.17581
 Alpha virt. eigenvalues --    0.19291   0.23686   0.26125   0.26709   0.27609
 Alpha virt. eigenvalues --    0.27936   0.34408   0.34687   0.35713   0.38999

  Beta  occ. eigenvalues --  -84.41788 -26.49368 -26.49367  -6.87432  -4.40241
  Beta  occ. eigenvalues --   -4.39302  -4.36593  -1.62412  -1.58340  -0.84627
  Beta  occ. eigenvalues --   -0.71819  -0.69929  -0.67260  -0.63860  -0.63149
  Beta  occ. eigenvalues --   -0.47221
  Beta virt. eigenvalues --    0.04066   0.06564   0.07686   0.09104   0.13472
  Beta virt. eigenvalues --    0.17918   0.23000   0.23932   0.26409   0.27319
  Beta virt. eigenvalues --    0.28296   0.28705   0.34716   0.37445   0.38744

 Mulliken charges and spin densities:
               1          2
     1  P    1.317294   0.994331
     2  F   -0.658647   0.002835
     3  F   -0.658647   0.002835
 Sum of Mulliken charges =  -0.00000   1.00000

 Dipole moment (field-independent basis, Debye):
    X=              0.0000    Y=              0.0000    Z=              1.3510  Tot=              1.3510
                          Isotropic Fermi Contact Couplings
        Atom                 a.u.       MegaHertz       Gauss      10(-4) cm-1
     1  P(31)              0.27302     494.47346     176.44043     164.93859
     2  F(19)              0.05172     217.59602      77.64367      72.58222
     3  F(19)              0.05172     217.59602      77.64367      72.58222
 --------------------------------------------------------
       Center         ----  Spin Dipole Couplings  ----
                      3XX-RR        3YY-RR        3ZZ-RR
 --------------------------------------------------------
     1   Atom        4.060051     -1.803240     -2.256811

 Normal termination of Gaussian 16 at Tue Apr  8 22:58:35 2025.
