 Gaussian 16, Revision C.01,

 ----------------------------------------------------------------------
 #t hf aug-cc-pvdz symm=none int=(grid=ultrafine) guess=(read,tcheck) s
 table=(opt,rrhf)
 ----------------------------------------------------------------------
 -----
 title
 -----
 Symbolic Z-matrix:
 Charge =  0 Multiplicity = 1

 SCF Done:  E(RHF) =  -665.922022962     A.U. after   14 cycles
 Normal termination of Gaussian 16 at Tue Apr  8 23:52:43 2025.
 Gaussian 16:  ES64L-G16RevC.01  3-Jul-2019

 ----------------------------------------------------------------------
 #t hf aug-cc-pvdz iop(5/13=1,5/36=2,99/5=2) pseudo=read geom=check gue
 ss=(read,tcheck) scf=(maxcycle=1)
 ----------------------------------------------------------------------
 -----
 title
 -----
 Structure from the checkpoint file:  "BDE49_nonexpt_1908_mol1.chk"
 Charge =  0 Multiplicity = 1

                         Standard orientation:
 ---------------------------------------------------------------------
 Center     Atomic      Atomic             Coordinates (Angstroms)
 Number     Number       Type             X           Y           Z
 ---------------------------------------------------------------------
      1         14           0       -0.132534   -0.836768    0.009551
      2          6           0        0.493695    0.871599    0.586067
      3          7           0        1.897676    1.140383    0.281096
      4          6           0        2.690457    0.180586   -0.221649
      5          8           0        2.296092   -0.955957   -0.457762
      6          1           0        2.284107    2.058164    0.443495
      7          1           0        3.728932    0.492273   -0.409790
      8          7           0       -1.871814   -0.744169    0.468903
      9          1           0        0.264440   -1.994661    0.827631
     10          1           0       -0.126174   -1.040363   -1.445278
     11          6           0       -2.750689    0.165854   -0.036282
     12          8           0       -2.443064    1.080257   -0.778899
     13          1           0       -3.797768    0.011922    0.292156
     14          1           0       -2.278598   -1.446925    1.071517
     15          1           0        0.321223    0.949887    1.665684
     16          1           0       -0.146724    1.608325    0.095339
 ---------------------------------------------------------------------

 SCF Done:  E(RHF) =  -666.330961654     A.U. after    2 cycles

 The electronic state is 1-A.
 Alpha  occ. eigenvalues --  -69.54869 -20.53490 -20.51146 -15.55060 -15.50172
 Alpha  occ. eigenvalues --  -11.37733 -11.35488 -11.26323  -6.21353  -3.96786
 Alpha  occ. eigenvalues --   -3.96686  -3.96654  -1.48170  -1.45505  -1.25799
 Alpha  occ. eigenvalues --   -1.20035  -0.98640  -0.85928  -0.83940  -0.78947
 Alpha  occ. eigenvalues --   -0.76363  -0.72405  -0.66739  -0.65739  -0.62545
 Alpha  occ. eigenvalues --   -0.61768  -0.57908  -0.55972  -0.55733  -0.49278
 Alpha  occ. eigenvalues --   -0.48111  -0.45282  -0.43115  -0.41873  -0.41713
 Alpha virt. eigenvalues --    0.02590   0.03394   0.04700   0.05158   0.05514
 Alpha virt. eigenvalues --    0.06401   0.07131   0.07520   0.08311   0.08761
 Alpha virt. eigenvalues --    0.09790   0.10974   0.11956   0.12317   0.13453

 Mulliken charges:
               1
     1  Si   0.754541
     2  C   -0.943939
     3  N    0.623544
     4  C    0.636966
     5  O   -1.105273
     6  H    0.115700
     7  H    0.076652
     8  N    0.486342
     9  H   -0.040099
    10  H   -0.063166
    11  C    0.310543
    12  O   -1.089021
    13  H    0.049470
    14  H   -0.049384
    15  H    0.113684
    16  H    0.123441
 Sum of Mulliken charges =  -0.00000

 Dipole moment (field-independent basis, Debye):
    X=              1.6262    Y=              1.0131    Z=              2.9513  Tot=              3.5187

 Test job not archived.
 1\1\GINC-SE105\SP\RHF\Aug-CC-pVDZ\C3H8N2O2Si1\OHZDE\08-Apr-2025\0\\#t
 hf aug-cc-pvdz iop(5/13=1,5/36=2,99/5=2) pseudo=read geom=check guess=
 (read,tcheck) scf=(maxcycle=1)\\title\\0,1\Si,0,-0.132534,-0.836768,0.
 009551\C,0,0.493695,0.871599,0.586067\N,0,1.897676,1.140383,0.281096\C
 ,0,2.690457,0.180586,-0.221649\O,0,2.296092,-0.955957,-0.457762\H,0,2.
 284107,2.058164,0.443495\H,0,3.728932,0.492273,-0.40979\N,0,-1.871814,
 -0.744169,0.468903\H,0,0.26444,-1.994661,0.827631\H,0,-0.126174,-1.040
 363,-1.445278\C,0,-2.750689,0.165854,-0.036282\O,0,-2.443064,1.080257,

 Normal termination of Gaussian 16 at Tue Apr  8 23:52:50 2025.
