 Gaussian 16, Revision C.01,

 ----------------------------------------------------------------------
 #t hf aug-cc-pvdz symm=none int=(grid=ultrafine) guess=(read,tcheck) s
 table=(opt,rrhf)
 ----------------------------------------------------------------------
 -----
 title
 -----
 Symbolic Z-matrix:
 Charge =  0 Multiplicity = 1

 SCF Done:  E(RHF) =  -894.247249116     A.U. after   15 cycles
 Normal termination of Gaussian 16 at Tue Apr  8 23:24:36 2025.
 Gaussian 16:  ES64L-G16RevC.01  3-Jul-2019

 ----------------------------------------------------------------------
 #t hf aug-cc-pvdz iop(5/13=1,5/36=2,99/5=2) pseudo=read geom=check gue
 ss=(read,tcheck) scf=(maxcycle=1)
 ----------------------------------------------------------------------
 -----
 title
 -----
 Structure from the checkpoint file:  "BDE49_nonexpt_1197_mol1.chk"
 Charge =  0 Multiplicity = 1

                         Standard orientation:
 ---------------------------------------------------------------------
 Center     Atomic      Atomic             Coordinates (Angstroms)
 Number     Number       Type             X           Y           Z
 ---------------------------------------------------------------------
      1          6           0       -1.607364    0.192871   -0.399635
      2          8           0       -0.879812    1.145448   -0.471459
      3         16           0       -0.995592   -1.496633   -0.333241
      4          8           0        0.658810   -1.219476   -0.528249
      5          6           0        1.390232   -0.798187    0.581273
      6          8           0        0.923106   -0.677780    1.672597
      7          6           0       -3.122984    0.245628   -0.345985
      8          6           0        2.813484   -0.527885    0.154015
      9          6           0        2.949386    0.745377   -0.708572
     10          1           0        3.171707   -1.391949   -0.411987
     11          1           0        3.403635   -0.438551    1.068194
     12          6           0        2.564041    2.031536    0.026324
     13          1           0        2.335266    0.629785   -1.605367
     14          1           0        3.990348    0.803949   -1.042281
     15          1           0        3.155671    2.159542    0.938112
     16          1           0        1.507425    2.029602    0.301196
     17          1           0        2.738465    2.902868   -0.610277
     18          6           0       -3.617293    1.265209    0.687383
     19          1           0       -3.527808   -0.751683   -0.141992
     20          1           0       -3.458862    0.526967   -1.350405
     21          1           0       -3.323584    0.972381    1.697870
     22          1           0       -4.705874    1.342741    0.655259
     23          1           0       -3.190758    2.247656    0.481594
 ---------------------------------------------------------------------

 SCF Done:  E(RHF) =  -894.811103487     A.U. after    2 cycles

 The electronic state is 1-A.
 Alpha  occ. eigenvalues --  -94.02799 -20.61519 -20.55872 -20.54647 -11.39734
 Alpha  occ. eigenvalues --  -11.38267 -11.27163 -11.25389 -11.24635 -11.24032
 Alpha  occ. eigenvalues --  -11.21804  -8.30330  -6.28155  -6.27895  -6.27669
 Alpha  occ. eigenvalues --   -1.54575  -1.49965  -1.46325  -1.10463  -1.08264
 Alpha  occ. eigenvalues --   -1.03222  -0.96466  -0.90391  -0.84005  -0.79738
 Alpha  occ. eigenvalues --   -0.74674  -0.70163  -0.69365  -0.67667  -0.65472
 Alpha  occ. eigenvalues --   -0.64535  -0.62696  -0.61595  -0.58949  -0.57335
 Alpha  occ. eigenvalues --   -0.56805  -0.55290  -0.53559  -0.53177  -0.51453
 Alpha  occ. eigenvalues --   -0.50580  -0.49774  -0.49212  -0.48003  -0.44228
 Alpha  occ. eigenvalues --   -0.41165  -0.39625
 Alpha virt. eigenvalues --    0.03286   0.03744   0.04236   0.04272   0.04920
 Alpha virt. eigenvalues --    0.05292   0.05482   0.06758   0.07325   0.07613
 Alpha virt. eigenvalues --    0.08225   0.08878   0.10193   0.10700   0.11362

 Mulliken charges:
               1
     1  C    1.137714
     2  O   -1.409522
     3  S    0.898755
     4  O   -1.446587
     5  C    2.376052
     6  O   -1.319083
     7  C   -0.647131
     8  C   -0.625790
     9  C   -0.396197
    10  H    0.216519
    11  H    0.184517
    12  C   -0.343382
    13  H    0.164376
    14  H    0.132789
    15  H    0.173652
    16  H    0.152001
    17  H    0.121223
    18  C   -0.408531
    19  H    0.244360
    20  H    0.299363
    21  H    0.168139
    22  H    0.131065
    23  H    0.195699
 Sum of Mulliken charges =  -0.00000

 Dipole moment (field-independent basis, Debye):
    X=             -1.1144    Y=             -0.3274    Z=             -1.3961  Tot=              1.8161

 Test job not archived.
 1\1\GINC-SE343\SP\RHF\Aug-CC-pVDZ\C7H12O3S1\OHZDE\08-Apr-2025\0\\#t hf
  aug-cc-pvdz iop(5/13=1,5/36=2,99/5=2) pseudo=read geom=check guess=(r
 ead,tcheck) scf=(maxcycle=1)\\title\\0,1\C,0,-1.607364,0.192871,-0.399
 635\O,0,-0.879812,1.145448,-0.471459\S,0,-0.995592,-1.496633,-0.333241
 \O,0,0.65881,-1.219476,-0.528249\C,0,1.390232,-0.798187,0.581273\O,0,0
 .923106,-0.67778,1.672597\C,0,-3.122984,0.245628,-0.345985\C,0,2.81348
 4,-0.527885,0.154015\C,0,2.949386,0.745377,-0.708572\H,0,3.171707,-1.3
 91949,-0.411987\H,0,3.403635,-0.438551,1.068194\C,0,2.564041,2.031536,

 Normal termination of Gaussian 16 at Tue Apr  8 23:24:49 2025.
