 Gaussian 16, Revision C.01,

 ----------------------------------------------------------------------
 #t hf aug-cc-pvdz symm=none int=(grid=ultrafine) guess=(read,tcheck) s
 table=opt
 ----------------------------------------------------------------------
 -----
 title
 -----
 Symbolic Z-matrix:
 Charge =  0 Multiplicity = 2

 SCF Done:  E(UHF) =  -292.507437124     A.U. after   21 cycles
 Normal termination of Gaussian 16 at Wed Apr  9 00:32:49 2025.
 Gaussian 16:  ES64L-G16RevC.01  3-Jul-2019

 ----------------------------------------------------------------------
 #t hf aug-cc-pvdz iop(5/13=1,5/36=2,99/5=2) pseudo=read geom=check gue
 ss=(read,tcheck) scf=(maxcycle=1)
 ----------------------------------------------------------------------
 -----
 title
 -----
 Structure from the checkpoint file:  "BDE49_nonexpt_389_mol2.chk"
 Charge =  0 Multiplicity = 2

                         Standard orientation:
 ---------------------------------------------------------------------
 Center     Atomic      Atomic             Coordinates (Angstroms)
 Number     Number       Type             X           Y           Z
 ---------------------------------------------------------------------
      1          9           0       -2.009249   -0.183591   -0.223582
      2          5           0       -0.946733   -0.296800    0.529461
      3          6           0        0.516117    0.102160    0.073453
      4          8           0        0.678558    1.313926   -0.019946
      5          7           0        1.500773   -0.814551   -0.100542
      6          1           0        1.346395   -1.793731    0.074504
      7          1           0        2.439934   -0.492458   -0.286922
 ---------------------------------------------------------------------

 SCF Done:  E(UHF) =  -292.782481324     A.U. after    2 cycles

 The electronic state is 2-A.
 Alpha  occ. eigenvalues --  -26.50413 -20.53281 -15.54902 -11.36542  -7.71271
 Alpha  occ. eigenvalues --   -1.63652  -1.47322  -1.24028  -0.89862  -0.81749
 Alpha  occ. eigenvalues --   -0.78173  -0.73242  -0.69388  -0.67880  -0.62410
 Alpha  occ. eigenvalues --   -0.60330  -0.46629  -0.45152  -0.36963
 Alpha virt. eigenvalues --    0.02086   0.04431   0.05152   0.05705   0.06410
 Alpha virt. eigenvalues --    0.07565   0.08985   0.13031   0.13822   0.13993
 Alpha virt. eigenvalues --    0.15690   0.17551   0.18033   0.19540   0.20707

  Beta  occ. eigenvalues --  -26.50090 -20.53063 -15.54896 -11.36263  -7.69371
  Beta  occ. eigenvalues --   -1.62773  -1.46795  -1.23907  -0.88387  -0.80735
  Beta  occ. eigenvalues --   -0.77558  -0.71573  -0.68187  -0.66625  -0.61251
  Beta  occ. eigenvalues --   -0.59383  -0.44883  -0.43415
  Beta virt. eigenvalues --    0.01958   0.03931   0.04810   0.05816   0.06591
  Beta virt. eigenvalues --    0.06787   0.09249   0.10826   0.13712   0.13976
  Beta virt. eigenvalues --    0.15081   0.16692   0.17797   0.19216   0.20055

 Mulliken charges and spin densities:
               1          2
     1  F   -0.457961  -0.027233
     2  B    0.498599   0.952929
     3  C    0.460431   0.019568
     4  O   -1.112300   0.058717
     5  N    0.497188  -0.005824
     6  H    0.037424   0.001531
     7  H    0.076619   0.000312
 Sum of Mulliken charges =   0.00000   1.00000

 Dipole moment (field-independent basis, Debye):
    X=              1.3169    Y=             -3.6157    Z=              0.1722  Tot=              3.8519
                          Isotropic Fermi Contact Couplings
        Atom                 a.u.       MegaHertz       Gauss      10(-4) cm-1
     1  F(19)              0.06664     280.38886     100.04972      93.52766
     2  B(11)              0.32378     464.41325     165.71420     154.91159
     3  C(13)              0.07847      88.21147      31.47605      29.42418
     4  O(17)              0.01688     -10.23561      -3.65232      -3.41423
     5  N(14)              0.00060       0.19238       0.06865       0.06417
     6  H(1)              -0.00013      -0.58151      -0.20750      -0.19397
     7  H(1)               0.00030       1.34593       0.48026       0.44895
 --------------------------------------------------------

 Normal termination of Gaussian 16 at Wed Apr  9 00:32:54 2025.
