 Gaussian 16, Revision C.01,

 ----------------------------------------------------------------------
 #t hf aug-cc-pvdz symm=none int=(grid=ultrafine) guess=(read,tcheck) s
 table=(opt,rrhf)
 ----------------------------------------------------------------------
 -----
 title
 -----
 Symbolic Z-matrix:
 Charge =  0 Multiplicity = 1

 SCF Done:  E(RHF) =  -270.065135213     A.U. after   14 cycles

 1\1\GINC-SE460\Stability\RHF\Aug-CC-pVDZ\C5H10O1\OHZDE\08-Apr-2025\0\\
 #t hf aug-cc-pvdz symm=none int=(grid=ultrafine) guess=(read,tcheck) s
 table=(opt,rrhf)\\title\\0,1\C,0,0.627113,0.230386,0.403169\C,0,-0.753
 187,-0.24844,-0.062549\O,0,-0.877436,-1.180212,-0.825079\C,0,-1.956331
 ,0.510198,0.467487\H,0,-1.800465,1.591696,0.428426\H,0,-2.106119,0.247
 456,1.520746\H,0,-2.847119,0.236735,-0.096814\C,0,1.105605,1.346328,-0
 .550141\H,0,1.226446,0.954053,-1.563438\H,0,2.070921,1.737531,-0.21900
 2\H,0,0.403342,2.183308,-0.591442\C,0,1.629539,-0.925253,0.459482\H,0,

 Normal termination of Gaussian 16 at Tue Apr  8 23:01:01 2025.
 Gaussian 16:  ES64L-G16RevC.01  3-Jul-2019

 ----------------------------------------------------------------------
 #t hf aug-cc-pvdz iop(5/13=1,5/36=2,99/5=2) pseudo=read geom=check gue
 ss=(read,tcheck) scf=(maxcycle=1)
 ----------------------------------------------------------------------
 -----
 title
 -----
 Structure from the checkpoint file:  "BDE49_expt_222_mol1.chk"
 Charge =  0 Multiplicity = 1

                         Standard orientation:
 ---------------------------------------------------------------------
 Center     Atomic      Atomic             Coordinates (Angstroms)
 Number     Number       Type             X           Y           Z
 ---------------------------------------------------------------------
      1          6           0        0.627113    0.230386    0.403169
      2          6           0       -0.753187   -0.248440   -0.062549
      3          8           0       -0.877436   -1.180212   -0.825079
      4          6           0       -1.956331    0.510198    0.467487
      5          1           0       -1.800465    1.591696    0.428426
      6          1           0       -2.106119    0.247456    1.520746
      7          1           0       -2.847119    0.236736   -0.096814
      8          6           0        1.105605    1.346328   -0.550141
      9          1           0        1.226446    0.954053   -1.563438
     10          1           0        2.070921    1.737531   -0.219002
     11          1           0        0.403343    2.183308   -0.591442
     12          6           0        1.629539   -0.925253    0.459482
     13          1           0        0.511799    0.668201    1.402294
     14          1           0        1.704492   -1.409260   -0.515842
     15          1           0        1.320446   -1.684963    1.181925
     16          1           0        2.619305   -0.562378    0.749085
 ---------------------------------------------------------------------

 SCF Done:  E(RHF) =  -270.353105401     A.U. after    2 cycles

 The electronic state is 1-A.
 Alpha  occ. eigenvalues --  -20.53121 -11.33427 -11.25025 -11.24439 -11.23949
 Alpha  occ. eigenvalues --  -11.22597  -1.46626  -1.09164  -1.00726  -0.93972
 Alpha  occ. eigenvalues --   -0.85526  -0.73118  -0.67222  -0.64062  -0.61909
 Alpha  occ. eigenvalues --   -0.60064  -0.57801  -0.56148  -0.55096  -0.52277
 Alpha  occ. eigenvalues --   -0.50796  -0.49252  -0.47765  -0.40015
 Alpha virt. eigenvalues --    0.03206   0.03658   0.03867   0.04701   0.06193
 Alpha virt. eigenvalues --    0.06241   0.06885   0.07364   0.08121   0.09412
 Alpha virt. eigenvalues --    0.11341   0.13337   0.13792   0.14003   0.14688

 Mulliken charges:
               1
     1  C   -1.139553
     2  C    1.507363
     3  O   -1.435999
     4  C   -0.594171
     5  H    0.203651
     6  H    0.277859
     7  H    0.140669
     8  C   -0.136841
     9  H    0.241605
    10  H    0.144173
    11  H    0.112496
    12  C   -0.059658
    13  H    0.175874
    14  H    0.259896
    15  H    0.142465
    16  H    0.160171
 Sum of Mulliken charges =  -0.00000

 Dipole moment (field-independent basis, Debye):
    X=              0.4532    Y=              2.3809    Z=              1.8591  Tot=              3.0546

 Test job not archived.
 1\1\GINC-SE460\SP\RHF\Aug-CC-pVDZ\C5H10O1\OHZDE\08-Apr-2025\0\\#t hf a
 ug-cc-pvdz iop(5/13=1,5/36=2,99/5=2) pseudo=read geom=check guess=(rea
 d,tcheck) scf=(maxcycle=1)\\title\\0,1\C,0,0.627113,0.230386,0.403169\
 C,0,-0.753187,-0.24844,-0.062549\O,0,-0.877436,-1.180212,-0.825079\C,0
 ,-1.956331,0.510198,0.467487\H,0,-1.800465,1.591696,0.428426\H,0,-2.10
 6119,0.247456,1.520746\H,0,-2.847119,0.236735,-0.096814\C,0,1.105605,1
 .346328,-0.550141\H,0,1.226446,0.954053,-1.563438\H,0,2.070921,1.73753
 1,-0.219002\H,0,0.403342,2.183308,-0.591442\C,0,1.629539,-0.925253,0.4

 Normal termination of Gaussian 16 at Tue Apr  8 23:01:07 2025.
