 Gaussian 16, Revision C.01,

 ----------------------------------------------------------------------
 #t hf aug-cc-pvdz symm=none int=(grid=ultrafine) guess=(read,tcheck) s
 table=(opt,rrhf)
 ----------------------------------------------------------------------
 -----
 title
 -----
 Symbolic Z-matrix:
 Charge =  0 Multiplicity = 1

 SCF Done:  E(RHF) =  -1120.88073280     A.U. after   13 cycles
 Normal termination of Gaussian 16 at Tue Apr  8 23:44:28 2025.
 Gaussian 16:  ES64L-G16RevC.01  3-Jul-2019

 ----------------------------------------------------------------------
 #t hf aug-cc-pvdz iop(5/13=1,5/36=2,99/5=2) pseudo=read geom=check gue
 ss=(read,tcheck) scf=(maxcycle=1)
 ----------------------------------------------------------------------
 -----
 title
 -----
 Structure from the checkpoint file:  "BDE49_nonexpt_1708_mol1.chk"
 Charge =  0 Multiplicity = 1

                         Standard orientation:
 ---------------------------------------------------------------------
 Center     Atomic      Atomic             Coordinates (Angstroms)
 Number     Number       Type             X           Y           Z
 ---------------------------------------------------------------------
      1         16           0       -0.220718   -1.216932   -0.519068
      2         15           0       -1.580053    0.266882    0.044510
      3          8           0       -1.498007    1.531985   -0.698356
      4          6           0        1.229292   -0.145287   -0.945103
      5          6           0        2.136143    0.230411    0.234837
      6          6           0        2.804192   -0.993840    0.870303
      7          1           0        2.064055   -1.711602    1.230697
      8          1           0        3.425459   -0.698484    1.719917
      9          1           0        3.450218   -1.504622    0.147373
     10          6           0        3.181097    1.251086   -0.242842
     11          1           0        1.511228    0.713509    0.994218
     12          1           0        3.824252    0.822452   -1.019018
     13          1           0        3.824235    1.561021    0.585184
     14          1           0        2.707255    2.146432   -0.654262
     15          1           0        0.823196    0.739348   -1.435512
     16          1           0        1.779638   -0.727873   -1.689485
     17          8           0       -1.402223    0.393887    1.631944
     18          1           0       -1.813833    1.201291    1.968795
     19          8           0       -2.991011   -0.501733   -0.031270
     20          1           0       -3.337818   -0.521112   -0.932165
 ---------------------------------------------------------------------

 SCF Done:  E(RHF) =  -1121.38305333     A.U. after    2 cycles

 The electronic state is 1-A.
 Alpha  occ. eigenvalues --  -93.96281 -84.44913 -20.59960 -20.59817 -20.51226
 Alpha  occ. eigenvalues --  -11.27931 -11.24790 -11.23086 -11.22696  -8.24551
 Alpha  occ. eigenvalues --   -6.90007  -6.22336  -6.22174  -6.21970  -4.44060
 Alpha  occ. eigenvalues --   -4.43363  -4.42430  -1.54036  -1.47855  -1.39569
 Alpha  occ. eigenvalues --   -1.11832  -1.04098  -0.93881  -0.91614  -0.83633
 Alpha  occ. eigenvalues --   -0.78343  -0.73504  -0.68046  -0.65857  -0.64722
 Alpha  occ. eigenvalues --   -0.61738  -0.61676  -0.58318  -0.57432  -0.55929
 Alpha  occ. eigenvalues --   -0.54815  -0.54757  -0.51762  -0.50329  -0.49551
 Alpha  occ. eigenvalues --   -0.48016  -0.47108  -0.46361  -0.43345  -0.38534
 Alpha virt. eigenvalues --    0.03551   0.03784   0.03816   0.04429   0.05068
 Alpha virt. eigenvalues --    0.06350   0.06686   0.07091   0.07605   0.08639
 Alpha virt. eigenvalues --    0.09896   0.10299   0.11300   0.11850   0.12990

 Mulliken charges:
               1
     1  S   -0.228274
     2  P    3.696388
     3  O   -1.489108
     4  C   -0.245726
     5  C   -1.228905
     6  C   -0.150456
     7  H    0.181166
     8  H    0.152675
     9  H    0.211881
    10  C   -0.083338
    11  H    0.187633
    12  H    0.229002
    13  H    0.142175
    14  H    0.145835
    15  H    0.127762
    16  H    0.206372
    17  O   -1.243629
    18  H    0.323068
    19  O   -1.268728
    20  H    0.334207
 Sum of Mulliken charges =  -0.00000

 Dipole moment (field-independent basis, Debye):
    X=              0.6313    Y=             -0.2612    Z=              0.3367  Tot=              0.7616

 Test job not archived.
 1\1\GINC-SE423\SP\RHF\Aug-CC-pVDZ\C4H11O3P1S1\OHZDE\08-Apr-2025\0\\#t
 hf aug-cc-pvdz iop(5/13=1,5/36=2,99/5=2) pseudo=read geom=check guess=
 (read,tcheck) scf=(maxcycle=1)\\title\\0,1\S,0,-0.220718,-1.216932,-0.
 519068\P,0,-1.580053,0.266882,0.04451\O,0,-1.498007,1.531985,-0.698356
 \C,0,1.229292,-0.145287,-0.945103\C,0,2.136143,0.230411,0.234837\C,0,2
 .804192,-0.99384,0.870303\H,0,2.064055,-1.711602,1.230697\H,0,3.425459
 ,-0.698484,1.719917\H,0,3.450218,-1.504622,0.147373\C,0,3.181097,1.251
 086,-0.242842\H,0,1.511228,0.713509,0.994218\H,0,3.824252,0.822452,-1.

 Normal termination of Gaussian 16 at Tue Apr  8 23:44:39 2025.
