 Gaussian 16, Revision C.01,

 ----------------------------------------------------------------------
 #t hf aug-cc-pvdz symm=none int=(grid=ultrafine) guess=(read,tcheck) s
 table=(opt,rrhf)
 ----------------------------------------------------------------------
 -----
 title
 -----
 Symbolic Z-matrix:
 Charge =  0 Multiplicity = 1

 SCF Done:  E(RHF) =  -661.379837633     A.U. after   16 cycles
 Normal termination of Gaussian 16 at Wed Apr  9 00:29:07 2025.
 Gaussian 16:  ES64L-G16RevC.01  3-Jul-2019

 ----------------------------------------------------------------------
 #t hf aug-cc-pvdz iop(5/13=1,5/36=2,99/5=2) pseudo=read geom=check gue
 ss=(read,tcheck) scf=(maxcycle=1)
 ----------------------------------------------------------------------
 -----
 title
 -----
 Structure from the checkpoint file:  "BDE49_nonexpt_290_mol1.chk"
 Charge =  0 Multiplicity = 1

                         Standard orientation:
 ---------------------------------------------------------------------
 Center     Atomic      Atomic             Coordinates (Angstroms)
 Number     Number       Type             X           Y           Z
 ---------------------------------------------------------------------
      1          6           0       -0.068169    0.041864    0.435688
      2          7           0       -0.415315    1.332798   -0.338006
      3          5           0        1.448167   -0.379905    0.010372
      4          7           0       -1.066660   -0.989408   -0.118593
      5          6           0       -0.302544    0.287147    1.911682
      6          8           0       -1.056065   -1.137058   -1.337826
      7          8           0        1.732959   -1.048077   -1.125100
      8          8           0        0.504806    1.858583   -0.942639
      9          8           0        2.400723   -0.065355    0.918291
     10          8           0       -1.554729    1.742307   -0.258625
     11          8           0       -1.759049   -1.603231    0.660639
     12          1           0        0.395140    1.051604    2.255007
     13          1           0       -0.107713   -0.627490    2.470436
     14          1           0       -1.328430    0.606499    2.090912
     15          1           0        0.961959   -1.189926   -1.692122
     16          1           0        3.287140   -0.296309    0.617961
 ---------------------------------------------------------------------

 SCF Done:  E(RHF) =  -662.016939082     A.U. after    2 cycles

 The electronic state is 1-A.
 Alpha  occ. eigenvalues --  -20.63848 -20.62648 -20.62496 -20.62358 -20.59472
 Alpha  occ. eigenvalues --  -20.58809 -15.82723 -15.82250 -11.39037 -11.28224
 Alpha  occ. eigenvalues --   -7.69806  -1.71441  -1.70270  -1.55038  -1.54646
 Alpha  occ. eigenvalues --   -1.51812  -1.47965  -1.20897  -1.02809  -1.01320
 Alpha  occ. eigenvalues --   -0.88577  -0.85018  -0.83788  -0.79853  -0.78822
 Alpha  occ. eigenvalues --   -0.77735  -0.76973  -0.75779  -0.70449  -0.66215
 Alpha  occ. eigenvalues --   -0.61835  -0.61651  -0.60786  -0.59569  -0.55610
 Alpha  occ. eigenvalues --   -0.53516  -0.52794  -0.52165  -0.51282  -0.50735
 Alpha  occ. eigenvalues --   -0.48735  -0.47761
 Alpha virt. eigenvalues --    0.01876   0.02852   0.03163   0.04097   0.04640
 Alpha virt. eigenvalues --    0.04839   0.06366   0.06803   0.07495   0.08944
 Alpha virt. eigenvalues --    0.09981   0.12042   0.12667   0.13431   0.14233

 Mulliken charges:
               1
     1  C   -1.291868
     2  N    3.124822
     3  B    1.811690
     4  N    2.915920
     5  C    0.095767
     6  O   -1.481901
     7  O   -1.436057
     8  O   -1.427661
     9  O   -1.275923
    10  O   -1.537867
    11  O   -1.420170
    12  H    0.198696
    13  H    0.268162
    14  H    0.276058
    15  H    0.713878
    16  H    0.466456
 Sum of Mulliken charges =  -0.00000

 Dipole moment (field-independent basis, Debye):
    X=              2.5466    Y=             -0.8938    Z=              2.4000  Tot=              3.6117

 Test job not archived.
 1\1\GINC-SE253\SP\RHF\Aug-CC-pVDZ\C2H5B1N2O6\OHZDE\09-Apr-2025\0\\#t h
 f aug-cc-pvdz iop(5/13=1,5/36=2,99/5=2) pseudo=read geom=check guess=(
 read,tcheck) scf=(maxcycle=1)\\title\\0,1\C,0,-0.068169,0.041864,0.435
 688\N,0,-0.415315,1.332798,-0.338006\B,0,1.448167,-0.379905,0.010372\N
 ,0,-1.06666,-0.989408,-0.118593\C,0,-0.302544,0.287147,1.911682\O,0,-1
 .056065,-1.137058,-1.337826\O,0,1.732959,-1.048078,-1.1251\O,0,0.50480
 7,1.858583,-0.942639\O,0,2.400723,-0.065356,0.918291\O,0,-1.554728,1.7
 42308,-0.258625\O,0,-1.75905,-1.60323,0.660639\H,0,0.39514,1.051604,2.

 Normal termination of Gaussian 16 at Wed Apr  9 00:29:15 2025.
