 Gaussian 16, Revision C.01,

 ----------------------------------------------------------------------
 #t hf aug-cc-pvdz symm=none int=(grid=ultrafine) guess=(read,tcheck) s
 table=opt
 ----------------------------------------------------------------------
 -----
 title
 -----
 Symbolic Z-matrix:
 Charge =  0 Multiplicity = 2

 SCF Done:  E(UHF) =  -1029.91622157     A.U. after   24 cycles
 Normal termination of Gaussian 16 at Tue Apr  8 22:55:17 2025.
 Gaussian 16:  ES64L-G16RevC.01  3-Jul-2019

 ----------------------------------------------------------------------
 #t hf aug-cc-pvdz iop(5/13=1,5/36=2,99/5=2) pseudo=read geom=check gue
 ss=(read,tcheck) scf=(maxcycle=1)
 ----------------------------------------------------------------------
 -----
 title
 -----
 Structure from the checkpoint file:  "BDE49_expt_1721_mol2.chk"
 Charge =  0 Multiplicity = 2

                         Standard orientation:
 ---------------------------------------------------------------------
 Center     Atomic      Atomic             Coordinates (Angstroms)
 Number     Number       Type             X           Y           Z
 ---------------------------------------------------------------------
      1          6           0        0.982253   -0.366423   -0.136180
      2          8           0        0.689110   -1.506291    0.144319
      3          6           0        0.015467    0.751825   -0.070371
      4          8           0        2.205213    0.041348   -0.514617
      5         17           0        0.579406    2.350462    0.100655
      6          6           0        3.243466   -0.973304   -0.559629
      7          6           0        3.889728   -1.163427    0.802253
      8          1           0        3.953014   -0.588874   -1.291697
      9          1           0        2.806588   -1.902910   -0.926073
     10          1           0        4.280614   -0.216810    1.181637
     11          1           0        4.720428   -1.869830    0.718545
     12          1           0        3.172457   -1.565222    1.519646
     13          6           0       -1.460439    0.574858   -0.032770
     14          8           0       -2.212276    1.391018    0.445270
     15          8           0       -1.830562   -0.567800   -0.624458
     16          6           0       -3.246941   -0.888851   -0.598251
     17          6           0       -3.625799   -1.583446    0.698846
     18          1           0       -3.380827   -1.543520   -1.458767
     19          1           0       -3.816725    0.029785   -0.742974
     20          1           0       -2.999655   -2.463206    0.860104
     21          1           0       -4.670674   -1.903198    0.652734
     22          1           0       -3.513404   -0.907661    1.548216
 ---------------------------------------------------------------------

 SCF Done:  E(UHF) =  -1030.56157030     A.U. after    2 cycles

 The electronic state is 2-A.
 Alpha  occ. eigenvalues -- -105.59841 -20.60004 -20.59588 -20.56188 -20.55561
 Alpha  occ. eigenvalues --  -11.41168 -11.40960 -11.35875 -11.30847 -11.30404
 Alpha  occ. eigenvalues --  -11.24032 -11.23496 -10.64648  -7.81472  -7.81419
 Alpha  occ. eigenvalues --   -7.81161  -1.56070  -1.55349  -1.47627  -1.47043
 Alpha  occ. eigenvalues --   -1.18256  -1.05438  -1.05129  -0.99409  -0.92074
 Alpha  occ. eigenvalues --   -0.87362  -0.82110  -0.77568  -0.75698  -0.71288
 Alpha  occ. eigenvalues --   -0.70682  -0.68067  -0.66967  -0.65831  -0.63534
 Alpha  occ. eigenvalues --   -0.61707  -0.60400  -0.58732  -0.57566  -0.55682
 Alpha  occ. eigenvalues --   -0.54613  -0.54164  -0.54019  -0.51343  -0.50933
 Alpha  occ. eigenvalues --   -0.50457  -0.47744  -0.47308  -0.46855  -0.45559
 Alpha  occ. eigenvalues --   -0.39949
 Alpha virt. eigenvalues --    0.03490   0.03744   0.04213   0.04471   0.04933
 Alpha virt. eigenvalues --    0.05329   0.05786   0.07464   0.07634   0.08120
 Alpha virt. eigenvalues --    0.08546   0.09973   0.11221   0.12259   0.12413

  Beta  occ. eigenvalues -- -105.59777 -20.60069 -20.59599 -20.55184 -20.54786
  Beta  occ. eigenvalues --  -11.41758 -11.41464 -11.33434 -11.30850 -11.30408
  Beta  occ. eigenvalues --  -11.24028 -11.23491 -10.64580  -7.81707  -7.81121
  Beta  occ. eigenvalues --   -7.80902  -1.55661  -1.55056  -1.46071  -1.45699
  Beta  occ. eigenvalues --   -1.14685  -1.05225  -1.05125  -0.96968  -0.92037
  Beta  occ. eigenvalues --   -0.86483  -0.81808  -0.77316  -0.75508  -0.70175
  Beta  occ. eigenvalues --   -0.69378  -0.67383  -0.65997  -0.65349  -0.63270
  Beta  occ. eigenvalues --   -0.61306  -0.58382  -0.57896  -0.55707  -0.54622
  Beta  occ. eigenvalues --   -0.54140  -0.53936  -0.51271  -0.50898  -0.49870
  Beta  occ. eigenvalues --   -0.49779  -0.46165  -0.45164  -0.44636  -0.44159
  Beta virt. eigenvalues --    0.01639   0.03505   0.03748   0.04220   0.04482
  Beta virt. eigenvalues --    0.04932   0.05343   0.05791   0.07473   0.07635
  Beta virt. eigenvalues --    0.08137   0.08700   0.10104   0.11259   0.12281

 Mulliken charges and spin densities:
               1          2
     1  C    2.522550  -0.432974
     2  O   -1.340227   0.239764
     3  C   -0.372799   1.339870
     4  O   -1.430327  -0.006815
     5  Cl  -0.140948   0.057888
     6  C    0.377385  -0.003542
     7  C   -0.457128   0.001401
     8  H   -0.028720  -0.000070
     9  H    0.251369  -0.000900
    10  H    0.186359   0.000074
    11  H    0.142496   0.000241
    12  H    0.161356   0.000943
    13  C    2.022171  -0.383215
    14  O   -1.266272   0.186027
    15  O   -1.302273   0.003556
    16  C    0.418200  -0.004027
    17  C   -0.433736   0.002390
    18  H   -0.032236  -0.000445
    19  H    0.241347  -0.000646
    20  H    0.197270  -0.000185
    21  H    0.132304   0.000444
    22  H    0.151857   0.000220
 Sum of Mulliken charges =  -0.00000   1.00000

 Dipole moment (field-independent basis, Debye):
    X=              1.2444    Y=             -1.8036    Z=             -1.0491  Tot=              2.4294
                          Isotropic Fermi Contact Couplings
        Atom                 a.u.       MegaHertz       Gauss      10(-4) cm-1
     1  C(13)             -0.08503     -95.59285     -34.10991     -31.88634
     2  O(17)              0.07707     -46.72186     -16.67152     -15.58474
     3  C(13)              0.22550     253.50024      90.45519      84.55858
     4  O(17)             -0.01379       8.36033       2.98318       2.78871
     5  Cl(35)             0.03526      15.45833       5.51592       5.15634
     6  C(13)             -0.00064      -0.71461      -0.25499      -0.23837
     7  C(13)              0.00108       1.21340       0.43297       0.40475
     8  H(1)              -0.00002      -0.07914      -0.02824      -0.02640

 Normal termination of Gaussian 16 at Tue Apr  8 22:55:34 2025.
