 Gaussian 16, Revision C.01,

 ----------------------------------------------------------------------
 #t hf aug-cc-pvdz symm=none int=(grid=ultrafine) guess=(read,tcheck) s
 table=(opt,rrhf)
 ----------------------------------------------------------------------
 -----
 title
 -----
 Symbolic Z-matrix:
 Charge =  0 Multiplicity = 1

 SCF Done:  E(RHF) =  -1601.88277603     A.U. after   16 cycles
 Normal termination of Gaussian 16 at Wed Apr  9 00:13:24 2025.
 Gaussian 16:  ES64L-G16RevC.01  3-Jul-2019

 ----------------------------------------------------------------------
 #t hf aug-cc-pvdz iop(5/13=1,5/36=2,99/5=2) pseudo=read geom=check gue
 ss=(read,tcheck) scf=(maxcycle=1)
 ----------------------------------------------------------------------
 -----
 title
 -----
 Structure from the checkpoint file:  "BDE49_nonexpt_2434_mol1.chk"
 Charge =  0 Multiplicity = 1

                         Standard orientation:
 ---------------------------------------------------------------------
 Center     Atomic      Atomic             Coordinates (Angstroms)
 Number     Number       Type             X           Y           Z
 ---------------------------------------------------------------------
      1         14           0        0.892183   -1.115960    0.624937
      2         14           0       -1.133213   -1.306956   -0.590099
      3          6           0       -2.341671    0.064030   -0.022970
      4          1           0       -1.837629   -2.603597   -0.375543
      5          1           0       -0.949952   -1.117311   -2.046678
      6         16           0       -1.827007    1.614562    0.146322
      7          8           0       -3.621091   -0.233893    0.236961
      8          6           0        1.942437    0.348532   -0.012453
      9          1           0        1.652295   -2.370510    0.488190
     10          1           0        0.523801   -0.877679    2.040731
     11         16           0        3.560961    0.129324   -0.116394
     12          8           0        1.373946    1.508454   -0.331386
     13          1           0       -3.781388   -1.177627    0.095177
     14          1           0        0.396583    1.493519   -0.200522
 ---------------------------------------------------------------------

 SCF Done:  E(RHF) =  -1602.28523552     A.U. after    2 cycles

 The electronic state is 1-A.
 Alpha  occ. eigenvalues --  -93.95580 -93.92278 -69.57758 -69.56917 -20.65161
 Alpha  occ. eigenvalues --  -20.60761 -11.40519 -11.37518  -8.23914  -8.20568
 Alpha  occ. eigenvalues --   -6.24946  -6.24019  -6.21741  -6.21494  -6.21357
 Alpha  occ. eigenvalues --   -6.18394  -6.18169  -6.17978  -4.00311  -4.00260
 Alpha  occ. eigenvalues --   -4.00231  -3.99374  -3.99350  -3.99334  -1.56735
 Alpha  occ. eigenvalues --   -1.52696  -1.09568  -1.06257  -0.86920  -0.84502
 Alpha  occ. eigenvalues --   -0.82258  -0.79195  -0.69872  -0.66406  -0.63627
 Alpha  occ. eigenvalues --   -0.63237  -0.60220  -0.59603  -0.53568  -0.53277
 Alpha  occ. eigenvalues --   -0.51205  -0.48495  -0.46160  -0.40835  -0.38522
 Alpha  occ. eigenvalues --   -0.37783  -0.34300
 Alpha virt. eigenvalues --    0.01746   0.02238   0.03117   0.03657   0.05004
 Alpha virt. eigenvalues --    0.05646   0.06084   0.06405   0.06938   0.07226
 Alpha virt. eigenvalues --    0.07926   0.08359   0.08719   0.09865   0.10470

 Mulliken charges:
               1
     1  Si   0.723755
     2  Si   0.696278
     3  C    0.204144
     4  H   -0.204253
     5  H   -0.131748
     6  S    0.119927
     7  O   -1.244563
     8  C    0.049928
     9  H   -0.100404
    10  H   -0.048613
    11  S    0.156082
    12  O   -1.339478
    13  H    0.425129
    14  H    0.693815
 Sum of Mulliken charges =  -0.00000

 Dipole moment (field-independent basis, Debye):
    X=             -5.0056    Y=             -4.5704    Z=              0.0422  Tot=              6.7784

 Test job not archived.
 1\1\GINC-SE070\SP\RHF\Aug-CC-pVDZ\C2H6O2S2Si2\OHZDE\09-Apr-2025\0\\#t
 hf aug-cc-pvdz iop(5/13=1,5/36=2,99/5=2) pseudo=read geom=check guess=
 (read,tcheck) scf=(maxcycle=1)\\title\\0,1\Si,0,0.892183,-1.11596,0.62
 4937\Si,0,-1.133213,-1.306956,-0.590099\C,0,-2.341671,0.06403,-0.02297
 \H,0,-1.837629,-2.603597,-0.375543\H,0,-0.949952,-1.117311,-2.046678\S
 ,0,-1.827007,1.614562,0.146322\O,0,-3.621091,-0.233893,0.236961\C,0,1.
 942437,0.348532,-0.012453\H,0,1.652295,-2.37051,0.48819\H,0,0.523801,-
 0.877679,2.040731\S,0,3.560961,0.129324,-0.116394\O,0,1.373946,1.50845

 Normal termination of Gaussian 16 at Wed Apr  9 00:13:30 2025.
