 Gaussian 16, Revision C.01,

 ----------------------------------------------------------------------
 #t hf aug-cc-pvdz symm=none int=(grid=ultrafine) guess=(read,tcheck) s
 table=(opt,rrhf)
 ----------------------------------------------------------------------
 -----
 title
 -----
 Symbolic Z-matrix:
 Charge =  0 Multiplicity = 1

 SCF Done:  E(RHF) =  -666.134184863     A.U. after   15 cycles
 Normal termination of Gaussian 16 at Tue Apr  8 23:40:17 2025.
 Gaussian 16:  ES64L-G16RevC.01  3-Jul-2019

 ----------------------------------------------------------------------
 #t hf aug-cc-pvdz iop(5/13=1,5/36=2,99/5=2) pseudo=read geom=check gue
 ss=(read,tcheck) scf=(maxcycle=1)
 ----------------------------------------------------------------------
 -----
 title
 -----
 Structure from the checkpoint file:  "BDE49_nonexpt_1586_mol1.chk"
 Charge =  0 Multiplicity = 1

                         Standard orientation:
 ---------------------------------------------------------------------
 Center     Atomic      Atomic             Coordinates (Angstroms)
 Number     Number       Type             X           Y           Z
 ---------------------------------------------------------------------
      1          6           0        0.141108   -0.029545   -0.208941
      2          6           0        0.929750   -1.183945   -0.324309
      3          6           0        2.306168   -1.130525   -0.128166
      4          6           0        2.923408    0.082674    0.175417
      5          6           0        2.153017    1.238120    0.275188
      6          6           0        0.773228    1.184095    0.081265
      7          7           0       -2.208897    1.390877   -0.007546
      8          1           0        2.898702   -2.034542   -0.218076
      9          1           0        3.996444    0.126071    0.324857
     10          1           0        2.626048    2.187506    0.502770
     11          1           0        0.175939    2.085605    0.147019
     12          1           0        0.469234   -2.134289   -0.577299
     13         15           0       -1.670832   -0.139655   -0.549591
     14          6           0       -2.157396   -1.273260    0.843156
     15          1           0       -1.832810   -0.891403    1.815940
     16          1           0       -1.714666   -2.260880    0.693881
     17          1           0       -3.244378   -1.386446    0.840577
     18          1           0       -2.259401    1.578981    0.986795
     19          1           0       -3.006046    1.762402   -0.501443
 ---------------------------------------------------------------------

 SCF Done:  E(RHF) =  -666.521936918     A.U. after    2 cycles

 The electronic state is 1-A.
 Alpha  occ. eigenvalues --  -84.28876 -15.49321 -11.24260 -11.24161 -11.24062
 Alpha  occ. eigenvalues --  -11.24045 -11.23983 -11.23727 -11.23286  -6.75541
 Alpha  occ. eigenvalues --   -4.28509  -4.28223  -4.27336  -1.17141  -1.14683
 Alpha  occ. eigenvalues --   -1.02269  -1.01298  -0.96821  -0.84326  -0.83108
 Alpha  occ. eigenvalues --   -0.77460  -0.71023  -0.69691  -0.64310  -0.63258
 Alpha  occ. eigenvalues --   -0.59824  -0.59097  -0.57737  -0.55785  -0.54735
 Alpha  occ. eigenvalues --   -0.51135  -0.50211  -0.48378  -0.42610  -0.36741
 Alpha  occ. eigenvalues --   -0.34348  -0.30210
 Alpha virt. eigenvalues --    0.03342   0.03701   0.03914   0.04908   0.05008
 Alpha virt. eigenvalues --    0.05243   0.06911   0.07028   0.07803   0.08004
 Alpha virt. eigenvalues --    0.09557   0.10213   0.10767   0.10790   0.12051

 Mulliken charges:
               1
     1  C    0.659435
     2  C   -0.418432
     3  C    0.455493
     4  C    0.107226
     5  C    0.283414
     6  C   -0.202616
     7  N    0.094357
     8  H   -0.224485
     9  H   -0.213213
    10  H   -0.229465
    11  H   -0.335064
    12  H   -0.292202
    13  P    0.756079
    14  C   -0.732998
    15  H    0.141094
    16  H    0.067454
    17  H    0.079425
    18  H   -0.066511
    19  H    0.071010
 Sum of Mulliken charges =   0.00000

 Dipole moment (field-independent basis, Debye):
    X=             -0.7180    Y=             -0.0448    Z=              1.3196  Tot=              1.5030

 Test job not archived.
 1\1\GINC-SE120\SP\RHF\Aug-CC-pVDZ\C7H10N1P1\OHZDE\08-Apr-2025\0\\#t hf
  aug-cc-pvdz iop(5/13=1,5/36=2,99/5=2) pseudo=read geom=check guess=(r
 ead,tcheck) scf=(maxcycle=1)\\title\\0,1\C,0,0.141108,-0.029545,-0.208
 941\C,0,0.92975,-1.183945,-0.324309\C,0,2.306168,-1.130525,-0.128166\C
 ,0,2.923408,0.082674,0.175417\C,0,2.153017,1.23812,0.275188\C,0,0.7732
 28,1.184095,0.081265\N,0,-2.208897,1.390877,-0.007546\H,0,2.898702,-2.
 034542,-0.218076\H,0,3.996444,0.12607,0.324857\H,0,2.626048,2.187506,0
 .50277\H,0,0.175939,2.085605,0.147019\H,0,0.469234,-2.134289,-0.577299

 Normal termination of Gaussian 16 at Tue Apr  8 23:40:28 2025.
