 Gaussian 16, Revision C.01,

 ----------------------------------------------------------------------
 #t hf aug-cc-pvdz symm=none int=(grid=ultrafine) guess=(read,tcheck) s
 table=opt
 ----------------------------------------------------------------------
 -----
 title
 -----
 Symbolic Z-matrix:
 Charge =  0 Multiplicity = 2

 SCF Done:  E(UHF) =  -700.659406325     A.U. after   17 cycles
 Normal termination of Gaussian 16 at Tue Apr  8 23:53:38 2025.
 Gaussian 16:  ES64L-G16RevC.01  3-Jul-2019

 ----------------------------------------------------------------------
 #t hf aug-cc-pvdz iop(5/13=1,5/36=2,99/5=2) pseudo=read geom=check gue
 ss=(read,tcheck) scf=(maxcycle=1)
 ----------------------------------------------------------------------
 -----
 title
 -----
 Structure from the checkpoint file:  "BDE49_nonexpt_1934_mol2.chk"
 Charge =  0 Multiplicity = 2

                         Standard orientation:
 ---------------------------------------------------------------------
 Center     Atomic      Atomic             Coordinates (Angstroms)
 Number     Number       Type             X           Y           Z
 ---------------------------------------------------------------------
      1          6           0        0.848727    1.552015   -0.105772
      2         16           0        0.467210   -0.130095    0.055895
      3          8           0        1.382076   -0.887983   -0.750136
      4          8           0       -0.941062   -0.241068   -0.729827
      5          8           0        0.261345   -0.421284    1.450246
      6          6           0       -2.153061    0.100117   -0.015115
      7          1           0       -2.962625   -0.213036   -0.670945
      8          1           0       -2.208479    1.177814    0.154961
      9          1           0       -2.197660   -0.436133    0.931651
     10          1           0        0.799613    1.997429   -1.089434
     11          1           0        1.300923    2.045339    0.742506
 ---------------------------------------------------------------------

 SCF Done:  E(UHF) =  -701.024879447     A.U. after    2 cycles

 The electronic state is 2-A.
 Alpha  occ. eigenvalues --  -94.24124 -20.61309 -20.55513 -20.55018 -11.32049
 Alpha  occ. eigenvalues --  -11.32002  -8.48832  -6.46989  -6.46849  -6.46622
 Alpha  occ. eigenvalues --   -1.61454  -1.48937  -1.46157  -1.09225  -0.98862
 Alpha  occ. eigenvalues --   -0.85249  -0.75199  -0.72401  -0.70300  -0.66474
 Alpha  occ. eigenvalues --   -0.65633  -0.63182  -0.56913  -0.53149  -0.52353
 Alpha  occ. eigenvalues --   -0.50291  -0.49068  -0.48108  -0.44185
 Alpha virt. eigenvalues --    0.02829   0.03870   0.04492   0.05410   0.06479
 Alpha virt. eigenvalues --    0.09396   0.10635   0.11976   0.12379   0.13711
 Alpha virt. eigenvalues --    0.14736   0.15089   0.15449   0.16037   0.17491

  Beta  occ. eigenvalues --  -94.24202 -20.61261 -20.55480 -20.54764 -11.32047
  Beta  occ. eigenvalues --  -11.29515  -8.48935  -6.47050  -6.46923  -6.46839
  Beta  occ. eigenvalues --   -1.61276  -1.48755  -1.45768  -1.04185  -0.97097
  Beta  occ. eigenvalues --   -0.83360  -0.74307  -0.71743  -0.69692  -0.65656
  Beta  occ. eigenvalues --   -0.64846  -0.62756  -0.56750  -0.52497  -0.49921
  Beta  occ. eigenvalues --   -0.49846  -0.47716  -0.47337
  Beta virt. eigenvalues --    0.02206   0.03413   0.03982   0.04599   0.05857
  Beta virt. eigenvalues --    0.06513   0.09421   0.11353   0.12364   0.12419
  Beta virt. eigenvalues --    0.14376   0.14957   0.15296   0.15590   0.16407

 Mulliken charges and spin densities:
               1          2
     1  C   -0.470534   1.256930
     2  S    4.179788  -0.085508
     3  O   -1.447666   0.022788
     4  O   -1.551082   0.001602
     5  O   -1.510964   0.007237
     6  C    0.203175   0.001344
     7  H    0.019138  -0.000518
     8  H    0.178159  -0.010727
     9  H    0.183671   0.000793
    10  H    0.089749  -0.090968
    11  H    0.126566  -0.102973
 Sum of Mulliken charges =  -0.00000   1.00000

 Dipole moment (field-independent basis, Debye):
    X=             -2.5756    Y=              4.1081    Z=             -0.3162  Tot=              4.8591
                          Isotropic Fermi Contact Couplings
        Atom                 a.u.       MegaHertz       Gauss      10(-4) cm-1
     1  C(13)              0.20969     235.73254      84.11523      78.63191
     2  S(33)             -0.10766     -36.97666     -13.19419     -12.33409
     3  O(17)              0.02314     -14.02607      -5.00485      -4.67859
     4  O(17)              0.00032      -0.19287      -0.06882      -0.06433
     5  O(17)              0.00239      -1.44685      -0.51627      -0.48262
     6  C(13)              0.00089       0.99993       0.35680       0.33354
     7  H(1)              -0.00019      -0.84121      -0.30016      -0.28060
     8  H(1)              -0.00027      -1.18846      -0.42407      -0.39643

 Normal termination of Gaussian 16 at Tue Apr  8 23:53:42 2025.
