 Gaussian 16, Revision C.01,

 ----------------------------------------------------------------------
 #t hf aug-cc-pvdz symm=none int=(grid=ultrafine) guess=(read,tcheck) s
 table=(opt,rrhf)
 ----------------------------------------------------------------------
 -----
 title
 -----
 Symbolic Z-matrix:
 Charge =  0 Multiplicity = 1

 SCF Done:  E(RHF) =  -469.869487244     A.U. after   14 cycles
 Normal termination of Gaussian 16 at Wed Apr  9 00:34:13 2025.
 Gaussian 16:  ES64L-G16RevC.01  3-Jul-2019

 ----------------------------------------------------------------------
 #t hf aug-cc-pvdz iop(5/13=1,5/36=2,99/5=2) pseudo=read geom=check gue
 ss=(read,tcheck) scf=(maxcycle=1)
 ----------------------------------------------------------------------
 -----
 title
 -----
 Structure from the checkpoint file:  "BDE49_nonexpt_427_mol1.chk"
 Charge =  0 Multiplicity = 1

                         Standard orientation:
 ---------------------------------------------------------------------
 Center     Atomic      Atomic             Coordinates (Angstroms)
 Number     Number       Type             X           Y           Z
 ---------------------------------------------------------------------
      1          9           0        2.426077    1.130423   -0.000041
      2          5           0        1.730856    0.000000    0.000062
      3          9           0        2.426077   -1.130423   -0.000043
      4          6           0        0.181222    0.000000    0.000034
      5          6           0       -0.548109   -1.195963    0.000021
      6          6           0       -0.548109    1.195963    0.000024
      7          6           0       -1.939183    1.142628    0.000001
      8          6           0       -1.939183   -1.142628   -0.000001
      9          7           0       -2.633108    0.000000   -0.000011
     10          1           0       -0.040082   -2.153350    0.000029
     11          1           0       -2.525786   -2.056944   -0.000011
     12          1           0       -0.040082    2.153350    0.000033
     13          1           0       -2.525786    2.056944   -0.000007
 ---------------------------------------------------------------------

 SCF Done:  E(RHF) =  -470.321744382     A.U. after    2 cycles

 The electronic state is 1-A.
 Alpha  occ. eigenvalues --  -26.48728 -26.48727 -15.52563 -11.29296 -11.29296
 Alpha  occ. eigenvalues --  -11.26993 -11.26990 -11.26334  -7.73235  -1.63887
 Alpha  occ. eigenvalues --   -1.59887  -1.27396  -1.10823  -1.05319  -0.89554
 Alpha  occ. eigenvalues --   -0.89262  -0.81296  -0.76462  -0.75482  -0.70158
 Alpha  occ. eigenvalues --   -0.69957  -0.69029  -0.67355  -0.64096  -0.63535
 Alpha  occ. eigenvalues --   -0.61979  -0.57492  -0.56683  -0.54667  -0.46663
 Alpha  occ. eigenvalues --   -0.42362  -0.37076
 Alpha virt. eigenvalues --    0.03142   0.03484   0.03851   0.04481   0.04543
 Alpha virt. eigenvalues --    0.05238   0.06549   0.07257   0.08749   0.08955
 Alpha virt. eigenvalues --    0.11052   0.11574   0.12324   0.13546   0.13957

 Mulliken charges:
               1
     1  F   -0.747762
     2  B    1.278811
     3  F   -0.747762
     4  C    0.402957
     5  C    0.792417
     6  C    0.792417
     7  C   -0.947734
     8  C   -0.947734
     9  N    1.003944
    10  H   -0.275410
    11  H   -0.164368
    12  H   -0.275410
    13  H   -0.164368
 Sum of Mulliken charges =  -0.00000

 Dipole moment (field-independent basis, Debye):
    X=              0.5401    Y=              0.0000    Z=              0.0003  Tot=              0.5401

 Test job not archived.
 1\1\GINC-SE455\SP\RHF\Aug-CC-pVDZ\C5H4B1F2N1\OHZDE\09-Apr-2025\0\\#t h
 f aug-cc-pvdz iop(5/13=1,5/36=2,99/5=2) pseudo=read geom=check guess=(
 read,tcheck) scf=(maxcycle=1)\\title\\0,1\F,0,-2.426077,-1.130423,-0.0
 00041\B,0,-1.730856,0.,0.000062\F,0,-2.426077,1.130423,-0.000043\C,0,-
 0.181222,0.,0.000034\C,0,0.548109,1.195963,0.000021\C,0,0.548109,-1.19
 5963,0.000024\C,0,1.939183,-1.142628,0.000001\C,0,1.939183,1.142628,-0
 .000001\N,0,2.633108,0.,-0.000011\H,0,0.040082,2.15335,0.000029\H,0,2.
 525786,2.056944,-0.000011\H,0,0.040082,-2.15335,0.000033\H,0,2.525786,

 Normal termination of Gaussian 16 at Wed Apr  9 00:34:17 2025.
