 Gaussian 16, Revision C.01,

 ----------------------------------------------------------------------
 #t hf aug-cc-pvdz symm=none int=(grid=ultrafine) guess=(read,tcheck) s
 table=(opt,rrhf)
 ----------------------------------------------------------------------
 -----
 title
 -----
 Symbolic Z-matrix:
 Charge =  0 Multiplicity = 1

 SCF Done:  E(RHF) =  -385.022907654     A.U. after   13 cycles

 1\1\GINC-SE038\Stability\RHF\Aug-CC-pVDZ\C6H14O2\OHZDE\08-Apr-2025\0\\
 #t hf aug-cc-pvdz symm=none int=(grid=ultrafine) guess=(read,tcheck) s
 table=(opt,rrhf)\\title\\0,1\O,0,0.357185,-0.259973,0.638369\C,0,1.600
 486,-0.924039,0.414839\C,0,2.563763,-0.13856,-0.471011\C,0,2.921866,1.
 237146,0.095671\H,0,2.022012,1.836223,0.248742\H,0,3.582514,1.783316,-
 0.582358\H,0,3.43268,1.14863,1.06009\H,0,3.468409,-0.745183,-0.598735\
 H,0,2.113414,-0.034152,-1.461871\H,0,1.999879,-1.031615,1.429996\H,0,1
 .413026,-1.92471,0.007877\O,0,-0.357185,-0.259973,-0.638369\C,0,-1.600

 Normal termination of Gaussian 16 at Tue Apr  8 22:56:54 2025.
 Gaussian 16:  ES64L-G16RevC.01  3-Jul-2019

 ----------------------------------------------------------------------
 #t hf aug-cc-pvdz iop(5/13=1,5/36=2,99/5=2) pseudo=read geom=check gue
 ss=(read,tcheck) scf=(maxcycle=1)
 ----------------------------------------------------------------------
 -----
 title
 -----
 Structure from the checkpoint file:  "BDE49_expt_1854_mol1.chk"
 Charge =  0 Multiplicity = 1

                         Standard orientation:
 ---------------------------------------------------------------------
 Center     Atomic      Atomic             Coordinates (Angstroms)
 Number     Number       Type             X           Y           Z
 ---------------------------------------------------------------------
      1          8           0        0.357185   -0.259973    0.638369
      2          6           0        1.600486   -0.924039    0.414839
      3          6           0        2.563763   -0.138560   -0.471011
      4          6           0        2.921866    1.237146    0.095671
      5          1           0        2.022012    1.836223    0.248742
      6          1           0        3.582514    1.783316   -0.582358
      7          1           0        3.432680    1.148630    1.060090
      8          1           0        3.468409   -0.745183   -0.598735
      9          1           0        2.113414   -0.034152   -1.461871
     10          1           0        1.999879   -1.031615    1.429996
     11          1           0        1.413026   -1.924710    0.007877
     12          8           0       -0.357185   -0.259973   -0.638369
     13          6           0       -1.600485   -0.924039   -0.414839
     14          6           0       -2.563763   -0.138561    0.471011
     15          1           0       -1.413026   -1.924710   -0.007877
     16          1           0       -1.999879   -1.031614   -1.429996
     17          6           0       -2.921867    1.237146   -0.095671
     18          1           0       -2.113414   -0.034152    1.461871
     19          1           0       -3.468408   -0.745183    0.598735
     20          1           0       -2.022013    1.836223   -0.248742
     21          1           0       -3.582515    1.783316    0.582358
     22          1           0       -3.432680    1.148630   -1.060090
 ---------------------------------------------------------------------

 SCF Done:  E(RHF) =  -385.432568198     A.U. after    2 cycles

 The electronic state is 1-A.
 Alpha  occ. eigenvalues --  -20.59850 -20.59847 -11.28523 -11.28518 -11.22701
 Alpha  occ. eigenvalues --  -11.22701 -11.21834 -11.21833  -1.56704  -1.30001
 Alpha  occ. eigenvalues --   -1.04828  -1.04498  -0.92534  -0.91007  -0.81701
 Alpha  occ. eigenvalues --   -0.78765  -0.68748  -0.68656  -0.63634  -0.62719
 Alpha  occ. eigenvalues --   -0.62152  -0.58160  -0.57415  -0.56680  -0.53030
 Alpha  occ. eigenvalues --   -0.52232  -0.51265  -0.49249  -0.48955  -0.48550
 Alpha  occ. eigenvalues --   -0.46794  -0.44213  -0.41630
 Alpha virt. eigenvalues --    0.03569   0.03871   0.03950   0.04191   0.05334
 Alpha virt. eigenvalues --    0.05396   0.05777   0.06805   0.06929   0.08317
 Alpha virt. eigenvalues --    0.08418   0.08752   0.09036   0.11025   0.12182

 Mulliken charges:
               1
     1  O   -0.829212
     2  C    0.604515
     3  C   -0.464449
     4  C   -0.306695
     5  H    0.192021
     6  H    0.120077
     7  H    0.155444
     8  H    0.164567
     9  H    0.172288
    10  H    0.060901
    11  H    0.130544
    12  O   -0.829213
    13  C    0.604515
    14  C   -0.464446
    15  H    0.130544
    16  H    0.060902
    17  C   -0.306694
    18  H    0.172289
    19  H    0.164563
    20  H    0.192020
    21  H    0.120077
    22  H    0.155443
 Sum of Mulliken charges =  -0.00000

 Dipole moment (field-independent basis, Debye):
    X=              0.0000    Y=             -1.3141    Z=              0.0000  Tot=              1.3141

 Test job not archived.
 1\1\GINC-SE038\SP\RHF\Aug-CC-pVDZ\C6H14O2\OHZDE\08-Apr-2025\0\\#t hf a
 ug-cc-pvdz iop(5/13=1,5/36=2,99/5=2) pseudo=read geom=check guess=(rea
 d,tcheck) scf=(maxcycle=1)\\title\\0,1\O,0,0.357185,-0.259973,0.638369
 \C,0,1.600486,-0.924039,0.414839\C,0,2.563763,-0.13856,-0.471011\C,0,2
 .921866,1.237146,0.095671\H,0,2.022012,1.836223,0.248742\H,0,3.582514,
 1.783316,-0.582358\H,0,3.43268,1.14863,1.06009\H,0,3.468409,-0.745183,
 -0.598735\H,0,2.113414,-0.034152,-1.461871\H,0,1.999879,-1.031615,1.42
 9996\H,0,1.413026,-1.92471,0.007877\O,0,-0.357185,-0.259973,-0.638369\

 Normal termination of Gaussian 16 at Tue Apr  8 22:57:04 2025.
