 Gaussian 16, Revision C.01,

 ----------------------------------------------------------------------
 #t hf aug-cc-pvdz symm=none int=(grid=ultrafine) guess=(read,tcheck) s
 table=opt
 ----------------------------------------------------------------------
 -----
 title
 -----
 Symbolic Z-matrix:
 Charge =  0 Multiplicity = 2

 SCF Done:  E(UHF) =  -743.914150017     A.U. after   21 cycles
 Normal termination of Gaussian 16 at Wed Apr  9 00:27:04 2025.
 Gaussian 16:  ES64L-G16RevC.01  3-Jul-2019

 ----------------------------------------------------------------------
 #t hf aug-cc-pvdz iop(5/13=1,5/36=2,99/5=2) pseudo=read geom=check gue
 ss=(read,tcheck) scf=(maxcycle=1)
 ----------------------------------------------------------------------
 -----
 title
 -----
 Structure from the checkpoint file:  "BDE49_nonexpt_2718_mol2.chk"
 Charge =  0 Multiplicity = 2

                         Standard orientation:
 ---------------------------------------------------------------------
 Center     Atomic      Atomic             Coordinates (Angstroms)
 Number     Number       Type             X           Y           Z
 ---------------------------------------------------------------------
      1         16           0        2.883201    0.000038   -0.686861
      2          6           0        1.463366   -0.000047    0.366135
      3          8           0        1.706168   -0.000072    1.554707
      4          6           0        0.075557   -0.000012   -0.231582
      5          6           0       -0.688551   -1.274231    0.197092
      6          6           0       -2.126604   -1.267184   -0.338179
      7          1           0       -0.696390   -1.319401    1.291022
      8          1           0       -0.154608   -2.162444   -0.154353
      9          6           0       -2.882806    0.000021    0.082939
     10          1           0       -2.652126   -2.159468    0.015732
     11          1           0       -2.107247   -1.331863   -1.433646
     12          6           0       -2.126569    1.267229   -0.338107
     13          1           0       -3.008247   -0.000008    1.173025
     14          1           0       -3.888928    0.000047   -0.347497
     15          6           0       -0.688515    1.274205    0.197163
     16          1           0       -2.652065    2.159508    0.015853
     17          1           0       -2.107209    1.331969   -1.433571
     18          1           0       -0.154546    2.162423   -0.154231
     19          1           0       -0.696353    1.319312    1.291096
     20          1           0        0.181889    0.000018   -1.324074
 ---------------------------------------------------------------------

 SCF Done:  E(UHF) =  -744.329682874     A.U. after    2 cycles

 The electronic state is 2-A.
 Alpha  occ. eigenvalues --  -93.99312 -20.54967 -11.37503 -11.26456 -11.24459
 Alpha  occ. eigenvalues --  -11.24439 -11.23835 -11.23820 -11.23512  -8.27501
 Alpha  occ. eigenvalues --   -6.26681  -6.24872  -6.24595  -1.48950  -1.14255
 Alpha  occ. eigenvalues --   -1.07916  -1.02662  -1.01915  -0.88073  -0.85182
 Alpha  occ. eigenvalues --   -0.78122  -0.74917  -0.68010  -0.66262  -0.63374
 Alpha  occ. eigenvalues --   -0.62269  -0.60246  -0.58724  -0.57779  -0.55086
 Alpha  occ. eigenvalues --   -0.52172  -0.51294  -0.50611  -0.49108  -0.47567
 Alpha  occ. eigenvalues --   -0.45450  -0.45269  -0.41087  -0.40777
 Alpha virt. eigenvalues --    0.03139   0.03330   0.03382   0.04340   0.05755
 Alpha virt. eigenvalues --    0.05896   0.06504   0.06579   0.07315   0.08595
 Alpha virt. eigenvalues --    0.09386   0.09549   0.10770   0.11268   0.13298

  Beta  occ. eigenvalues --  -93.98385 -20.54806 -11.37607 -11.26434 -11.24456
  Beta  occ. eigenvalues --  -11.24436 -11.23835 -11.23820 -11.23512  -8.26436
  Beta  occ. eigenvalues --   -6.24358  -6.24006  -6.22581  -1.48500  -1.14098
  Beta  occ. eigenvalues --   -1.05081  -1.01911  -0.98494  -0.87044  -0.85178
  Beta  occ. eigenvalues --   -0.77744  -0.74192  -0.67403  -0.65204  -0.63078
  Beta  occ. eigenvalues --   -0.62266  -0.59428  -0.58646  -0.57153  -0.55081
  Beta  occ. eigenvalues --   -0.52047  -0.50878  -0.50602  -0.47855  -0.47285
  Beta  occ. eigenvalues --   -0.45235  -0.40220  -0.38573
  Beta virt. eigenvalues --   -0.00867   0.03247   0.03331   0.03485   0.04366
  Beta virt. eigenvalues --    0.05840   0.05910   0.06507   0.06649   0.07531
  Beta virt. eigenvalues --    0.08695   0.09552   0.09606   0.10678   0.11811

 Mulliken charges and spin densities:
               1          2
     1  S    0.226258   1.117278
     2  C    0.817812  -0.119355
     3  O   -1.326494   0.014213
     4  C    0.092772  -0.052639
     5  C   -0.275065   0.019381
     6  C   -0.221973  -0.005816
     7  H    0.181423   0.000156
     8  H    0.087147   0.003920
     9  C   -0.301897   0.000793
    10  H    0.113903  -0.000192
    11  H    0.150915  -0.000441
    12  C   -0.221964  -0.005817
    13  H    0.150180   0.000070
    14  H    0.116720  -0.000004
    15  C   -0.275064   0.019383
    16  H    0.113900  -0.000192
    17  H    0.150918  -0.000441
    18  H    0.087149   0.003921
    19  H    0.181427   0.000156
    20  H    0.151933   0.005625
 Sum of Mulliken charges =   0.00000   1.00000

 Dipole moment (field-independent basis, Debye):
    X=             -2.4603    Y=              0.0001    Z=             -2.0504  Tot=              3.2027
                          Isotropic Fermi Contact Couplings
        Atom                 a.u.       MegaHertz       Gauss      10(-4) cm-1
     1  S(33)              0.20372      69.97347      24.96827      23.34064
     2  C(13)             -0.01684     -18.93659      -6.75705      -6.31657
     3  O(17)              0.02274     -13.78632      -4.91930      -4.59862
     4  C(13)              0.00377       4.23741       1.51201       1.41345
     5  C(13)              0.00054       0.61080       0.21795       0.20374
     6  C(13)              0.00003       0.03224       0.01150       0.01075
     7  H(1)               0.00001       0.06430       0.02294       0.02145
     8  H(1)              -0.00001      -0.04978      -0.01776      -0.01660

 Normal termination of Gaussian 16 at Wed Apr  9 00:27:16 2025.
