 Gaussian 16, Revision C.01,

 ----------------------------------------------------------------------
 #t hf aug-cc-pvdz symm=none int=(grid=ultrafine) guess=(read,tcheck) s
 table=opt
 ----------------------------------------------------------------------
 -----
 title
 -----
 Symbolic Z-matrix:
 Charge =  0 Multiplicity = 2

 SCF Done:  E(UHF) =  -848.540374636     A.U. after   15 cycles
 Normal termination of Gaussian 16 at Tue Apr  8 23:48:13 2025.
 Gaussian 16:  ES64L-G16RevC.01  3-Jul-2019

 ----------------------------------------------------------------------
 #t hf aug-cc-pvdz iop(5/13=1,5/36=2,99/5=2) pseudo=read geom=check gue
 ss=(read,tcheck) scf=(maxcycle=1)
 ----------------------------------------------------------------------
 -----
 title
 -----
 Structure from the checkpoint file:  "BDE49_nonexpt_1808_mol2.chk"
 Charge =  0 Multiplicity = 2

                         Standard orientation:
 ---------------------------------------------------------------------
 Center     Atomic      Atomic             Coordinates (Angstroms)
 Number     Number       Type             X           Y           Z
 ---------------------------------------------------------------------
      1         14           0       -0.572423    0.547547   -0.136852
      2          9           0       -1.594641   -0.678125    0.058755
      3         17           0        1.362487   -0.179516    0.023198
      4          1           0       -0.796581    1.489237    0.992754
 ---------------------------------------------------------------------

 SCF Done:  E(UHF) =  -848.735072807     A.U. after    2 cycles

 The electronic state is 2-A.
 Alpha  occ. eigenvalues -- -105.57733 -69.64806 -26.47574 -10.62769  -7.79740
 Alpha  occ. eigenvalues --   -7.79346  -7.79287  -6.31025  -4.06639  -4.06059
 Alpha  occ. eigenvalues --   -4.05850  -1.58862  -1.07545  -0.78634  -0.67444
 Alpha  occ. eigenvalues --   -0.66476  -0.64608  -0.55028  -0.50900  -0.49291
 Alpha  occ. eigenvalues --   -0.38311
 Alpha virt. eigenvalues --    0.04436   0.05017   0.05263   0.06142   0.10863
 Alpha virt. eigenvalues --    0.13425   0.13842   0.14533   0.16138   0.16719
 Alpha virt. eigenvalues --    0.20245   0.21663   0.24507   0.26449   0.29925

  Beta  occ. eigenvalues -- -105.57621 -69.64215 -26.47258 -10.62646  -7.79477
  Beta  occ. eigenvalues --   -7.79228  -7.79104  -6.30051  -4.05682  -4.05515
  Beta  occ. eigenvalues --   -4.04645  -1.58014  -1.06559  -0.75989  -0.66322
  Beta  occ. eigenvalues --   -0.64986  -0.62192  -0.52934  -0.49467  -0.48683
  Beta virt. eigenvalues --    0.00622   0.04911   0.05338   0.05610   0.07054
  Beta virt. eigenvalues --    0.11892   0.13938   0.15900   0.16226   0.16449
  Beta virt. eigenvalues --    0.17556   0.21368   0.23048   0.26059   0.27016

 Mulliken charges and spin densities:
               1          2
     1  Si   1.420454   0.821274
     2  F   -0.750201   0.000431
     3  Cl  -0.489383   0.045168
     4  H   -0.180871   0.133127
 Sum of Mulliken charges =  -0.00000   1.00000

 Dipole moment (field-independent basis, Debye):
    X=             -0.4894    Y=              1.5104    Z=             -0.1855  Tot=              1.5985
                          Isotropic Fermi Contact Couplings
        Atom                 a.u.       MegaHertz       Gauss      10(-4) cm-1
     1  Si(29)             0.93576    -831.63266    -296.74721    -277.40280
     2  F(19)              0.05292     222.63880      79.44306      74.26431
     3  Cl(35)             0.06678      29.27877      10.44739       9.76635
     4  H(1)               0.03558     159.02404      56.74373      53.04471
 --------------------------------------------------------
       Center         ----  Spin Dipole Couplings  ----
                      3XX-RR        3YY-RR        3ZZ-RR
 --------------------------------------------------------

 Normal termination of Gaussian 16 at Tue Apr  8 23:48:15 2025.
