 Gaussian 16, Revision C.01,

 ----------------------------------------------------------------------
 #t hf aug-cc-pvdz symm=none int=(grid=ultrafine) guess=(read,tcheck) s
 table=(opt,rrhf)
 ----------------------------------------------------------------------
 -----
 title
 -----
 Symbolic Z-matrix:
 Charge =  0 Multiplicity = 1

 SCF Done:  E(RHF) =  -510.255126606     A.U. after   14 cycles
 Normal termination of Gaussian 16 at Tue Apr  8 23:37:06 2025.
 Gaussian 16:  ES64L-G16RevC.01  3-Jul-2019

 ----------------------------------------------------------------------
 #t hf aug-cc-pvdz iop(5/13=1,5/36=2,99/5=2) pseudo=read geom=check gue
 ss=(read,tcheck) scf=(maxcycle=1)
 ----------------------------------------------------------------------
 -----
 title
 -----
 Structure from the checkpoint file:  "BDE49_nonexpt_1543_mol1.chk"
 Charge =  0 Multiplicity = 1

                         Standard orientation:
 ---------------------------------------------------------------------
 Center     Atomic      Atomic             Coordinates (Angstroms)
 Number     Number       Type             X           Y           Z
 ---------------------------------------------------------------------
      1          6           0       -1.150906   -0.419362    0.024016
      2          7           0        1.244210    0.939982    0.129811
      3          8           0       -1.684943    0.661127   -0.042751
      4         15           0        0.693804   -0.647596   -0.123932
      5          1           0       -1.742701   -1.354104    0.155062
      6          1           0        0.767846   -1.204017    1.183885
      7          1           0        1.700641    1.337784   -0.679247
      8          1           0        0.542665    1.581553    0.488515
 ---------------------------------------------------------------------

 SCF Done:  E(RHF) =  -510.469596989     A.U. after    2 cycles

 The electronic state is 1-A.
 Alpha  occ. eigenvalues --  -84.31068 -20.56531 -15.50806 -11.35400  -6.77958
 Alpha  occ. eigenvalues --   -4.30725  -4.30160  -4.29620  -1.49254  -1.18209
 Alpha  occ. eigenvalues --   -0.92495  -0.79237  -0.71715  -0.67213  -0.63967
 Alpha  occ. eigenvalues --   -0.57564  -0.54220  -0.49659  -0.40743  -0.35652
 Alpha virt. eigenvalues --    0.03628   0.04150   0.05912   0.06636   0.07945
 Alpha virt. eigenvalues --    0.08349   0.09429   0.10148   0.12093   0.14092
 Alpha virt. eigenvalues --    0.15421   0.16756   0.17826   0.19528   0.20613

 Mulliken charges:
               1
     1  C    0.304387
     2  N   -0.209908
     3  O   -0.993891
     4  P    0.288622
     5  H    0.100724
     6  H    0.399660
     7  H    0.097735
     8  H    0.012671
 Sum of Mulliken charges =  -0.00000

 Dipole moment (field-independent basis, Debye):
    X=              0.7694    Y=             -1.1788    Z=             -0.1990  Tot=              1.4217

 Test job not archived.
 1\1\GINC-SE402\SP\RHF\Aug-CC-pVDZ\C1H4N1O1P1\OHZDE\08-Apr-2025\0\\#t h
 f aug-cc-pvdz iop(5/13=1,5/36=2,99/5=2) pseudo=read geom=check guess=(
 read,tcheck) scf=(maxcycle=1)\\title\\0,1\C,0,-1.150906,-0.419362,0.02
 4016\N,0,1.24421,0.939982,0.129811\O,0,-1.684943,0.661127,-0.042751\P,
 0,0.693804,-0.647596,-0.123932\H,0,-1.742701,-1.354104,0.155062\H,0,0.
 767846,-1.204017,1.183885\H,0,1.700641,1.337784,-0.679247\H,0,0.542665
 ,1.581553,0.488515\\Version=ES64L-G16RevC.01\State=1-A\HF=-510.469597\
 RMSD=2.258e-02\Dipole=0.3026947,-0.4637747,-0.0782994\Quadrupole=-2.50

 Normal termination of Gaussian 16 at Tue Apr  8 23:37:09 2025.
