 Gaussian 16, Revision C.01,

 ----------------------------------------------------------------------
 #t hf aug-cc-pvdz symm=none int=(grid=ultrafine) guess=(read,tcheck) s
 table=(opt,rrhf)
 ----------------------------------------------------------------------
 -----
 title
 -----
 Symbolic Z-matrix:
 Charge =  0 Multiplicity = 1

 SCF Done:  E(RHF) =  -1107.67406666     A.U. after   14 cycles
 Normal termination of Gaussian 16 at Tue Apr  8 23:08:46 2025.
 Gaussian 16:  ES64L-G16RevC.01  3-Jul-2019

 ----------------------------------------------------------------------
 #t hf aug-cc-pvdz iop(5/13=1,5/36=2,99/5=2) pseudo=read geom=check gue
 ss=(read,tcheck) scf=(maxcycle=1)
 ----------------------------------------------------------------------
 -----
 title
 -----
 Structure from the checkpoint file:  "BDE49_expt_620_mol1.chk"
 Charge =  0 Multiplicity = 1

                         Standard orientation:
 ---------------------------------------------------------------------
 Center     Atomic      Atomic             Coordinates (Angstroms)
 Number     Number       Type             X           Y           Z
 ---------------------------------------------------------------------
      1          6           0        0.041054   -0.096510    0.630425
      2          8           0       -0.143207    1.256001    0.716002
      3          8           0       -0.186429    1.851292   -0.599366
      4          1           0       -1.145062    1.892264   -0.744687
      5         17           0        1.569338   -0.575766   -0.178676
      6          1           0        0.084760   -0.436963    1.660668
      7         17           0       -1.366333   -0.938033   -0.152596
 ---------------------------------------------------------------------

 SCF Done:  E(RHF) =  -1108.00874854     A.U. after    2 cycles

 The electronic state is 1-A.
 Alpha  occ. eigenvalues -- -105.59043-105.58711 -20.66766 -20.65485 -11.44690
 Alpha  occ. eigenvalues --  -10.63883 -10.63557  -7.80815  -7.80501  -7.80423
 Alpha  occ. eigenvalues --   -7.80408  -7.80081  -7.80075  -1.64297  -1.35822
 Alpha  occ. eigenvalues --   -1.13957  -1.06168  -0.88567  -0.75460  -0.74448
 Alpha  occ. eigenvalues --   -0.69208  -0.63405  -0.58853  -0.53387  -0.50743
 Alpha  occ. eigenvalues --   -0.49883  -0.48315  -0.47568  -0.46271
 Alpha virt. eigenvalues --    0.03822   0.04440   0.07534   0.08344   0.10689
 Alpha virt. eigenvalues --    0.12311   0.13022   0.14302   0.14979   0.15403
 Alpha virt. eigenvalues --    0.16932   0.17344   0.18277   0.20230   0.21369

 Mulliken charges:
               1
     1  C    0.334457
     2  O   -0.661200
     3  O   -0.408648
     4  H    0.418048
     5  Cl   0.036638
     6  H    0.289745
     7  Cl  -0.009041
 Sum of Mulliken charges =  -0.00000

 Dipole moment (field-independent basis, Debye):
    X=             -1.3987    Y=              0.2388    Z=              0.7364  Tot=              1.5987

 Test job not archived.
 1\1\GINC-SE074\SP\RHF\Aug-CC-pVDZ\C1H2Cl2O2\OHZDE\08-Apr-2025\0\\#t hf
  aug-cc-pvdz iop(5/13=1,5/36=2,99/5=2) pseudo=read geom=check guess=(r
 ead,tcheck) scf=(maxcycle=1)\\title\\0,1\C,0,0.041054,-0.09651,0.63042
 5\O,0,-0.143208,1.256001,0.716002\O,0,-0.18643,1.851292,-0.599366\H,0,
 -1.145063,1.892263,-0.744687\Cl,0,1.569338,-0.575766,-0.178676\H,0,0.0
 8476,-0.436963,1.660668\Cl,0,-1.366333,-0.938034,-0.152596\\Version=ES
 64L-G16RevC.01\State=1-A\HF=-1108.0087485\RMSD=6.056e-03\Dipole=-0.550
 3059,0.0939614,0.2897039\Quadrupole=0.1942879,-1.4456992,1.2514113,-2.

 Normal termination of Gaussian 16 at Tue Apr  8 23:08:49 2025.
