 Gaussian 16, Revision C.01,

 ----------------------------------------------------------------------
 #t hf aug-cc-pvdz symm=none int=(grid=ultrafine) guess=(read,tcheck) s
 table=opt
 ----------------------------------------------------------------------
 -----
 title
 -----
 Symbolic Z-matrix:
 Charge =  0 Multiplicity = 2

 SCF Done:  E(UHF) =  -416.763466629     A.U. after   16 cycles
 Normal termination of Gaussian 16 at Tue Apr  8 23:34:00 2025.
 Gaussian 16:  ES64L-G16RevC.01  3-Jul-2019

 ----------------------------------------------------------------------
 #t hf aug-cc-pvdz iop(5/13=1,5/36=2,99/5=2) pseudo=read geom=check gue
 ss=(read,tcheck) scf=(maxcycle=1)
 ----------------------------------------------------------------------
 -----
 title
 -----
 Structure from the checkpoint file:  "BDE49_nonexpt_1464_mol2.chk"
 Charge =  0 Multiplicity = 2

                         Standard orientation:
 ---------------------------------------------------------------------
 Center     Atomic      Atomic             Coordinates (Angstroms)
 Number     Number       Type             X           Y           Z
 ---------------------------------------------------------------------
      1         15           0        0.020626   -0.610280    0.000000
      2          8           0        0.020626    1.057716    0.000000
      3          1           0        0.924153    1.392789    0.000000
      4          1           0       -1.398559   -0.700321    0.000000
 ---------------------------------------------------------------------

 SCF Done:  E(UHF) =  -416.876764978     A.U. after    2 cycles

 The electronic state is 2-A".
 Alpha  occ. eigenvalues --  -84.32141 -20.58165  -6.78806  -4.31203  -4.30990
 Alpha  occ. eigenvalues --   -4.30148  -1.46801  -0.85777  -0.65836  -0.57591
 Alpha  occ. eigenvalues --   -0.57123  -0.40616  -0.31079
 Alpha virt. eigenvalues --    0.03711   0.05220   0.08003   0.10107   0.10133
 Alpha virt. eigenvalues --    0.16374   0.18234   0.21099   0.22101   0.22734
 Alpha virt. eigenvalues --    0.23149   0.25415   0.30126   0.35245   0.36940

  Beta  occ. eigenvalues --  -84.31494 -20.57569  -6.77986  -4.30809  -4.29775
  Beta  occ. eigenvalues --   -4.27722  -1.45271  -0.81086  -0.63973  -0.56631
  Beta  occ. eigenvalues --   -0.51544  -0.38219
  Beta virt. eigenvalues --    0.03772   0.04811   0.05383   0.08292   0.10271
  Beta virt. eigenvalues --    0.15037   0.17066   0.18485   0.21815   0.22483
  Beta virt. eigenvalues --    0.23157   0.26117   0.28381   0.30183   0.35355

 Mulliken charges and spin densities:
               1          2
     1  P    0.589728   1.105465
     2  O   -1.141269   0.040656
     3  H    0.438933  -0.006549
     4  H    0.112607  -0.139571
 Sum of Mulliken charges =  -0.00000   1.00000

 Dipole moment (field-independent basis, Debye):
    X=              0.9998    Y=             -0.0192    Z=              0.0000  Tot=              1.0000
                          Isotropic Fermi Contact Couplings
        Atom                 a.u.       MegaHertz       Gauss      10(-4) cm-1
     1  P(31)              0.21033     380.92371     135.92305     127.06247
     2  O(17)              0.05380     -32.61280     -11.63706     -10.87846
     3  H(1)              -0.00281     -12.55352      -4.47941      -4.18740
     4  H(1)              -0.01246     -55.69596     -19.87370     -18.57817
 --------------------------------------------------------
       Center         ----  Spin Dipole Couplings  ----
                      3XX-RR        3YY-RR        3ZZ-RR
 --------------------------------------------------------

 Normal termination of Gaussian 16 at Tue Apr  8 23:34:02 2025.
