 Gaussian 16, Revision C.01,

 ----------------------------------------------------------------------
 #t hf aug-cc-pvdz symm=none int=(grid=ultrafine) guess=(read,tcheck) s
 table=(opt,rrhf)
 ----------------------------------------------------------------------
 -----
 title
 -----
 Symbolic Z-matrix:
 Charge =  0 Multiplicity = 1

 SCF Done:  E(RHF) =  -895.254150402     A.U. after   17 cycles
 Normal termination of Gaussian 16 at Tue Apr  8 23:31:44 2025.
 Gaussian 16:  ES64L-G16RevC.01  3-Jul-2019

 ----------------------------------------------------------------------
 #t hf aug-cc-pvdz iop(5/13=1,5/36=2,99/5=2) pseudo=read geom=check gue
 ss=(read,tcheck) scf=(maxcycle=1)
 ----------------------------------------------------------------------
 -----
 title
 -----
 Structure from the checkpoint file:  "BDE49_nonexpt_1376_mol1.chk"
 Charge =  0 Multiplicity = 1

                         Standard orientation:
 ---------------------------------------------------------------------
 Center     Atomic      Atomic             Coordinates (Angstroms)
 Number     Number       Type             X           Y           Z
 ---------------------------------------------------------------------
      1          9           0       -0.568781   -3.025641   -0.000000
      2          8           0       -0.256686   -0.943011    2.458796
      3          8           0       -0.256686   -0.943011   -2.458796
      4         15           0        0.617093   -1.915929   -0.000000
      5          6           0        0.017984   -0.681970    1.314324
      6          6           0        0.025313    0.676600    0.701534
      7          6           0       -0.004746    1.876980    1.412833
      8          6           0       -0.028837    3.070877    0.701642
      9          6           0       -0.028837    3.070877   -0.701642
     10          6           0       -0.004746    1.876980   -1.412833
     11          6           0        0.025313    0.676600   -0.701534
     12          6           0        0.017984   -0.681970   -1.314324
     13          1           0       -0.017294    1.859314    2.496000
     14          1           0       -0.056185    4.014702    1.234089
     15          1           0       -0.056185    4.014702   -1.234089
     16          1           0       -0.017294    1.859314   -2.496000
 ---------------------------------------------------------------------

 SCF Done:  E(RHF) =  -895.830539788     A.U. after    2 cycles

 The electronic state is 1-A'.
 Alpha  occ. eigenvalues --  -84.37245 -26.48379 -20.57657 -20.57654 -11.37657
 Alpha  occ. eigenvalues --  -11.37640 -11.29518 -11.29441 -11.29154 -11.29080
 Alpha  occ. eigenvalues --  -11.28941 -11.28896  -6.83663  -4.36487  -4.35790
 Alpha  occ. eigenvalues --   -4.35225  -1.59350  -1.50647  -1.50590  -1.21303
 Alpha  occ. eigenvalues --   -1.10755  -1.07097  -0.97151  -0.93001  -0.86968
 Alpha  occ. eigenvalues --   -0.80750  -0.80402  -0.72248  -0.71463  -0.70561
 Alpha  occ. eigenvalues --   -0.67039  -0.66777  -0.65919  -0.65732  -0.65365
 Alpha  occ. eigenvalues --   -0.62023  -0.59880  -0.57973  -0.56017  -0.55778
 Alpha  occ. eigenvalues --   -0.53053  -0.49629  -0.39541  -0.39134  -0.38864
 Alpha  occ. eigenvalues --   -0.37071
 Alpha virt. eigenvalues --    0.02235   0.02262   0.02490   0.03210   0.04288
 Alpha virt. eigenvalues --    0.05967   0.07017   0.07362   0.08252   0.08817
 Alpha virt. eigenvalues --    0.09969   0.10440   0.10982   0.12371   0.12483

 Mulliken charges:
               1
     1  F   -0.856617
     2  O   -1.449711
     3  O   -1.449711
     4  P    1.935321
     5  C    0.134368
     6  C    1.018795
     7  C    0.219287
     8  C   -0.000906
     9  C   -0.000906
    10  C    0.219287
    11  C    1.018795
    12  C    0.134368
    13  H   -0.246586
    14  H   -0.214598
    15  H   -0.214598
    16  H   -0.246586
 Sum of Mulliken charges =  -0.00000

 Dipole moment (field-independent basis, Debye):
    X=              1.4251    Y=              4.8829    Z=             -0.0000  Tot=              5.0866

 Test job not archived.
 1\1\GINC-SE332\SP\RHF\Aug-CC-pVDZ\C8H4F1O2P1\OHZDE\08-Apr-2025\0\\#t h
 f aug-cc-pvdz iop(5/13=1,5/36=2,99/5=2) pseudo=read geom=check guess=(
 read,tcheck) scf=(maxcycle=1)\\title\\0,1\F,0,0.568781,3.025641,0.\O,0
 ,0.256686,0.943011,2.458796\O,0,0.256686,0.943011,-2.458796\P,0,-0.617
 093,1.915929,0.\C,0,-0.017984,0.68197,1.314324\C,0,-0.025313,-0.6766,0
 .701534\C,0,0.004746,-1.87698,1.412833\C,0,0.028837,-3.070877,0.701642
 \C,0,0.028837,-3.070877,-0.701642\C,0,0.004746,-1.87698,-1.412833\C,0,
 -0.025313,-0.6766,-0.701534\C,0,-0.017984,0.68197,-1.314324\H,0,0.0172

 Normal termination of Gaussian 16 at Tue Apr  8 23:31:50 2025.
