 Gaussian 16, Revision C.01,

 ----------------------------------------------------------------------
 #t hf aug-cc-pvdz symm=none int=(grid=ultrafine) guess=(read,tcheck) s
 table=(opt,rrhf)
 ----------------------------------------------------------------------
 -----
 title
 -----
 Symbolic Z-matrix:
 Charge =  0 Multiplicity = 1

 SCF Done:  E(RHF) =  -1074.92277904     A.U. after   14 cycles

 1\1\GINC-SE073\Stability\RHF\Aug-CC-pVDZ\C5F6Si1\OHZDE\08-Apr-2025\0\\
 #t hf aug-cc-pvdz symm=none int=(grid=ultrafine) guess=(read,tcheck) s
 table=(opt,rrhf)\\title\\0,1\C,0,1.496836,0.,0.000001\C,0,0.852445,1.2
 38144,0.000001\C,0,-0.530613,1.433516,0.000002\C,0,0.852445,-1.238144,
 0.000001\C,0,-0.530613,-1.433516,0.000002\Si,0,-1.556777,0.,-0.000008\
 F,0,2.840651,0.000001,-0.000002\F,0,1.632266,2.325313,0.\F,0,-0.984858
 ,2.705283,0.000003\F,0,-3.140816,-0.000001,0.000004\F,0,1.632267,-2.32
 5313,0.\F,0,-0.984857,-2.705284,0.000003\\Version=ES64L-G16RevC.01\HF=

 Normal termination of Gaussian 16 at Tue Apr  8 23:56:02 2025.
 Gaussian 16:  ES64L-G16RevC.01  3-Jul-2019

 ----------------------------------------------------------------------
 #t hf aug-cc-pvdz iop(5/13=1,5/36=2,99/5=2) pseudo=read geom=check gue
 ss=(read,tcheck) scf=(maxcycle=1)
 ----------------------------------------------------------------------
 -----
 title
 -----
 Structure from the checkpoint file:  "BDE49_nonexpt_1994_mol1.chk"
 Charge =  0 Multiplicity = 1

                         Standard orientation:
 ---------------------------------------------------------------------
 Center     Atomic      Atomic             Coordinates (Angstroms)
 Number     Number       Type             X           Y           Z
 ---------------------------------------------------------------------
      1          6           0       -1.496836    0.000002    0.000001
      2          6           0       -0.852447   -1.238143    0.000001
      3          6           0        0.530611   -1.433517    0.000002
      4          6           0       -0.852443    1.238145    0.000001
      5          6           0        0.530615    1.433515    0.000002
      6         14           0        1.556777   -0.000002   -0.000008
      7          9           0       -2.840651    0.000002   -0.000002
      8          9           0       -1.632269   -2.325311   -0.000000
      9          9           0        0.984855   -2.705284    0.000003
     10          9           0        3.140816   -0.000003    0.000004
     11          9           0       -1.632264    2.325315   -0.000000
     12          9           0        0.984860    2.705283    0.000003
 ---------------------------------------------------------------------

 SCF Done:  E(RHF) =  -1075.67296820     A.U. after    2 cycles

 The electronic state is 1-A.
 Alpha  occ. eigenvalues --  -69.64703 -26.53175 -26.52118 -26.52118 -26.51114
 Alpha  occ. eigenvalues --  -26.51114 -26.50594 -11.40284 -11.40271 -11.37057
 Alpha  occ. eigenvalues --  -11.37014 -11.37003  -6.31750  -4.07156  -4.06956
 Alpha  occ. eigenvalues --   -4.06907  -1.66265  -1.65676  -1.64224  -1.63625
 Alpha  occ. eigenvalues --   -1.63279  -1.62606  -1.17406  -1.07203  -1.00351
 Alpha  occ. eigenvalues --   -0.91014  -0.87169  -0.81085  -0.79873  -0.79266
 Alpha  occ. eigenvalues --   -0.75467  -0.75050  -0.74493  -0.72506  -0.72432
 Alpha  occ. eigenvalues --   -0.72168  -0.71225  -0.69802  -0.69528  -0.69020
 Alpha  occ. eigenvalues --   -0.68188  -0.66541  -0.65315  -0.61278  -0.60656
 Alpha  occ. eigenvalues --   -0.55362  -0.51368  -0.39717  -0.34085
 Alpha virt. eigenvalues --    0.02008   0.03594   0.04671   0.05050   0.06525
 Alpha virt. eigenvalues --    0.07504   0.08559   0.08640   0.09317   0.09564
 Alpha virt. eigenvalues --    0.11689   0.11996   0.12125   0.12611   0.14655

 Mulliken charges:
               1
     1  C    1.075380
     2  C    0.825650
     3  C    0.629341
     4  C    0.825650
     5  C    0.629341
     6  Si   1.418288
     7  F   -0.960955
     8  F   -0.927463
     9  F   -0.869902
    10  F   -0.847966
    11  F   -0.927463
    12  F   -0.869901
 Sum of Mulliken charges =  -0.00000

 Dipole moment (field-independent basis, Debye):
    X=              2.0534    Y=             -0.0000    Z=             -0.0000  Tot=              2.0534

 Test job not archived.
 1\1\GINC-SE073\SP\RHF\Aug-CC-pVDZ\C5F6Si1\OHZDE\08-Apr-2025\0\\#t hf a
 ug-cc-pvdz iop(5/13=1,5/36=2,99/5=2) pseudo=read geom=check guess=(rea
 d,tcheck) scf=(maxcycle=1)\\title\\0,1\C,0,1.496836,0.,0.000001\C,0,0.
 852445,1.238144,0.000001\C,0,-0.530613,1.433516,0.000002\C,0,0.852445,
 -1.238144,0.000001\C,0,-0.530613,-1.433516,0.000002\Si,0,-1.556777,0.,
 -0.000008\F,0,2.840651,0.000001,-0.000002\F,0,1.632266,2.325313,0.\F,0
 ,-0.984858,2.705283,0.000003\F,0,-3.140816,-0.000001,0.000004\F,0,1.63
 2267,-2.325313,0.\F,0,-0.984857,-2.705284,0.000003\\Version=ES64L-G16R

 Normal termination of Gaussian 16 at Tue Apr  8 23:56:12 2025.
