 Gaussian 16, Revision C.01,

 ----------------------------------------------------------------------
 #t hf aug-cc-pvdz symm=none int=(grid=ultrafine) guess=(read,tcheck) s
 table=opt
 ----------------------------------------------------------------------
 -----
 title
 -----
 Symbolic Z-matrix:
 Charge =  0 Multiplicity = 2

 SCF Done:  E(UHF) =  -216.450044241     A.U. after   22 cycles
 Normal termination of Gaussian 16 at Wed Apr  9 00:32:44 2025.
 Gaussian 16:  ES64L-G16RevC.01  3-Jul-2019

 ----------------------------------------------------------------------
 #t hf aug-cc-pvdz iop(5/13=1,5/36=2,99/5=2) pseudo=read geom=check gue
 ss=(read,tcheck) scf=(maxcycle=1)
 ----------------------------------------------------------------------
 -----
 title
 -----
 Structure from the checkpoint file:  "BDE49_nonexpt_387_mol2.chk"
 Charge =  0 Multiplicity = 2

                         Standard orientation:
 ---------------------------------------------------------------------
 Center     Atomic      Atomic             Coordinates (Angstroms)
 Number     Number       Type             X           Y           Z
 ---------------------------------------------------------------------
      1          9           0        1.699779   -0.217997   -0.000001
      2          5           0        0.634127    0.528960   -0.000002
      3          6           0       -0.804686    0.047669    0.000004
      4          7           0       -1.948646   -0.138406   -0.000001
 ---------------------------------------------------------------------

 SCF Done:  E(UHF) =  -216.643364388     A.U. after    2 cycles

 The electronic state is 2-A.
 Alpha  occ. eigenvalues --  -26.53006 -15.56805 -11.28842  -7.75645  -1.66366
 Alpha  occ. eigenvalues --   -1.27647  -0.87864  -0.79068  -0.72482  -0.70803
 Alpha  occ. eigenvalues --   -0.65499  -0.57109  -0.55158  -0.41684
 Alpha virt. eigenvalues --    0.00139   0.04359   0.04682   0.04903   0.05276
 Alpha virt. eigenvalues --    0.10974   0.13011   0.14385   0.14798   0.18047
 Alpha virt. eigenvalues --    0.20305   0.21242   0.21954   0.23867   0.23939

  Beta  occ. eigenvalues --  -26.52724 -15.55440 -11.29437  -7.73482  -1.65593
  Beta  occ. eigenvalues --   -1.25205  -0.85914  -0.77843  -0.71008  -0.69310
  Beta  occ. eigenvalues --   -0.62854  -0.53262  -0.52793
  Beta virt. eigenvalues --    0.02094   0.02481   0.04675   0.04917   0.05723
  Beta virt. eigenvalues --    0.06770   0.11616   0.14340   0.14425   0.15895
  Beta virt. eigenvalues --    0.18555   0.21953   0.22160   0.23099   0.24910

 Mulliken charges and spin densities:
               1          2
     1  F   -0.396787  -0.038093
     2  B    0.589475   0.982255
     3  C   -0.918484  -0.341717
     4  N    0.725797   0.397555
 Sum of Mulliken charges =   0.00000   1.00000

 Dipole moment (field-independent basis, Debye):
    X=              2.6763    Y=              0.6549    Z=              0.0000  Tot=              2.7553
                          Isotropic Fermi Contact Couplings
        Atom                 a.u.       MegaHertz       Gauss      10(-4) cm-1
     1  F(19)              0.06023     253.43101      90.43049      84.53549
     2  B(11)              0.39302     563.74079     201.15673     188.04369
     3  C(13)              0.02404      27.02309       9.64251       9.01393
     4  N(14)              0.10257      33.14144      11.82569      11.05479
 --------------------------------------------------------
       Center         ----  Spin Dipole Couplings  ----
                      3XX-RR        3YY-RR        3ZZ-RR
 --------------------------------------------------------

 Normal termination of Gaussian 16 at Wed Apr  9 00:32:53 2025.
