 Gaussian 16, Revision C.01,

 ----------------------------------------------------------------------
 #t hf aug-cc-pvdz symm=none int=(grid=ultrafine) guess=(read,tcheck) s
 table=opt
 ----------------------------------------------------------------------
 -----
 title
 -----
 Symbolic Z-matrix:
 Charge =  0 Multiplicity = 2

 SCF Done:  E(UHF) =  -523.788178228     a.u. after   13 cycles
 Normal termination of Gaussian 16 at Tue Apr  8 22:56:09 2025.
 Gaussian 16:  ES64L-G16RevC.01  3-Jul-2019

 ----------------------------------------------------------------------
 #t hf aug-cc-pvdz iop(5/13=1,5/36=2,99/5=2) pseudo=read geom=check gue
 ss=(read,tcheck) scf=(maxcycle=1)
 ----------------------------------------------------------------------
 -----
 title
 -----
 Structure from the checkpoint file:  "BDE49_expt_1873_mol2.chk"
 Charge =  0 Multiplicity = 2

                         Standard orientation:
 ---------------------------------------------------------------------
 Center     Atomic      Atomic             Coordinates (Angstroms)
 Number     Number       Type             X           Y           Z
 ---------------------------------------------------------------------
      1          8           0        1.622932   -1.051398   -0.000827
      2          6           0        0.952643    0.000004   -0.011417
      3          8           0        1.622935    1.051397   -0.000828
      4          6           0       -0.587964    0.000001   -0.005407
      5          9           0       -1.048285   -1.090320   -0.623427
      6          9           0       -1.048290    1.090335   -0.623398
      7          9           0       -1.031759   -0.000018    1.259512
 ---------------------------------------------------------------------

 SCF Done:  E(UHF) =  -524.265437903     A.U. after    2 cycles

 The electronic state is 2-A.
 Alpha  occ. eigenvalues --  -26.55678 -26.55343 -26.54936 -20.73585 -20.59077
 Alpha  occ. eigenvalues --  -11.58431 -11.46084  -1.76496  -1.68069  -1.66506
 Alpha  occ. eigenvalues --   -1.65973  -1.48824  -1.06802  -0.92682  -0.86411
 Alpha  occ. eigenvalues --   -0.85952  -0.85546  -0.78002  -0.74376  -0.73177
 Alpha  occ. eigenvalues --   -0.71761  -0.70477  -0.68192  -0.67987  -0.66377
 Alpha  occ. eigenvalues --   -0.61452  -0.51562  -0.50830
 Alpha virt. eigenvalues --    0.07179   0.07304   0.07910   0.09031   0.09919
 Alpha virt. eigenvalues --    0.11936   0.11961   0.12022   0.19083   0.20097
 Alpha virt. eigenvalues --    0.20295   0.24247   0.24926   0.25512   0.27842

  Beta  occ. eigenvalues --  -26.55681 -26.55332 -26.54902 -20.69455 -20.58705
  Beta  occ. eigenvalues --  -11.58328 -11.46376  -1.76399  -1.66536  -1.65916
  Beta  occ. eigenvalues --   -1.57893  -1.44241  -1.05669  -0.91796  -0.85983
  Beta  occ. eigenvalues --   -0.85794  -0.80576  -0.73653  -0.73198  -0.69858
  Beta  occ. eigenvalues --   -0.69760  -0.67926  -0.67569  -0.66351  -0.65477
  Beta  occ. eigenvalues --   -0.50153  -0.48947
  Beta virt. eigenvalues --   -0.00066   0.07315   0.07358   0.08069   0.09555
  Beta virt. eigenvalues --    0.09847   0.11998   0.12098   0.12221   0.19216
  Beta virt. eigenvalues --    0.20278   0.20384   0.24536   0.25099   0.25832

 Mulliken charges and spin densities:
               1          2
     1  O   -0.729183   1.072080
     2  C    1.385873  -0.195634
     3  O   -1.065331   0.054382
     4  C    2.415736   0.060719
     5  F   -0.673943   0.003238
     6  F   -0.670037   0.004011
     7  F   -0.663115   0.001203
 Sum of Mulliken charges =  -0.00000   1.00000

 Dipole moment (field-independent basis, Debye):
    X=             -0.9484    Y=             -1.8057    Z=             -0.0716  Tot=              2.0409
                          Isotropic Fermi Contact Couplings
        Atom                 a.u.       MegaHertz       Gauss      10(-4) cm-1
     1  O(17)              0.25824    -156.54553     -55.85934     -52.21797
     2  C(13)             -0.05435     -61.09616     -21.80063     -20.37949
     3  O(17)              0.02293     -13.89968      -4.95975      -4.63644
     4  C(13)              0.02039      22.91983       8.17837       7.64523
     5  F(19)             -0.00070      -2.92925      -1.04523      -0.97709
     6  F(19)              0.00491      20.64799       7.36772       6.88743
     7  F(19)              0.00172       7.23100       2.58020       2.41200
 --------------------------------------------------------

 Normal termination of Gaussian 16 at Tue Apr  8 22:56:12 2025.
