 Gaussian 16, Revision C.01,

 ----------------------------------------------------------------------
 #t hf aug-cc-pvdz symm=none int=(grid=ultrafine) guess=(read,tcheck) s
 table=(opt,rrhf)
 ----------------------------------------------------------------------
 -----
 title
 -----
 Symbolic Z-matrix:
 Charge =  0 Multiplicity = 1

 SCF Done:  E(RHF) =  -632.919475129     A.U. after   13 cycles

 1\1\GINC-SE036\Stability\RHF\Aug-CC-pVDZ\C6H14S1\OHZDE\08-Apr-2025\0\\
 #t hf aug-cc-pvdz symm=none int=(grid=ultrafine) guess=(read,tcheck) s
 table=(opt,rrhf)\\title\\0,1\C,0,3.146422,-0.035219,0.000013\C,0,1.738
 092,0.560648,0.000017\H,0,3.891859,0.765055,0.000033\H,0,3.314615,-0.6
 54705,-0.884217\H,0,3.314605,-0.654738,0.884222\S,0,0.50877,-0.800021,
 -0.000016\H,0,1.59349,1.182287,-0.886124\H,0,1.59348,1.182254,0.886178
 \C,0,-1.144063,0.069143,-0.000003\C,0,-2.168714,-1.076363,-0.000016\H,
 0,-2.058344,-1.70678,-0.885831\H,0,-3.182427,-0.663318,-0.00001\C,0,-1

 Normal termination of Gaussian 16 at Tue Apr  8 22:47:36 2025.
 Gaussian 16:  ES64L-G16RevC.01  3-Jul-2019

 ----------------------------------------------------------------------
 #t hf aug-cc-pvdz iop(5/13=1,5/36=2,99/5=2) pseudo=read geom=check gue
 ss=(read,tcheck) scf=(maxcycle=1)
 ----------------------------------------------------------------------
 -----
 title
 -----
 Structure from the checkpoint file:  "BDE49_expt_1576_mol1.chk"
 Charge =  0 Multiplicity = 1

                         Standard orientation:
 ---------------------------------------------------------------------
 Center     Atomic      Atomic             Coordinates (Angstroms)
 Number     Number       Type             X           Y           Z
 ---------------------------------------------------------------------
      1          6           0        3.146422   -0.035219    0.000013
      2          6           0        1.738092    0.560648    0.000017
      3          1           0        3.891859    0.765055    0.000033
      4          1           0        3.314615   -0.654705   -0.884217
      5          1           0        3.314605   -0.654738    0.884222
      6         16           0        0.508770   -0.800021   -0.000016
      7          1           0        1.593490    1.182287   -0.886124
      8          1           0        1.593480    1.182254    0.886178
      9          6           0       -1.144063    0.069143   -0.000003
     10          6           0       -2.168714   -1.076363   -0.000016
     11          1           0       -2.058344   -1.706780   -0.885831
     12          1           0       -3.182427   -0.663318   -0.000010
     13          6           0       -1.314713    0.923738    1.263122
     14          1           0       -1.190537    0.319875    2.164413
     15          1           0       -2.316758    1.367086    1.280412
     16          1           0       -0.594252    1.744379    1.298768
     17          6           0       -1.314715    0.923769   -1.263107
     18          1           0       -2.316761    1.367118   -1.280384
     19          1           0       -1.190543    0.319927   -2.164414
     20          1           0       -0.594255    1.744410   -1.298736
     21          1           0       -2.058343   -1.706802    0.885784
 ---------------------------------------------------------------------

 SCF Done:  E(RHF) =  -633.244707854     A.U. after    2 cycles

 The electronic state is 1-A.
 Alpha  occ. eigenvalues --  -93.92531 -11.27571 -11.26124 -11.23201 -11.22886
 Alpha  occ. eigenvalues --  -11.22880 -11.22849  -8.20613  -6.18432  -6.18268
 Alpha  occ. eigenvalues --   -6.18069  -1.12162  -1.05650  -0.94199  -0.94076
 Alpha  occ. eigenvalues --   -0.93608  -0.82433  -0.73593  -0.63713  -0.63134
 Alpha  occ. eigenvalues --   -0.61377  -0.61232  -0.57208  -0.55559  -0.55279
 Alpha  occ. eigenvalues --   -0.53100  -0.52718  -0.50842  -0.49355  -0.48774
 Alpha  occ. eigenvalues --   -0.45058  -0.41380  -0.33801
 Alpha virt. eigenvalues --    0.03395   0.03607   0.03951   0.04223   0.05630
 Alpha virt. eigenvalues --    0.05742   0.05880   0.06580   0.06902   0.08162
 Alpha virt. eigenvalues --    0.08851   0.09696   0.09751   0.10801   0.12941

 Mulliken charges:
               1
     1  C   -0.421532
     2  C   -0.737831
     3  H    0.142901
     4  H    0.188080
     5  H    0.188081
     6  S    0.448768
     7  H    0.145691
     8  H    0.145686
     9  C   -1.869904
    10  C    0.293357
    11  H    0.201137
    12  H    0.220340
    13  C   -0.081938
    14  H    0.176134
    15  H    0.202220
    16  H    0.130629
    17  C   -0.081944
    18  H    0.202225
    19  H    0.176137
    20  H    0.130623
    21  H    0.201139
 Sum of Mulliken charges =   0.00000

 Dipole moment (field-independent basis, Debye):
    X=             -0.3943    Y=              1.7663    Z=              0.0000  Tot=              1.8098

 Test job not archived.
 1\1\GINC-SE036\SP\RHF\Aug-CC-pVDZ\C6H14S1\OHZDE\08-Apr-2025\0\\#t hf a
 ug-cc-pvdz iop(5/13=1,5/36=2,99/5=2) pseudo=read geom=check guess=(rea
 d,tcheck) scf=(maxcycle=1)\\title\\0,1\C,0,3.146422,-0.035219,0.000013
 \C,0,1.738092,0.560648,0.000017\H,0,3.891859,0.765055,0.000033\H,0,3.3
 14615,-0.654705,-0.884217\H,0,3.314605,-0.654738,0.884222\S,0,0.50877,
 -0.800021,-0.000016\H,0,1.59349,1.182287,-0.886124\H,0,1.59348,1.18225
 4,0.886178\C,0,-1.144063,0.069143,-0.000003\C,0,-2.168714,-1.076363,-0
 .000016\H,0,-2.058344,-1.70678,-0.885831\H,0,-3.182427,-0.663318,-0.00

 Normal termination of Gaussian 16 at Tue Apr  8 22:47:48 2025.
