 Gaussian 16, Revision C.01,

 ----------------------------------------------------------------------
 #t hf aug-cc-pvdz symm=none int=(grid=ultrafine) guess=(read,tcheck) s
 table=opt
 ----------------------------------------------------------------------
 -----
 title
 -----
 Symbolic Z-matrix:
 Charge =  0 Multiplicity = 2

 SCF Done:  E(UHF) =  -458.432945110     A.U. after   19 cycles
 Normal termination of Gaussian 16 at Tue Apr  8 23:46:17 2025.
 Gaussian 16:  ES64L-G16RevC.01  3-Jul-2019

 ----------------------------------------------------------------------
 #t hf aug-cc-pvdz iop(5/13=1,5/36=2,99/5=2) pseudo=read geom=check gue
 ss=(read,tcheck) scf=(maxcycle=1)
 ----------------------------------------------------------------------
 -----
 title
 -----
 Structure from the checkpoint file:  "BDE49_nonexpt_1781_mol2.chk"
 Charge =  0 Multiplicity = 2

                         Standard orientation:
 ---------------------------------------------------------------------
 Center     Atomic      Atomic             Coordinates (Angstroms)
 Number     Number       Type             X           Y           Z
 ---------------------------------------------------------------------
      1         14           0        1.385941   -0.094667   -0.090975
      2          6           0       -0.519815    0.147574    0.003216
      3          7           0       -1.310861   -0.967223   -0.015697
      4          1           0       -0.928737   -1.889648    0.111239
      5          1           0       -2.311169   -0.844391    0.065456
      6          8           0       -0.971775    1.280066    0.018522
      7          1           0        1.852735   -1.370448    0.519702
      8          1           0        2.053110    1.074417    0.519658
 ---------------------------------------------------------------------

 SCF Done:  E(UHF) =  -458.628789145     A.U. after    2 cycles

 The electronic state is 2-A.
 Alpha  occ. eigenvalues --  -69.55731 -20.52344 -15.53698 -11.35712  -6.22933
 Alpha  occ. eigenvalues --   -3.98906  -3.97979  -3.97961  -1.46603  -1.22576
 Alpha  occ. eigenvalues --   -0.87225  -0.79488  -0.73718  -0.65840  -0.59718
 Alpha  occ. eigenvalues --   -0.57281  -0.51223  -0.45227  -0.41544  -0.35110
 Alpha virt. eigenvalues --    0.02711   0.04345   0.05578   0.05942   0.06364
 Alpha virt. eigenvalues --    0.07550   0.08798   0.10725   0.12613   0.13362
 Alpha virt. eigenvalues --    0.13947   0.15677   0.16135   0.16977   0.17398

  Beta  occ. eigenvalues --  -69.55152 -20.52050 -15.53684 -11.35802  -6.22062
  Beta  occ. eigenvalues --   -3.97574  -3.97552  -3.96672  -1.46004  -1.22469
  Beta  occ. eigenvalues --   -0.86440  -0.78472  -0.71657  -0.64790  -0.59269
  Beta  occ. eigenvalues --   -0.56406  -0.50451  -0.43741  -0.40643
  Beta virt. eigenvalues --    0.00932   0.02791   0.04597   0.05639   0.06550
  Beta virt. eigenvalues --    0.07203   0.07834   0.09141   0.11715   0.12895
  Beta virt. eigenvalues --    0.14124   0.15106   0.16767   0.17131   0.17973

 Mulliken charges and spin densities:
               1          2
     1  Si   0.702125   0.985962
     2  C    0.085738  -0.057227
     3  N    0.509627   0.002213
     4  H    0.046503  -0.004632
     5  H    0.057017  -0.000158
     6  O   -1.088583   0.071266
     7  H   -0.166337  -0.004182
     8  H   -0.146090   0.006757
 Sum of Mulliken charges =  -0.00000   1.00000

 Dipole moment (field-independent basis, Debye):
    X=              0.5711    Y=             -3.4329    Z=              0.3491  Tot=              3.4975
                          Isotropic Fermi Contact Couplings
        Atom                 a.u.       MegaHertz       Gauss      10(-4) cm-1
     1  Si(29)             0.58068    -516.06567    -184.14506    -172.14098
     2  C(13)             -0.00584      -6.56281      -2.34177      -2.18912
     3  N(14)             -0.00261      -0.84272      -0.30070      -0.28110
     4  H(1)              -0.00013      -0.55958      -0.19967      -0.18666
     5  H(1)              -0.00033      -1.48298      -0.52916      -0.49467
     6  O(17)              0.02270     -13.75838      -4.90933      -4.58930
     7  H(1)               0.00039       1.73905       0.62054       0.58009
     8  H(1)               0.00036       1.60698       0.57341       0.53603

 1\1\GINC-SE457\SP\UHF\Aug-CC-pVDZ\C1H4N1O1Si1(2)\OHZDE\08-Apr-2025\0\\
 #t hf aug-cc-pvdz iop(5/13=1,5/36=2,99/5=2) pseudo=read geom=check gue
 ss=(read,tcheck) scf=(maxcycle=1)\\title\\0,2\Si,0,1.385941,-0.094667,
 -0.090975\C,0,-0.519815,0.147574,0.003216\N,0,-1.310861,-0.967223,-0.0
 15697\H,0,-0.928737,-1.889648,0.111239\H,0,-2.311169,-0.844391,0.06545
 6\O,0,-0.971775,1.280066,0.018522\H,0,1.852735,-1.370448,0.519702\H,0,
 2.05311,1.074417,0.519658\\Version=ES64L-G16RevC.01\State=2-A\HF=-458.
 6287891\S2=0.759913\S2-1=0.\S2A=0.750052\RMSD=1.172e-02\Dipole=0.22467

 Normal termination of Gaussian 16 at Tue Apr  8 23:46:19 2025.
