 Gaussian 16, Revision C.01,

 ----------------------------------------------------------------------
 #t hf aug-cc-pvdz symm=none int=(grid=ultrafine) guess=(read,tcheck) s
 table=(opt,rrhf)
 ----------------------------------------------------------------------
 -----
 title
 -----
 Symbolic Z-matrix:
 Charge =  0 Multiplicity = 1

 SCF Done:  E(RHF) =  -612.086313167     A.U. after   16 cycles
 Normal termination of Gaussian 16 at Tue Apr  8 22:43:37 2025.
 Gaussian 16:  ES64L-G16RevC.01  3-Jul-2019

 ----------------------------------------------------------------------
 #t hf aug-cc-pvdz iop(5/13=1,5/36=2,99/5=2) pseudo=read geom=check gue
 ss=(read,tcheck) scf=(maxcycle=1)
 ----------------------------------------------------------------------
 -----
 title
 -----
 Structure from the checkpoint file:  "BDE49_expt_1097_mol1.chk"
 Charge =  0 Multiplicity = 1

                         Standard orientation:
 ---------------------------------------------------------------------
 Center     Atomic      Atomic             Coordinates (Angstroms)
 Number     Number       Type             X           Y           Z
 ---------------------------------------------------------------------
      1          6           0        3.278489   -1.550364    0.140694
      2          6           0        2.249359   -0.984774    0.891547
      3          6           0        3.799779   -0.867429   -0.954665
      4          6           0        3.287771    0.384880   -1.290911
      5          6           0        2.261667    0.949425   -0.538978
      6          6           0        1.728500    0.269489    0.562341
      7          1           0        1.854857   -1.521367    1.748836
      8          1           0        3.689525    0.925258   -2.140850
      9          1           0        1.867093    1.924191   -0.803523
     10          1           0        3.671928   -2.523324    0.413606
     11          1           0        4.599498   -1.305617   -1.540926
     12          6           0       -0.566417    1.347259    0.542947
     13          8           0       -0.618684    2.494474    0.141549
     14          6           0       -1.645164    0.366205    0.194106
     15          6           0        0.624217    0.902029    1.396066
     16          1           0        0.997705    1.809201    1.877167
     17          1           0        0.310479    0.211742    2.181597
     18          6           0       -1.596187   -0.986177    0.553931
     19          6           0       -2.749062    0.837711   -0.530708
     20          6           0       -3.782283   -0.020594   -0.880847
     21          6           0       -2.629727   -1.848140    0.196976
     22          6           0       -3.724425   -1.366963   -0.517243
     23          1           0       -4.633152    0.355160   -1.437745
     24          1           0       -4.530119   -2.038748   -0.791734
     25          1           0       -2.769676    1.884909   -0.805550
     26          1           0       -0.747998   -1.377938    1.099885
     27          1           0       -2.579772   -2.894594    0.475323
 ---------------------------------------------------------------------

 SCF Done:  E(RHF) =  -612.709667174     A.U. after    2 cycles

 The electronic state is 1-A.
 Alpha  occ. eigenvalues --  -20.53498 -11.34526 -11.26174 -11.26000 -11.25875
 Alpha  occ. eigenvalues --  -11.25506 -11.25408 -11.25359 -11.25294 -11.25094
 Alpha  occ. eigenvalues --  -11.24782 -11.24697 -11.24602 -11.24448 -11.24154
 Alpha  occ. eigenvalues --   -1.46975  -1.16970  -1.16276  -1.07348  -1.03899
 Alpha  occ. eigenvalues --   -1.02884  -1.01973  -0.97014  -0.87683  -0.84678
 Alpha  occ. eigenvalues --   -0.84129  -0.82047  -0.77343  -0.72651  -0.70972
 Alpha  occ. eigenvalues --   -0.67323  -0.66531  -0.65298  -0.64366  -0.63198
 Alpha  occ. eigenvalues --   -0.61297  -0.60885  -0.60325  -0.59940  -0.56372
 Alpha  occ. eigenvalues --   -0.54518  -0.53446  -0.51529  -0.51318  -0.50833
 Alpha  occ. eigenvalues --   -0.50310  -0.49188  -0.41859  -0.35996  -0.35443
 Alpha  occ. eigenvalues --   -0.34935  -0.34035
 Alpha virt. eigenvalues --    0.02680   0.03093   0.03396   0.03824   0.04366
 Alpha virt. eigenvalues --    0.04784   0.05388   0.05705   0.06095   0.07086
 Alpha virt. eigenvalues --    0.07639   0.08237   0.08899   0.09499   0.09827

 Mulliken charges:
               1
     1  C    0.075394
     2  C    0.383457
     3  C    0.219983
     4  C   -0.006298
     5  C    0.028753
     6  C    1.133181
     7  H   -0.334961
     8  H   -0.244847
     9  H   -0.330851
    10  H   -0.254515
    11  H   -0.219533
    12  C    0.880487
    13  O   -1.643561
    14  C    1.770695
    15  C   -0.643279
    16  H    0.028990
    17  H    0.101762
    18  C    0.538825
    19  C   -0.297469
    20  C    0.281568
    21  C   -0.097376
    22  C    0.023852
    23  H   -0.224967
    24  H   -0.219509
    25  H   -0.324325
    26  H   -0.369138
    27  H   -0.256317
 Sum of Mulliken charges =  -0.00000

 Dipole moment (field-independent basis, Debye):
    X=             -0.3112    Y=             -2.9192    Z=              0.4736  Tot=              2.9737

 Test job not archived.
 1\1\GINC-SE435\SP\RHF\Aug-CC-pVDZ\C14H12O1\OHZDE\08-Apr-2025\0\\#t hf
 aug-cc-pvdz iop(5/13=1,5/36=2,99/5=2) pseudo=read geom=check guess=(re
 ad,tcheck) scf=(maxcycle=1)\\title\\0,1\C,0,-3.278489,-1.550364,-0.140
 694\C,0,-2.249359,-0.984774,-0.891547\C,0,-3.799779,-0.867429,0.954665
 \C,0,-3.287771,0.38488,1.290911\C,0,-2.261667,0.949425,0.538978\C,0,-1
 .7285,0.269489,-0.562341\H,0,-1.854857,-1.521367,-1.748836\H,0,-3.6895
 25,0.925258,2.14085\H,0,-1.867093,1.924191,0.803523\H,0,-3.671928,-2.5
 23324,-0.413606\H,0,-4.599498,-1.305617,1.540926\C,0,0.566417,1.347259

 Normal termination of Gaussian 16 at Tue Apr  8 22:44:06 2025.
