 Gaussian 16, Revision C.01,

 ----------------------------------------------------------------------
 #t hf aug-cc-pvdz symm=none int=(grid=ultrafine) guess=(read,tcheck) s
 table=(opt,rrhf)
 ----------------------------------------------------------------------
 -----
 title
 -----
 Symbolic Z-matrix:
 Charge =  0 Multiplicity = 1

 SCF Done:  E(RHF) =  -906.392968325     A.U. after   12 cycles
 Normal termination of Gaussian 16 at Tue Apr  8 23:44:47 2025.
 Gaussian 16:  ES64L-G16RevC.01  3-Jul-2019

 ----------------------------------------------------------------------
 #t hf aug-cc-pvdz iop(5/13=1,5/36=2,99/5=2) pseudo=read geom=check gue
 ss=(read,tcheck) scf=(maxcycle=1)
 ----------------------------------------------------------------------
 -----
 title
 -----
 Structure from the checkpoint file:  "BDE49_nonexpt_1733_mol1.chk"
 Charge =  0 Multiplicity = 1

                         Standard orientation:
 ---------------------------------------------------------------------
 Center     Atomic      Atomic             Coordinates (Angstroms)
 Number     Number       Type             X           Y           Z
 ---------------------------------------------------------------------
      1          6           0        1.208742    0.033378    0.208907
      2          6           0        0.171193    0.990047   -0.405548
      3         14           0       -1.569308    0.838450    0.265885
      4          6           0        2.619495    0.221458   -0.364510
      5          1           0        0.475489    2.033481   -0.240338
      6         17           0       -2.343510   -1.063640   -0.139722
      7          1           0        0.128837    0.857672   -1.493441
      8          1           0        0.891480   -1.003000    0.047755
      9          1           0        1.242350    0.175352    1.296186
     10          6           0        3.648904   -0.732608    0.247318
     11          1           0        2.938060    1.258534   -0.203792
     12          1           0        2.585848    0.077986   -1.451108
     13          1           0        3.728615   -0.588533    1.329301
     14          1           0        4.641850   -0.575249   -0.182134
     15          1           0        3.373109   -1.777057    0.072529
     16          1           0       -2.479367    1.810960   -0.373638
     17          1           0       -1.606290    0.999777    1.734565
 ---------------------------------------------------------------------

 SCF Done:  E(RHF) =  -906.682706815     A.U. after    2 cycles

 The electronic state is 1-A.
 Alpha  occ. eigenvalues -- -105.54980 -69.57091 -11.23998 -11.23375 -11.23318
 Alpha  occ. eigenvalues --  -11.22648 -10.59974  -7.76859  -7.76562  -7.76557
 Alpha  occ. eigenvalues --   -6.23797  -3.99231  -3.99068  -3.99054  -1.08456
 Alpha  occ. eigenvalues --   -1.04467  -0.99101  -0.87795  -0.80472  -0.71817
 Alpha  occ. eigenvalues --   -0.65671  -0.60224  -0.59198  -0.56715  -0.53971
 Alpha  occ. eigenvalues --   -0.53064  -0.51250  -0.50702  -0.48949  -0.47928
 Alpha  occ. eigenvalues --   -0.47540  -0.44741  -0.43161
 Alpha virt. eigenvalues --    0.03331   0.03694   0.03737   0.04261   0.05434
 Alpha virt. eigenvalues --    0.05991   0.06235   0.06911   0.08307   0.08640
 Alpha virt. eigenvalues --    0.09625   0.09896   0.09914   0.11674   0.12656

 Mulliken charges:
               1
     1  C   -0.254430
     2  C   -0.620469
     3  Si   1.211773
     4  C   -0.250371
     5  H    0.116430
     6  Cl  -0.597282
     7  H    0.148252
     8  H    0.122158
     9  H    0.094235
    10  C   -0.377072
    11  H    0.116193
    12  H    0.120897
    13  H    0.163367
    14  H    0.116706
    15  H    0.161471
    16  H   -0.146187
    17  H   -0.125671
 Sum of Mulliken charges =  -0.00000

 Dipole moment (field-independent basis, Debye):
    X=              1.6759    Y=              1.6528    Z=              0.0262  Tot=              2.3539

 Test job not archived.
 1\1\GINC-SE424\SP\RHF\Aug-CC-pVDZ\C4H11Cl1Si1\OHZDE\08-Apr-2025\0\\#t
 hf aug-cc-pvdz iop(5/13=1,5/36=2,99/5=2) pseudo=read geom=check guess=
 (read,tcheck) scf=(maxcycle=1)\\title\\0,1\C,0,1.208742,0.033378,0.208
 907\C,0,0.171193,0.990047,-0.405548\Si,0,-1.569308,0.83845,0.265885\C,
 0,2.619495,0.221458,-0.36451\H,0,0.475489,2.033481,-0.240338\Cl,0,-2.3
 4351,-1.06364,-0.139722\H,0,0.128837,0.857672,-1.493441\H,0,0.89148,-1
 .003,0.047755\H,0,1.24235,0.175352,1.296186\C,0,3.648904,-0.732608,0.2
 47318\H,0,2.93806,1.258534,-0.203792\H,0,2.585848,0.077986,-1.451108\H

 Normal termination of Gaussian 16 at Tue Apr  8 23:44:53 2025.
