 Gaussian 16, Revision C.01,

 ----------------------------------------------------------------------
 #t hf aug-cc-pvdz symm=none int=(grid=ultrafine) guess=(read,tcheck) s
 table=(opt,rrhf)
 ----------------------------------------------------------------------
 -----
 title
 -----
 Symbolic Z-matrix:
 Charge =  0 Multiplicity = 1

 SCF Done:  E(RHF) =  -1145.21934511     A.U. after   15 cycles

 1\1\GINC-SE229\Stability\RHF\Aug-CC-pVDZ\C9H16S2\OHZDE\09-Apr-2025\0\\
 #t hf aug-cc-pvdz symm=none int=(grid=ultrafine) guess=(read,tcheck) s
 table=(opt,rrhf)\\title\\0,1\S,0,-0.345691,-1.638636,0.262806\S,0,0.77
 2887,-0.415023,-0.992179\C,0,2.146188,0.349746,0.053094\C,0,3.039892,-
 0.75977,0.615164\H,0,3.872561,-0.318699,1.174687\H,0,3.451456,-1.37879
 9,-0.184746\H,0,2.482583,-1.405879,1.296949\C,0,2.913697,1.197632,-0.9
 73509\H,0,3.775824,1.663515,-0.485781\H,0,2.287927,1.993541,-1.385059\
 H,0,3.28549,0.587657,-1.800847\C,0,1.591075,1.225541,1.174604\H,0,0.95

 Normal termination of Gaussian 16 at Wed Apr  9 00:31:32 2025.
 Gaussian 16:  ES64L-G16RevC.01  3-Jul-2019

 ----------------------------------------------------------------------
 #t hf aug-cc-pvdz iop(5/13=1,5/36=2,99/5=2) pseudo=read geom=check gue
 ss=(read,tcheck) scf=(maxcycle=1)
 ----------------------------------------------------------------------
 -----
 title
 -----
 Structure from the checkpoint file:  "BDE49_nonexpt_2747_mol1.chk"
 Charge =  0 Multiplicity = 1

                         Standard orientation:
 ---------------------------------------------------------------------
 Center     Atomic      Atomic             Coordinates (Angstroms)
 Number     Number       Type             X           Y           Z
 ---------------------------------------------------------------------
      1         16           0       -0.345691   -1.638636    0.262806
      2         16           0        0.772887   -0.415023   -0.992179
      3          6           0        2.146188    0.349746    0.053094
      4          6           0        3.039892   -0.759770    0.615164
      5          1           0        3.872561   -0.318699    1.174687
      6          1           0        3.451456   -1.378799   -0.184746
      7          1           0        2.482583   -1.405879    1.296949
      8          6           0        2.913697    1.197632   -0.973509
      9          1           0        3.775824    1.663515   -0.485781
     10          1           0        2.287927    1.993541   -1.385059
     11          1           0        3.285490    0.587657   -1.800847
     12          6           0        1.591075    1.225541    1.174604
     13          1           0        0.951861    2.018595    0.783536
     14          1           0        2.419850    1.685215    1.724989
     15          1           0        1.008164    0.632843    1.881608
     16          6           0       -1.983166   -0.764819    0.537761
     17          6           0       -1.891205    0.542134    1.264374
     18          6           0       -2.299502    1.563856    0.511948
     19          6           0       -2.762986    1.127292   -0.855191
     20          6           0       -2.772316   -0.419488   -0.753744
     21          1           0       -2.076668    1.486555   -1.629837
     22          1           0       -3.752169    1.527180   -1.101295
     23          1           0       -3.799119   -0.778037   -0.643204
     24          1           0       -2.351672   -0.905068   -1.633687
     25          1           0       -2.483103   -1.541146    1.128063
     26          1           0       -1.503896    0.616269    2.272762
     27          1           0       -2.294295    2.602056    0.824822
 ---------------------------------------------------------------------

 SCF Done:  E(RHF) =  -1145.72060949     A.U. after    2 cycles

 The electronic state is 1-A.
 Alpha  occ. eigenvalues --  -93.95790 -93.95364 -11.28157 -11.27733 -11.24098
 Alpha  occ. eigenvalues --  -11.23640 -11.23597 -11.23532 -11.23431 -11.22691
 Alpha  occ. eigenvalues --  -11.22657  -8.23663  -8.23260  -6.21470  -6.21247
 Alpha  occ. eigenvalues --   -6.21069  -6.21051  -6.20841  -6.20648  -1.15232
 Alpha  occ. eigenvalues --   -1.12331  -1.04902  -0.97415  -0.96590  -0.94475
 Alpha  occ. eigenvalues --   -0.93977  -0.86918  -0.78713  -0.74559  -0.72393
 Alpha  occ. eigenvalues --   -0.69523  -0.63964  -0.62414  -0.61615  -0.61260
 Alpha  occ. eigenvalues --   -0.57007  -0.55855  -0.55288  -0.53804  -0.52703
 Alpha  occ. eigenvalues --   -0.52059  -0.51536  -0.50299  -0.49656  -0.49211
 Alpha  occ. eigenvalues --   -0.48556  -0.45431  -0.43331  -0.36761  -0.35594
 Alpha  occ. eigenvalues --   -0.33212
 Alpha virt. eigenvalues --    0.03200   0.03327   0.03518   0.04028   0.04993
 Alpha virt. eigenvalues --    0.05103   0.05549   0.06014   0.06168   0.07507
 Alpha virt. eigenvalues --    0.07588   0.08058   0.08209   0.09317   0.10422

 Mulliken charges:
               1
     1  S   -0.034043
     2  S   -0.008830
     3  C   -1.616073
     4  C   -0.161855
     5  H    0.206928
     6  H    0.193311
     7  H    0.198893
     8  C    0.099787
     9  H    0.221578
    10  H    0.197003
    11  H    0.188715
    12  C   -0.085945
    13  H    0.185823
    14  H    0.164680
    15  H    0.240271
    16  C   -0.515126
    17  C    0.760439
    18  C    0.189717
    19  C   -0.565937
    20  C   -0.326830
    21  H    0.194923
    22  H    0.160804
    23  H    0.138706
    24  H    0.145718
    25  H    0.201873
    26  H   -0.205860
    27  H   -0.168670
 Sum of Mulliken charges =  -0.00000

 Dipole moment (field-independent basis, Debye):
    X=             -0.2406    Y=              1.9355    Z=              0.9417  Tot=              2.1659

 Test job not archived.
 1\1\GINC-SE229\SP\RHF\Aug-CC-pVDZ\C9H16S2\OHZDE\09-Apr-2025\0\\#t hf a
 ug-cc-pvdz iop(5/13=1,5/36=2,99/5=2) pseudo=read geom=check guess=(rea
 d,tcheck) scf=(maxcycle=1)\\title\\0,1\S,0,-0.345691,-1.638636,0.26280
 6\S,0,0.772887,-0.415023,-0.992179\C,0,2.146188,0.349746,0.053094\C,0,
 3.039892,-0.75977,0.615164\H,0,3.872561,-0.318699,1.174687\H,0,3.45145
 6,-1.378799,-0.184746\H,0,2.482583,-1.405879,1.296949\C,0,2.913697,1.1
 97632,-0.973509\H,0,3.775824,1.663515,-0.485781\H,0,2.287927,1.993541,
 -1.385059\H,0,3.28549,0.587657,-1.800847\C,0,1.591075,1.225541,1.17460

 Normal termination of Gaussian 16 at Wed Apr  9 00:31:57 2025.
