 Gaussian 16, Revision C.01,

 ----------------------------------------------------------------------
 #t hf aug-cc-pvdz symm=none int=(grid=ultrafine) guess=(read,tcheck) s
 table=(opt,rrhf)
 ----------------------------------------------------------------------
 -----
 title
 -----
 Symbolic Z-matrix:
 Charge =  0 Multiplicity = 1

 SCF Done:  E(RHF) =  -932.371421127     A.U. after   16 cycles
 Normal termination of Gaussian 16 at Tue Apr  8 23:15:46 2025.
 Gaussian 16:  ES64L-G16RevC.01  3-Jul-2019

 ----------------------------------------------------------------------
 #t hf aug-cc-pvdz iop(5/13=1,5/36=2,99/5=2) pseudo=read geom=check gue
 ss=(read,tcheck) scf=(maxcycle=1)
 ----------------------------------------------------------------------
 -----
 title
 -----
 Structure from the checkpoint file:  "BDE49_nonexpt_1016_mol1.chk"
 Charge =  0 Multiplicity = 1

                         Standard orientation:
 ---------------------------------------------------------------------
 Center     Atomic      Atomic             Coordinates (Angstroms)
 Number     Number       Type             X           Y           Z
 ---------------------------------------------------------------------
      1         17           0       -1.517383   -0.158309   -0.008634
      2         16           0        1.449756   -0.169647   -0.095977
      3          8           0        0.121951    0.742930    0.060618
      4          1           0        1.623802   -0.537832    1.197463
 ---------------------------------------------------------------------

 SCF Done:  E(RHF) =  -932.574296998     A.U. after    2 cycles

 The electronic state is 1-A.
 Alpha  occ. eigenvalues -- -105.62603 -94.03737 -20.67356 -10.66785  -8.31256
 Alpha  occ. eigenvalues --   -7.83714  -7.83206  -7.83192  -6.29151  -6.28858
 Alpha  occ. eigenvalues --   -6.28635  -1.50248  -1.05951  -0.96739  -0.68511
 Alpha  occ. eigenvalues --   -0.63326  -0.61485  -0.51993  -0.48490  -0.46285
 Alpha  occ. eigenvalues --   -0.39629
 Alpha virt. eigenvalues --    0.00806   0.03804   0.07106   0.10042   0.10643
 Alpha virt. eigenvalues --    0.14310   0.14733   0.15279   0.17288   0.17824
 Alpha virt. eigenvalues --    0.20107   0.24252   0.25679   0.26387   0.29514

 Mulliken charges:
               1
     1  Cl   0.205145
     2  S    0.425527
     3  O   -0.962689
     4  H    0.332018
 Sum of Mulliken charges =  -0.00000

 Dipole moment (field-independent basis, Debye):
    X=              1.1960    Y=             -0.8373    Z=              0.8523  Tot=              1.6906

 Test job not archived.
 1\1\GINC-SE363\SP\RHF\Aug-CC-pVDZ\Cl1H1O1S1\OHZDE\08-Apr-2025\0\\#t hf
  aug-cc-pvdz iop(5/13=1,5/36=2,99/5=2) pseudo=read geom=check guess=(r
 ead,tcheck) scf=(maxcycle=1)\\title\\0,1\Cl,0,-1.517383,-0.158309,-0.0
 08634\S,0,1.449756,-0.169647,-0.095977\O,0,0.121951,0.74293,0.060618\H
 ,0,1.623802,-0.537832,1.197463\\Version=ES64L-G16RevC.01\State=1-A\HF=
 -932.574297\RMSD=4.226e-03\Dipole=0.4705517,-0.3294256,0.3353202\Quadr
 upole=1.3205788,-1.5091427,0.1885639,-0.6791306,1.310232,-0.7733953\PG
 =C01 [X(Cl1H1O1S1)]\\@

 Normal termination of Gaussian 16 at Tue Apr  8 23:15:48 2025.
