 Gaussian 16, Revision C.01,

 ----------------------------------------------------------------------
 #t hf aug-cc-pvdz symm=none int=(grid=ultrafine) guess=(read,tcheck) s
 table=opt
 ----------------------------------------------------------------------
 -----
 title
 -----
 Symbolic Z-matrix:
 Charge =  0 Multiplicity = 2

 SCF Done:  E(UHF) =  -192.504751151     A.U. after   16 cycles
 Normal termination of Gaussian 16 at Tue Apr  8 22:51:38 2025.
 Gaussian 16:  ES64L-G16RevC.01  3-Jul-2019

 ----------------------------------------------------------------------
 #t hf aug-cc-pvdz iop(5/13=1,5/36=2,99/5=2) pseudo=read geom=check gue
 ss=(read,tcheck) scf=(maxcycle=1)
 ----------------------------------------------------------------------
 -----
 title
 -----
 Structure from the checkpoint file:  "BDE49_expt_175_mol2.chk"
 Charge =  0 Multiplicity = 2

                         Standard orientation:
 ---------------------------------------------------------------------
 Center     Atomic      Atomic             Coordinates (Angstroms)
 Number     Number       Type             X           Y           Z
 ---------------------------------------------------------------------
      1          6           0       -1.853667    0.032187    0.033039
      2          8           0       -0.589418   -0.457524    0.009273
      3          1           0       -2.024311    1.041562   -0.331752
      4          1           0       -2.613695   -0.731477   -0.056084
      5          6           0        0.451936    0.522554    0.049896
      6          6           0        1.784732   -0.194799   -0.034628
      7          1           0        0.368396    1.096552    0.980703
      8          1           0        0.323686    1.217840   -0.790661
      9          1           0        1.900757   -0.886916    0.802078
     10          1           0        2.605387    0.526590   -0.004160
     11          1           0        1.857123   -0.763611   -0.964151
 ---------------------------------------------------------------------

 SCF Done:  E(UHF) =  -192.708681048     A.U. after    2 cycles

 The electronic state is 2-A.
 Alpha  occ. eigenvalues --  -20.56326 -11.29156 -11.28266 -11.23018  -1.48930
 Alpha  occ. eigenvalues --   -1.03858  -0.91271  -0.84225  -0.68212  -0.66867
 Alpha  occ. eigenvalues --   -0.65415  -0.56857  -0.54901  -0.53119  -0.49704
 Alpha  occ. eigenvalues --   -0.48355  -0.32764
 Alpha virt. eigenvalues --    0.03826   0.04259   0.04569   0.04822   0.06528
 Alpha virt. eigenvalues --    0.07288   0.07987   0.12103   0.12573   0.13272
 Alpha virt. eigenvalues --    0.14272   0.15871   0.16701   0.16835   0.17366

  Beta  occ. eigenvalues --  -20.55684 -11.29188 -11.25890 -11.23021  -1.47071
  Beta  occ. eigenvalues --   -1.03281  -0.87176  -0.81888  -0.66621  -0.65366
  Beta  occ. eigenvalues --   -0.64141  -0.54909  -0.53750  -0.52591  -0.48554
  Beta  occ. eigenvalues --   -0.44877
  Beta virt. eigenvalues --    0.03861   0.04348   0.04560   0.04631   0.06546
  Beta virt. eigenvalues --    0.07303   0.07825   0.09950   0.12463   0.13093
  Beta virt. eigenvalues --    0.14287   0.16057   0.16355   0.16743   0.17541

 Mulliken charges and spin densities:
               1          2
     1  C    0.404903   1.149858
     2  O   -1.145237   0.028777
     3  H    0.095307  -0.084385
     4  H   -0.018334  -0.082705
     5  C    0.459780  -0.004690
     6  C   -0.514999  -0.000653
     7  H    0.116070  -0.009395
     8  H    0.094763   0.002879
     9  H    0.174051   0.000388
    10  H    0.168252  -0.000726
    11  H    0.165442   0.000652
 Sum of Mulliken charges =  -0.00000   1.00000

 Dipole moment (field-independent basis, Debye):
    X=              0.5746    Y=              1.1549    Z=             -0.3326  Tot=              1.3322
                          Isotropic Fermi Contact Couplings
        Atom                 a.u.       MegaHertz       Gauss      10(-4) cm-1
     1  C(13)              0.23472     263.86777      94.15458      88.01682
     2  O(17)              0.06017     -36.47339     -13.01461     -12.16621
     3  H(1)              -0.01805     -80.66691     -28.78396     -26.90759
     4  H(1)              -0.01942     -86.82139     -30.98003     -28.96050
     5  C(13)             -0.00292      -3.28371      -1.17171      -1.09533
     6  C(13)             -0.00131      -1.47249      -0.52542      -0.49117
     7  H(1)               0.00054       2.41467       0.86161       0.80545
     8  H(1)               0.00075       3.35634       1.19762       1.11955

 Normal termination of Gaussian 16 at Tue Apr  8 22:51:41 2025.
