 Gaussian 16, Revision C.01,

 ----------------------------------------------------------------------
 #t hf aug-cc-pvdz symm=none int=(grid=ultrafine) guess=(read,tcheck) s
 table=(opt,rrhf)
 ----------------------------------------------------------------------
 -----
 title
 -----
 Symbolic Z-matrix:
 Charge =  0 Multiplicity = 1

 SCF Done:  E(RHF) =  -595.693247069     A.U. after   13 cycles
 Normal termination of Gaussian 16 at Wed Apr  9 00:41:38 2025.
 Gaussian 16:  ES64L-G16RevC.01  3-Jul-2019

 ----------------------------------------------------------------------
 #t hf aug-cc-pvdz iop(5/13=1,5/36=2,99/5=2) pseudo=read geom=check gue
 ss=(read,tcheck) scf=(maxcycle=1)
 ----------------------------------------------------------------------
 -----
 title
 -----
 Structure from the checkpoint file:  "BDE49_nonexpt_685_mol1.chk"
 Charge =  0 Multiplicity = 1

                         Standard orientation:
 ---------------------------------------------------------------------
 Center     Atomic      Atomic             Coordinates (Angstroms)
 Number     Number       Type             X           Y           Z
 ---------------------------------------------------------------------
      1         15           0       -0.250038   -1.166251   -0.289938
      2          5           0        1.179989    0.128918   -0.050397
      3          8           0        1.079469    1.324403   -0.696679
      4          8           0        2.332064   -0.133789    0.642888
      5          6           0       -1.769340   -0.077196   -0.398435
      6          6           0       -2.024060    0.889063    0.760609
      7          1           0       -1.207644    1.607799    0.855711
      8          1           0       -2.119235    0.353914    1.709462
      9          1           0       -2.949600    1.452754    0.602286
     10          1           0       -2.621677   -0.749583   -0.533976
     11          1           0       -1.660075    0.474209   -1.337117
     12          1           0        1.876039    1.858976   -0.590033
     13          1           0        2.343317   -0.989829    1.078401
     14          1           0       -0.342362   -1.555189    1.073610
 ---------------------------------------------------------------------

 SCF Done:  E(RHF) =  -596.001772982     A.U. after    2 cycles

 The electronic state is 1-A.
 Alpha  occ. eigenvalues --  -84.24917 -20.56774 -20.56077 -11.24178 -11.22832
 Alpha  occ. eigenvalues --   -7.65396  -6.72240  -4.24780  -4.24736  -4.24075
 Alpha  occ. eigenvalues --   -1.48883  -1.44547  -1.03836  -0.88628  -0.80360
 Alpha  occ. eigenvalues --   -0.76559  -0.72790  -0.62244  -0.61005  -0.58232
 Alpha  occ. eigenvalues --   -0.56913  -0.56295  -0.53448  -0.50953  -0.49677
 Alpha  occ. eigenvalues --   -0.45985  -0.42383  -0.32249
 Alpha virt. eigenvalues --    0.03415   0.04078   0.04322   0.04790   0.05926
 Alpha virt. eigenvalues --    0.06695   0.06798   0.07664   0.08570   0.09580
 Alpha virt. eigenvalues --    0.10182   0.11610   0.11959   0.12338   0.13757

 Mulliken charges:
               1
     1  P   -0.440040
     2  B    2.084712
     3  O   -1.190321
     4  O   -1.264632
     5  C   -0.791422
     6  C   -0.396416
     7  H    0.118085
     8  H    0.151217
     9  H    0.102364
    10  H    0.114484
    11  H    0.170160
    12  H    0.537084
    13  H    0.530488
    14  H    0.274239
 Sum of Mulliken charges =   0.00000

 Dipole moment (field-independent basis, Debye):
    X=              0.2310    Y=              0.0924    Z=              1.0149  Tot=              1.0450

 Test job not archived.
 1\1\GINC-SE344\SP\RHF\Aug-CC-pVDZ\C2H8B1O2P1\OHZDE\09-Apr-2025\0\\#t h
 f aug-cc-pvdz iop(5/13=1,5/36=2,99/5=2) pseudo=read geom=check guess=(
 read,tcheck) scf=(maxcycle=1)\\title\\0,1\P,0,-0.250038,-1.166251,-0.2
 89938\B,0,1.179989,0.128918,-0.050397\O,0,1.079469,1.324403,-0.696679\
 O,0,2.332064,-0.133789,0.642888\C,0,-1.76934,-0.077196,-0.398435\C,0,-
 2.02406,0.889063,0.760609\H,0,-1.207644,1.607799,0.855711\H,0,-2.11923
 5,0.353914,1.709462\H,0,-2.9496,1.452754,0.602286\H,0,-2.621677,-0.749
 583,-0.533976\H,0,-1.660075,0.474209,-1.337117\H,0,1.876039,1.858976,-

 Normal termination of Gaussian 16 at Wed Apr  9 00:41:43 2025.
