 Gaussian 16, Revision C.01,

 ----------------------------------------------------------------------
 #t hf aug-cc-pvdz symm=none int=(grid=ultrafine) guess=(read,tcheck) s
 table=opt
 ----------------------------------------------------------------------
 -----
 title
 -----
 Symbolic Z-matrix:
 Charge =  0 Multiplicity = 2

 SCF Done:  E(UHF) =  -1085.72908548     A.U. after   19 cycles

 1\1\GINC-SE461\Stability\UHF\Aug-CC-pVDZ\H3S2Si1\OHZDE\08-Apr-2025\0\\
 #t hf aug-cc-pvdz symm=none int=(grid=ultrafine) guess=(read,tcheck) s
 table=opt\\title\\0,2\Si,0,-1.688674,-0.361087,0.001935\S,0,0.007857,0
 .970514,0.012505\H,0,-1.746531,-1.169916,-1.240041\H,0,-1.691976,-1.24
 3544,1.195711\S,0,1.576517,-0.463015,-0.088718\H,0,1.729942,-0.651319,
 1.236655\\Version=ES64L-G16RevC.01\HF=-1085.7290855\S2=0.758644\S2-1=0
 .\S2A=0.750037\RMSD=6.147e-09\Dipole=-0.2773888,-0.3706615,0.3372254\Q
 uadrupole=1.0794105,-1.2486929,0.1692824,-0.6651462,1.446989,-0.659095

 Normal termination of Gaussian 16 at Tue Apr  8 23:52:18 2025.
 Gaussian 16:  ES64L-G16RevC.01  3-Jul-2019

 ----------------------------------------------------------------------
 #t hf aug-cc-pvdz iop(5/13=1,5/36=2,99/5=2) pseudo=read geom=check gue
 ss=(read,tcheck) scf=(maxcycle=1)
 ----------------------------------------------------------------------
 -----
 title
 -----
 Structure from the checkpoint file:  "BDE49_nonexpt_1928_mol2.chk"
 Charge =  0 Multiplicity = 2

                         Standard orientation:
 ---------------------------------------------------------------------
 Center     Atomic      Atomic             Coordinates (Angstroms)
 Number     Number       Type             X           Y           Z
 ---------------------------------------------------------------------
      1         14           0       -1.688674   -0.361087    0.001935
      2         16           0        0.007857    0.970514    0.012505
      3          1           0       -1.746531   -1.169916   -1.240041
      4          1           0       -1.691976   -1.243544    1.195711
      5         16           0        1.576517   -0.463015   -0.088718
      6          1           0        1.729942   -0.651319    1.236655
 ---------------------------------------------------------------------

 SCF Done:  E(UHF) =  -1085.88147277     A.U. after    2 cycles

 The electronic state is 2-A.
 Alpha  occ. eigenvalues --  -93.99252 -93.97660 -69.57504  -8.27126  -8.25769
 Alpha  occ. eigenvalues --   -6.25041  -6.24770  -6.24523  -6.24422  -6.23474
 Alpha  occ. eigenvalues --   -6.23356  -6.23124  -4.00348  -3.99495  -3.99376
 Alpha  occ. eigenvalues --   -1.08793  -0.92742  -0.73482  -0.58841  -0.52663
 Alpha  occ. eigenvalues --   -0.50956  -0.49184  -0.39899  -0.38879  -0.34331
 Alpha virt. eigenvalues --    0.03554   0.04340   0.04653   0.05840   0.06759
 Alpha virt. eigenvalues --    0.08436   0.09092   0.10559   0.11809   0.12257
 Alpha virt. eigenvalues --    0.13502   0.14722   0.15652   0.16094   0.17551

  Beta  occ. eigenvalues --  -93.99162 -93.97670 -69.56935  -8.27020  -8.25765
  Beta  occ. eigenvalues --   -6.24807  -6.24669  -6.24368  -6.23607  -6.23557
  Beta  occ. eigenvalues --   -6.23330  -6.23131  -3.99108  -3.98989  -3.98171
  Beta  occ. eigenvalues --   -1.08257  -0.91865  -0.69438  -0.58616  -0.51758
  Beta  occ. eigenvalues --   -0.50328  -0.47815  -0.38916  -0.38261
  Beta virt. eigenvalues --    0.00573   0.03721   0.04824   0.05851   0.06122
  Beta virt. eigenvalues --    0.07495   0.08961   0.09423   0.10694   0.12439
  Beta virt. eigenvalues --    0.12743   0.14363   0.15340   0.16137   0.16681

 Mulliken charges and spin densities:
               1          2
     1  Si   0.990846   0.956944
     2  S   -0.590385  -0.050506
     3  H   -0.178956   0.017390
     4  H   -0.173953   0.016386
     5  S   -0.442503   0.070943
     6  H    0.394950  -0.011157
 Sum of Mulliken charges =  -0.00000   1.00000

 Dipole moment (field-independent basis, Debye):
    X=             -0.6622    Y=             -1.0027    Z=              0.8984  Tot=              1.5004
                          Isotropic Fermi Contact Couplings
        Atom                 a.u.       MegaHertz       Gauss      10(-4) cm-1
     1  Si(29)             0.60558    -538.19926    -192.04288    -179.52395
     2  S(33)              0.07330      25.17663       8.98365       8.39802
     3  H(1)               0.00568      25.39050       9.05996       8.46936
     4  H(1)               0.00534      23.86681       8.51627       7.96111
     5  S(33)              0.02928      10.05782       3.58888       3.35493
     6  H(1)              -0.00102      -4.56101      -1.62748      -1.52139
 --------------------------------------------------------
       Center         ----  Spin Dipole Couplings  ----

 Normal termination of Gaussian 16 at Tue Apr  8 23:52:20 2025.
