 Gaussian 16, Revision C.01,

 ----------------------------------------------------------------------
 #t hf aug-cc-pvdz symm=none int=(grid=ultrafine) guess=(read,tcheck) s
 table=(opt,rrhf)
 ----------------------------------------------------------------------
 -----
 title
 -----
 Symbolic Z-matrix:
 Charge =  0 Multiplicity = 1

 SCF Done:  E(RHF) =  -483.306382188     A.U. after   12 cycles
 Normal termination of Gaussian 16 at Wed Apr  9 00:02:41 2025.
 Gaussian 16:  ES64L-G16RevC.01  3-Jul-2019

 ----------------------------------------------------------------------
 #t hf aug-cc-pvdz iop(5/13=1,5/36=2,99/5=2) pseudo=read geom=check gue
 ss=(read,tcheck) scf=(maxcycle=1)
 ----------------------------------------------------------------------
 -----
 title
 -----
 Structure from the checkpoint file:  "BDE49_nonexpt_2167_mol1.chk"
 Charge =  0 Multiplicity = 1

                         Standard orientation:
 ---------------------------------------------------------------------
 Center     Atomic      Atomic             Coordinates (Angstroms)
 Number     Number       Type             X           Y           Z
 ---------------------------------------------------------------------
      1         14           0       -0.472483    0.065404    0.333336
      2          8           0       -0.446241    1.591022   -0.329255
      3          1           0       -1.091549    2.235909   -0.033211
      4          6           0        1.067123   -0.786933   -0.306023
      5          6           0        2.385343   -0.084885    0.066128
      6          1           0        0.977662   -0.868008   -1.396309
      7          1           0        1.066272   -1.817111    0.072321
      8          1           0        2.513144   -0.029806    1.151288
      9          1           0        2.406465    0.937310   -0.318870
     10          6           0       -2.028073   -0.869164   -0.139960
     11          1           0       -2.100880   -0.994866   -1.224280
     12          1           0       -2.929608   -0.350058    0.200156
     13          1           0       -2.032326   -1.864339    0.316859
     14          1           0        3.251728   -0.614507   -0.340692
     15          1           0       -0.422573    0.167530    1.819197
 ---------------------------------------------------------------------

 SCF Done:  E(RHF) =  -483.551587602     A.U. after    2 cycles

 The electronic state is 1-A.
 Alpha  occ. eigenvalues --  -69.53781 -20.53718 -11.22314 -11.21297 -11.21232
 Alpha  occ. eigenvalues --   -6.20458  -3.95931  -3.95775  -3.95756  -1.42210
 Alpha  occ. eigenvalues --   -1.01921  -0.94960  -0.84314  -0.73068  -0.63827
 Alpha  occ. eigenvalues --   -0.59387  -0.58314  -0.56497  -0.56279  -0.52956
 Alpha  occ. eigenvalues --   -0.51211  -0.50351  -0.49089  -0.43381  -0.42426
 Alpha virt. eigenvalues --    0.03316   0.04014   0.04268   0.04508   0.06201
 Alpha virt. eigenvalues --    0.06426   0.06901   0.07452   0.08508   0.09227
 Alpha virt. eigenvalues --    0.09824   0.10525   0.11134   0.13508   0.14973

 Mulliken charges:
               1
     1  Si   2.486888
     2  O   -1.497492
     3  H    0.399049
     4  C   -0.512266
     5  C   -0.505352
     6  H    0.111238
     7  H    0.046315
     8  H    0.123242
     9  H    0.127833
    10  C   -0.669823
    11  H    0.067513
    12  H   -0.049366
    13  H    0.043570
    14  H    0.116396
    15  H   -0.287744
 Sum of Mulliken charges =  -0.00000

 Dipole moment (field-independent basis, Debye):
    X=             -1.0027    Y=             -0.2787    Z=              0.3280  Tot=              1.0912

 Test job not archived.
 1\1\GINC-SE340\SP\RHF\Aug-CC-pVDZ\C3H10O1Si1\OHZDE\09-Apr-2025\0\\#t h
 f aug-cc-pvdz iop(5/13=1,5/36=2,99/5=2) pseudo=read geom=check guess=(
 read,tcheck) scf=(maxcycle=1)\\title\\0,1\Si,0,-0.472483,0.065404,0.33
 3336\O,0,-0.446241,1.591022,-0.329255\H,0,-1.091549,2.235909,-0.033211
 \C,0,1.067123,-0.786933,-0.306023\C,0,2.385343,-0.084885,0.066128\H,0,
 0.977662,-0.868008,-1.396309\H,0,1.066272,-1.817111,0.072321\H,0,2.513
 144,-0.029806,1.151288\H,0,2.406465,0.93731,-0.31887\C,0,-2.028073,-0.
 869164,-0.13996\H,0,-2.10088,-0.994866,-1.22428\H,0,-2.929608,-0.35005

 Normal termination of Gaussian 16 at Wed Apr  9 00:02:46 2025.
