 Gaussian 16, Revision C.01,

 ----------------------------------------------------------------------
 #t hf aug-cc-pvdz symm=none int=(grid=ultrafine) guess=(read,tcheck) s
 table=opt
 ----------------------------------------------------------------------
 -----
 title
 -----
 Symbolic Z-matrix:
 Charge =  0 Multiplicity = 2

 SCF Done:  E(UHF) =  -640.910877117     A.U. after   17 cycles
 Normal termination of Gaussian 16 at Tue Apr  8 23:49:49 2025.
 Gaussian 16:  ES64L-G16RevC.01  3-Jul-2019

 ----------------------------------------------------------------------
 #t hf aug-cc-pvdz iop(5/13=1,5/36=2,99/5=2) pseudo=read geom=check gue
 ss=(read,tcheck) scf=(maxcycle=1)
 ----------------------------------------------------------------------
 -----
 title
 -----
 Structure from the checkpoint file:  "BDE49_nonexpt_182_mol2.chk"
 Charge =  0 Multiplicity = 2

                         Standard orientation:
 ---------------------------------------------------------------------
 Center     Atomic      Atomic             Coordinates (Angstroms)
 Number     Number       Type             X           Y           Z
 ---------------------------------------------------------------------
      1         17           0        2.119585   -0.808145    0.079771
      2          5           0        1.576771    0.756372   -0.484191
      3          6           0        0.302838    1.522231   -0.034419
      4          6           0       -0.882871    0.720889    0.545978
      5          1           0        0.695416    2.216526    0.729819
      6          6           0       -1.631720   -0.103030   -0.508168
      7          1           0       -1.585166    1.417541    1.018734
      8          1           0       -0.523486    0.057486    1.339922
      9          6           0       -2.817383   -0.879837    0.070379
     10          1           0       -0.936776   -0.803692   -0.985581
     11          1           0       -1.984619    0.566435   -1.302095
     12          1           0       -2.489753   -1.584050    0.841133
     13          1           0       -3.334126   -1.452395   -0.704353
     14          1           0       -3.547712   -0.204755    0.527324
     15          1           0       -0.035754    2.181994   -0.842662
 ---------------------------------------------------------------------

 SCF Done:  E(UHF) =  -641.184416220     A.U. after    2 cycles

 The electronic state is 2-A.
 Alpha  occ. eigenvalues -- -105.57042 -11.23740 -11.23199 -11.22995 -11.22547
 Alpha  occ. eigenvalues --  -10.62056  -7.78989  -7.78673  -7.78627  -7.66873
 Alpha  occ. eigenvalues --   -1.09349  -1.07000  -0.99456  -0.88350  -0.80459
 Alpha  occ. eigenvalues --   -0.67868  -0.63905  -0.60389  -0.60010  -0.57652
 Alpha  occ. eigenvalues --   -0.53915  -0.51601  -0.50424  -0.49498  -0.48763
 Alpha  occ. eigenvalues --   -0.47753  -0.46801  -0.33717
 Alpha virt. eigenvalues --    0.03402   0.03615   0.03849   0.04184   0.05617
 Alpha virt. eigenvalues --    0.05945   0.06345   0.06852   0.07552   0.08546
 Alpha virt. eigenvalues --    0.08994   0.09771   0.10257   0.13007   0.13300

  Beta  occ. eigenvalues -- -105.56963 -11.23631 -11.23208 -11.22874 -11.22544
  Beta  occ. eigenvalues --  -10.61963  -7.78849  -7.78635  -7.78430  -7.64899
  Beta  occ. eigenvalues --   -1.08702  -1.06400  -0.99101  -0.87878  -0.80161
  Beta  occ. eigenvalues --   -0.66445  -0.62308  -0.60270  -0.59563  -0.56536
  Beta  occ. eigenvalues --   -0.53209  -0.50683  -0.49465  -0.48953  -0.47998
  Beta  occ. eigenvalues --   -0.47672  -0.46225
  Beta virt. eigenvalues --    0.03062   0.03618   0.03782   0.04034   0.05868
  Beta virt. eigenvalues --    0.05974   0.06375   0.07030   0.07708   0.08508
  Beta virt. eigenvalues --    0.09054   0.09507   0.10278   0.11560   0.13307

 Mulliken charges and spin densities:
               1          2
     1  Cl  -0.250203  -0.000145
     2  B    0.093698   1.041893
     3  C   -0.115731  -0.053733
     4  C   -0.303260   0.034641
     5  H    0.238751  -0.026105
     6  C   -0.323938   0.010453
     7  H    0.129495   0.001618
     8  H    0.133479  -0.006739
     9  C   -0.418998   0.000710
    10  H    0.109750  -0.001111
    11  H    0.118767  -0.001695
    12  H    0.170001   0.000092
    13  H    0.116185   0.000178
    14  H    0.165417   0.000454
    15  H    0.136588  -0.000513
 Sum of Mulliken charges =  -0.00000   1.00000

 Dipole moment (field-independent basis, Debye):
    X=             -1.3324    Y=              0.9479    Z=              0.2595  Tot=              1.6557
                          Isotropic Fermi Contact Couplings
        Atom                 a.u.       MegaHertz       Gauss      10(-4) cm-1
     1  Cl(35)             0.08426      36.94445      13.18270      12.32334
     2  B(11)              0.32127     460.82097     164.43238     153.71333
     3  C(13)              0.03539      39.78779      14.19727      13.27178
     4  C(13)              0.02135      24.00617       8.56600       8.00760
     5  H(1)              -0.00150      -6.71925      -2.39760      -2.24130
     6  C(13)             -0.00173      -1.94001      -0.69224      -0.64712
     7  H(1)               0.00109       4.88583       1.74339       1.62974
     8  H(1)              -0.00069      -3.10325      -1.10732      -1.03513

 Normal termination of Gaussian 16 at Tue Apr  8 23:49:54 2025.
