 Gaussian 16, Revision C.01,

 ----------------------------------------------------------------------
 #t hf aug-cc-pvdz symm=none int=(grid=ultrafine) guess=(read,tcheck) s
 table=(opt,rrhf)
 ----------------------------------------------------------------------
 -----
 title
 -----
 Symbolic Z-matrix:
 Charge =  0 Multiplicity = 1

 SCF Done:  E(RHF) =  -293.420856655     A.U. after   12 cycles
 Normal termination of Gaussian 16 at Wed Apr  9 00:23:30 2025.
 Gaussian 16:  ES64L-G16RevC.01  3-Jul-2019

 ----------------------------------------------------------------------
 #t hf aug-cc-pvdz iop(5/13=1,5/36=2,99/5=2) pseudo=read geom=check gue
 ss=(read,tcheck) scf=(maxcycle=1)
 ----------------------------------------------------------------------
 -----
 title
 -----
 Structure from the checkpoint file:  "BDE49_nonexpt_267_mol1.chk"
 Charge =  0 Multiplicity = 1

                         Standard orientation:
 ---------------------------------------------------------------------
 Center     Atomic      Atomic             Coordinates (Angstroms)
 Number     Number       Type             X           Y           Z
 ---------------------------------------------------------------------
      1          6           0       -0.276937   -0.617410    0.000021
      2          5           0        1.199654   -0.054398    0.000026
      3          8           0        1.516385    1.282136   -0.000019
      4          8           0        2.238790   -0.940280   -0.000005
      5          6           0       -1.408647    0.422159   -0.000004
      6          6           0       -2.810461   -0.194878   -0.000002
      7          1           0       -2.960546   -0.824168    0.882516
      8          1           0       -2.960536   -0.824197   -0.882501
      9          1           0       -3.589382    0.572912   -0.000019
     10          1           0       -1.310742    1.074252   -0.878243
     11          1           0       -1.310753    1.074280    0.878216
     12          1           0        0.747435    1.857785   -0.000029
     13          1           0        3.090215   -0.489467   -0.000027
     14          1           0       -0.384548   -1.281727    0.868026
     15          1           0       -0.384538   -1.281756   -0.867963
 ---------------------------------------------------------------------

 SCF Done:  E(RHF) =  -293.730170329     A.U. after    2 cycles

 The electronic state is 1-A.
 Alpha  occ. eigenvalues --  -20.55581 -20.54592 -11.23799 -11.22670 -11.20802
 Alpha  occ. eigenvalues --   -7.62972  -1.47564  -1.43169  -1.06152  -0.93534
 Alpha  occ. eigenvalues --   -0.81977  -0.75755  -0.71774  -0.63968  -0.63262
 Alpha  occ. eigenvalues --   -0.58221  -0.57073  -0.55032  -0.53233  -0.52898
 Alpha  occ. eigenvalues --   -0.49058  -0.48710  -0.47564  -0.45828
 Alpha virt. eigenvalues --    0.03314   0.03777   0.03987   0.04145   0.05927
 Alpha virt. eigenvalues --    0.06758   0.06842   0.07420   0.08223   0.09142
 Alpha virt. eigenvalues --    0.10559   0.10862   0.11363   0.13565   0.14843

 Mulliken charges:
               1
     1  C   -0.097853
     2  B    1.785498
     3  O   -1.297466
     4  O   -1.406794
     5  C   -0.538533
     6  C   -0.377275
     7  H    0.184992
     8  H    0.184992
     9  H    0.127951
    10  H    0.056689
    11  H    0.056692
    12  H    0.638974
    13  H    0.484245
    14  H    0.098949
    15  H    0.098939
 Sum of Mulliken charges =  -0.00000

 Dipole moment (field-independent basis, Debye):
    X=             -0.9755    Y=              1.1766    Z=              0.0000  Tot=              1.5284

 Test job not archived.
 1\1\GINC-SE187\SP\RHF\Aug-CC-pVDZ\C3H9B1O2\OHZDE\09-Apr-2025\0\\#t hf
 aug-cc-pvdz iop(5/13=1,5/36=2,99/5=2) pseudo=read geom=check guess=(re
 ad,tcheck) scf=(maxcycle=1)\\title\\0,1\C,0,-0.276937,-0.61741,0.00002
 1\B,0,1.199654,-0.054398,0.000026\O,0,1.516385,1.282136,-0.000019\O,0,
 2.23879,-0.94028,-0.000005\C,0,-1.408647,0.422159,-0.000004\C,0,-2.810
 461,-0.194878,-0.000002\H,0,-2.960546,-0.824168,0.882516\H,0,-2.960536
 ,-0.824197,-0.882501\H,0,-3.589382,0.572913,-0.000019\H,0,-1.310742,1.
 074252,-0.878243\H,0,-1.310753,1.07428,0.878216\H,0,0.747435,1.857785,

 Normal termination of Gaussian 16 at Wed Apr  9 00:23:35 2025.
