 Gaussian 16, Revision C.01,

 ----------------------------------------------------------------------
 #t hf aug-cc-pvdz symm=none int=(grid=ultrafine) guess=(read,tcheck) s
 table=(opt,rrhf)
 ----------------------------------------------------------------------
 -----
 title
 -----
 Symbolic Z-matrix:
 Charge =  0 Multiplicity = 1

 SCF Done:  E(RHF) =  -1144.83305992     A.U. after   13 cycles
 Normal termination of Gaussian 16 at Tue Apr  8 23:23:07 2025.
 Gaussian 16:  ES64L-G16RevC.01  3-Jul-2019

 ----------------------------------------------------------------------
 #t hf aug-cc-pvdz iop(5/13=1,5/36=2,99/5=2) pseudo=read geom=check gue
 ss=(read,tcheck) scf=(maxcycle=1)
 ----------------------------------------------------------------------
 -----
 title
 -----
 Structure from the checkpoint file:  "BDE49_nonexpt_1216_mol1.chk"
 Charge =  0 Multiplicity = 1

                         Standard orientation:
 ---------------------------------------------------------------------
 Center     Atomic      Atomic             Coordinates (Angstroms)
 Number     Number       Type             X           Y           Z
 ---------------------------------------------------------------------
      1          6           0        1.746441   -0.167304    0.002094
      2         16           0        0.502703    1.171973    0.023125
      3          9           0        2.860436    0.421278   -0.468907
      4          9           0        1.430174   -1.188995   -0.794601
      5          9           0        1.989760   -0.657493    1.217931
      6          8           0       -0.759195    0.335115    0.799740
      7          6           0       -1.795091   -0.106893    0.009222
      8          9           0       -2.678925   -0.665108    0.827686
      9          9           0       -1.403673   -1.010278   -0.893749
     10          9           0       -2.384193    0.902006   -0.647897
 ---------------------------------------------------------------------

 SCF Done:  E(RHF) =  -1145.57070530     A.U. after    2 cycles

 The electronic state is 1-A.
 Alpha  occ. eigenvalues --  -94.07610 -26.54429 -26.53821 -26.53725 -26.53403
 Alpha  occ. eigenvalues --  -26.53394 -26.53321 -20.66114 -11.59916 -11.57468
 Alpha  occ. eigenvalues --   -8.35118  -6.32900  -6.32664  -6.32368  -1.76050
 Alpha  occ. eigenvalues --   -1.75182  -1.65189  -1.64915  -1.64677  -1.64489
 Alpha  occ. eigenvalues --   -1.55864  -1.11454  -0.98366  -0.94218  -0.86456
 Alpha  occ. eigenvalues --   -0.85571  -0.85260  -0.84337  -0.84173  -0.78821
 Alpha  occ. eigenvalues --   -0.72540  -0.71913  -0.71781  -0.71355  -0.67731
 Alpha  occ. eigenvalues --   -0.67237  -0.66713  -0.66133  -0.65318  -0.65095
 Alpha  occ. eigenvalues --   -0.64647  -0.62008  -0.60942  -0.52049  -0.44656
 Alpha virt. eigenvalues --    0.05395   0.06561   0.08064   0.08606   0.09428
 Alpha virt. eigenvalues --    0.10426   0.10840   0.11436   0.12675   0.12883
 Alpha virt. eigenvalues --    0.15643   0.18780   0.18936   0.21662   0.22885

 Mulliken charges:
               1
     1  C    1.723896
     2  S    0.814436
     3  F   -0.634783
     4  F   -0.671403
     5  F   -0.668331
     6  O   -1.332689
     7  C    2.810727
     8  F   -0.670038
     9  F   -0.691728
    10  F   -0.680087
 Sum of Mulliken charges =   0.00000

 Dipole moment (field-independent basis, Debye):
    X=              0.4512    Y=              0.8872    Z=             -0.2402  Tot=              1.0239

 Test job not archived.
 1\1\GINC-SE058\SP\RHF\Aug-CC-pVDZ\C2F6O1S1\OHZDE\08-Apr-2025\0\\#t hf
 aug-cc-pvdz iop(5/13=1,5/36=2,99/5=2) pseudo=read geom=check guess=(re
 ad,tcheck) scf=(maxcycle=1)\\title\\0,1\C,0,1.746441,-0.167304,0.00209
 4\S,0,0.502703,1.171973,0.023125\F,0,2.860436,0.421278,-0.468907\F,0,1
 .430174,-1.188995,-0.794601\F,0,1.98976,-0.657493,1.217931\O,0,-0.7591
 95,0.335115,0.79974\C,0,-1.795091,-0.106893,0.009222\F,0,-2.678925,-0.
 665108,0.827686\F,0,-1.403673,-1.010278,-0.893749\F,0,-2.384193,0.9020
 06,-0.647897\\Version=ES64L-G16RevC.01\State=1-A\HF=-1145.5707053\RMSD

 Normal termination of Gaussian 16 at Tue Apr  8 23:23:13 2025.
