 Gaussian 16, Revision C.01,

 ----------------------------------------------------------------------
 #t hf aug-cc-pvdz symm=none int=(grid=ultrafine) guess=(read,tcheck) s
 table=(opt,rrhf)
 ----------------------------------------------------------------------
 -----
 title
 -----
 Symbolic Z-matrix:
 Charge =  0 Multiplicity = 1

 SCF Done:  E(RHF) =  -887.806191007     A.U. after   15 cycles
 Normal termination of Gaussian 16 at Tue Apr  8 23:27:19 2025.
 Gaussian 16:  ES64L-G16RevC.01  3-Jul-2019

 ----------------------------------------------------------------------
 #t hf aug-cc-pvdz iop(5/13=1,5/36=2,99/5=2) pseudo=read geom=check gue
 ss=(read,tcheck) scf=(maxcycle=1)
 ----------------------------------------------------------------------
 -----
 title
 -----
 Structure from the checkpoint file:  "BDE49_nonexpt_1286_mol1.chk"
 Charge =  0 Multiplicity = 1

                         Standard orientation:
 ---------------------------------------------------------------------
 Center     Atomic      Atomic             Coordinates (Angstroms)
 Number     Number       Type             X           Y           Z
 ---------------------------------------------------------------------
      1          6           0        0.672999    0.936860    1.713954
      2          6           0        0.502202    0.607919    0.222282
      3          1           0        0.541815    0.053542    2.337535
      4          1           0       -0.079199    1.674709    1.996705
      5          1           0        1.664708    1.359467    1.890883
      6          6           0        0.729894    1.821155   -0.673875
      7          1           0        0.681208    1.549052   -1.727588
      8          1           0        1.703816    2.268261   -0.472941
      9          1           0       -0.051857    2.552878   -0.464914
     10         15           0       -1.204304   -0.069465   -0.070590
     11          7           0        1.540805   -0.488861   -0.113706
     12          8           0        1.360884   -1.603836    0.381914
     13          8           0        2.489276   -0.195675   -0.805546
     14          8           0       -2.263635    0.920349    0.128196
     15          8           0       -1.334291   -1.348756    0.862906
     16          8           0       -1.033377   -0.614614   -1.573084
     17          1           0       -1.853536   -0.579636   -2.080897
     18          1           0       -0.509443   -1.869616    0.846757
 ---------------------------------------------------------------------

 SCF Done:  E(RHF) =  -888.393269611     A.U. after    2 cycles

 The electronic state is 1-A.
 Alpha  occ. eigenvalues --  -84.44834 -20.62429 -20.60997 -20.60994 -20.59834
 Alpha  occ. eigenvalues --  -20.51975 -15.80982 -11.34819 -11.27573 -11.26524
 Alpha  occ. eigenvalues --   -6.90110  -4.44322  -4.43701  -4.42995  -1.69626
 Alpha  occ. eigenvalues --   -1.54887  -1.53156  -1.48868  -1.40502  -1.17538
 Alpha  occ. eigenvalues --   -1.00611  -0.98903  -0.89503  -0.85325  -0.78018
 Alpha  occ. eigenvalues --   -0.77349  -0.75874  -0.75102  -0.68247  -0.66209
 Alpha  occ. eigenvalues --   -0.64752  -0.61103  -0.60618  -0.60256  -0.59120
 Alpha  occ. eigenvalues --   -0.56381  -0.54884  -0.53512  -0.51918  -0.51538
 Alpha  occ. eigenvalues --   -0.50349  -0.47691  -0.47401  -0.45993
 Alpha virt. eigenvalues --    0.03331   0.03628   0.04094   0.04423   0.05475
 Alpha virt. eigenvalues --    0.05548   0.06010   0.07514   0.08523   0.09458
 Alpha virt. eigenvalues --    0.11030   0.12404   0.12867   0.13411   0.13937

 Mulliken charges:
               1
     1  C    0.038980
     2  C   -3.023151
     3  H    0.196636
     4  H    0.305958
     5  H    0.188585
     6  C    0.179846
     7  H    0.226929
     8  H    0.284271
     9  H    0.288236
    10  P    4.796572
    11  N    2.976898
    12  O   -1.545100
    13  O   -1.383529
    14  O   -1.453771
    15  O   -1.471889
    16  O   -1.403385
    17  H    0.347252
    18  H    0.450660
 Sum of Mulliken charges =  -0.00000

 Dipole moment (field-independent basis, Debye):
    X=              0.9140    Y=              0.9987    Z=             -0.3533  Tot=              1.3992

 Test job not archived.
 1\1\GINC-SE364\SP\RHF\Aug-CC-pVDZ\C3H8N1O5P1\OHZDE\08-Apr-2025\0\\#t h
 f aug-cc-pvdz iop(5/13=1,5/36=2,99/5=2) pseudo=read geom=check guess=(
 read,tcheck) scf=(maxcycle=1)\\title\\0,1\C,0,0.672999,0.93686,1.71395
 4\C,0,0.502202,0.607919,0.222282\H,0,0.541815,0.053542,2.337535\H,0,-0
 .079199,1.674709,1.996705\H,0,1.664708,1.359467,1.890883\C,0,0.729894,
 1.821155,-0.673875\H,0,0.681208,1.549052,-1.727588\H,0,1.703816,2.2682
 61,-0.472941\H,0,-0.051857,2.552878,-0.464914\P,0,-1.204304,-0.069465,
 -0.07059\N,0,1.540805,-0.488861,-0.113706\O,0,1.360884,-1.603836,0.381

 Normal termination of Gaussian 16 at Tue Apr  8 23:27:29 2025.
