 Gaussian 16, Revision C.01,

 ----------------------------------------------------------------------
 #t hf aug-cc-pvdz symm=none int=(grid=ultrafine) guess=(read,tcheck) s
 table=(opt,rrhf)
 ----------------------------------------------------------------------
 -----
 title
 -----
 Symbolic Z-matrix:
 Charge =  0 Multiplicity = 1

 SCF Done:  E(RHF) =  -143.559058414     A.U. after   11 cycles
 Normal termination of Gaussian 16 at Wed Apr  9 00:29:48 2025.
 Gaussian 16:  ES64L-G16RevC.01  3-Jul-2019

 ----------------------------------------------------------------------
 #t hf aug-cc-pvdz iop(5/13=1,5/36=2,99/5=2) pseudo=read geom=check gue
 ss=(read,tcheck) scf=(maxcycle=1)
 ----------------------------------------------------------------------
 -----
 title
 -----
 Structure from the checkpoint file:  "BDE49_nonexpt_341_mol1.chk"
 Charge =  0 Multiplicity = 1

                         Standard orientation:
 ---------------------------------------------------------------------
 Center     Atomic      Atomic             Coordinates (Angstroms)
 Number     Number       Type             X           Y           Z
 ---------------------------------------------------------------------
      1          5           0        0.003130   -0.000533   -0.006325
      2          6           0       -0.957098   -1.250617   -0.005051
      3          1           0       -1.766366   -1.134810   -0.736497
      4          1           0       -1.464400   -1.296461    0.969843
      5          1           0       -0.470884   -2.215537   -0.170834
      6          6           0       -0.606836    1.451925    0.009122
      7          1           0       -1.668901    1.508270    0.263230
      8          1           0       -0.498049    1.858720   -1.008549
      9          1           0       -0.047023    2.139588    0.652634
     10          6           0        1.565818   -0.201087   -0.007205
     11          1           0        1.851494   -0.608352    0.974851
     12          1           0        2.151880    0.708758   -0.162488
     13          1           0        1.885297   -0.958835   -0.731755
 ---------------------------------------------------------------------

 SCF Done:  E(RHF) =  -143.724237768     A.U. after    2 cycles

 The electronic state is 1-A.
 Alpha  occ. eigenvalues --  -11.19766 -11.19759 -11.19721  -7.57402  -0.98516
 Alpha  occ. eigenvalues --   -0.92203  -0.92144  -0.62056  -0.57448  -0.57428
 Alpha  occ. eigenvalues --   -0.56653  -0.52961  -0.52866  -0.51698  -0.44669
 Alpha  occ. eigenvalues --   -0.44622
 Alpha virt. eigenvalues --    0.03499   0.03820   0.04266   0.04280   0.06708
 Alpha virt. eigenvalues --    0.06724   0.07475   0.07579   0.08555   0.10141
 Alpha virt. eigenvalues --    0.10362   0.11129   0.11393   0.14786   0.15464

 Mulliken charges:
               1
     1  B    0.937147
     2  C   -0.431765
     3  H    0.055020
     4  H    0.140868
     5  H   -0.063038
     6  C   -0.419913
     7  H   -0.043700
     8  H    0.135376
     9  H    0.003788
    10  C   -0.406414
    11  H    0.110374
    12  H   -0.047751
    13  H    0.030009
 Sum of Mulliken charges =  -0.00000

 Dipole moment (field-independent basis, Debye):
    X=             -0.0100    Y=              0.0006    Z=              0.0172  Tot=              0.0199

 Test job not archived.
 1\1\GINC-SE458\SP\RHF\Aug-CC-pVDZ\C3H9B1\OHZDE\09-Apr-2025\0\\#t hf au
 g-cc-pvdz iop(5/13=1,5/36=2,99/5=2) pseudo=read geom=check guess=(read
 ,tcheck) scf=(maxcycle=1)\\title\\0,1\B,0,0.00313,-0.000533,-0.006325\
 C,0,-0.957107,-1.25061,-0.005051\H,0,-1.766374,-1.134798,-0.736497\H,0
 ,-1.464409,-1.296451,0.969843\H,0,-0.470899,-2.215534,-0.170834\C,0,-0
 .606826,1.451929,0.009122\H,0,-1.668891,1.508281,0.26323\H,0,-0.498036
 ,1.858723,-1.008549\H,0,-0.047008,2.139588,0.652634\C,0,1.565816,-0.20
 1098,-0.007205\H,0,1.85149,-0.608365,0.974851\H,0,2.151885,0.708743,-0

 Normal termination of Gaussian 16 at Wed Apr  9 00:29:51 2025.
