 Gaussian 16, Revision C.01,

 ----------------------------------------------------------------------
 #t hf aug-cc-pvdz symm=none int=(grid=ultrafine) guess=(read,tcheck) s
 table=opt
 ----------------------------------------------------------------------
 -----
 title
 -----
 Symbolic Z-matrix:
 Charge =  0 Multiplicity = 2

 SCF Done:  E(UHF) =  -306.433609737     A.U. after   16 cycles
 Normal termination of Gaussian 16 at Tue Apr  8 22:49:14 2025.
 Gaussian 16:  ES64L-G16RevC.01  3-Jul-2019

 ----------------------------------------------------------------------
 #t hf aug-cc-pvdz iop(5/13=1,5/36=2,99/5=2) pseudo=read geom=check gue
 ss=(read,tcheck) scf=(maxcycle=1)
 ----------------------------------------------------------------------
 -----
 title
 -----
 Structure from the checkpoint file:  "BDE49_expt_169_mol2.chk"
 Charge =  0 Multiplicity = 2

                         Standard orientation:
 ---------------------------------------------------------------------
 Center     Atomic      Atomic             Coordinates (Angstroms)
 Number     Number       Type             X           Y           Z
 ---------------------------------------------------------------------
      1          6           0       -1.501442   -0.551170   -0.081630
      2          6           0       -0.319510   -0.605032    0.894766
      3          8           0       -1.759472    0.819119   -0.393718
      4          1           0       -2.381551   -1.017217    0.384801
      5          1           0       -1.244492   -1.120638   -0.983805
      6          1           0       -2.442740    0.848560   -1.069226
      7          6           0        0.978879   -0.142134    0.317950
      8          1           0       -0.567692   -0.000752    1.772315
      9          1           0       -0.213035   -1.644616    1.228515
     10          6           0        1.327103    1.302111    0.164032
     11          8           0        1.441794   -1.009660   -0.658743
     12          1           0        2.227773   -0.629701   -1.063879
     13          1           0        0.801356    1.762052   -0.687292
     14          1           0        2.405769    1.439094    0.011128
     15          1           0        1.045856    1.864904    1.056418
 ---------------------------------------------------------------------

 SCF Done:  E(UHF) =  -306.753051632     A.U. after    2 cycles

 The electronic state is 2-A.
 Alpha  occ. eigenvalues --  -20.56065 -20.54577 -11.28255 -11.27720 -11.22737
 Alpha  occ. eigenvalues --  -11.22626  -1.47140  -1.44320  -1.06412  -0.98450
 Alpha  occ. eigenvalues --   -0.87575  -0.78023  -0.70477  -0.67957  -0.65045
 Alpha  occ. eigenvalues --   -0.62295  -0.60636  -0.55840  -0.54472  -0.53067
 Alpha  occ. eigenvalues --   -0.51636  -0.50632  -0.48565  -0.43883  -0.30687
 Alpha virt. eigenvalues --    0.03674   0.03775   0.04437   0.04647   0.06369
 Alpha virt. eigenvalues --    0.06651   0.07057   0.07483   0.08949   0.11549
 Alpha virt. eigenvalues --    0.13598   0.13974   0.14721   0.15278   0.15425

  Beta  occ. eigenvalues --  -20.55617 -20.54593 -11.28029 -11.25132 -11.23004
  Beta  occ. eigenvalues --  -11.22874  -1.45603  -1.44296  -1.04278  -0.97526
  Beta  occ. eigenvalues --   -0.86089  -0.76452  -0.70162  -0.65740  -0.64112
  Beta  occ. eigenvalues --   -0.60748  -0.57406  -0.55022  -0.53263  -0.52175
  Beta  occ. eigenvalues --   -0.50010  -0.49340  -0.47584  -0.43707
  Beta virt. eigenvalues --    0.03688   0.03750   0.04450   0.04647   0.06308
  Beta virt. eigenvalues --    0.06660   0.07059   0.07526   0.08955   0.10926
  Beta virt. eigenvalues --    0.13576   0.13918   0.14661   0.15051   0.15342

 Mulliken charges and spin densities:
               1          2
     1  C    0.626411   0.067201
     2  C   -0.419060  -0.250292
     3  O   -1.164686  -0.001697
     4  H    0.097515  -0.000290
     5  H    0.126423  -0.006160
     6  H    0.326662  -0.000075
     7  C    1.287130   1.322068
     8  H    0.143305   0.001480
     9  H    0.199862   0.005957
    10  C   -0.590919  -0.232894
    11  O   -1.536747   0.048751
    12  H    0.374395  -0.006785
    13  H    0.274253   0.048615
    14  H    0.077303   0.006878
    15  H    0.178154  -0.002756
 Sum of Mulliken charges =  -0.00000   1.00000

 Dipole moment (field-independent basis, Debye):
    X=             -0.3048    Y=              0.2363    Z=             -0.7668  Tot=              0.8583
                          Isotropic Fermi Contact Couplings
        Atom                 a.u.       MegaHertz       Gauss      10(-4) cm-1
     1  C(13)              0.04745      53.34666      19.03542      17.79453
     2  C(13)             -0.04394     -49.39542     -17.62552     -16.47654
     3  O(17)             -0.00312       1.88949       0.67422       0.63027
     4  H(1)               0.00001       0.05402       0.01928       0.01802
     5  H(1)              -0.00144      -6.45468      -2.30319      -2.15305
     6  H(1)               0.00017       0.77057       0.27496       0.25704
     7  C(13)              0.29748     334.42569     119.33140     111.55240
     8  H(1)               0.00274      12.24071       4.36779       4.08306

 Normal termination of Gaussian 16 at Tue Apr  8 22:49:19 2025.
