 Gaussian 16, Revision C.01,

 ----------------------------------------------------------------------
 #t hf aug-cc-pvdz symm=none int=(grid=ultrafine) guess=(read,tcheck) s
 table=(opt,rrhf)
 ----------------------------------------------------------------------
 -----
 title
 -----
 Symbolic Z-matrix:
 Charge =  0 Multiplicity = 1

 SCF Done:  E(RHF) =  -584.229739369     A.U. after   12 cycles
 Normal termination of Gaussian 16 at Tue Apr  8 23:56:04 2025.
 Gaussian 16:  ES64L-G16RevC.01  3-Jul-2019

 ----------------------------------------------------------------------
 #t hf aug-cc-pvdz iop(5/13=1,5/36=2,99/5=2) pseudo=read geom=check gue
 ss=(read,tcheck) scf=(maxcycle=1)
 ----------------------------------------------------------------------
 -----
 title
 -----
 Structure from the checkpoint file:  "BDE49_nonexpt_1992_mol1.chk"
 Charge =  0 Multiplicity = 1

                         Standard orientation:
 ---------------------------------------------------------------------
 Center     Atomic      Atomic             Coordinates (Angstroms)
 Number     Number       Type             X           Y           Z
 ---------------------------------------------------------------------
      1         14           0       -0.597404    0.955649    0.000000
      2          6           0        0.155929    0.116948    1.491033
      3          9           0       -0.261868    2.542312    0.000000
      4          6           0        0.155929    0.116948   -1.491033
      5          6           0        0.155929   -1.420451    1.294555
      6          1           0       -0.367021    0.387348    2.413740
      7          1           0        1.188114    0.472526    1.602715
      8          6           0        0.848821   -1.882731   -0.000000
      9          1           0       -0.877446   -1.790635    1.293780
     10          1           0        0.642844   -1.896457    2.152257
     11          6           0        0.155929   -1.420451   -1.294555
     12          1           0        0.899362   -2.976654   -0.000000
     13          1           0        1.888011   -1.528354   -0.000000
     14          1           0        1.188114    0.472526   -1.602715
     15          1           0       -0.367021    0.387348   -2.413740
     16          1           0        0.642844   -1.896457   -2.152257
     17          1           0       -0.877446   -1.790635   -1.293780
     18          1           0       -2.075104    0.837976    0.000000
 ---------------------------------------------------------------------

 SCF Done:  E(RHF) =  -584.571482336     A.U. after    2 cycles

 The electronic state is 1-A'.
 Alpha  occ. eigenvalues --  -69.55561 -26.43403 -11.24040 -11.24038 -11.23435
 Alpha  occ. eigenvalues --  -11.21915 -11.21910  -6.22289  -3.97721  -3.97489
 Alpha  occ. eigenvalues --   -3.97476  -1.54336  -1.09688  -1.01051  -0.94400
 Alpha  occ. eigenvalues --   -0.83794  -0.79019  -0.72737  -0.65645  -0.63626
 Alpha  occ. eigenvalues --   -0.62629  -0.62171  -0.61021  -0.57403  -0.55462
 Alpha  occ. eigenvalues --   -0.55233  -0.50943  -0.49698  -0.48644  -0.47703
 Alpha  occ. eigenvalues --   -0.44180  -0.41301
 Alpha virt. eigenvalues --    0.03419   0.03602   0.03607   0.03977   0.05795
 Alpha virt. eigenvalues --    0.06110   0.06338   0.06461   0.06660   0.09049
 Alpha virt. eigenvalues --    0.09329   0.09880   0.10394   0.11612   0.13291

 Mulliken charges:
               1
     1  Si   1.855901
     2  C   -0.449628
     3  F   -0.897136
     4  C   -0.449628
     5  C   -0.399980
     6  H    0.016048
     7  H    0.136056
     8  C   -0.265005
     9  H    0.163944
    10  H    0.100806
    11  C   -0.399980
    12  H    0.114578
    13  H    0.162689
    14  H    0.136056
    15  H    0.016048
    16  H    0.100806
    17  H    0.163944
    18  H   -0.105523
 Sum of Mulliken charges =  -0.00000

 Dipole moment (field-independent basis, Debye):
    X=              0.3598    Y=             -2.1101    Z=              0.0000  Tot=              2.1405

 Test job not archived.
 1\1\GINC-SE082\SP\RHF\Aug-CC-pVDZ\C5H11F1Si1\OHZDE\08-Apr-2025\0\\#t h
 f aug-cc-pvdz iop(5/13=1,5/36=2,99/5=2) pseudo=read geom=check guess=(
 read,tcheck) scf=(maxcycle=1)\\title\\0,1\Si,0,-1.072584,0.,0.346004\C
 ,0,-0.075339,1.491033,-0.179763\F,0,-2.52931,0.,-0.36676\C,0,-0.075339
 ,-1.491033,-0.179763\C,0,1.415535,1.294555,0.195592\H,0,-0.465234,2.41
 374,0.261343\H,0,-0.168149,1.602715,-1.267526\C,0,2.032994,0.,-0.36346
 6\H,0,1.522218,1.29378,1.288075\H,0,1.996016,2.152257,-0.160371\C,0,1.
 415535,-1.294555,0.195592\H,0,3.106152,0.,-0.145397\H,0,1.943059,0.,-1

 Normal termination of Gaussian 16 at Tue Apr  8 23:56:09 2025.
