 Gaussian 16, Revision C.01,

 ----------------------------------------------------------------------
 #t hf aug-cc-pvdz symm=none int=(grid=ultrafine) guess=(read,tcheck) s
 table=(opt,rrhf)
 ----------------------------------------------------------------------
 -----
 title
 -----
 Symbolic Z-matrix:
 Charge =  0 Multiplicity = 1

 SCF Done:  E(RHF) =  -920.767367795     A.U. after   15 cycles
 Normal termination of Gaussian 16 at Wed Apr  9 00:14:23 2025.
 Gaussian 16:  ES64L-G16RevC.01  3-Jul-2019

 ----------------------------------------------------------------------
 #t hf aug-cc-pvdz iop(5/13=1,5/36=2,99/5=2) pseudo=read geom=check gue
 ss=(read,tcheck) scf=(maxcycle=1)
 ----------------------------------------------------------------------
 -----
 title
 -----
 Structure from the checkpoint file:  "BDE49_nonexpt_2462_mol1.chk"
 Charge =  0 Multiplicity = 1

                         Standard orientation:
 ---------------------------------------------------------------------
 Center     Atomic      Atomic             Coordinates (Angstroms)
 Number     Number       Type             X           Y           Z
 ---------------------------------------------------------------------
      1         14           0        2.706438   -1.104727    0.218336
      2         14           0        1.632953    0.821562   -0.621825
      3          1           0        4.079372   -1.169242   -0.337218
      4          1           0        1.960476   -2.316268   -0.193098
      5          1           0        2.779795   -1.046786    1.695640
      6          6           0       -0.126342    0.931757    0.152417
      7          1           0        1.511698    0.744273   -2.095343
      8          1           0        2.345543    2.056048   -0.230818
      9          8           0       -0.438740    1.607872    1.084960
     10          8           0       -1.025513    0.099779   -0.528452
     11          6           0       -2.179259   -0.410130    0.094114
     12          8           0       -2.233153   -0.649091    1.258418
     13          6           0       -3.249429   -0.640689   -0.934812
     14          1           0       -2.851900   -1.223404   -1.768038
     15          1           0       -3.576685    0.322039   -1.336125
     16          1           0       -4.090343   -1.156464   -0.475865
 ---------------------------------------------------------------------

 SCF Done:  E(RHF) =  -921.167413745     A.U. after    2 cycles

 The electronic state is 1-A.
 Alpha  occ. eigenvalues --  -69.55397 -69.54217 -20.61052 -20.56255 -20.55687
 Alpha  occ. eigenvalues --  -11.41111 -11.39561 -11.26602  -6.22596  -6.21412
 Alpha  occ. eigenvalues --   -3.97955  -3.97910  -3.97903  -3.96771  -3.96762
 Alpha  occ. eigenvalues --   -3.96757  -1.56958  -1.50358  -1.46354  -1.04862
 Alpha  occ. eigenvalues --   -0.91427  -0.80828  -0.75163  -0.73485  -0.70718
 Alpha  occ. eigenvalues --   -0.68695  -0.67032  -0.61697  -0.60788  -0.59552
 Alpha  occ. eigenvalues --   -0.56330  -0.53425  -0.52449  -0.50528  -0.49484
 Alpha  occ. eigenvalues --   -0.47946  -0.46882  -0.44176  -0.41151
 Alpha virt. eigenvalues --    0.03084   0.03425   0.03968   0.04995   0.05457
 Alpha virt. eigenvalues --    0.06101   0.06566   0.07328   0.07630   0.08064
 Alpha virt. eigenvalues --    0.08504   0.08880   0.09387   0.10240   0.10689

 Mulliken charges:
               1
     1  Si   0.314541
     2  Si   0.426107
     3  H   -0.135281
     4  H   -0.082895
     5  H   -0.075677
     6  C    1.255086
     7  H   -0.044024
     8  H   -0.104035
     9  O   -0.996382
    10  O   -1.239808
    11  C    1.799203
    12  O   -1.138224
    13  C   -0.650945
    14  H    0.231068
    15  H    0.254280
    16  H    0.186985
 Sum of Mulliken charges =  -0.00000

 Dipole moment (field-independent basis, Debye):
    X=              0.6206    Y=             -0.9895    Z=             -3.7205  Tot=              3.8996

 Test job not archived.
 1\1\GINC-SE072\SP\RHF\Aug-CC-pVDZ\C3H8O3Si2\OHZDE\09-Apr-2025\0\\#t hf
  aug-cc-pvdz iop(5/13=1,5/36=2,99/5=2) pseudo=read geom=check guess=(r
 ead,tcheck) scf=(maxcycle=1)\\title\\0,1\Si,0,2.706438,-1.104727,0.218
 336\Si,0,1.632953,0.821562,-0.621825\H,0,4.079372,-1.169242,-0.337218\
 H,0,1.960476,-2.316268,-0.193098\H,0,2.779795,-1.046786,1.69564\C,0,-0
 .126342,0.931757,0.152417\H,0,1.511698,0.744273,-2.095343\H,0,2.345543
 ,2.056048,-0.230818\O,0,-0.43874,1.607872,1.08496\O,0,-1.025513,0.0997
 79,-0.528452\C,0,-2.179259,-0.41013,0.094114\O,0,-2.233153,-0.649091,1

 Normal termination of Gaussian 16 at Wed Apr  9 00:14:29 2025.
