 Gaussian 16, Revision C.01,

 ----------------------------------------------------------------------
 #t hf aug-cc-pvdz symm=none int=(grid=ultrafine) guess=(read,tcheck) s
 table=(opt,rrhf)
 ----------------------------------------------------------------------
 -----
 title
 -----
 Symbolic Z-matrix:
 Charge =  0 Multiplicity = 1

 SCF Done:  E(RHF) =  -535.971647861     A.U. after   15 cycles
 Normal termination of Gaussian 16 at Wed Apr  9 00:28:33 2025.
 Gaussian 16:  ES64L-G16RevC.01  3-Jul-2019

 ----------------------------------------------------------------------
 #t hf aug-cc-pvdz iop(5/13=1,5/36=2,99/5=2) pseudo=read geom=check gue
 ss=(read,tcheck) scf=(maxcycle=1)
 ----------------------------------------------------------------------
 -----
 title
 -----
 Structure from the checkpoint file:  "BDE49_nonexpt_285_mol1.chk"
 Charge =  0 Multiplicity = 1

                         Standard orientation:
 ---------------------------------------------------------------------
 Center     Atomic      Atomic             Coordinates (Angstroms)
 Number     Number       Type             X           Y           Z
 ---------------------------------------------------------------------
      1          6           0        0.151101   -0.190410   -0.296910
      2          7           0       -0.004619    1.311137   -0.259602
      3          5           0        1.683897   -0.632396   -0.150276
      4          8           0        0.544989    1.916566    0.665391
      5          8           0       -0.677174    1.845920   -1.120525
      6          8           0        1.997325   -1.837487   -0.697506
      7          8           0        2.611898    0.092686    0.516891
      8          1           0       -0.252946   -0.485429   -1.263598
      9          6           0       -0.690818   -0.802090    0.849858
     10          6           0       -2.191666   -0.474124    0.818833
     11          1           0       -0.263888   -0.480769    1.804219
     12          1           0       -0.547489   -1.885680    0.785763
     13          6           0       -2.925546   -0.959688   -0.434736
     14          1           0       -2.335940    0.605499    0.935469
     15          1           0       -2.642532   -0.932823    1.705253
     16          1           0       -2.587592   -0.433822   -1.330661
     17          1           0       -4.000295   -0.784477   -0.343591
     18          1           0       -2.776194   -2.032645   -0.592250
     19          1           0        2.230294    0.913994    0.865171
     20          1           0        2.914687   -2.083431   -0.533461
 ---------------------------------------------------------------------

 SCF Done:  E(RHF) =  -536.510335712     A.U. after    2 cycles

 The electronic state is 1-A.
 Alpha  occ. eigenvalues --  -20.60517 -20.59451 -20.57474 -20.56727 -15.79232
 Alpha  occ. eigenvalues --  -11.29692 -11.26793 -11.24742 -11.23423  -7.66377
 Alpha  occ. eigenvalues --   -1.67623  -1.51373  -1.49607  -1.45642  -1.14805
 Alpha  occ. eigenvalues --   -1.06080  -0.96273  -0.88814  -0.82637  -0.80132
 Alpha  occ. eigenvalues --   -0.76919  -0.76136  -0.74222  -0.71947  -0.67043
 Alpha  occ. eigenvalues --   -0.64008  -0.61502  -0.59688  -0.57899  -0.57503
 Alpha  occ. eigenvalues --   -0.56615  -0.53468  -0.51010  -0.50683  -0.50145
 Alpha  occ. eigenvalues --   -0.49313  -0.49038  -0.47427  -0.45956
 Alpha virt. eigenvalues --    0.03053   0.03452   0.03791   0.04175   0.05210
 Alpha virt. eigenvalues --    0.05359   0.05588   0.06539   0.07267   0.07844
 Alpha virt. eigenvalues --    0.08860   0.09180   0.09224   0.09955   0.12318

 Mulliken charges:
               1
     1  C   -0.309441
     2  N    2.786403
     3  B    1.812175
     4  O   -1.513303
     5  O   -1.374303
     6  O   -1.310657
     7  O   -1.400514
     8  H    0.100251
     9  C   -0.328665
    10  C   -0.318904
    11  H    0.077090
    12  H    0.084952
    13  C   -0.315536
    14  H    0.181856
    15  H    0.155646
    16  H    0.179688
    17  H    0.096127
    18  H    0.150289
    19  H    0.720655
    20  H    0.526189
 Sum of Mulliken charges =  -0.00000

 Dipole moment (field-independent basis, Debye):
    X=             -0.1730    Y=             -2.8859    Z=              0.7602  Tot=              2.9893

 Test job not archived.
 1\1\GINC-SE367\SP\RHF\Aug-CC-pVDZ\C4H10B1N1O4\OHZDE\09-Apr-2025\0\\#t
 hf aug-cc-pvdz iop(5/13=1,5/36=2,99/5=2) pseudo=read geom=check guess=
 (read,tcheck) scf=(maxcycle=1)\\title\\0,1\C,0,0.151101,-0.19041,-0.29
 691\N,0,-0.004619,1.311137,-0.259602\B,0,1.683897,-0.632396,-0.150276\
 O,0,0.544989,1.916566,0.665391\O,0,-0.677174,1.84592,-1.120525\O,0,1.9
 97325,-1.837487,-0.697506\O,0,2.611898,0.092686,0.516891\H,0,-0.252946
 ,-0.485429,-1.263598\C,0,-0.690818,-0.80209,0.849858\C,0,-2.191666,-0.
 474124,0.818833\H,0,-0.263888,-0.480769,1.804219\H,0,-0.547489,-1.8856

 Normal termination of Gaussian 16 at Wed Apr  9 00:28:43 2025.
