 Gaussian 16, Revision C.01,

 ----------------------------------------------------------------------
 #t hf aug-cc-pvdz symm=none int=(grid=ultrafine) guess=(read,tcheck) s
 table=(opt,rrhf)
 ----------------------------------------------------------------------
 -----
 title
 -----
 Symbolic Z-matrix:
 Charge =  0 Multiplicity = 1

 SCF Done:  E(RHF) =  -1759.93318101     A.U. after   12 cycles
 Normal termination of Gaussian 16 at Tue Apr  8 23:46:17 2025.
 Gaussian 16:  ES64L-G16RevC.01  3-Jul-2019

 ----------------------------------------------------------------------
 #t hf aug-cc-pvdz iop(5/13=1,5/36=2,99/5=2) pseudo=read geom=check gue
 ss=(read,tcheck) scf=(maxcycle=1)
 ----------------------------------------------------------------------
 -----
 title
 -----
 Structure from the checkpoint file:  "BDE49_nonexpt_1766_mol1.chk"
 Charge =  0 Multiplicity = 1

                         Standard orientation:
 ---------------------------------------------------------------------
 Center     Atomic      Atomic             Coordinates (Angstroms)
 Number     Number       Type             X           Y           Z
 ---------------------------------------------------------------------
      1          6           0       -1.840947    0.000031    0.000490
      2         14           0       -0.007912    0.000001   -0.000045
      3          7           0       -2.996110    0.000045    0.000847
      4         17           0        0.629668   -1.672157   -0.971578
      5         17           0        0.629727    1.677394   -0.962473
      6         17           0        0.630560   -0.005267    1.933567
 ---------------------------------------------------------------------

 SCF Done:  E(RHF) =  -1760.27923522     A.U. after    2 cycles

 The electronic state is 1-A.
 Alpha  occ. eigenvalues -- -105.60959-105.60959-105.60958 -69.72272 -15.56204
 Alpha  occ. eigenvalues --  -11.29541 -10.66011 -10.65995 -10.65995  -7.82899
 Alpha  occ. eigenvalues --   -7.82892  -7.82892  -7.82544  -7.82544  -7.82541
 Alpha  occ. eigenvalues --   -7.82539  -7.82539  -7.82538  -6.37880  -4.13277
 Alpha  occ. eigenvalues --   -4.13277  -4.13214  -1.26602  -1.14711  -1.09200
 Alpha  occ. eigenvalues --   -1.09199  -0.83693  -0.69027  -0.63542  -0.62332
 Alpha  occ. eigenvalues --   -0.62331  -0.55020  -0.55020  -0.53404  -0.53403
 Alpha  occ. eigenvalues --   -0.52961  -0.50988  -0.50988  -0.49806
 Alpha virt. eigenvalues --    0.04533   0.05219   0.05219   0.05457   0.06852
 Alpha virt. eigenvalues --    0.06853   0.08293   0.11573   0.12145   0.12145
 Alpha virt. eigenvalues --    0.12892   0.12893   0.14614   0.17373   0.17373

 Mulliken charges:
               1
     1  C   -1.314363
     2  Si   1.860234
     3  N    0.807635
     4  Cl  -0.451166
     5  Cl  -0.451166
     6  Cl  -0.451174
 Sum of Mulliken charges =  -0.00000

 Dipole moment (field-independent basis, Debye):
    X=              3.0021    Y=             -0.0000    Z=             -0.0012  Tot=              3.0021

 Test job not archived.
 1\1\GINC-SE273\SP\RHF\Aug-CC-pVDZ\C1Cl3N1Si1\OHZDE\08-Apr-2025\0\\#t h
 f aug-cc-pvdz iop(5/13=1,5/36=2,99/5=2) pseudo=read geom=check guess=(
 read,tcheck) scf=(maxcycle=1)\\title\\0,1\C,0,-1.840947,-0.000036,-0.0
 00486\Si,0,-0.007912,-0.000001,0.000045\N,0,-2.99611,-0.000053,-0.0008
 41\Cl,0,0.629666,1.673686,0.968943\Cl,0,0.629733,-1.675875,0.965111\Cl
 ,0,0.630556,0.002225,-1.933574\\Version=ES64L-G16RevC.01\State=1-A\HF=
 -1760.2792352\RMSD=9.841e-03\Dipole=1.1811082,0.000018,0.0004728\Quadr
 upole=-6.8117198,3.4061155,3.4056043,-0.0001761,-0.0028609,-0.0000006\

 Normal termination of Gaussian 16 at Tue Apr  8 23:46:21 2025.
