 Gaussian 16, Revision C.01,

 ----------------------------------------------------------------------
 #t hf aug-cc-pvdz symm=none int=(grid=ultrafine) guess=(read,tcheck) s
 table=(opt,rrhf)
 ----------------------------------------------------------------------
 -----
 title
 -----
 Symbolic Z-matrix:
 Charge =  0 Multiplicity = 1

 SCF Done:  E(RHF) =  -618.011472309     A.U. after   13 cycles
 Normal termination of Gaussian 16 at Wed Apr  9 00:44:35 2025.
 Gaussian 16:  ES64L-G16RevC.01  3-Jul-2019

 ----------------------------------------------------------------------
 #t hf aug-cc-pvdz iop(5/13=1,5/36=2,99/5=2) pseudo=read geom=check gue
 ss=(read,tcheck) scf=(maxcycle=1)
 ----------------------------------------------------------------------
 -----
 title
 -----
 Structure from the checkpoint file:  "BDE49_nonexpt_715_mol1.chk"
 Charge =  0 Multiplicity = 1

                         Standard orientation:
 ---------------------------------------------------------------------
 Center     Atomic      Atomic             Coordinates (Angstroms)
 Number     Number       Type             X           Y           Z
 ---------------------------------------------------------------------
      1          6           0       -0.243549    2.127363    0.238468
      2          5           0       -0.355418    0.577680   -0.071947
      3          1           0       -1.187626    2.676420    0.270396
      4          1           0        0.389226    2.622567   -0.505632
      5          1           0        0.258574    2.289621    1.200813
      6         15           0        1.277815   -0.426101   -0.521277
      7          7           0       -1.581385   -0.113419   -0.090211
      8          6           0       -2.870762    0.466085    0.279237
      9          1           0       -2.759558    1.494550    0.610660
     10          1           0       -3.328563   -0.107764    1.094285
     11          1           0       -3.564462    0.445260   -0.570554
     12          6           0       -1.725532   -1.517608   -0.467285
     13          1           0       -2.533056   -1.628345   -1.200482
     14          1           0       -0.808121   -1.890775   -0.920486
     15          1           0       -1.975985   -2.141459    0.399916
     16          6           0        1.494674   -1.476463    1.014302
     17          1           0        1.456614   -0.892552    1.938216
     18          1           0        2.462218   -1.982174    0.962690
     19          1           0        0.721452   -2.245673    1.057377
     20          6           0        2.637608    0.813222   -0.226172
     21          1           0        3.599291    0.300466   -0.307803
     22          1           0        2.610759    1.581486   -1.001884
     23          1           0        2.584163    1.299833    0.751556
 ---------------------------------------------------------------------

 SCF Done:  E(RHF) =  -618.363635029     A.U. after    2 cycles

 The electronic state is 1-A.
 Alpha  occ. eigenvalues --  -84.23086 -15.49582 -11.26152 -11.25912 -11.22735
 Alpha  occ. eigenvalues --  -11.22245 -11.20015  -7.58173  -6.70320  -4.22976
 Alpha  occ. eigenvalues --   -4.22819  -4.22270  -1.21362  -0.99763  -0.96993
 Alpha  occ. eigenvalues --   -0.94463  -0.92464  -0.89185  -0.75445  -0.69841
 Alpha  occ. eigenvalues --   -0.64407  -0.63962  -0.59726  -0.57918  -0.56668
 Alpha  occ. eigenvalues --   -0.55731  -0.55433  -0.55002  -0.54012  -0.53903
 Alpha  occ. eigenvalues --   -0.52238  -0.50492  -0.43997  -0.41121  -0.39999
 Alpha  occ. eigenvalues --   -0.28623
 Alpha virt. eigenvalues --    0.03411   0.03821   0.04007   0.04349   0.05191
 Alpha virt. eigenvalues --    0.05281   0.05497   0.06030   0.06518   0.08011
 Alpha virt. eigenvalues --    0.08214   0.08813   0.09035   0.09585   0.09880

 Mulliken charges:
               1
     1  C   -0.488724
     2  B    1.130069
     3  H   -0.171017
     4  H    0.151370
     5  H    0.172899
     6  P    0.438109
     7  N    0.355059
     8  C   -0.528419
     9  H   -0.108545
    10  H    0.218507
    11  H    0.179384
    12  C   -0.484717
    13  H    0.114150
    14  H    0.086201
    15  H    0.163215
    16  C   -0.660968
    17  H    0.130679
    18  H    0.080553
    19  H   -0.039067
    20  C   -0.834842
    21  H   -0.048310
    22  H    0.060946
    23  H    0.083467
 Sum of Mulliken charges =  -0.00000

 Dipole moment (field-independent basis, Debye):
    X=             -1.3079    Y=              0.1649    Z=              0.9810  Tot=              1.6432

 Test job not archived.
 1\1\GINC-SE127\SP\RHF\Aug-CC-pVDZ\C5H15B1N1P1\OHZDE\09-Apr-2025\0\\#t
 hf aug-cc-pvdz iop(5/13=1,5/36=2,99/5=2) pseudo=read geom=check guess=
 (read,tcheck) scf=(maxcycle=1)\\title\\0,1\C,0,-0.243549,2.127363,0.23
 8468\B,0,-0.355418,0.57768,-0.071947\H,0,-1.187626,2.67642,0.270396\H,
 0,0.389226,2.622567,-0.505632\H,0,0.258574,2.289621,1.200813\P,0,1.277
 815,-0.426101,-0.521277\N,0,-1.581385,-0.113419,-0.090211\C,0,-2.87076
 2,0.466085,0.279237\H,0,-2.759558,1.49455,0.61066\H,0,-3.328563,-0.107
 764,1.094285\H,0,-3.564462,0.44526,-0.570554\C,0,-1.725532,-1.517608,-

 Normal termination of Gaussian 16 at Wed Apr  9 00:44:48 2025.
