 Gaussian 16, Revision C.01,

 ----------------------------------------------------------------------
 #t hf aug-cc-pvdz symm=none int=(grid=ultrafine) guess=(read,tcheck) s
 table=(opt,rrhf)
 ----------------------------------------------------------------------
 -----
 title
 -----
 Symbolic Z-matrix:
 Charge =  0 Multiplicity = 1

 SCF Done:  E(RHF) =  -541.187462580     A.U. after   14 cycles
 Normal termination of Gaussian 16 at Tue Apr  8 23:04:39 2025.
 Gaussian 16:  ES64L-G16RevC.01  3-Jul-2019

 ----------------------------------------------------------------------
 #t hf aug-cc-pvdz iop(5/13=1,5/36=2,99/5=2) pseudo=read geom=check gue
 ss=(read,tcheck) scf=(maxcycle=1)
 ----------------------------------------------------------------------
 -----
 title
 -----
 Structure from the checkpoint file:  "BDE49_expt_1860_mol1.chk"
 Charge =  0 Multiplicity = 1

                         Standard orientation:
 ---------------------------------------------------------------------
 Center     Atomic      Atomic             Coordinates (Angstroms)
 Number     Number       Type             X           Y           Z
 ---------------------------------------------------------------------
      1          8           0       -0.097898    0.535877    0.585984
      2          8           0       -0.813321   -0.277012   -0.408529
      3          6           0       -2.185287   -0.412703    0.027040
      4          6           0       -2.240480   -1.117898    1.386841
      5          1           0       -3.278535   -1.287108    1.686034
      6          1           0       -1.753003   -0.514740    2.153206
      7          1           0       -1.732996   -2.083896    1.332776
      8          6           0       -2.874891    0.954706    0.070718
      9          1           0       -3.929890    0.840046    0.334220
     10          1           0       -2.813833    1.443085   -0.904721
     11          1           0       -2.401604    1.598995    0.811907
     12          6           0       -2.777354   -1.295871   -1.076120
     13          1           0       -2.704991   -0.801553   -2.047363
     14          1           0       -3.830874   -1.494822   -0.865590
     15          1           0       -2.247431   -2.249107   -1.130697
     16          6           0        1.068346    1.102173   -0.054716
     17          6           0        0.650608    2.050939   -1.183696
     18          1           0        0.128063    1.505269   -1.969699
     19          1           0        1.529926    2.531513   -1.621286
     20          1           0       -0.012824    2.829738   -0.800108
     21          6           0        1.708110    1.884951    1.097967
     22          1           0        1.040664    2.682020    1.432435
     23          1           0        2.645074    2.336360    0.762454
     24          1           0        1.919008    1.235859    1.948640
     25          6           0        1.988961   -0.011828   -0.596712
     26          6           0        2.398756   -1.091035    0.410885
     27          1           0        2.883891    0.467166   -1.012851
     28          1           0        1.474865   -0.489607   -1.435785
     29          6           0        3.204459   -2.219262   -0.241017
     30          1           0        1.497237   -1.500614    0.874226
     31          1           0        2.991665   -0.649193    1.218811
     32          1           0        2.625286   -2.714674   -1.026449
     33          1           0        3.488291   -2.979898    0.491616
     34          1           0        4.124390   -1.840783   -0.698559
 ---------------------------------------------------------------------

 SCF Done:  E(RHF) =  -541.768483323     A.U. after    2 cycles

 The electronic state is 1-A.
 Alpha  occ. eigenvalues --  -20.58910 -20.58865 -11.29272 -11.29050 -11.22494
 Alpha  occ. eigenvalues --  -11.22336 -11.21912 -11.21870 -11.21791 -11.21785
 Alpha  occ. eigenvalues --  -11.21769 -11.21685  -1.55353  -1.29938  -1.07915
 Alpha  occ. eigenvalues --   -1.05941  -1.02145  -0.94182  -0.93842  -0.93620
 Alpha  occ. eigenvalues --   -0.92228  -0.81275  -0.76583  -0.75240  -0.66370
 Alpha  occ. eigenvalues --   -0.66131  -0.65185  -0.62640  -0.62243  -0.60063
 Alpha  occ. eigenvalues --   -0.59520  -0.57086  -0.56469  -0.55739  -0.54812
 Alpha  occ. eigenvalues --   -0.54278  -0.52754  -0.52474  -0.52157  -0.51891
 Alpha  occ. eigenvalues --   -0.51771  -0.50057  -0.49521  -0.48233  -0.47428
 Alpha  occ. eigenvalues --   -0.46647  -0.45135  -0.43763  -0.39603
 Alpha virt. eigenvalues --    0.03321   0.03374   0.03565   0.03994   0.04717
 Alpha virt. eigenvalues --    0.05052   0.05233   0.05687   0.05843   0.07272
 Alpha virt. eigenvalues --    0.07424   0.07639   0.08059   0.08213   0.08896

 Mulliken charges:
               1
     1  O   -0.963056
     2  O   -0.875953
     3  C   -1.208807
     4  C    0.125170
     5  H    0.158516
     6  H    0.224258
     7  H    0.227643
     8  C    0.050083
     9  H    0.161397
    10  H    0.236572
    11  H    0.248580
    12  C    0.046393
    13  H    0.194366
    14  H    0.236476
    15  H    0.187498
    16  C   -0.793798
    17  C   -0.021353
    18  H    0.259880
    19  H    0.218324
    20  H    0.245946
    21  C   -0.023506
    22  H    0.209103
    23  H    0.254484
    24  H    0.206847
    25  C   -0.074059
    26  C   -0.071681
    27  H    0.098556
    28  H    0.188852
    29  C   -0.464282
    30  H    0.145922
    31  H    0.110197
    32  H    0.164216
    33  H    0.121966
    34  H    0.175252
 Sum of Mulliken charges =  -0.00000

 Dipole moment (field-independent basis, Debye):
    X=             -0.3462    Y=              0.4299    Z=             -0.1290  Tot=              0.5669

 Test job not archived.
 1\1\GINC-SE102\SP\RHF\Aug-CC-pVDZ\C10H22O2\OHZDE\08-Apr-2025\0\\#t hf
 aug-cc-pvdz iop(5/13=1,5/36=2,99/5=2) pseudo=read geom=check guess=(re
 ad,tcheck) scf=(maxcycle=1)\\title\\0,1\O,0,-0.097898,0.535877,0.58598
 4\O,0,-0.813321,-0.277012,-0.408529\C,0,-2.185287,-0.412703,0.02704\C,
 0,-2.24048,-1.117898,1.386841\H,0,-3.278535,-1.287108,1.686034\H,0,-1.
 753003,-0.51474,2.153206\H,0,-1.732996,-2.083896,1.332776\C,0,-2.87489
 1,0.954706,0.070718\H,0,-3.92989,0.840046,0.33422\H,0,-2.813833,1.4430
 85,-0.904721\H,0,-2.401604,1.598995,0.811907\C,0,-2.777354,-1.295871,-

 Normal termination of Gaussian 16 at Tue Apr  8 23:05:17 2025.
