 Gaussian 16, Revision C.01,

 ----------------------------------------------------------------------
 #t hf aug-cc-pvdz symm=none int=(grid=ultrafine) guess=(read,tcheck) s
 table=opt
 ----------------------------------------------------------------------
 -----
 title
 -----
 Symbolic Z-matrix:
 Charge =  0 Multiplicity = 2

 SCF Done:  E(UHF) =  -824.508543670     A.U. after   17 cycles
 Normal termination of Gaussian 16 at Tue Apr  8 23:16:49 2025.
 Gaussian 16:  ES64L-G16RevC.01  3-Jul-2019

 ----------------------------------------------------------------------
 #t hf aug-cc-pvdz iop(5/13=1,5/36=2,99/5=2) pseudo=read geom=check gue
 ss=(read,tcheck) scf=(maxcycle=1)
 ----------------------------------------------------------------------
 -----
 title
 -----
 Structure from the checkpoint file:  "BDE49_nonexpt_1026_mol2.chk"
 Charge =  0 Multiplicity = 2

                         Standard orientation:
 ---------------------------------------------------------------------
 Center     Atomic      Atomic             Coordinates (Angstroms)
 Number     Number       Type             X           Y           Z
 ---------------------------------------------------------------------
      1          8           0        1.721584   -0.726961   -0.000037
      2         14           0        0.581780    0.460459    0.000003
      3         17           0       -1.384199   -0.181771    0.000011
      4          1           0        0.806917    1.229631    1.241050
      5          1           0        0.806886    1.229738   -1.240981
 ---------------------------------------------------------------------

 SCF Done:  E(UHF) =  -824.685986857     A.U. after    2 cycles

 The electronic state is 2-A.
 Alpha  occ. eigenvalues -- -105.57273 -69.62246 -20.63510 -10.62330  -7.79200
 Alpha  occ. eigenvalues --   -7.78894  -7.78887  -6.28653  -4.04140  -4.04009
 Alpha  occ. eigenvalues --   -4.03891  -1.48434  -1.06900  -0.76042  -0.68634
 Alpha  occ. eigenvalues --   -0.61388  -0.60551  -0.54607  -0.52337  -0.48948
 Alpha  occ. eigenvalues --   -0.47127
 Alpha virt. eigenvalues --    0.04286   0.05088   0.05419   0.05654   0.08763
 Alpha virt. eigenvalues --    0.10923   0.13631   0.14142   0.15823   0.15931
 Alpha virt. eigenvalues --    0.16799   0.20501   0.20575   0.23836   0.24143

  Beta  occ. eigenvalues -- -105.57285 -69.62315 -20.59693 -10.62343  -7.79230
  Beta  occ. eigenvalues --   -7.78911  -7.78901  -6.28757  -4.04273  -4.04084
  Beta  occ. eigenvalues --   -4.04011  -1.33022  -1.06905  -0.74569  -0.58468
  Beta  occ. eigenvalues --   -0.57963  -0.56116  -0.49771  -0.48621  -0.47275
  Beta virt. eigenvalues --    0.02508   0.04304   0.05131   0.05472   0.05943
  Beta virt. eigenvalues --    0.09407   0.10980   0.13713   0.14222   0.15821
  Beta virt. eigenvalues --    0.16546   0.16858   0.21003   0.21081   0.24445

 Mulliken charges and spin densities:
               1          2
     1  O   -0.885404   1.039086
     2  Si   1.810747  -0.112828
     3  Cl  -0.510069  -0.006745
     4  H   -0.207638   0.040246
     5  H   -0.207635   0.040242
 Sum of Mulliken charges =  -0.00000   1.00000

 Dipole moment (field-independent basis, Debye):
    X=              0.3844    Y=              1.4466    Z=             -0.0000  Tot=              1.4968
                          Isotropic Fermi Contact Couplings
        Atom                 a.u.       MegaHertz       Gauss      10(-4) cm-1
     1  O(17)              0.20716    -125.57810     -44.80939     -41.88834
     2  Si(29)            -0.08572      76.17988      27.18287      25.41087
     3  Cl(35)            -0.00920      -4.03307      -1.43910      -1.34529
     4  H(1)               0.01202      53.72188      19.16930      17.91969
     5  H(1)               0.01202      53.71645      19.16737      17.91788
 --------------------------------------------------------
       Center         ----  Spin Dipole Couplings  ----
                      3XX-RR        3YY-RR        3ZZ-RR

 Normal termination of Gaussian 16 at Tue Apr  8 23:16:50 2025.
