 Gaussian 16, Revision C.01,

 ----------------------------------------------------------------------
 #t hf aug-cc-pvdz symm=none int=(grid=ultrafine) guess=(read,tcheck) s
 table=(opt,rrhf)
 ----------------------------------------------------------------------
 -----
 title
 -----
 Symbolic Z-matrix:
 Charge =  0 Multiplicity = 1

 SCF Done:  E(RHF) =  -1045.73682243     A.U. after   17 cycles
 Normal termination of Gaussian 16 at Tue Apr  8 23:28:09 2025.
 Gaussian 16:  ES64L-G16RevC.01  3-Jul-2019

 ----------------------------------------------------------------------
 #t hf aug-cc-pvdz iop(5/13=1,5/36=2,99/5=2) pseudo=read geom=check gue
 ss=(read,tcheck) scf=(maxcycle=1)
 ----------------------------------------------------------------------
 -----
 title
 -----
 Structure from the checkpoint file:  "BDE49_nonexpt_1201_mol1.chk"
 Charge =  0 Multiplicity = 1

                         Standard orientation:
 ---------------------------------------------------------------------
 Center     Atomic      Atomic             Coordinates (Angstroms)
 Number     Number       Type             X           Y           Z
 ---------------------------------------------------------------------
      1          6           0        0.537911    0.161389   -0.259182
      2          8           0       -0.177055    1.129804   -0.234783
      3         16           0       -0.139453   -1.488888   -0.599978
      4          8           0       -1.766281   -1.068820   -0.752621
      5          6           0       -2.506246   -0.849104    0.407691
      6          8           0       -2.064296   -0.983433    1.507935
      7          6           0        2.014450    0.189547   -0.072950
      8          6           0        2.672124    1.412382   -0.254994
      9          6           0        4.050359    1.489794   -0.101322
     10          6           0        4.779832    0.351801    0.244674
     11          6           0        4.128012   -0.864251    0.440914
     12          6           0        2.748059   -0.947445    0.285286
     13          1           0        2.243922   -1.888788    0.473086
     14          1           0        2.086344    2.284430   -0.517648
     15          1           0        4.557680    2.436214   -0.248335
     16          1           0        5.855070    0.414536    0.367894
     17          1           0        4.692092   -1.744515    0.725766
     18          6           0       -3.900287   -0.413979    0.022477
     19          6           0       -3.946086    1.034351   -0.511414
     20          1           0       -4.518923   -0.513537    0.916632
     21          1           0       -4.275954   -1.097467   -0.743364
     22          6           0       -3.539641    2.085950    0.523723
     23          1           0       -4.968660    1.223746   -0.853397
     24          1           0       -3.299220    1.105995   -1.389459
     25          1           0       -4.165644    2.023596    1.419279
     26          1           0       -3.647516    3.091868    0.109668
     27          1           0       -2.497800    1.963116    0.825870
 ---------------------------------------------------------------------

 SCF Done:  E(RHF) =  -1046.44639429     A.U. after    2 cycles

 The electronic state is 1-A.
 Alpha  occ. eigenvalues --  -94.02573 -20.61348 -20.55773 -20.54480 -11.39552
 Alpha  occ. eigenvalues --  -11.38628 -11.27507 -11.27397 -11.27078 -11.26895
 Alpha  occ. eigenvalues --  -11.26416 -11.26279 -11.25238 -11.23888 -11.21698
 Alpha  occ. eigenvalues --   -8.30084  -6.27909  -6.27660  -6.27424  -1.54426
 Alpha  occ. eigenvalues --   -1.49839  -1.46146  -1.18386  -1.09551  -1.07179
 Alpha  occ. eigenvalues --   -1.04324  -1.02532  -0.96201  -0.89475  -0.86179
 Alpha  occ. eigenvalues --   -0.83755  -0.80350  -0.76643  -0.72919  -0.69811
 Alpha  occ. eigenvalues --   -0.69189  -0.67872  -0.66860  -0.65560  -0.63843
 Alpha  occ. eigenvalues --   -0.62466  -0.62317  -0.61303  -0.58378  -0.57352
 Alpha  occ. eigenvalues --   -0.56728  -0.54860  -0.53463  -0.52654  -0.52349
 Alpha  occ. eigenvalues --   -0.50474  -0.49631  -0.49106  -0.47862  -0.44130
 Alpha  occ. eigenvalues --   -0.41753  -0.39530  -0.36906  -0.36764
 Alpha virt. eigenvalues --    0.02842   0.03454   0.03834   0.04173   0.04569
 Alpha virt. eigenvalues --    0.04756   0.05239   0.05986   0.06495   0.07123
 Alpha virt. eigenvalues --    0.07619   0.07865   0.08444   0.08747   0.09738

 Mulliken charges:
               1
     1  C   -0.331488
     2  O   -1.535046
     3  S    0.936805
     4  O   -1.510078
     5  C    2.389488
     6  O   -1.345746
     7  C    2.559673
     8  C   -0.385109
     9  C    0.448030
    10  C   -0.026769
    11  C   -0.006022
    12  C    0.210534
    13  H   -0.174906
    14  H   -0.335304
    15  H   -0.212256
    16  H   -0.209028
    17  H   -0.233240
    18  C   -0.631271
    19  C   -0.389012
    20  H    0.186734
    21  H    0.214600
    22  C   -0.360145
    23  H    0.128455
    24  H    0.169189
    25  H    0.169362
    26  H    0.123045
    27  H    0.149503
 Sum of Mulliken charges =  -0.00000

 Dipole moment (field-independent basis, Debye):
    X=              2.0901    Y=              0.0363    Z=             -1.1640  Tot=              2.3926

 Test job not archived.
 1\1\GINC-SE402\SP\RHF\Aug-CC-pVDZ\C11H12O3S1\OHZDE\08-Apr-2025\0\\#t h
 f aug-cc-pvdz iop(5/13=1,5/36=2,99/5=2) pseudo=read geom=check guess=(
 read,tcheck) scf=(maxcycle=1)\\title\\0,1\C,0,0.537911,0.161389,-0.259
 182\O,0,-0.177055,1.129804,-0.234783\S,0,-0.139453,-1.488888,-0.599978
 \O,0,-1.766281,-1.06882,-0.752621\C,0,-2.506246,-0.849104,0.407691\O,0
 ,-2.064296,-0.983433,1.507935\C,0,2.01445,0.189547,-0.07295\C,0,2.6721
 24,1.412382,-0.254994\C,0,4.050359,1.489794,-0.101322\C,0,4.779832,0.3
 51801,0.244674\C,0,4.128012,-0.864251,0.440914\C,0,2.748059,-0.947445,

 Normal termination of Gaussian 16 at Tue Apr  8 23:28:36 2025.
