 Gaussian 16, Revision C.01,

 ----------------------------------------------------------------------
 #t hf aug-cc-pvdz symm=none int=(grid=ultrafine) guess=(read,tcheck) s
 table=(opt,rrhf)
 ----------------------------------------------------------------------
 -----
 title
 -----
 Symbolic Z-matrix:
 Charge =  0 Multiplicity = 1

 SCF Done:  E(RHF) =  -1116.51323573     A.U. after   14 cycles
 Normal termination of Gaussian 16 at Tue Apr  8 23:44:27 2025.
 Gaussian 16:  ES64L-G16RevC.01  3-Jul-2019

 ----------------------------------------------------------------------
 #t hf aug-cc-pvdz iop(5/13=1,5/36=2,99/5=2) pseudo=read geom=check gue
 ss=(read,tcheck) scf=(maxcycle=1)
 ----------------------------------------------------------------------
 -----
 title
 -----
 Structure from the checkpoint file:  "BDE49_nonexpt_1719_mol1.chk"
 Charge =  0 Multiplicity = 1

                         Standard orientation:
 ---------------------------------------------------------------------
 Center     Atomic      Atomic             Coordinates (Angstroms)
 Number     Number       Type             X           Y           Z
 ---------------------------------------------------------------------
      1          6           0       -3.172026   -0.316479    0.170287
      2          6           0       -1.770646    0.200931   -0.032466
      3          1           0       -3.882177    0.431872   -0.181238
      4          1           0       -3.328895   -0.477161    1.241288
      5          1           0       -3.330736   -1.267720   -0.339277
      6         16           0       -0.536092   -1.110829   -0.145272
      7          8           0       -1.515943    1.385169   -0.106644
      8         15           0        1.324584   -0.010444   -0.056241
      9          8           0        2.398421   -0.868372   -0.544599
     10          8           0        1.031431    1.338561   -0.797134
     11          1           0        0.120276    1.666555   -0.590534
     12          8           0        1.448583    0.454768    1.472530
     13          1           0        1.886346   -0.211338    2.017571
 ---------------------------------------------------------------------

 SCF Done:  E(RHF) =  -1116.99148035     A.U. after    2 cycles

 The electronic state is 1-A.
 Alpha  occ. eigenvalues --  -93.99295 -84.46269 -20.60858 -20.59472 -20.59216
 Alpha  occ. eigenvalues --  -20.52078 -11.41996 -11.28425  -8.27664  -6.91345
 Alpha  occ. eigenvalues --   -6.25432  -6.25262  -6.25070  -4.45508  -4.44770
 Alpha  occ. eigenvalues --   -4.43579  -1.55254  -1.53154  -1.48362  -1.40611
 Alpha  occ. eigenvalues --   -1.10636  -1.02785  -0.85796  -0.80770  -0.75386
 Alpha  occ. eigenvalues --   -0.70389  -0.68454  -0.66434  -0.65421  -0.64247
 Alpha  occ. eigenvalues --   -0.60246  -0.58411  -0.57950  -0.56300  -0.54293
 Alpha  occ. eigenvalues --   -0.50511  -0.47792  -0.45470  -0.44936  -0.42100
 Alpha virt. eigenvalues --    0.02643   0.03767   0.04672   0.04874   0.06759
 Alpha virt. eigenvalues --    0.08297   0.08685   0.08988   0.10324   0.11078
 Alpha virt. eigenvalues --    0.11732   0.12270   0.13022   0.13929   0.14473

 Mulliken charges:
               1
     1  C   -0.509841
     2  C    0.764780
     3  H    0.172315
     4  H    0.305048
     5  H    0.222592
     6  S   -0.268737
     7  O   -1.299913
     8  P    3.627178
     9  O   -1.381151
    10  O   -1.426393
    11  H    0.646312
    12  O   -1.214599
    13  H    0.362409
 Sum of Mulliken charges =  -0.00000

 Dipole moment (field-independent basis, Debye):
    X=             -4.6608    Y=             -0.5887    Z=              2.6080  Tot=              5.3732

 Test job not archived.
 1\1\GINC-SE116\SP\RHF\Aug-CC-pVDZ\C2H5O4P1S1\OHZDE\08-Apr-2025\0\\#t h
 f aug-cc-pvdz iop(5/13=1,5/36=2,99/5=2) pseudo=read geom=check guess=(
 read,tcheck) scf=(maxcycle=1)\\title\\0,1\C,0,-3.172026,-0.316479,0.17
 0287\C,0,-1.770646,0.200931,-0.032466\H,0,-3.882177,0.431872,-0.181238
 \H,0,-3.328895,-0.477161,1.241288\H,0,-3.330736,-1.26772,-0.339277\S,0
 ,-0.536092,-1.110829,-0.145272\O,0,-1.515943,1.385169,-0.106644\P,0,1.
 324584,-0.010444,-0.056241\O,0,2.398421,-0.868372,-0.544599\O,0,1.0314
 31,1.338561,-0.797134\H,0,0.120276,1.666555,-0.590534\O,0,1.448583,0.4

 Normal termination of Gaussian 16 at Tue Apr  8 23:44:36 2025.
