 Gaussian 16, Revision C.01,

 ----------------------------------------------------------------------
 #t hf aug-cc-pvdz symm=none int=(grid=ultrafine) guess=(read,tcheck) s
 table=(opt,rrhf)
 ----------------------------------------------------------------------
 -----
 title
 -----
 Symbolic Z-matrix:
 Charge =  0 Multiplicity = 1

 SCF Done:  E(RHF) =  -993.727026067     A.U. after   13 cycles
 Normal termination of Gaussian 16 at Tue Apr  8 22:57:35 2025.
 Gaussian 16:  ES64L-G16RevC.01  3-Jul-2019

 ----------------------------------------------------------------------
 #t hf aug-cc-pvdz iop(5/13=1,5/36=2,99/5=2) pseudo=read geom=check gue
 ss=(read,tcheck) scf=(maxcycle=1)
 ----------------------------------------------------------------------
 -----
 title
 -----
 Structure from the checkpoint file:  "BDE49_expt_1922_mol1.chk"
 Charge =  0 Multiplicity = 1

                         Standard orientation:
 ---------------------------------------------------------------------
 Center     Atomic      Atomic             Coordinates (Angstroms)
 Number     Number       Type             X           Y           Z
 ---------------------------------------------------------------------
      1          8           0        0.000000   -0.000000    0.782964
      2         17           0        0.000000    1.443627   -0.184227
      3         17           0       -0.000000   -1.443627   -0.184227
 ---------------------------------------------------------------------

 SCF Done:  E(RHF) =  -993.943675317     A.U. after    2 cycles

 The electronic state is 1-A1.
 Alpha  occ. eigenvalues -- -105.64956-105.64956 -20.70233 -10.69223 -10.69124
 Alpha  occ. eigenvalues --   -7.86171  -7.86128  -7.85580  -7.85578  -7.85548
 Alpha  occ. eigenvalues --   -7.85548  -1.50288  -1.08976  -1.00233  -0.66422
 Alpha  occ. eigenvalues --   -0.66280  -0.64469  -0.51563  -0.49749  -0.49295
 Alpha  occ. eigenvalues --   -0.45576
 Alpha virt. eigenvalues --    0.01194   0.06931   0.11804   0.12581   0.12922
 Alpha virt. eigenvalues --    0.13181   0.15746   0.16446   0.16517   0.24041
 Alpha virt. eigenvalues --    0.24849   0.25872   0.31823   0.37458   0.38704

 Mulliken charges:
               1
     1  O   -0.830317
     2  Cl   0.415159
     3  Cl   0.415159
 Sum of Mulliken charges =  -0.00000

 Dipole moment (field-independent basis, Debye):
    X=             -0.0000    Y=              0.0000    Z=             -0.5072  Tot=              0.5072

 Test job not archived.
 1\1\GINC-SE331\SP\RHF\Aug-CC-pVDZ\Cl2O1\OHZDE\08-Apr-2025\0\\#t hf aug
 -cc-pvdz iop(5/13=1,5/36=2,99/5=2) pseudo=read geom=check guess=(read,
 tcheck) scf=(maxcycle=1)\\title\\0,1\O,0,0.,0.,0.782964\Cl,0,0.,1.4436
 27,-0.184227\Cl,0,0.,-1.443627,-0.184227\\Version=ES64L-G16RevC.01\Sta
 te=1-A1\HF=-993.9436753\RMSD=3.247e-03\Dipole=0.,0.,-0.1995316\Quadrup
 ole=-1.2058293,1.8301865,-0.6243572,0.,0.,0.\PG=C02V [C2(O1),SGV(Cl2)]
 \\@

 Normal termination of Gaussian 16 at Tue Apr  8 22:57:37 2025.
