 Gaussian 16, Revision C.01,

 ----------------------------------------------------------------------
 #t hf aug-cc-pvdz symm=none int=(grid=ultrafine) guess=(read,tcheck) s
 table=opt
 ----------------------------------------------------------------------
 -----
 title
 -----
 Symbolic Z-matrix:
 Charge =  0 Multiplicity = 2

 SCF Done:  E(UHF) =  -587.429722399     A.U. after   13 cycles
 Normal termination of Gaussian 16 at Tue Apr  8 22:45:28 2025.
 Gaussian 16:  ES64L-G16RevC.01  3-Jul-2019

 ----------------------------------------------------------------------
 #t hf aug-cc-pvdz iop(5/13=1,5/36=2,99/5=2) pseudo=read geom=check gue
 ss=(read,tcheck) scf=(maxcycle=1)
 ----------------------------------------------------------------------
 -----
 title
 -----
 Structure from the checkpoint file:  "BDE49_expt_1540_mol2.chk"
 Charge =  0 Multiplicity = 2

                         Standard orientation:
 ---------------------------------------------------------------------
 Center     Atomic      Atomic             Coordinates (Angstroms)
 Number     Number       Type             X           Y           Z
 ---------------------------------------------------------------------
      1         14           0       -0.000009   -0.000057    0.378584
      2          9           0       -1.328940   -0.662749   -0.196301
      3          9           0        1.238524   -0.819354   -0.196303
      4          9           0        0.090431    1.482191   -0.196305
 ---------------------------------------------------------------------

 SCF Done:  E(UHF) =  -587.724757525     A.U. after    2 cycles

 The electronic state is 2-A.
 Alpha  occ. eigenvalues --  -69.70363 -26.49494 -26.49494 -26.49492  -6.36213
 Alpha  occ. eigenvalues --   -4.11563  -4.11094  -4.11094  -1.63335  -1.60083
 Alpha  occ. eigenvalues --   -1.60081  -0.83592  -0.74457  -0.74455  -0.71781
 Alpha  occ. eigenvalues --   -0.68282  -0.68281  -0.65210  -0.65209  -0.63502
 Alpha  occ. eigenvalues --   -0.43410
 Alpha virt. eigenvalues --    0.05408   0.05409   0.05410   0.07626   0.16391
 Alpha virt. eigenvalues --    0.16393   0.20206   0.20206   0.23203   0.26437
 Alpha virt. eigenvalues --    0.26437   0.26881   0.30155   0.31106   0.32871

  Beta  occ. eigenvalues --  -69.69681 -26.49104 -26.49104 -26.49102  -6.35014
  Beta  occ. eigenvalues --   -4.10649  -4.10649  -4.09693  -1.62207  -1.58958
  Beta  occ. eigenvalues --   -1.58957  -0.81066  -0.73003  -0.73002  -0.69257
  Beta  occ. eigenvalues --   -0.66955  -0.66954  -0.64704  -0.64702  -0.63252
  Beta virt. eigenvalues --   -0.00189   0.05771   0.05771   0.06233   0.10134
  Beta virt. eigenvalues --    0.19256   0.19256   0.21863   0.21864   0.24670
  Beta virt. eigenvalues --    0.26512   0.26512   0.27257   0.31076   0.31645

 Mulliken charges and spin densities:
               1          2
     1  Si   2.292751   1.015165
     2  F   -0.764234  -0.005062
     3  F   -0.764241  -0.005060
     4  F   -0.764276  -0.005043
 Sum of Mulliken charges =   0.00000   1.00000

 Dipole moment (field-independent basis, Debye):
    X=             -0.0001    Y=             -0.0005    Z=              1.3943  Tot=              1.3943
                          Isotropic Fermi Contact Couplings
        Atom                 a.u.       MegaHertz       Gauss      10(-4) cm-1
     1  Si(29)             1.35654   -1205.59311    -430.18560    -402.14258
     2  F(19)              0.08485     356.99818     127.38583     119.08178
     3  F(19)              0.08485     356.98817     127.38226     119.07844
     4  F(19)              0.08483     356.91339     127.35557     119.05349
 --------------------------------------------------------
       Center         ----  Spin Dipole Couplings  ----
                      3XX-RR        3YY-RR        3ZZ-RR
 --------------------------------------------------------

 Normal termination of Gaussian 16 at Tue Apr  8 22:45:30 2025.
