 Gaussian 16, Revision C.01,

 ----------------------------------------------------------------------
 #t hf aug-cc-pvdz symm=none int=(grid=ultrafine) guess=(read,tcheck) s
 table=opt
 ----------------------------------------------------------------------
 -----
 title
 -----
 Symbolic Z-matrix:
 Charge =  0 Multiplicity = 2

 SCF Done:  E(UHF) =  -100.699916209     A.U. after   14 cycles
 Normal termination of Gaussian 16 at Tue Apr  8 23:59:20 2025.
 Gaussian 16:  ES64L-G16RevC.01  3-Jul-2019

 ----------------------------------------------------------------------
 #t hf aug-cc-pvdz iop(5/13=1,5/36=2,99/5=2) pseudo=read geom=check gue
 ss=(read,tcheck) scf=(maxcycle=1)
 ----------------------------------------------------------------------
 -----
 title
 -----
 Structure from the checkpoint file:  "BDE49_nonexpt_20_mol2.chk"
 Charge =  0 Multiplicity = 2

                         Standard orientation:
 ---------------------------------------------------------------------
 Center     Atomic      Atomic             Coordinates (Angstroms)
 Number     Number       Type             X           Y           Z
 ---------------------------------------------------------------------
      1          5           0        0.767248   -0.186605   -0.000001
      2          8           0       -0.558816   -0.077088    0.000000
      3          1           0       -0.914833    0.823671    0.000001
      4          1           0        1.549122    0.726062   -0.000001
 ---------------------------------------------------------------------

 SCF Done:  E(UHF) =  -100.796279089     A.U. after    2 cycles

 The electronic state is 2-A.
 Alpha  occ. eigenvalues --  -20.58425  -7.64751  -1.48606  -0.78901  -0.66795
 Alpha  occ. eigenvalues --   -0.56073  -0.55028  -0.33863
 Alpha virt. eigenvalues --    0.03508   0.04548   0.05556   0.05677   0.08930
 Alpha virt. eigenvalues --    0.12367   0.13031   0.18465   0.21832   0.21967
 Alpha virt. eigenvalues --    0.24333   0.26349   0.27277   0.32836   0.34934

  Beta  occ. eigenvalues --  -20.58402  -7.62832  -1.48357  -0.76671  -0.64643
  Beta  occ. eigenvalues --   -0.55455  -0.52965
  Beta virt. eigenvalues --    0.03561   0.04748   0.04881   0.05746   0.08613
  Beta virt. eigenvalues --    0.09917   0.15782   0.16740   0.19228   0.21988
  Beta virt. eigenvalues --    0.22001   0.25408   0.27744   0.28067   0.34214

 Mulliken charges and spin densities:
               1          2
     1  B    0.198904   1.006743
     2  O   -0.760312  -0.100047
     3  H    0.467126   0.031349
     4  H    0.094283   0.061956
 Sum of Mulliken charges =  -0.00000   1.00000

 Dipole moment (field-independent basis, Debye):
    X=             -0.5807    Y=              2.0269    Z=              0.0000  Tot=              2.1084
                          Isotropic Fermi Contact Couplings
        Atom                 a.u.       MegaHertz       Gauss      10(-4) cm-1
     1  B(11)              0.32159     461.28129     164.59663     153.86688
     2  O(17)              0.09879     -59.88714     -21.36922     -19.97620
     3  H(1)               0.01771      79.16631      28.24851      26.40704
     4  H(1)               0.02666     119.15261      42.51661      39.74503
 --------------------------------------------------------
       Center         ----  Spin Dipole Couplings  ----
                      3XX-RR        3YY-RR        3ZZ-RR
 --------------------------------------------------------

 Normal termination of Gaussian 16 at Tue Apr  8 23:59:21 2025.
