 Gaussian 16, Revision C.01,

 ----------------------------------------------------------------------
 #t hf aug-cc-pvdz symm=none int=(grid=ultrafine) guess=(read,tcheck) s
 table=(opt,rrhf)
 ----------------------------------------------------------------------
 -----
 title
 -----
 Symbolic Z-matrix:
 Charge =  0 Multiplicity = 1

 SCF Done:  E(RHF) =  -843.819735370     A.U. after   12 cycles
 Normal termination of Gaussian 16 at Wed Apr  9 00:15:01 2025.
 Gaussian 16:  ES64L-G16RevC.01  3-Jul-2019

 ----------------------------------------------------------------------
 #t hf aug-cc-pvdz iop(5/13=1,5/36=2,99/5=2) pseudo=read geom=check gue
 ss=(read,tcheck) scf=(maxcycle=1)
 ----------------------------------------------------------------------
 -----
 title
 -----
 Structure from the checkpoint file:  "BDE49_nonexpt_2483_mol1.chk"
 Charge =  0 Multiplicity = 1

                         Standard orientation:
 ---------------------------------------------------------------------
 Center     Atomic      Atomic             Coordinates (Angstroms)
 Number     Number       Type             X           Y           Z
 ---------------------------------------------------------------------
      1         14           0       -0.394347   -0.017892    0.682701
      2          6           0        0.786284    1.406663    0.279306
      3          6           0        1.829055    0.748818   -0.658463
      4          1           0        1.267296    1.739231    1.207153
      5          1           0        0.307737    2.279445   -0.168958
      6          6           0        2.095501   -0.689506   -0.167556
      7          1           0        2.755534    1.329025   -0.706405
      8          1           0        1.427445    0.710922   -1.677799
      9          6           0        0.737541   -1.402851    0.062054
     10          1           0        2.648216   -0.645928    0.778409
     11          1           0        2.724760   -1.239399   -0.873627
     12          1           0        0.349687   -1.796800   -0.883562
     13          1           0        0.817016   -2.248045    0.749001
     14         16           0       -2.240903   -0.065973   -0.465485
     15          1           0       -2.868862    0.883186    0.251625
     16          1           0       -0.743816   -0.084313    2.122077
 ---------------------------------------------------------------------

 SCF Done:  E(RHF) =  -844.089121040     A.U. after    2 cycles

 The electronic state is 1-A.
 Alpha  occ. eigenvalues --  -93.93840 -69.54331 -11.23740 -11.23636 -11.22055
 Alpha  occ. eigenvalues --  -11.21903  -8.22098  -6.21217  -6.19924  -6.19804
 Alpha  occ. eigenvalues --   -6.19595  -3.96590  -3.96497  -3.96451  -1.09139
 Alpha  occ. eigenvalues --   -0.99761  -0.96696  -0.88472  -0.78334  -0.68785
 Alpha  occ. eigenvalues --   -0.64136  -0.62501  -0.58875  -0.56282  -0.52048
 Alpha  occ. eigenvalues --   -0.50307  -0.48970  -0.47572  -0.45958  -0.43747
 Alpha  occ. eigenvalues --   -0.42840  -0.37080
 Alpha virt. eigenvalues --    0.03331   0.03687   0.03986   0.04167   0.06005
 Alpha virt. eigenvalues --    0.06251   0.06342   0.06821   0.06888   0.09196
 Alpha virt. eigenvalues --    0.09386   0.10129   0.11186   0.12943   0.13680

 Mulliken charges:
               1
     1  Si   1.564193
     2  C   -0.503495
     3  C   -0.315091
     4  H    0.081610
     5  H    0.115889
     6  C   -0.323769
     7  H    0.111384
     8  H    0.124972
     9  C   -0.513245
    10  H    0.118171
    11  H    0.116518
    12  H    0.138187
    13  H    0.071565
    14  S   -0.907043
    15  H    0.271068
    16  H   -0.150913
 Sum of Mulliken charges =  -0.00000

 Dipole moment (field-independent basis, Debye):
    X=              1.3843    Y=              0.6435    Z=              0.8058  Tot=              1.7262

 Test job not archived.
 1\1\GINC-SE331\SP\RHF\Aug-CC-pVDZ\C4H10S1Si1\OHZDE\09-Apr-2025\0\\#t h
 f aug-cc-pvdz iop(5/13=1,5/36=2,99/5=2) pseudo=read geom=check guess=(
 read,tcheck) scf=(maxcycle=1)\\title\\0,1\Si,0,-0.394347,-0.017892,0.6
 82701\C,0,0.786284,1.406663,0.279306\C,0,1.829055,0.748818,-0.658463\H
 ,0,1.267296,1.739231,1.207153\H,0,0.307737,2.279445,-0.168958\C,0,2.09
 5501,-0.689506,-0.167556\H,0,2.755534,1.329025,-0.706405\H,0,1.427445,
 0.710922,-1.677799\C,0,0.737541,-1.402851,0.062054\H,0,2.648216,-0.645
 928,0.778409\H,0,2.72476,-1.239399,-0.873627\H,0,0.349687,-1.7968,-0.8

 Normal termination of Gaussian 16 at Wed Apr  9 00:15:07 2025.
