 Gaussian 16, Revision C.01,

 ----------------------------------------------------------------------
 #t hf aug-cc-pvdz symm=none int=(grid=ultrafine) guess=(read,tcheck) s
 table=(opt,rrhf)
 ----------------------------------------------------------------------
 -----
 title
 -----
 Symbolic Z-matrix:
 Charge =  0 Multiplicity = 1

 SCF Done:  E(RHF) =  -802.393938241     A.U. after   16 cycles
 Normal termination of Gaussian 16 at Tue Apr  8 23:01:24 2025.
 Gaussian 16:  ES64L-G16RevC.01  3-Jul-2019

 ----------------------------------------------------------------------
 #t hf aug-cc-pvdz iop(5/13=1,5/36=2,99/5=2) pseudo=read geom=check gue
 ss=(read,tcheck) scf=(maxcycle=1)
 ----------------------------------------------------------------------
 -----
 title
 -----
 Structure from the checkpoint file:  "BDE49_expt_205_mol1.chk"
 Charge =  0 Multiplicity = 1

                         Standard orientation:
 ---------------------------------------------------------------------
 Center     Atomic      Atomic             Coordinates (Angstroms)
 Number     Number       Type             X           Y           Z
 ---------------------------------------------------------------------
      1          6           0        2.413623   -1.047711    0.000843
      2          8           0        3.544754   -0.624014   -0.000872
      3          6           0        1.197295   -0.196145    0.000450
      4          1           0        2.212326   -2.140416   -0.000886
      5          6           0        1.310579    1.198750    0.000275
      6          6           0        0.164548    1.981675   -0.000023
      7          6           0       -1.098456    1.386552   -0.000158
      8          6           0       -1.198134   -0.001526    0.000011
      9          6           0       -0.061984   -0.801253    0.000303
     10          1           0       -0.154088   -1.881239    0.000433
     11          1           0       -1.996697    1.990593   -0.000389
     12          1           0        2.300033    1.639050    0.000400
     13          1           0        0.241360    3.062640   -0.000149
     14         17           0       -2.783870   -0.752975   -0.000155
 ---------------------------------------------------------------------

 SCF Done:  E(RHF) =  -802.813060290     A.U. after    2 cycles

 The electronic state is 1-A.
 Alpha  occ. eigenvalues -- -105.58573 -20.55583 -11.35585 -11.32835 -11.28421
 Alpha  occ. eigenvalues --  -11.28187 -11.27433 -11.27329 -11.27236 -10.63362
 Alpha  occ. eigenvalues --   -7.80330  -7.79929  -7.79910  -1.48596  -1.20548
 Alpha  occ. eigenvalues --   -1.11655  -1.06764  -1.00838  -0.92033  -0.86588
 Alpha  occ. eigenvalues --   -0.80089  -0.74087  -0.70966  -0.67803  -0.64318
 Alpha  occ. eigenvalues --   -0.64118  -0.61906  -0.58214  -0.56265  -0.54365
 Alpha  occ. eigenvalues --   -0.53905  -0.48738  -0.48080  -0.43469  -0.37945
 Alpha  occ. eigenvalues --   -0.36250
 Alpha virt. eigenvalues --    0.03028   0.03559   0.04275   0.04284   0.05761
 Alpha virt. eigenvalues --    0.05964   0.07366   0.09125   0.09230   0.10054
 Alpha virt. eigenvalues --    0.11499   0.11597   0.12519   0.13072   0.13258

 Mulliken charges:
               1
     1  C    0.519838
     2  O   -1.280860
     3  C    1.742870
     4  H   -0.030193
     5  C   -0.214526
     6  C    0.528867
     7  C   -0.145825
     8  C   -0.230553
     9  C    0.302942
    10  H   -0.194850
    11  H   -0.164555
    12  H   -0.294874
    13  H   -0.205991
    14  Cl  -0.332292
 Sum of Mulliken charges =  -0.00000

 Dipole moment (field-independent basis, Debye):
    X=             -1.6331    Y=              0.8276    Z=              0.0020  Tot=              1.8308

 Test job not archived.
 1\1\GINC-SE334\SP\RHF\Aug-CC-pVDZ\C7H5Cl1O1\OHZDE\08-Apr-2025\0\\#t hf
  aug-cc-pvdz iop(5/13=1,5/36=2,99/5=2) pseudo=read geom=check guess=(r
 ead,tcheck) scf=(maxcycle=1)\\title\\0,1\C,0,-2.413623,-1.047711,-0.00
 0843\O,0,-3.544754,-0.624014,0.000872\C,0,-1.197295,-0.196145,-0.00045
 \H,0,-2.212326,-2.140416,0.000886\C,0,-1.310579,1.19875,-0.000275\C,0,
 -0.164548,1.981675,0.000023\C,0,1.098456,1.386552,0.000158\C,0,1.19813
 4,-0.001526,-0.000011\C,0,0.061984,-0.801253,-0.000303\H,0,0.154088,-1
 .881239,-0.000433\H,0,1.996697,1.990593,0.000389\H,0,-2.300033,1.63905

 Normal termination of Gaussian 16 at Tue Apr  8 23:01:30 2025.
