 Gaussian 16, Revision C.01,

 ----------------------------------------------------------------------
 #t hf aug-cc-pvdz symm=none int=(grid=ultrafine) guess=(read,tcheck) s
 table=(opt,rrhf)
 ----------------------------------------------------------------------
 -----
 title
 -----
 Symbolic Z-matrix:
 Charge =  0 Multiplicity = 1

 SCF Done:  E(RHF) =  -1380.90814527     A.U. after   17 cycles
 Normal termination of Gaussian 16 at Tue Apr  8 23:43:04 2025.
 Gaussian 16:  ES64L-G16RevC.01  3-Jul-2019

 ----------------------------------------------------------------------
 #t hf aug-cc-pvdz iop(5/13=1,5/36=2,99/5=2) pseudo=read geom=check gue
 ss=(read,tcheck) scf=(maxcycle=1)
 ----------------------------------------------------------------------
 -----
 title
 -----
 Structure from the checkpoint file:  "BDE49_nonexpt_1684_mol1.chk"
 Charge =  0 Multiplicity = 1

                         Standard orientation:
 ---------------------------------------------------------------------
 Center     Atomic      Atomic             Coordinates (Angstroms)
 Number     Number       Type             X           Y           Z
 ---------------------------------------------------------------------
      1          7           0        2.484747   -0.606226   -0.088043
      2         15           0        1.967628    0.999846    0.725885
      3         14           0       -0.092212    1.178592   -0.288660
      4         15           0       -1.071598   -0.888133   -0.145817
      5          7           0       -2.799774   -0.166438    0.025722
      6          8           0       -3.060704    0.779161   -0.713746
      7          8           0       -3.584086   -0.716086    0.773445
      8          8           0        1.652458   -1.514616   -0.074621
      9          8           0        3.621428   -0.708335   -0.494779
     10          1           0        2.697644    1.799996   -0.182461
     11          1           0       -0.908286   -1.064957    1.245989
     12          1           0        0.036304    1.569782   -1.705455
     13          1           0       -0.802738    2.206861    0.495988
 ---------------------------------------------------------------------

 SCF Done:  E(RHF) =  -1381.41243355     A.U. after    2 cycles

 The electronic state is 1-A.
 Alpha  occ. eigenvalues --  -84.36343 -84.35448 -69.60161 -20.62535 -20.61644
 Alpha  occ. eigenvalues --  -20.60261 -20.59714 -15.80249 -15.77906  -6.83288
 Alpha  occ. eigenvalues --   -6.82245  -6.27127  -4.35907  -4.35377  -4.34881
 Alpha  occ. eigenvalues --   -4.34749  -4.34271  -4.33708  -4.02468  -4.02402
 Alpha  occ. eigenvalues --   -4.02351  -1.69411  -1.67209  -1.53410  -1.51337
 Alpha  occ. eigenvalues --   -1.05701  -1.03720  -0.90231  -0.86446  -0.79471
 Alpha  occ. eigenvalues --   -0.77403  -0.76026  -0.75372  -0.75147  -0.73729
 Alpha  occ. eigenvalues --   -0.70362  -0.56654  -0.54922  -0.52713  -0.50707
 Alpha  occ. eigenvalues --   -0.49125  -0.48264  -0.47887  -0.46085  -0.45375
 Alpha  occ. eigenvalues --   -0.41552  -0.39225
 Alpha virt. eigenvalues --    0.02009   0.02561   0.03192   0.04337   0.04869
 Alpha virt. eigenvalues --    0.05074   0.06143   0.06456   0.07429   0.07693
 Alpha virt. eigenvalues --    0.08862   0.09728   0.10168   0.10854   0.11318

 Mulliken charges:
               1
     1  N    1.926516
     2  P   -0.390142
     3  Si   1.095107
     4  P   -0.299353
     5  N    1.893493
     6  O   -1.188345
     7  O   -1.203339
     8  O   -1.157032
     9  O   -1.201757
    10  H    0.313622
    11  H    0.386062
    12  H   -0.094679
    13  H   -0.080152
 Sum of Mulliken charges =  -0.00000

 Dipole moment (field-independent basis, Debye):
    X=              3.0504    Y=              2.7853    Z=              0.9907  Tot=              4.2479

 Test job not archived.
 1\1\GINC-SE364\SP\RHF\Aug-CC-pVDZ\H4N2O4P2Si1\OHZDE\08-Apr-2025\0\\#t
 hf aug-cc-pvdz iop(5/13=1,5/36=2,99/5=2) pseudo=read geom=check guess=
 (read,tcheck) scf=(maxcycle=1)\\title\\0,1\N,0,2.484747,-0.606226,-0.0
 88043\P,0,1.967628,0.999846,0.725885\Si,0,-0.092212,1.178592,-0.28866\
 P,0,-1.071598,-0.888133,-0.145817\N,0,-2.799774,-0.166438,0.025722\O,0
 ,-3.060704,0.779161,-0.713746\O,0,-3.584086,-0.716086,0.773445\O,0,1.6
 52458,-1.514616,-0.074621\O,0,3.621428,-0.708335,-0.494779\H,0,2.69764
 4,1.799996,-0.182461\H,0,-0.908286,-1.064957,1.245989\H,0,0.036304,1.5

 Normal termination of Gaussian 16 at Tue Apr  8 23:43:10 2025.
