 Gaussian 16, Revision C.01,

 ----------------------------------------------------------------------
 #t hf aug-cc-pvdz symm=none int=(grid=ultrafine) guess=(read,tcheck) s
 table=(opt,rrhf)
 ----------------------------------------------------------------------
 -----
 title
 -----
 Symbolic Z-matrix:
 Charge =  0 Multiplicity = 1

 SCF Done:  E(RHF) =  -1203.60304251     A.U. after   15 cycles
 Normal termination of Gaussian 16 at Tue Apr  8 22:51:23 2025.
 Gaussian 16:  ES64L-G16RevC.01  3-Jul-2019

 ----------------------------------------------------------------------
 #t hf aug-cc-pvdz iop(5/13=1,5/36=2,99/5=2) pseudo=read geom=check gue
 ss=(read,tcheck) scf=(maxcycle=1)
 ----------------------------------------------------------------------
 -----
 title
 -----
 Structure from the checkpoint file:  "BDE49_expt_1729_mol1.chk"
 Charge =  0 Multiplicity = 1

                         Standard orientation:
 ---------------------------------------------------------------------
 Center     Atomic      Atomic             Coordinates (Angstroms)
 Number     Number       Type             X           Y           Z
 ---------------------------------------------------------------------
      1          6           0        2.376384    0.968970   -0.000000
      2          6           0        1.375476    0.005258   -0.000000
      3          7           0        2.142690    2.287379   -0.000000
      4          6           0        0.868686    2.679157   -0.000000
      5          6           0       -0.211194    1.796092   -0.000000
      6          6           0        0.045623    0.427475   -0.000000
      7          1           0        3.420344    0.670104   -0.000000
      8          1           0        1.625838   -1.048369   -0.000000
      9          1           0        0.695027    3.751456   -0.000000
     10          1           0       -1.226285    2.176927   -0.000000
     11          6           0       -1.104615   -0.539198    0.000000
     12         17           0       -1.104615   -1.575413    1.480985
     13         17           0       -1.104615   -1.575413   -1.480985
     14          1           0       -2.058980   -0.024247    0.000000
 ---------------------------------------------------------------------

 SCF Done:  E(RHF) =  -1204.04254757     A.U. after    2 cycles

 The electronic state is 1-A'.
 Alpha  occ. eigenvalues -- -105.58652-105.58652 -15.52041 -11.39705 -11.29709
 Alpha  occ. eigenvalues --  -11.29696 -11.29463 -11.27016 -11.26479 -10.63437
 Alpha  occ. eigenvalues --  -10.63429  -7.80379  -7.80378  -7.79975  -7.79974
 Alpha  occ. eigenvalues --   -7.79972  -7.79969  -1.27546  -1.19106  -1.09864
 Alpha  occ. eigenvalues --   -1.05560  -1.05423  -0.93651  -0.89784  -0.83980
 Alpha  occ. eigenvalues --   -0.74599  -0.71873  -0.68046  -0.64640  -0.62588
 Alpha  occ. eigenvalues --   -0.61674  -0.61633  -0.56987  -0.55151  -0.49365
 Alpha  occ. eigenvalues --   -0.49227  -0.47026  -0.46339  -0.46113  -0.41302
 Alpha  occ. eigenvalues --   -0.37280
 Alpha virt. eigenvalues --    0.02992   0.03794   0.04449   0.05175   0.05596
 Alpha virt. eigenvalues --    0.06408   0.07622   0.08694   0.08986   0.09958
 Alpha virt. eigenvalues --    0.11124   0.11737   0.11875   0.12049   0.13480

 Mulliken charges:
               1
     1  C   -1.277766
     2  C    0.905161
     3  N    1.104162
     4  C   -1.157233
     5  C    0.931926
     6  C    1.191838
     7  H   -0.174319
     8  H   -0.234467
     9  H   -0.174257
    10  H   -0.245849
    11  C   -0.888744
    12  Cl  -0.011342
    13  Cl  -0.011342
    14  H    0.042231
 Sum of Mulliken charges =  -0.00000

 Dipole moment (field-independent basis, Debye):
    X=             -1.4778    Y=              0.4477    Z=             -0.0000  Tot=              1.5441

 Test job not archived.
 1\1\GINC-SE100\SP\RHF\Aug-CC-pVDZ\C6H5Cl2N1\OHZDE\08-Apr-2025\0\\#t hf
  aug-cc-pvdz iop(5/13=1,5/36=2,99/5=2) pseudo=read geom=check guess=(r
 ead,tcheck) scf=(maxcycle=1)\\title\\0,1\C,0,2.376384,0.96897,0.\C,0,1
 .375476,0.005258,0.\N,0,2.14269,2.287379,0.\C,0,0.868686,2.679157,0.\C
 ,0,-0.211194,1.796092,0.\C,0,0.045623,0.427475,0.\H,0,3.420344,0.67010
 4,0.\H,0,1.625838,-1.048369,0.\H,0,0.695027,3.751456,0.\H,0,-1.226285,
 2.176927,0.\C,0,-1.104615,-0.539198,0.\Cl,0,-1.104615,-1.575413,1.4809
 85\Cl,0,-1.104615,-1.575413,-1.480985\H,0,-2.05898,-0.024247,0.\\Versi

 Normal termination of Gaussian 16 at Tue Apr  8 22:51:29 2025.
