 Gaussian 16, Revision C.01,

 ----------------------------------------------------------------------
 #t hf aug-cc-pvdz symm=none int=(grid=ultrafine) guess=(read,tcheck) s
 table=(opt,rrhf)
 ----------------------------------------------------------------------
 -----
 title
 -----
 Symbolic Z-matrix:
 Charge =  0 Multiplicity = 1

 SCF Done:  E(RHF) =  -1855.81687355     A.U. after   13 cycles
 Normal termination of Gaussian 16 at Tue Apr  8 23:46:21 2025.
 Gaussian 16:  ES64L-G16RevC.01  3-Jul-2019

 ----------------------------------------------------------------------
 #t hf aug-cc-pvdz iop(5/13=1,5/36=2,99/5=2) pseudo=read geom=check gue
 ss=(read,tcheck) scf=(maxcycle=1)
 ----------------------------------------------------------------------
 -----
 title
 -----
 Structure from the checkpoint file:  "BDE49_nonexpt_1765_mol1.chk"
 Charge =  0 Multiplicity = 1

                         Standard orientation:
 ---------------------------------------------------------------------
 Center     Atomic      Atomic             Coordinates (Angstroms)
 Number     Number       Type             X           Y           Z
 ---------------------------------------------------------------------
      1          6           0       -1.661533   -0.359618    0.000025
      2          8           0       -2.027121   -1.500526    0.000006
      3         14           0        0.227828   -0.002176    0.000006
      4          8           0       -2.530690    0.672022   -0.000029
      5         17           0        1.070122   -0.809472    1.675374
      6         17           0        0.524264    2.048521   -0.000035
      7         17           0        1.070104   -0.809539   -1.675339
      8          1           0       -2.054243    1.514528   -0.000046
 ---------------------------------------------------------------------

 SCF Done:  E(RHF) =  -1856.25825124     A.U. after    2 cycles

 The electronic state is 1-A.
 Alpha  occ. eigenvalues -- -105.61172-105.60406-105.60405 -69.70509 -20.63031
 Alpha  occ. eigenvalues --  -20.57341 -11.41834 -10.66167 -10.65428 -10.65419
 Alpha  occ. eigenvalues --   -7.83049  -7.82740  -7.82719  -7.82322  -7.82316
 Alpha  occ. eigenvalues --   -7.81973  -7.81969  -7.81966  -7.81966  -6.36269
 Alpha  occ. eigenvalues --   -4.11646  -4.11633  -4.11485  -1.57189  -1.48808
 Alpha  occ. eigenvalues --   -1.14001  -1.08887  -1.08506  -0.88418  -0.81992
 Alpha  occ. eigenvalues --   -0.70676  -0.69070  -0.65569  -0.61782  -0.60743
 Alpha  occ. eigenvalues --   -0.59846  -0.54714  -0.53805  -0.53312  -0.51073
 Alpha  occ. eigenvalues --   -0.50948  -0.49653  -0.49491  -0.44524
 Alpha virt. eigenvalues --    0.03631   0.05192   0.05296   0.06137   0.07288
 Alpha virt. eigenvalues --    0.07847   0.09016   0.11192   0.11602   0.11798
 Alpha virt. eigenvalues --    0.12313   0.12915   0.15140   0.16041   0.17020

 Mulliken charges:
               1
     1  C    1.313696
     2  O   -1.025926
     3  Si   1.824206
     4  O   -1.077558
     5  Cl  -0.479704
     6  Cl  -0.519286
     7  Cl  -0.479700
     8  H    0.444272
 Sum of Mulliken charges =  -0.00000

 Dipole moment (field-independent basis, Debye):
    X=              1.4698    Y=              2.6230    Z=              0.0000  Tot=              3.0067

 Test job not archived.
 1\1\GINC-SE094\SP\RHF\Aug-CC-pVDZ\C1H1Cl3O2Si1\OHZDE\08-Apr-2025\0\\#t
  hf aug-cc-pvdz iop(5/13=1,5/36=2,99/5=2) pseudo=read geom=check guess
 =(read,tcheck) scf=(maxcycle=1)\\title\\0,1\C,0,-1.661533,-0.359617,0.
 000025\O,0,-2.027121,-1.500525,0.000006\Si,0,0.227828,-0.002176,0.0000
 06\O,0,-2.53069,0.672023,-0.000029\Cl,0,1.070122,-0.809472,1.675374\Cl
 ,0,0.524265,2.048521,-0.000035\Cl,0,1.070104,-0.809539,-1.675339\H,0,-
 2.054242,1.514529,-0.000046\\Version=ES64L-G16RevC.01\State=1-A\HF=-18
 56.2582512\RMSD=5.547e-03\Dipole=0.5782582,1.0319675,0.\Quadrupole=-3.

 Normal termination of Gaussian 16 at Tue Apr  8 23:46:24 2025.
