 Gaussian 16, Revision C.01,

 ----------------------------------------------------------------------
 #t hf aug-cc-pvdz symm=none int=(grid=ultrafine) guess=(read,tcheck) s
 table=(opt,rrhf)
 ----------------------------------------------------------------------
 -----
 title
 -----
 Symbolic Z-matrix:
 Charge =  0 Multiplicity = 1

 SCF Done:  E(RHF) =  -887.963704120     A.U. after   15 cycles
 Normal termination of Gaussian 16 at Tue Apr  8 23:08:33 2025.
 Gaussian 16:  ES64L-G16RevC.01  3-Jul-2019

 ----------------------------------------------------------------------
 #t hf aug-cc-pvdz iop(5/13=1,5/36=2,99/5=2) pseudo=read geom=check gue
 ss=(read,tcheck) scf=(maxcycle=1)
 ----------------------------------------------------------------------
 -----
 title
 -----
 Structure from the checkpoint file:  "BDE49_expt_434_mol1.chk"
 Charge =  0 Multiplicity = 1

                         Standard orientation:
 ---------------------------------------------------------------------
 Center     Atomic      Atomic             Coordinates (Angstroms)
 Number     Number       Type             X           Y           Z
 ---------------------------------------------------------------------
      1         16           0       -1.231351    0.407252   -0.371389
      2          8           0       -1.525375    1.821476   -0.314462
      3          7           0       -1.864737   -0.179619    1.085279
      4          6           0        0.518090    0.147901   -0.153091
      5          6           0        1.270548    1.129322    0.490329
      6          6           0        2.638369    0.931877    0.650200
      7          6           0        3.237408   -0.233947    0.172520
      8          6           0        2.473036   -1.204519   -0.472577
      9          6           0        1.103531   -1.017031   -0.643261
     10          1           0        2.942570   -2.105837   -0.849071
     11          1           0        0.492148   -1.749805   -1.152023
     12          1           0        0.787528    2.032030    0.841309
     13          1           0        3.237200    1.689602    1.141970
     14          1           0        4.303965   -0.382472    0.298158
     15          8           0       -1.668548   -0.407553   -1.480974
     16          7           0       -1.937807   -1.584721    1.145780
     17          1           0       -2.719671    0.343940    1.275760
     18          1           0       -1.814301   -1.878890    2.105879
     19          1           0       -2.804529   -1.947219    0.761608
 ---------------------------------------------------------------------

 SCF Done:  E(RHF) =  -888.526277983     A.U. after    2 cycles

 The electronic state is 1-A.
 Alpha  occ. eigenvalues --  -94.20812 -20.53654 -20.53560 -15.56719 -15.54812
 Alpha  occ. eigenvalues --  -11.28107 -11.26968 -11.26904 -11.26731 -11.26043
 Alpha  occ. eigenvalues --  -11.25997  -8.45836  -6.43957  -6.43748  -6.43644
 Alpha  occ. eigenvalues --   -1.56355  -1.44091  -1.31012  -1.18244  -1.10521
 Alpha  occ. eigenvalues --   -1.05467  -1.03969  -0.92508  -0.85951  -0.82877
 Alpha  occ. eigenvalues --   -0.77897  -0.76002  -0.73951  -0.71898  -0.68213
 Alpha  occ. eigenvalues --   -0.67260  -0.64522  -0.63442  -0.62258  -0.55676
 Alpha  occ. eigenvalues --   -0.54108  -0.53555  -0.52817  -0.50205  -0.49648
 Alpha  occ. eigenvalues --   -0.48497  -0.45859  -0.45582  -0.37346  -0.36416
 Alpha virt. eigenvalues --    0.02907   0.03145   0.03635   0.04974   0.05499
 Alpha virt. eigenvalues --    0.05839   0.06996   0.07340   0.07463   0.09347
 Alpha virt. eigenvalues --    0.10190   0.10605   0.11395   0.12344   0.13588

 Mulliken charges:
               1
     1  S    4.097598
     2  O   -1.653116
     3  N   -0.552402
     4  C    0.639019
     5  C   -0.557350
     6  C    0.560870
     7  C   -0.036570
     8  C    0.404873
     9  C   -0.438999
    10  H   -0.233658
    11  H   -0.260196
    12  H   -0.235060
    13  H   -0.224280
    14  H   -0.196410
    15  O   -1.628281
    16  N   -0.153261
    17  H    0.210881
    18  H    0.111172
    19  H    0.145171
 Sum of Mulliken charges =  -0.00000

 Dipole moment (field-independent basis, Debye):
    X=              1.6240    Y=             -2.3439    Z=              3.4507  Tot=              4.4765

 Test job not archived.
 1\1\GINC-SE423\SP\RHF\Aug-CC-pVDZ\C6H8N2O2S1\OHZDE\08-Apr-2025\0\\#t h
 f aug-cc-pvdz iop(5/13=1,5/36=2,99/5=2) pseudo=read geom=check guess=(
 read,tcheck) scf=(maxcycle=1)\\title\\0,1\S,0,-1.231351,0.407252,-0.37
 1389\O,0,-1.525375,1.821476,-0.314462\N,0,-1.864737,-0.179619,1.085279
 \C,0,0.51809,0.147901,-0.153091\C,0,1.270548,1.129322,0.490329\C,0,2.6
 38369,0.931877,0.6502\C,0,3.237408,-0.233947,0.17252\C,0,2.473036,-1.2
 04519,-0.472577\C,0,1.103531,-1.017031,-0.643261\H,0,2.94257,-2.105837
 ,-0.849071\H,0,0.492148,-1.749805,-1.152023\H,0,0.787528,2.03203,0.841

 Normal termination of Gaussian 16 at Tue Apr  8 23:08:44 2025.
