 Gaussian 16, Revision C.01,

 ----------------------------------------------------------------------
 #t hf aug-cc-pvdz symm=none int=(grid=ultrafine) guess=(read,tcheck) s
 table=(opt,rrhf)
 ----------------------------------------------------------------------
 -----
 title
 -----
 Symbolic Z-matrix:
 Charge =  0 Multiplicity = 1

 SCF Done:  E(RHF) =  -1086.34700509     A.U. after   12 cycles

 1\1\GINC-SE105\Stability\RHF\Aug-CC-pVDZ\H4S2Si1\OHZDE\08-Apr-2025\0\\
 #t hf aug-cc-pvdz symm=none int=(grid=ultrafine) guess=(read,tcheck) s
 table=(opt,rrhf)\\title\\0,1\Si,0,1.625929,-0.40291,-0.000245\S,0,-0.0
 58887,0.965786,0.008757\S,0,-1.62733,-0.448063,-0.086147\H,0,-1.807491
 ,-0.60791,1.239542\H,0,2.824519,0.466491,0.020354\H,0,1.606782,-1.2370
 34,-1.218761\H,0,1.592661,-1.264365,1.200534\\Version=ES64L-G16RevC.01
 \HF=-1086.3470051\RMSD=9.218e-09\Dipole=0.3267587,-0.3691461,0.3412962
 \Quadrupole=1.2324665,-1.3237824,0.0913159,0.7261801,-1.5245447,-0.581

 Normal termination of Gaussian 16 at Tue Apr  8 23:57:50 2025.
 Gaussian 16:  ES64L-G16RevC.01  3-Jul-2019

 ----------------------------------------------------------------------
 #t hf aug-cc-pvdz iop(5/13=1,5/36=2,99/5=2) pseudo=read geom=check gue
 ss=(read,tcheck) scf=(maxcycle=1)
 ----------------------------------------------------------------------
 -----
 title
 -----
 Structure from the checkpoint file:  "BDE49_nonexpt_2052_mol1.chk"
 Charge =  0 Multiplicity = 1

                         Standard orientation:
 ---------------------------------------------------------------------
 Center     Atomic      Atomic             Coordinates (Angstroms)
 Number     Number       Type             X           Y           Z
 ---------------------------------------------------------------------
      1         14           0        1.625929   -0.402910   -0.000245
      2         16           0       -0.058887    0.965786    0.008757
      3         16           0       -1.627330   -0.448063   -0.086147
      4          1           0       -1.807491   -0.607910    1.239542
      5          1           0        2.824519    0.466491    0.020354
      6          1           0        1.606782   -1.237034   -1.218761
      7          1           0        1.592661   -1.264365    1.200534
 ---------------------------------------------------------------------

 SCF Done:  E(RHF) =  -1086.50624512     A.U. after    2 cycles

 The electronic state is 1-A.
 Alpha  occ. eigenvalues --  -93.99040 -93.97275 -69.56647  -8.26917  -8.25404
 Alpha  occ. eigenvalues --   -6.24740  -6.24573  -6.24318  -6.23499  -6.23182
 Alpha  occ. eigenvalues --   -6.22986  -6.22775  -3.98914  -3.98821  -3.98787
 Alpha  occ. eigenvalues --   -1.08649  -0.92073  -0.74133  -0.58722  -0.52799
 Alpha  occ. eigenvalues --   -0.51508  -0.50512  -0.46986  -0.38661  -0.37949
 Alpha virt. eigenvalues --    0.03575   0.04210   0.04724   0.05727   0.06871
 Alpha virt. eigenvalues --    0.08122   0.09084   0.09324   0.10757   0.11749
 Alpha virt. eigenvalues --    0.12877   0.14234   0.15524   0.16117   0.16660

 Mulliken charges:
               1
     1  Si   1.315342
     2  S   -0.629953
     3  S   -0.443590
     4  H    0.390755
     5  H   -0.239831
     6  H   -0.198130
     7  H   -0.194593
 Sum of Mulliken charges =  -0.00000

 Dipole moment (field-independent basis, Debye):
    X=              0.8305    Y=             -0.9648    Z=              0.9114  Tot=              1.5656

 Test job not archived.
 1\1\GINC-SE105\SP\RHF\Aug-CC-pVDZ\H4S2Si1\OHZDE\08-Apr-2025\0\\#t hf a
 ug-cc-pvdz iop(5/13=1,5/36=2,99/5=2) pseudo=read geom=check guess=(rea
 d,tcheck) scf=(maxcycle=1)\\title\\0,1\Si,0,1.625929,-0.40291,-0.00024
 5\S,0,-0.058887,0.965786,0.008757\S,0,-1.62733,-0.448063,-0.086147\H,0
 ,-1.807491,-0.60791,1.239542\H,0,2.824519,0.466491,0.020354\H,0,1.6067
 82,-1.237034,-1.218761\H,0,1.592661,-1.264365,1.200534\\Version=ES64L-
 G16RevC.01\State=1-A\HF=-1086.5062451\RMSD=3.750e-03\Dipole=0.3267526,
 -0.379568,0.3585604\Quadrupole=1.3307497,-1.3428196,0.0120699,0.767977

 Normal termination of Gaussian 16 at Tue Apr  8 23:57:52 2025.
