 Gaussian 16, Revision C.01,

 ----------------------------------------------------------------------
 #t hf aug-cc-pvdz symm=none int=(grid=ultrafine) guess=(read,tcheck) s
 table=(opt,rrhf)
 ----------------------------------------------------------------------
 -----
 title
 -----
 Symbolic Z-matrix:
 Charge =  0 Multiplicity = 1

 SCF Done:  E(RHF) =  -1861.71143272     A.U. after   15 cycles
 Normal termination of Gaussian 16 at Wed Apr  9 00:52:39 2025.
 Gaussian 16:  ES64L-G16RevC.01  3-Jul-2019

 ----------------------------------------------------------------------
 #t hf aug-cc-pvdz iop(5/13=1,5/36=2,99/5=2) pseudo=read geom=check gue
 ss=(read,tcheck) scf=(maxcycle=1)
 ----------------------------------------------------------------------
 -----
 title
 -----
 Structure from the checkpoint file:  "BDE49_nonexpt_879_mol1.chk"
 Charge =  0 Multiplicity = 1

                         Standard orientation:
 ---------------------------------------------------------------------
 Center     Atomic      Atomic             Coordinates (Angstroms)
 Number     Number       Type             X           Y           Z
 ---------------------------------------------------------------------
      1         17           0        4.100888   -0.679990    0.192122
      2          9           0       -1.877867    1.877426    1.067773
      3          9           0       -2.200263    1.105990   -0.937138
      4          9           0       -1.212266    3.020383   -0.652035
      5         16           0       -2.118291   -1.581170    1.521977
      6         16           0       -1.458850   -2.438246   -1.350058
      7          7           0        2.405705    1.312996   -0.034411
      8          6           0       -1.316461    1.770391   -0.161600
      9          6           0        2.488616    0.003948    0.071466
     10          6           0        1.397574   -0.864385    0.087887
     11          1           0        1.558884   -1.931337    0.167698
     12          6           0        0.107612   -0.331171    0.005006
     13          6           0        0.015219    1.071287   -0.101433
     14          6           0        1.179467    1.834894   -0.122998
     15          1           0        1.125994    2.912827   -0.220712
     16          5           0       -1.104206   -1.339045    0.044693
     17          1           0       -1.556904   -0.618947    2.272756
     18          1           0       -0.546312   -1.931763   -2.196476
 ---------------------------------------------------------------------

 SCF Done:  E(RHF) =  -1862.47799258     A.U. after    2 cycles

 The electronic state is 1-A.
 Alpha  occ. eigenvalues -- -105.59260 -93.97575 -93.97483 -26.52324 -26.52280
 Alpha  occ. eigenvalues --  -26.51763 -15.54645 -11.54280 -11.37861 -11.32914
 Alpha  occ. eigenvalues --  -11.30503 -11.30099 -11.29195 -10.64080  -8.25867
 Alpha  occ. eigenvalues --   -8.25767  -7.81041  -7.80621  -7.80620  -7.68949
 Alpha  occ. eigenvalues --   -6.23687  -6.23601  -6.23547  -6.23463  -6.23384
 Alpha  occ. eigenvalues --   -6.23299  -1.72851  -1.62974  -1.62389  -1.31889
 Alpha  occ. eigenvalues --   -1.15703  -1.13713  -1.07491  -1.05769  -1.02475
 Alpha  occ. eigenvalues --   -0.97773  -0.92584  -0.89764  -0.83005  -0.82315
 Alpha  occ. eigenvalues --   -0.82174  -0.75633  -0.72474  -0.70158  -0.69708
 Alpha  occ. eigenvalues --   -0.68626  -0.67714  -0.65086  -0.65034  -0.63421
 Alpha  occ. eigenvalues --   -0.63187  -0.62526  -0.61033  -0.57520  -0.55571
 Alpha  occ. eigenvalues --   -0.52706  -0.51068  -0.50502  -0.49088  -0.47201
 Alpha  occ. eigenvalues --   -0.45700  -0.43311  -0.39608  -0.38772
 Alpha virt. eigenvalues --    0.03037   0.03463   0.04120   0.04176   0.04864
 Alpha virt. eigenvalues --    0.05153   0.06108   0.06533   0.07740   0.08175
 Alpha virt. eigenvalues --    0.08629   0.09117   0.09589   0.09772   0.10722

 Mulliken charges:
               1
     1  Cl  -0.103616
     2  F   -0.789581
     3  F   -0.873303
     4  F   -0.859007
     5  S   -0.801674
     6  S   -0.827224
     7  N    1.507301
     8  C    2.833385
     9  C   -1.797616
    10  C    0.902529
    11  H   -0.323506
    12  C    0.028264
    13  C    1.072032
    14  C   -1.336692
    15  H   -0.197826
    16  B    1.103652
    17  H    0.257710
    18  H    0.205171
 Sum of Mulliken charges =  -0.00000

 Dipole moment (field-independent basis, Debye):
    X=             -0.0959    Y=             -0.6736    Z=             -0.0728  Tot=              0.6843

 Test job not archived.
 1\1\GINC-SE222\SP\RHF\Aug-CC-pVDZ\C6H4B1Cl1F3N1S2\OHZDE\09-Apr-2025\0\
 \#t hf aug-cc-pvdz iop(5/13=1,5/36=2,99/5=2) pseudo=read geom=check gu
 ess=(read,tcheck) scf=(maxcycle=1)\\title\\0,1\Cl,0,4.100888,-0.67999,
 0.192122\F,0,-1.877867,1.877426,1.067773\F,0,-2.200263,1.10599,-0.9371
 38\F,0,-1.212266,3.020383,-0.652035\S,0,-2.118291,-1.58117,1.521977\S,
 0,-1.45885,-2.438246,-1.350058\N,0,2.405705,1.312996,-0.034411\C,0,-1.
 316461,1.770391,-0.1616\C,0,2.488616,0.003948,0.071466\C,0,1.397574,-0
 .864385,0.087887\H,0,1.558884,-1.931337,0.167698\C,0,0.107612,-0.33117

 Normal termination of Gaussian 16 at Wed Apr  9 00:52:56 2025.
