 Gaussian 16, Revision C.01,

 ----------------------------------------------------------------------
 #t hf aug-cc-pvdz symm=none int=(grid=ultrafine) guess=(read,tcheck) s
 table=opt
 ----------------------------------------------------------------------
 -----
 title
 -----
 Symbolic Z-matrix:
 Charge =  0 Multiplicity = 2

 SCF Done:  E(UHF) =  -384.720917956     A.U. after   16 cycles
 Normal termination of Gaussian 16 at Tue Apr  8 23:51:19 2025.
 Gaussian 16:  ES64L-G16RevC.01  3-Jul-2019

 ----------------------------------------------------------------------
 #t hf aug-cc-pvdz iop(5/13=1,5/36=2,99/5=2) pseudo=read geom=check gue
 ss=(read,tcheck) scf=(maxcycle=1)
 ----------------------------------------------------------------------
 -----
 title
 -----
 Structure from the checkpoint file:  "BDE49_nonexpt_1901_mol2.chk"
 Charge =  0 Multiplicity = 2

                         Standard orientation:
 ---------------------------------------------------------------------
 Center     Atomic      Atomic             Coordinates (Angstroms)
 Number     Number       Type             X           Y           Z
 ---------------------------------------------------------------------
      1         14           0        1.163465   -0.131278    0.113169
      2          7           0       -0.428730    0.515019   -0.096523
      3          1           0        1.222385   -1.395264   -0.680276
      4          1           0        2.092654    0.883538   -0.463520
      5          6           0       -1.672920   -0.236908    0.016781
      6          1           0       -0.550827    1.510881    0.031313
      7          1           0       -1.484442   -1.288638   -0.210180
      8          1           0       -2.410889    0.128022   -0.704992
      9          1           0       -2.118756   -0.184337    1.018265
 ---------------------------------------------------------------------

 SCF Done:  E(UHF) =  -384.853660559     A.U. after    2 cycles

 The electronic state is 2-A.
 Alpha  occ. eigenvalues --  -69.54133 -15.48816 -11.26558  -6.20991  -3.96787
 Alpha  occ. eigenvalues --   -3.96078  -3.96046  -1.18095  -0.91996  -0.75531
 Alpha  occ. eigenvalues --   -0.66715  -0.61584  -0.58729  -0.52687  -0.48629
 Alpha  occ. eigenvalues --   -0.45873  -0.31451
 Alpha virt. eigenvalues --    0.03441   0.04907   0.05154   0.05466   0.06393
 Alpha virt. eigenvalues --    0.07058   0.07727   0.08909   0.09292   0.12621
 Alpha virt. eigenvalues --    0.14281   0.15510   0.15989   0.16982   0.17990

  Beta  occ. eigenvalues --  -69.53658 -15.48133 -11.26610  -6.20247  -3.95818
  Beta  occ. eigenvalues --   -3.95765  -3.94956  -1.16520  -0.91638  -0.73321
  Beta  occ. eigenvalues --   -0.65671  -0.60216  -0.57369  -0.51931  -0.47082
  Beta  occ. eigenvalues --   -0.41103
  Beta virt. eigenvalues --    0.03125   0.03976   0.05138   0.05262   0.05838
  Beta virt. eigenvalues --    0.06492   0.07221   0.09050   0.09505   0.10043
  Beta virt. eigenvalues --    0.12895   0.15042   0.15825   0.16655   0.17324

 Mulliken charges and spin densities:
               1          2
     1  Si   0.402593   0.797407
     2  N    0.061544   0.101722
     3  H   -0.110138   0.068489
     4  H   -0.103955   0.053766
     5  C   -0.530342  -0.016734
     6  H   -0.002366  -0.015400
     7  H    0.038510   0.004044
     8  H    0.102235   0.004083
     9  H    0.141920   0.002623
 Sum of Mulliken charges =   0.00000   1.00000

 Dipole moment (field-independent basis, Debye):
    X=             -1.1199    Y=              0.4370    Z=              0.2950  Tot=              1.2378
                          Isotropic Fermi Contact Couplings
        Atom                 a.u.       MegaHertz       Gauss      10(-4) cm-1
     1  Si(29)             0.60055    -533.72848    -190.44759    -178.03266
     2  N(14)              0.07973      25.76186       9.19247       8.59323
     3  H(1)               0.01723      77.03741      27.48886      25.69691
     4  H(1)               0.01484      66.32809      23.66751      22.12467
     5  C(13)             -0.00812      -9.13298      -3.25888      -3.04644
     6  H(1)              -0.00405     -18.08657      -6.45374      -6.03303
     7  H(1)               0.00023       1.04191       0.37178       0.34754
     8  H(1)               0.00132       5.87916       2.09783       1.96108

 Normal termination of Gaussian 16 at Tue Apr  8 23:51:21 2025.
