 Gaussian 16, Revision C.01,

 ----------------------------------------------------------------------
 #t hf aug-cc-pvdz symm=none int=(grid=ultrafine) guess=(read,tcheck) s
 table=(opt,rrhf)
 ----------------------------------------------------------------------
 -----
 title
 -----
 Symbolic Z-matrix:
 Charge =  0 Multiplicity = 1

 SCF Done:  E(RHF) =  -1191.16499422     A.U. after   19 cycles
 Normal termination of Gaussian 16 at Tue Apr  8 23:08:12 2025.
 Gaussian 16:  ES64L-G16RevC.01  3-Jul-2019

 ----------------------------------------------------------------------
 #t hf aug-cc-pvdz iop(5/13=1,5/36=2,99/5=2) pseudo=read geom=check gue
 ss=(read,tcheck) scf=(maxcycle=1)
 ----------------------------------------------------------------------
 -----
 title
 -----
 Structure from the checkpoint file:  "BDE49_expt_1764_mol1.chk"
 Charge =  0 Multiplicity = 1

                         Standard orientation:
 ---------------------------------------------------------------------
 Center     Atomic      Atomic             Coordinates (Angstroms)
 Number     Number       Type             X           Y           Z
 ---------------------------------------------------------------------
      1          7           0        0.667145   -1.022312    0.325791
      2          7           0        0.468029   -1.753844    1.499039
      3          8           0        1.307238   -1.584745    2.337077
      4         16           0       -0.597253   -1.197919   -0.847873
      5          8           0       -1.145765   -2.508596   -0.651845
      6          6           0       -1.799953    0.014081   -0.340121
      7          6           0        1.717739   -0.055797    0.170231
      8          6           0        1.686932    1.121628    0.918439
      9          6           0        2.719371    2.044528    0.785241
     10          6           0        3.771536    1.793755   -0.093862
     11          6           0        3.795546    0.615441   -0.837729
     12          6           0        2.771239   -0.316781   -0.704432
     13          1           0        2.701629    2.958358    1.367545
     14          1           0        4.612945    0.419776   -1.521724
     15          1           0        2.775147   -1.236167   -1.274883
     16          6           0       -2.731689   -0.329387    0.639906
     17          6           0       -1.796299    1.271134   -0.942067
     18          1           0        0.865504    1.303952    1.599919
     19          8           0       -0.008403   -0.771573   -2.088259
     20          6           0       -2.746010    2.208144   -0.542094
     21          6           0       -3.672157    0.618258    1.030011
     22          6           0       -3.678137    1.883551    0.441778
     23          1           0       -2.759966    3.188168   -1.004150
     24          1           0       -4.416472    2.615923    0.747463
     25          1           0       -1.073165    1.496270   -1.714714
     26          1           0       -2.717927   -1.320449    1.074796
     27          1           0       -4.404755    0.366450    1.787609
     28          1           0        4.573631    2.515507   -0.197308
 ---------------------------------------------------------------------

 SCF Done:  E(RHF) =  -1192.01183191     A.U. after    2 cycles

 The electronic state is 1-A.
 Alpha  occ. eigenvalues --  -94.23612 -20.61418 -20.55854 -20.55694 -15.69982
 Alpha  occ. eigenvalues --  -15.59209 -11.29979 -11.29755 -11.28353 -11.28331
 Alpha  occ. eigenvalues --  -11.27965 -11.27306 -11.27288 -11.26425 -11.26197
 Alpha  occ. eigenvalues --  -11.26132 -11.25822 -11.25694  -8.48461  -6.46600
 Alpha  occ. eigenvalues --   -6.46387  -6.46255  -1.62292  -1.58694  -1.46645
 Alpha  occ. eigenvalues --   -1.30581  -1.19643  -1.17107  -1.08058  -1.06024
 Alpha  occ. eigenvalues --   -1.05293  -1.03751  -0.99620  -0.93112  -0.87393
 Alpha  occ. eigenvalues --   -0.87075  -0.85906  -0.82018  -0.79023  -0.77373
 Alpha  occ. eigenvalues --   -0.74960  -0.71525  -0.71133  -0.68827  -0.68715
 Alpha  occ. eigenvalues --   -0.67425  -0.65794  -0.65407  -0.64846  -0.63708
 Alpha  occ. eigenvalues --   -0.63575  -0.61802  -0.56820  -0.56043  -0.55206
 Alpha  occ. eigenvalues --   -0.54189  -0.53872  -0.53108  -0.52768  -0.51423
 Alpha  occ. eigenvalues --   -0.48727  -0.48624  -0.47589  -0.45284  -0.38729
 Alpha  occ. eigenvalues --   -0.37824  -0.36386  -0.36089
 Alpha virt. eigenvalues --    0.02408   0.02868   0.03236   0.03759   0.04521
 Alpha virt. eigenvalues --    0.04579   0.05174   0.06372   0.06435   0.06600
 Alpha virt. eigenvalues --    0.06871   0.07334   0.08164   0.08641   0.09427

 Mulliken charges:
               1
     1  N    0.996231
     2  N    0.844061
     3  O   -1.068495
     4  S    4.099427
     5  O   -1.646465
     6  C    0.832560
     7  C   -1.645508
     8  C    0.465912
     9  C    0.332413
    10  C    0.313775
    11  C    0.503692
    12  C    0.390302
    13  H   -0.253110
    14  H   -0.233200
    15  H   -0.334893
    16  C   -0.478891
    17  C   -0.267726
    18  H   -0.431486
    19  O   -1.754034
    20  C    0.361684
    21  C    0.393005
    22  C    0.111462
    23  H   -0.239249
    24  H   -0.207472
    25  H   -0.332286
    26  H   -0.303489
    27  H   -0.227417
    28  H   -0.220802
 Sum of Mulliken charges =  -0.00000

 Dipole moment (field-independent basis, Debye):
    X=             -0.8737    Y=              5.5810    Z=              1.0333  Tot=              5.7427

 Test job not archived.
 1\1\GINC-SE342\SP\RHF\Aug-CC-pVDZ\C12H10N2O3S1\OHZDE\08-Apr-2025\0\\#t
  hf aug-cc-pvdz iop(5/13=1,5/36=2,99/5=2) pseudo=read geom=check guess
 =(read,tcheck) scf=(maxcycle=1)\\title\\0,1\N,0,0.667145,-1.022312,0.3
 25791\N,0,0.468029,-1.753844,1.499039\O,0,1.307238,-1.584745,2.337077\
 S,0,-0.597253,-1.197919,-0.847873\O,0,-1.145765,-2.508596,-0.651845\C,
 0,-1.799953,0.014081,-0.340121\C,0,1.717739,-0.055797,0.170231\C,0,1.6
 86932,1.121628,0.918439\C,0,2.719371,2.044528,0.785241\C,0,3.771536,1.
 793755,-0.093862\C,0,3.795546,0.615441,-0.837729\C,0,2.771239,-0.31678

 Normal termination of Gaussian 16 at Tue Apr  8 23:08:55 2025.
