 Gaussian 16, Revision C.01,

 ----------------------------------------------------------------------
 #t hf aug-cc-pvdz symm=none int=(grid=ultrafine) guess=(read,tcheck) s
 table=(opt,rrhf)
 ----------------------------------------------------------------------
 -----
 title
 -----
 Symbolic Z-matrix:
 Charge =  0 Multiplicity = 1

 SCF Done:  E(RHF) =  -316.035723594     A.U. after   12 cycles
 Normal termination of Gaussian 16 at Wed Apr  9 00:32:14 2025.
 Gaussian 16:  ES64L-G16RevC.01  3-Jul-2019

 ----------------------------------------------------------------------
 #t hf aug-cc-pvdz iop(5/13=1,5/36=2,99/5=2) pseudo=read geom=check gue
 ss=(read,tcheck) scf=(maxcycle=1)
 ----------------------------------------------------------------------
 -----
 title
 -----
 Structure from the checkpoint file:  "BDE49_nonexpt_387_mol1.chk"
 Charge =  0 Multiplicity = 1

                         Standard orientation:
 ---------------------------------------------------------------------
 Center     Atomic      Atomic             Coordinates (Angstroms)
 Number     Number       Type             X           Y           Z
 ---------------------------------------------------------------------
      1          9           0       -0.000147   -1.109125    1.135316
      2          9           0       -0.000147   -1.109125   -1.135316
      3          5           0       -0.000147   -0.451622   -0.000000
      4          6           0        0.000142    1.088470   -0.000000
      5          7           0        0.000360    2.241648    0.000000
 ---------------------------------------------------------------------

 SCF Done:  E(RHF) =  -316.322709524     A.U. after    2 cycles

 The electronic state is 1-A'.
 Alpha  occ. eigenvalues --  -26.52596 -26.52596 -15.56589 -11.29739  -7.79621
 Alpha  occ. eigenvalues --   -1.67963  -1.64186  -1.27077  -0.89223  -0.82246
 Alpha  occ. eigenvalues --   -0.79484  -0.74089  -0.68524  -0.67682  -0.67241
 Alpha  occ. eigenvalues --   -0.63168  -0.54803  -0.54678
 Alpha virt. eigenvalues --    0.02930   0.04421   0.04745   0.04828   0.05313
 Alpha virt. eigenvalues --    0.11487   0.11613   0.14314   0.14325   0.17095
 Alpha virt. eigenvalues --    0.19342   0.21861   0.22303   0.22901   0.24531

 Mulliken charges:
               1
     1  F   -0.604930
     2  F   -0.604930
     3  B    1.507958
     4  C   -1.026106
     5  N    0.728008
 Sum of Mulliken charges =  -0.00000

 Dipole moment (field-independent basis, Debye):
    X=             -0.0008    Y=             -2.4889    Z=             -0.0000  Tot=              2.4889

 Test job not archived.
 1\1\GINC-SE229\SP\RHF\Aug-CC-pVDZ\C1B1F2N1\OHZDE\09-Apr-2025\0\\#t hf
 aug-cc-pvdz iop(5/13=1,5/36=2,99/5=2) pseudo=read geom=check guess=(re
 ad,tcheck) scf=(maxcycle=1)\\title\\0,1\F,0,-1.109125,-1.135316,-0.000
 024\F,0,-1.109125,1.135316,-0.000024\B,0,-0.451622,0.,0.000077\C,0,1.0
 8847,0.,0.000025\N,0,2.241648,0.,-0.000016\\Version=ES64L-G16RevC.01\S
 tate=1-A'\HF=-316.3227095\RMSD=1.379e-02\Dipole=-0.9791956,0.,0.000180
 1\Quadrupole=-4.8748335,1.1253048,3.7495287,0.,-0.000113,0.\PG=CS [SG(
 C1B1N1),X(F2)]\\@

 Normal termination of Gaussian 16 at Wed Apr  9 00:32:16 2025.
