 Gaussian 16, Revision C.01,

 ----------------------------------------------------------------------
 #t hf aug-cc-pvdz symm=none int=(grid=ultrafine) guess=(read,tcheck) s
 table=(opt,rrhf)
 ----------------------------------------------------------------------
 -----
 title
 -----
 Symbolic Z-matrix:
 Charge =  0 Multiplicity = 1

 SCF Done:  E(RHF) =  -1063.65064513     A.U. after   17 cycles
 Normal termination of Gaussian 16 at Tue Apr  8 23:14:50 2025.
 Gaussian 16:  ES64L-G16RevC.01  3-Jul-2019

 ----------------------------------------------------------------------
 #t hf aug-cc-pvdz iop(5/13=1,5/36=2,99/5=2) pseudo=read geom=check gue
 ss=(read,tcheck) scf=(maxcycle=1)
 ----------------------------------------------------------------------
 -----
 title
 -----
 Structure from the checkpoint file:  "BDE49_expt_841_mol1.chk"
 Charge =  0 Multiplicity = 1

                         Standard orientation:
 ---------------------------------------------------------------------
 Center     Atomic      Atomic             Coordinates (Angstroms)
 Number     Number       Type             X           Y           Z
 ---------------------------------------------------------------------
      1          6           0       -2.407138    1.119220   -0.477218
      2          6           0       -1.016582    1.099433   -0.470545
      3          6           0       -0.322040   -0.028276   -0.004412
      4          6           0       -3.125765    0.026541    0.002693
      5          6           0       -2.445494   -1.096672    0.471698
      6          6           0       -1.057076   -1.131302    0.456676
      7          6           0        1.159271   -0.097128   -0.022369
      8         16           0        2.076955    1.356824    0.372304
      9         16           0        2.007601   -1.450616   -0.402867
     10          1           0        1.066835    2.126066    0.822894
     11          1           0       -2.929087    1.987644   -0.862233
     12          1           0       -4.209518    0.047736    0.006640
     13          1           0       -0.469622    1.943053   -0.873502
     14          1           0       -2.998659   -1.949785    0.847239
     15          1           0       -0.523896   -2.004948    0.808834
 ---------------------------------------------------------------------

 SCF Done:  E(RHF) =  -1064.03928610     A.U. after    2 cycles

 The electronic state is 1-A.
 Alpha  occ. eigenvalues --  -93.98988 -93.92959 -11.36652 -11.27895 -11.27171
 Alpha  occ. eigenvalues --  -11.26811 -11.26661 -11.26345 -11.26135  -8.27097
 Alpha  occ. eigenvalues --   -8.21183  -6.24925  -6.24760  -6.24558  -6.19012
 Alpha  occ. eigenvalues --   -6.18788  -6.18593  -1.19398  -1.13867  -1.04325
 Alpha  occ. eigenvalues --   -1.03645  -1.00408  -0.87888  -0.85644  -0.77643
 Alpha  occ. eigenvalues --   -0.72190  -0.67133  -0.66067  -0.63876  -0.62168
 Alpha  occ. eigenvalues --   -0.56163  -0.55280  -0.53586  -0.51647  -0.50492
 Alpha  occ. eigenvalues --   -0.47910  -0.37708  -0.36882  -0.35603  -0.34101
 Alpha virt. eigenvalues --    0.01831   0.02799   0.03265   0.03995   0.05141
 Alpha virt. eigenvalues --    0.05878   0.06632   0.08261   0.08571   0.09302
 Alpha virt. eigenvalues --    0.10155   0.10354   0.11251   0.12322   0.13012

 Mulliken charges:
               1
     1  C    0.259858
     2  C   -0.105612
     3  C    1.912844
     4  C   -0.084378
     5  C    0.362183
     6  C   -0.348208
     7  C   -1.203173
     8  S   -0.022806
     9  S   -0.026045
    10  H    0.341214
    11  H   -0.215150
    12  H   -0.203777
    13  H   -0.251917
    14  H   -0.210077
    15  H   -0.204956
 Sum of Mulliken charges =  -0.00000

 Dipole moment (field-independent basis, Debye):
    X=             -3.6952    Y=              2.1993    Z=              0.7919  Tot=              4.3725

 Test job not archived.
 1\1\GINC-SE402\SP\RHF\Aug-CC-pVDZ\C7H6S2\OHZDE\08-Apr-2025\0\\#t hf au
 g-cc-pvdz iop(5/13=1,5/36=2,99/5=2) pseudo=read geom=check guess=(read
 ,tcheck) scf=(maxcycle=1)\\title\\0,1\C,0,-2.407138,1.11922,-0.477218\
 C,0,-1.016582,1.099433,-0.470545\C,0,-0.32204,-0.028276,-0.004412\C,0,
 -3.125765,0.026541,0.002693\C,0,-2.445494,-1.096672,0.471698\C,0,-1.05
 7076,-1.131302,0.456676\C,0,1.159271,-0.097128,-0.022369\S,0,2.076955,
 1.356824,0.372304\S,0,2.007601,-1.450616,-0.402867\H,0,1.066835,2.1260
 66,0.822894\H,0,-2.929087,1.987644,-0.862233\H,0,-4.209518,0.047736,0.

 Normal termination of Gaussian 16 at Tue Apr  8 23:14:57 2025.
