 Gaussian 16, Revision C.01,

 ----------------------------------------------------------------------
 #t hf aug-cc-pvdz symm=none int=(grid=ultrafine) guess=(read,tcheck) s
 table=(opt,rrhf)
 ----------------------------------------------------------------------
 -----
 title
 -----
 Symbolic Z-matrix:
 Charge =  0 Multiplicity = 1

 SCF Done:  E(RHF) =  -636.331990222     A.U. after   16 cycles
 Normal termination of Gaussian 16 at Wed Apr  9 00:45:48 2025.
 Gaussian 16:  ES64L-G16RevC.01  3-Jul-2019

 ----------------------------------------------------------------------
 #t hf aug-cc-pvdz iop(5/13=1,5/36=2,99/5=2) pseudo=read geom=check gue
 ss=(read,tcheck) scf=(maxcycle=1)
 ----------------------------------------------------------------------
 -----
 title
 -----
 Structure from the checkpoint file:  "BDE49_nonexpt_770_mol1.chk"
 Charge =  0 Multiplicity = 1

                         Standard orientation:
 ---------------------------------------------------------------------
 Center     Atomic      Atomic             Coordinates (Angstroms)
 Number     Number       Type             X           Y           Z
 ---------------------------------------------------------------------
      1          6           0        0.132799    0.061064   -0.097139
      2          6           0        0.917752    1.219476   -0.210646
      3          6           0        2.300985    1.149029   -0.101226
      4          6           0        2.931122   -0.078694    0.105370
      5          6           0        2.162747   -1.234526    0.202922
      6          6           0        0.773977   -1.168610    0.101685
      7          5           0       -2.504275    1.569432    0.548806
      8          1           0        2.890653    2.055221   -0.184059
      9          1           0        4.010799   -0.131761    0.184597
     10          1           0        2.641418   -2.194672    0.360811
     11          1           0        0.196607   -2.081379    0.185546
     12          1           0        0.441649    2.178147   -0.382543
     13         15           0       -1.669813    0.186822   -0.276318
     14          6           0       -2.422788   -1.471876   -0.037539
     15          1           0       -2.132605   -1.923433    0.913002
     16          1           0       -2.155708   -2.144978   -0.853849
     17          1           0       -3.505430   -1.335794   -0.043548
     18          1           0       -1.916428    2.583765    0.741498
     19          1           0       -3.681950    1.490220    0.698728
 ---------------------------------------------------------------------

 SCF Done:  E(RHF) =  -636.686679768     A.U. after    2 cycles

 The electronic state is 1-A.
 Alpha  occ. eigenvalues --  -84.26024 -11.26211 -11.25350 -11.25037 -11.24896
 Alpha  occ. eigenvalues --  -11.24862 -11.24775 -11.24609  -7.59343  -6.73663
 Alpha  occ. eigenvalues --   -4.26815  -4.26433  -4.25394  -1.16082  -1.03987
 Alpha  occ. eigenvalues --   -1.02275  -0.98839  -0.86309  -0.83915  -0.79739
 Alpha  occ. eigenvalues --   -0.71866  -0.66880  -0.64755  -0.63126  -0.60663
 Alpha  occ. eigenvalues --   -0.59300  -0.58944  -0.55441  -0.52176  -0.51270
 Alpha  occ. eigenvalues --   -0.50728  -0.46618  -0.45038  -0.37792  -0.35213
 Alpha  occ. eigenvalues --   -0.27791
 Alpha virt. eigenvalues --    0.02973   0.03344   0.03786   0.04271   0.04557
 Alpha virt. eigenvalues --    0.04849   0.06228   0.06746   0.07031   0.07368
 Alpha virt. eigenvalues --    0.08754   0.09390   0.10129   0.10318   0.10903

 Mulliken charges:
               1
     1  C   -0.269625
     2  C   -0.264073
     3  C    0.473389
     4  C    0.188453
     5  C    0.470997
     6  C   -0.079720
     7  B   -0.388918
     8  H   -0.223640
     9  H   -0.214551
    10  H   -0.230844
    11  H   -0.363433
    12  H   -0.338802
    13  P    1.365530
    14  C   -0.940829
    15  H    0.091307
    16  H    0.145274
    17  H   -0.039959
    18  H    0.307966
    19  H    0.311479
 Sum of Mulliken charges =  -0.00000

 Dipole moment (field-independent basis, Debye):
    X=              0.7560    Y=             -1.7004    Z=              0.1871  Tot=              1.8703

 Test job not archived.
 1\1\GINC-SE342\SP\RHF\Aug-CC-pVDZ\C7H10B1P1\OHZDE\09-Apr-2025\0\\#t hf
  aug-cc-pvdz iop(5/13=1,5/36=2,99/5=2) pseudo=read geom=check guess=(r
 ead,tcheck) scf=(maxcycle=1)\\title\\0,1\C,0,0.132799,0.061064,-0.0971
 39\C,0,0.917752,1.219476,-0.210646\C,0,2.300985,1.149029,-0.101226\C,0
 ,2.931122,-0.078694,0.10537\C,0,2.162747,-1.234526,0.202922\C,0,0.7739
 77,-1.16861,0.101685\B,0,-2.504275,1.569432,0.548806\H,0,2.890653,2.05
 5221,-0.184059\H,0,4.010799,-0.131761,0.184597\H,0,2.641418,-2.194672,
 0.360811\H,0,0.196607,-2.081379,0.185546\H,0,0.441649,2.178147,-0.3825

 Normal termination of Gaussian 16 at Wed Apr  9 00:45:58 2025.
