 Gaussian 16, Revision C.01,

 ----------------------------------------------------------------------
 #t hf aug-cc-pvdz symm=none int=(grid=ultrafine) guess=(read,tcheck) s
 table=(opt,rrhf)
 ----------------------------------------------------------------------
 -----
 title
 -----
 Symbolic Z-matrix:
 Charge =  0 Multiplicity = 1

 SCF Done:  E(RHF) =  -958.039434565     A.U. after   11 cycles

 1\1\GINC-SE331\Stability\RHF\Aug-CC-pVDZ\C1H2Cl2\OHZDE\08-Apr-2025\0\\
 #t hf aug-cc-pvdz symm=none int=(grid=ultrafine) guess=(read,tcheck) s
 table=(opt,rrhf)\\title\\0,1\C,0,-0.000007,0.77033,0.000014\Cl,0,-1.49
 1164,-0.216831,-0.000002\H,0,-0.000001,1.375107,0.900019\H,0,0.,1.3751
 2,-0.899982\Cl,0,1.491166,-0.216829,-0.000005\\Version=ES64L-G16RevC.0
 1\HF=-958.0394346\RMSD=7.088e-09\Dipole=-0.0000209,0.7484138,0.0000109
 \Quadrupole=-1.8927893,1.624151,0.2686384,0.0000095,-0.0000008,0.00003
 45\PG=Unknown\\@

 Normal termination of Gaussian 16 at Tue Apr  8 22:37:21 2025.
 Gaussian 16:  ES64L-G16RevC.01  3-Jul-2019

 ----------------------------------------------------------------------
 #t hf aug-cc-pvdz iop(5/13=1,5/36=2,99/5=2) pseudo=read geom=check gue
 ss=(read,tcheck) scf=(maxcycle=1)
 ----------------------------------------------------------------------
 -----
 title
 -----
 Structure from the checkpoint file:  "BDE49_expt_117_mol1.chk"
 Charge =  0 Multiplicity = 1

                         Standard orientation:
 ---------------------------------------------------------------------
 Center     Atomic      Atomic             Coordinates (Angstroms)
 Number     Number       Type             X           Y           Z
 ---------------------------------------------------------------------
      1          6           0       -0.000007    0.770330    0.000014
      2         17           0       -1.491164   -0.216830   -0.000002
      3          1           0       -0.000001    1.375107    0.900019
      4          1           0        0.000000    1.375120   -0.899982
      5         17           0        1.491166   -0.216829   -0.000005
 ---------------------------------------------------------------------

 SCF Done:  E(RHF) =  -958.234029961     A.U. after    2 cycles

 The electronic state is 1-A.
 Alpha  occ. eigenvalues -- -105.58247-105.58247 -11.38090 -10.63074 -10.63068
 Alpha  occ. eigenvalues --   -7.80015  -7.80014  -7.79611  -7.79610  -7.79599
 Alpha  occ. eigenvalues --   -7.79598  -1.16228  -1.05243  -0.88974  -0.68772
 Alpha  occ. eigenvalues --   -0.62485  -0.59625  -0.48501  -0.48148  -0.45964
 Alpha  occ. eigenvalues --   -0.45757
 Alpha virt. eigenvalues --    0.03441   0.05040   0.07411   0.07837   0.12538
 Alpha virt. eigenvalues --    0.13583   0.13882   0.15812   0.15971   0.16008
 Alpha virt. eigenvalues --    0.17784   0.18032   0.21092   0.22200   0.27459

 Mulliken charges:
               1
     1  C   -0.658099
     2  Cl  -0.004475
     3  H    0.333526
     4  H    0.333532
     5  Cl  -0.004484
 Sum of Mulliken charges =  -0.00000

 Dipole moment (field-independent basis, Debye):
    X=             -0.0001    Y=              1.9048    Z=              0.0000  Tot=              1.9048

 Test job not archived.
 1\1\GINC-SE331\SP\RHF\Aug-CC-pVDZ\C1H2Cl2\OHZDE\08-Apr-2025\0\\#t hf a
 ug-cc-pvdz iop(5/13=1,5/36=2,99/5=2) pseudo=read geom=check guess=(rea
 d,tcheck) scf=(maxcycle=1)\\title\\0,1\C,0,-0.000007,0.77033,0.000014\
 Cl,0,-1.491164,-0.216831,-0.000002\H,0,-0.000001,1.375107,0.900019\H,0
 ,0.,1.37512,-0.899982\Cl,0,1.491166,-0.216829,-0.000005\\Version=ES64L
 -G16RevC.01\State=1-A\HF=-958.23403\RMSD=4.155e-03\Dipole=-0.0000212,0
 .7494164,0.0000109\Quadrupole=-1.8716062,1.6248638,0.2467425,0.000011,
 -0.0000009,0.000035\PG=C01 [X(C1H2Cl2)]\\@

 Normal termination of Gaussian 16 at Tue Apr  8 22:37:22 2025.
