 Gaussian 16, Revision C.01,

 ----------------------------------------------------------------------
 #t hf aug-cc-pvdz symm=none int=(grid=ultrafine) guess=(read,tcheck) s
 table=(opt,rrhf)
 ----------------------------------------------------------------------
 -----
 title
 -----
 Symbolic Z-matrix:
 Charge =  0 Multiplicity = 1

 SCF Done:  E(RHF) =  -346.313911798     A.U. after   11 cycles

 1\1\GINC-SE332\Stability\RHF\Aug-CC-pVDZ\H5N1Si1\OHZDE\08-Apr-2025\0\\
 #t hf aug-cc-pvdz symm=none int=(grid=ultrafine) guess=(read,tcheck) s
 table=(opt,rrhf)\\title\\0,1\N,0,-1.147542,0.,-0.05859\Si,0,0.575922,0
 .,0.00325\H,0,-1.662198,0.830684,0.196234\H,0,-1.662199,-0.830684,0.19
 6235\H,0,1.052816,1.216048,-0.694282\H,0,1.052821,-1.216032,-0.694307\
 H,0,1.188648,-0.000013,1.360747\\Version=ES64L-G16RevC.01\HF=-346.3139
 118\RMSD=3.183e-09\Dipole=-0.3856611,-0.0000011,0.2998203\Quadrupole=0
 .9136716,0.8274823,-1.7411539,0.0000041,-1.3350721,-0.0000009\PG=Unkno

 Normal termination of Gaussian 16 at Tue Apr  8 23:56:17 2025.
 Gaussian 16:  ES64L-G16RevC.01  3-Jul-2019

 ----------------------------------------------------------------------
 #t hf aug-cc-pvdz iop(5/13=1,5/36=2,99/5=2) pseudo=read geom=check gue
 ss=(read,tcheck) scf=(maxcycle=1)
 ----------------------------------------------------------------------
 -----
 title
 -----
 Structure from the checkpoint file:  "BDE49_nonexpt_2010_mol1.chk"
 Charge =  0 Multiplicity = 1

                         Standard orientation:
 ---------------------------------------------------------------------
 Center     Atomic      Atomic             Coordinates (Angstroms)
 Number     Number       Type             X           Y           Z
 ---------------------------------------------------------------------
      1          7           0       -1.147542   -0.000000   -0.058590
      2         14           0        0.575922    0.000000    0.003250
      3          1           0       -1.662198    0.830684    0.196234
      4          1           0       -1.662199   -0.830684    0.196235
      5          1           0        1.052816    1.216048   -0.694282
      6          1           0        1.052821   -1.216032   -0.694307
      7          1           0        1.188648   -0.000013    1.360747
 ---------------------------------------------------------------------

 SCF Done:  E(RHF) =  -346.410309714     A.U. after    2 cycles

 The electronic state is 1-A.
 Alpha  occ. eigenvalues --  -69.53914 -15.48050  -6.20710  -3.96141  -3.96101
 Alpha  occ. eigenvalues --   -3.96046  -1.14180  -0.75420  -0.69398  -0.58595
 Alpha  occ. eigenvalues --   -0.51248  -0.48327  -0.42908
 Alpha virt. eigenvalues --    0.03219   0.04803   0.05516   0.06433   0.07576
 Alpha virt. eigenvalues --    0.07599   0.09254   0.09278   0.14941   0.16346
 Alpha virt. eigenvalues --    0.17883   0.19538   0.20740   0.21462   0.21905

 Mulliken charges:
               1
     1  N   -0.145261
     2  Si   0.736872
     3  H   -0.011108
     4  H   -0.011108
     5  H   -0.173499
     6  H   -0.173500
     7  H   -0.222396
 Sum of Mulliken charges =  -0.00000

 Dipole moment (field-independent basis, Debye):
    X=             -0.8208    Y=             -0.0000    Z=              0.7964  Tot=              1.1437

 Test job not archived.
 1\1\GINC-SE332\SP\RHF\Aug-CC-pVDZ\H5N1Si1\OHZDE\08-Apr-2025\0\\#t hf a
 ug-cc-pvdz iop(5/13=1,5/36=2,99/5=2) pseudo=read geom=check guess=(rea
 d,tcheck) scf=(maxcycle=1)\\title\\0,1\N,0,-1.147542,0.,-0.05859\Si,0,
 0.575922,0.,0.00325\H,0,-1.662198,0.830684,0.196234\H,0,-1.662199,-0.8
 30684,0.196235\H,0,1.052816,1.216048,-0.694282\H,0,1.052821,-1.216032,
 -0.694307\H,0,1.188648,-0.000013,1.360747\\Version=ES64L-G16RevC.01\St
 ate=1-A\HF=-346.4103097\RMSD=7.646e-03\Dipole=-0.3229236,-0.0000011,0.
 3133364\Quadrupole=0.9433421,0.8225878,-1.7659299,0.0000041,-1.3420563

 Normal termination of Gaussian 16 at Tue Apr  8 23:56:19 2025.
