 Gaussian 16, Revision C.01,

 ----------------------------------------------------------------------
 #t hf aug-cc-pvdz symm=none int=(grid=ultrafine) guess=(read,tcheck) s
 table=(opt,rrhf)
 ----------------------------------------------------------------------
 -----
 title
 -----
 Symbolic Z-matrix:
 Charge =  0 Multiplicity = 1

 SCF Done:  E(RHF) =  -603.609438124     A.U. after   15 cycles
 Normal termination of Gaussian 16 at Wed Apr  9 00:41:00 2025.
 Gaussian 16:  ES64L-G16RevC.01  3-Jul-2019

 ----------------------------------------------------------------------
 #t hf aug-cc-pvdz iop(5/13=1,5/36=2,99/5=2) pseudo=read geom=check gue
 ss=(read,tcheck) scf=(maxcycle=1)
 ----------------------------------------------------------------------
 -----
 title
 -----
 Structure from the checkpoint file:  "BDE49_nonexpt_634_mol1.chk"
 Charge =  0 Multiplicity = 1

                         Standard orientation:
 ---------------------------------------------------------------------
 Center     Atomic      Atomic             Coordinates (Angstroms)
 Number     Number       Type             X           Y           Z
 ---------------------------------------------------------------------
      1          9           0       -1.108545    2.140172    0.000002
      2          9           0        2.992571   -1.437043   -0.000001
      3          8           0       -3.002787    0.101960   -0.000007
      4          1           0       -2.795908    1.042015   -0.000010
      5          8           0       -2.046890   -2.041327    0.000014
      6          1           0       -2.976524   -2.292758    0.000022
      7          6           0       -0.414348   -0.136461   -0.000006
      8          6           0       -0.093391    1.219341    0.000000
      9          6           0        1.201670    1.709679    0.000006
     10          1           0        1.372560    2.778514    0.000010
     11          6           0        2.256703    0.802542    0.000005
     12          1           0        3.287161    1.134314    0.000009
     13          6           0        1.967846   -0.555446   -0.000001
     14          6           0        0.668314   -1.030704   -0.000006
     15          1           0        0.486205   -2.097817   -0.000011
     16          5           0       -1.890616   -0.686237   -0.000015
 ---------------------------------------------------------------------

 SCF Done:  E(RHF) =  -604.194848218     A.U. after    2 cycles

 The electronic state is 1-A.
 Alpha  occ. eigenvalues --  -26.49651 -26.48212 -20.56134 -20.56123 -11.35331
 Alpha  occ. eigenvalues --  -11.34442 -11.27713 -11.27296 -11.27018 -11.25195
 Alpha  occ. eigenvalues --   -7.65580  -1.62127  -1.61092  -1.48748  -1.44557
 Alpha  occ. eigenvalues --   -1.18273  -1.05678  -1.03292  -0.89657  -0.86345
 Alpha  occ. eigenvalues --   -0.79291  -0.75993  -0.74679  -0.74442  -0.72068
 Alpha  occ. eigenvalues --   -0.69184  -0.67837  -0.65803  -0.64711  -0.63612
 Alpha  occ. eigenvalues --   -0.61334  -0.58818  -0.57859  -0.56744  -0.55642
 Alpha  occ. eigenvalues --   -0.52298  -0.50302  -0.49700  -0.37912  -0.35759
 Alpha virt. eigenvalues --    0.03221   0.03931   0.04190   0.04914   0.05431
 Alpha virt. eigenvalues --    0.05762   0.06367   0.07495   0.09187   0.09792
 Alpha virt. eigenvalues --    0.10268   0.11302   0.12687   0.12948   0.13106

 Mulliken charges:
               1
     1  F   -1.091537
     2  F   -0.989102
     3  O   -1.530043
     4  H    0.711674
     5  O   -1.328483
     6  H    0.493145
     7  C    0.055896
     8  C    1.347721
     9  C    0.256343
    10  H   -0.203821
    11  C    0.278352
    12  H   -0.177426
    13  C    1.150296
    14  C   -0.014491
    15  H   -0.267367
    16  B    1.308844
 Sum of Mulliken charges =  -0.00000

 Dipole moment (field-independent basis, Debye):
    X=              0.0504    Y=              1.3634    Z=             -0.0000  Tot=              1.3643

 Test job not archived.
 1\1\GINC-SE249\SP\RHF\Aug-CC-pVDZ\C6H5B1F2O2\OHZDE\09-Apr-2025\0\\#t h
 f aug-cc-pvdz iop(5/13=1,5/36=2,99/5=2) pseudo=read geom=check guess=(
 read,tcheck) scf=(maxcycle=1)\\title\\0,1\F,0,1.108545,2.140172,-0.000
 002\F,0,-2.992571,-1.437043,0.000001\O,0,3.002787,0.10196,0.000007\H,0
 ,2.795908,1.042015,0.00001\O,0,2.04689,-2.041327,-0.000014\H,0,2.97652
 4,-2.292758,-0.000022\C,0,0.414348,-0.136461,0.000006\C,0,0.093391,1.2
 19341,0.\C,0,-1.20167,1.709679,-0.000006\H,0,-1.37256,2.778514,-0.0000
 1\C,0,-2.256703,0.802542,-0.000005\H,0,-3.287161,1.134315,-0.000009\C,

 Normal termination of Gaussian 16 at Wed Apr  9 00:41:09 2025.
