 Gaussian 16, Revision C.01,

 ----------------------------------------------------------------------
 #t hf aug-cc-pvdz symm=none int=(grid=ultrafine) guess=(read,tcheck) s
 table=(opt,rrhf)
 ----------------------------------------------------------------------
 -----
 title
 -----
 Symbolic Z-matrix:
 Charge =  0 Multiplicity = 1

 SCF Done:  E(RHF) =  -537.130398350     A.U. after   13 cycles
 Normal termination of Gaussian 16 at Tue Apr  8 23:51:42 2025.
 Gaussian 16:  ES64L-G16RevC.01  3-Jul-2019

 ----------------------------------------------------------------------
 #t hf aug-cc-pvdz iop(5/13=1,5/36=2,99/5=2) pseudo=read geom=check gue
 ss=(read,tcheck) scf=(maxcycle=1)
 ----------------------------------------------------------------------
 -----
 title
 -----
 Structure from the checkpoint file:  "BDE49_nonexpt_1906_mol1.chk"
 Charge =  0 Multiplicity = 1

                         Standard orientation:
 ---------------------------------------------------------------------
 Center     Atomic      Atomic             Coordinates (Angstroms)
 Number     Number       Type             X           Y           Z
 ---------------------------------------------------------------------
      1         14           0        2.374769   -0.191648   -0.299747
      2          6           0        0.881697    0.439557    0.684424
      3          1           0        2.629458   -1.611863    0.050957
      4          1           0        3.578191    0.605187    0.038612
      5          1           0        2.106456   -0.105432   -1.752579
      6          7           0       -0.311122   -0.375735    0.473046
      7          6           0       -1.477635    0.147121   -0.018288
      8          8           0       -1.598511    1.321702   -0.319190
      9          1           0       -0.283153   -1.351246    0.721652
     10          6           0       -2.619027   -0.843940   -0.174356
     11          1           0       -2.375064   -1.857915    0.149876
     12          1           0       -2.915752   -0.868594   -1.224832
     13          1           0       -3.474454   -0.480955    0.398405
     14          1           0        0.622591    1.447884    0.353194
     15          1           0        1.120683    0.506112    1.752693
 ---------------------------------------------------------------------

 SCF Done:  E(RHF) =  -537.421599965     A.U. after    2 cycles

 The electronic state is 1-A.
 Alpha  occ. eigenvalues --  -69.53248 -20.50407 -15.53276 -11.35864 -11.26304
 Alpha  occ. eigenvalues --  -11.24957  -6.20379  -3.95747  -3.95734  -3.95728
 Alpha  occ. eigenvalues --   -1.45437  -1.23931  -1.02454  -0.94611  -0.82489
 Alpha  occ. eigenvalues --   -0.74858  -0.69672  -0.67360  -0.63538  -0.59471
 Alpha  occ. eigenvalues --   -0.58193  -0.57027  -0.54116  -0.49467  -0.48716
 Alpha  occ. eigenvalues --   -0.48180  -0.42157  -0.40268
 Alpha virt. eigenvalues --    0.02909   0.03973   0.04174   0.04960   0.05480
 Alpha virt. eigenvalues --    0.05686   0.06387   0.07247   0.08329   0.09272
 Alpha virt. eigenvalues --    0.09673   0.10519   0.12792   0.13251   0.13936

 Mulliken charges:
               1
     1  Si   1.018235
     2  C   -0.745445
     3  H   -0.190889
     4  H   -0.200808
     5  H   -0.163493
     6  N    0.684239
     7  C    0.580806
     8  O   -1.339328
     9  H    0.060291
    10  C   -0.369620
    11  H    0.089055
    12  H    0.243617
    13  H    0.235210
    14  H    0.052170
    15  H    0.045959
 Sum of Mulliken charges =  -0.00000

 Dipole moment (field-independent basis, Debye):
    X=              0.5992    Y=             -3.1045    Z=              1.2538  Tot=              3.4013

 Test job not archived.
 1\1\GINC-SE074\SP\RHF\Aug-CC-pVDZ\C3H9N1O1Si1\OHZDE\08-Apr-2025\0\\#t
 hf aug-cc-pvdz iop(5/13=1,5/36=2,99/5=2) pseudo=read geom=check guess=
 (read,tcheck) scf=(maxcycle=1)\\title\\0,1\Si,0,2.374769,-0.191648,-0.
 299747\C,0,0.881697,0.439557,0.684424\H,0,2.629458,-1.611863,0.050957\
 H,0,3.578191,0.605187,0.038612\H,0,2.106456,-0.105432,-1.752579\N,0,-0
 .311122,-0.375735,0.473046\C,0,-1.477635,0.147121,-0.018288\O,0,-1.598
 511,1.321702,-0.31919\H,0,-0.283153,-1.351246,0.721652\C,0,-2.619027,-
 0.84394,-0.174356\H,0,-2.375064,-1.857915,0.149876\H,0,-2.915752,-0.86

 Normal termination of Gaussian 16 at Tue Apr  8 23:51:47 2025.
