 Gaussian 16, Revision C.01,

 ----------------------------------------------------------------------
 #t hf aug-cc-pvdz symm=none int=(grid=ultrafine) guess=(read,tcheck) s
 table=(opt,rrhf)
 ----------------------------------------------------------------------
 -----
 title
 -----
 Symbolic Z-matrix:
 Charge =  0 Multiplicity = 1

 SCF Done:  E(RHF) =  -789.081242277     A.U. after   12 cycles
 Normal termination of Gaussian 16 at Tue Apr  8 23:18:57 2025.
 Gaussian 16:  ES64L-G16RevC.01  3-Jul-2019

 ----------------------------------------------------------------------
 #t hf aug-cc-pvdz iop(5/13=1,5/36=2,99/5=2) pseudo=read geom=check gue
 ss=(read,tcheck) scf=(maxcycle=1)
 ----------------------------------------------------------------------
 -----
 title
 -----
 Structure from the checkpoint file:  "BDE49_expt_833_mol1.chk"
 Charge =  0 Multiplicity = 1

                         Standard orientation:
 ---------------------------------------------------------------------
 Center     Atomic      Atomic             Coordinates (Angstroms)
 Number     Number       Type             X           Y           Z
 ---------------------------------------------------------------------
      1          6           0        6.959910   -0.444370   -0.016349
      2          6           0        5.697789    0.422577    0.007112
      3          1           0        6.994565   -1.068125   -0.915094
      4          1           0        6.997029   -1.112343    0.849942
      5          1           0        7.866016    0.167521   -0.002290
      6          6           0        4.400482   -0.393974   -0.011506
      7          1           0        5.706982    1.103933   -0.852309
      8          1           0        5.709430    1.060138    0.899488
      9          6           0        3.131631    0.465604    0.011643
     10          1           0        4.391772   -1.076248    0.848532
     11          1           0        4.389384   -1.032498   -0.904465
     12          6           0        1.834955   -0.351890   -0.006996
     13          1           0        3.141387    1.147542   -0.848461
     14          1           0        3.143780    1.103920    0.904589
     15          6           0        0.566320    0.508382    0.016053
     16          1           0        1.825059   -1.033777    0.853090
     17          1           0        1.822692   -0.990117   -0.899889
     18          6           0       -0.729808   -0.309895   -0.003066
     19          1           0        0.576161    1.190196   -0.844049
     20          1           0        0.578214    1.146455    0.909104
     21          6           0       -1.998031    0.551592    0.020226
     22          1           0       -0.740326   -0.991652    0.856912
     23          1           0       -0.742797   -0.947373   -0.896160
     24          6           0       -3.291554   -0.274398   -0.003765
     25          1           0       -1.987695    1.233738   -0.839443
     26          1           0       -1.986961    1.187743    0.914446
     27          6           0       -4.546356    0.597212    0.028615
     28          1           0       -3.303860   -0.957664    0.853620
     29          1           0       -3.316450   -0.903930   -0.899134
     30          1           0       -4.572502    1.224221    0.922264
     31         16           0       -6.129589   -0.332845   -0.086851
     32          1           0       -4.572081    1.266732   -0.835345
     33          1           0       -5.998395   -1.017931    1.062460
 ---------------------------------------------------------------------

 SCF Done:  E(RHF) =  -789.580711732     A.U. after    2 cycles

 The electronic state is 1-A.
 Alpha  occ. eigenvalues --  -93.94423 -11.26992 -11.23662 -11.23219 -11.22853
 Alpha  occ. eigenvalues --  -11.22638 -11.22550 -11.22494 -11.22407 -11.22336
 Alpha  occ. eigenvalues --  -11.22149  -8.22476  -6.20331  -6.20183  -6.19962
 Alpha  occ. eigenvalues --   -1.10834  -1.08988  -1.06090  -1.02289  -0.97816
 Alpha  occ. eigenvalues --   -0.92748  -0.87346  -0.82638  -0.80311  -0.79243
 Alpha  occ. eigenvalues --   -0.78876  -0.67303  -0.65705  -0.63177  -0.60420
 Alpha  occ. eigenvalues --   -0.60147  -0.59456  -0.57996  -0.56800  -0.56036
 Alpha  occ. eigenvalues --   -0.54033  -0.52538  -0.51944  -0.50758  -0.49457
 Alpha  occ. eigenvalues --   -0.49108  -0.47737  -0.47630  -0.46854  -0.46643
 Alpha  occ. eigenvalues --   -0.46473  -0.46033  -0.43368  -0.36029
 Alpha virt. eigenvalues --    0.02909   0.03035   0.03293   0.04116   0.04154
 Alpha virt. eigenvalues --    0.04322   0.04677   0.05805   0.05981   0.06247
 Alpha virt. eigenvalues --    0.06605   0.07580   0.07769   0.08797   0.08910

 Mulliken charges:
               1
     1  C   -0.401895
     2  C   -0.172789
     3  H    0.162548
     4  H    0.162018
     5  H    0.113011
     6  C   -0.298850
     7  H    0.116737
     8  H    0.117077
     9  C   -0.221190
    10  H    0.108739
    11  H    0.108371
    12  C   -0.259050
    13  H    0.110490
    14  H    0.110085
    15  C   -0.188421
    16  H    0.116038
    17  H    0.118256
    18  C   -0.292422
    19  H    0.112331
    20  H    0.113831
    21  C   -0.264966
    22  H    0.105271
    23  H    0.102848
    24  C   -0.200875
    25  H    0.110456
    26  H    0.102703
    27  C   -0.725225
    28  H    0.135669
    29  H    0.164619
    30  H    0.144845
    31  S    0.101388
    32  H    0.187584
    33  H    0.300767
 Sum of Mulliken charges =  -0.00000

 Dipole moment (field-independent basis, Debye):
    X=              1.8856    Y=              0.4063    Z=              0.7559  Tot=              2.0717

 Test job not archived.
 1\1\GINC-SE273\SP\RHF\Aug-CC-pVDZ\C10H22S1\OHZDE\08-Apr-2025\0\\#t hf
 aug-cc-pvdz iop(5/13=1,5/36=2,99/5=2) pseudo=read geom=check guess=(re
 ad,tcheck) scf=(maxcycle=1)\\title\\0,1\C,0,6.95991,-0.44437,-0.016349
 \C,0,5.697789,0.422577,0.007112\H,0,6.994565,-1.068125,-0.915094\H,0,6
 .997029,-1.112343,0.849942\H,0,7.866016,0.167521,-0.00229\C,0,4.400482
 ,-0.393974,-0.011506\H,0,5.706982,1.103933,-0.852309\H,0,5.70943,1.060
 138,0.899488\C,0,3.131631,0.465604,0.011643\H,0,4.391772,-1.076248,0.8
 48532\H,0,4.389384,-1.032498,-0.904465\C,0,1.834955,-0.35189,-0.006996

 Normal termination of Gaussian 16 at Tue Apr  8 23:19:25 2025.
