 Gaussian 16, Revision C.01,

 ----------------------------------------------------------------------
 #t hf aug-cc-pvdz symm=none int=(grid=ultrafine) guess=(read,tcheck) s
 table=(opt,rrhf)
 ----------------------------------------------------------------------
 -----
 title
 -----
 Symbolic Z-matrix:
 Charge =  0 Multiplicity = 1

 SCF Done:  E(RHF) =  -725.828152407     A.U. after   11 cycles
 Normal termination of Gaussian 16 at Tue Apr  8 23:49:18 2025.
 Gaussian 16:  ES64L-G16RevC.01  3-Jul-2019

 ----------------------------------------------------------------------
 #t hf aug-cc-pvdz iop(5/13=1,5/36=2,99/5=2) pseudo=read geom=check gue
 ss=(read,tcheck) scf=(maxcycle=1)
 ----------------------------------------------------------------------
 -----
 title
 -----
 Structure from the checkpoint file:  "BDE49_nonexpt_1838_mol1.chk"
 Charge =  0 Multiplicity = 1

                         Standard orientation:
 ---------------------------------------------------------------------
 Center     Atomic      Atomic             Coordinates (Angstroms)
 Number     Number       Type             X           Y           Z
 ---------------------------------------------------------------------
      1         14           0        1.097222    0.598547   -0.000001
      2          6           0       -0.715359   -0.033590   -0.000001
      3          9           0       -1.565784    1.027452   -0.000005
      4          9           0        2.062394   -0.680739    0.000004
      5          9           0       -1.009004   -0.780316    1.089486
      6          1           0        1.311797    1.373606    1.231275
      7          9           0       -1.009001   -0.780322   -1.089483
      8          1           0        1.311800    1.373598   -1.231280
 ---------------------------------------------------------------------

 SCF Done:  E(RHF) =  -726.257914883     A.U. after    2 cycles

 The electronic state is 1-A.
 Alpha  occ. eigenvalues --  -69.62305 -26.51263 -26.51107 -26.51104 -26.48077
 Alpha  occ. eigenvalues --  -11.50819  -6.28934  -4.04372  -4.04177  -4.04125
 Alpha  occ. eigenvalues --   -1.71302  -1.61466  -1.61453  -1.59273  -0.96854
 Alpha  occ. eigenvalues --   -0.85001  -0.80721  -0.80707  -0.76048  -0.69118
 Alpha  occ. eigenvalues --   -0.69074  -0.67231  -0.67065  -0.64323  -0.64105
 Alpha  occ. eigenvalues --   -0.63828  -0.62476  -0.52892  -0.50720
 Alpha virt. eigenvalues --    0.03717   0.04832   0.05518   0.05552   0.08799
 Alpha virt. eigenvalues --    0.09503   0.11610   0.12160   0.13589   0.14586
 Alpha virt. eigenvalues --    0.16380   0.19412   0.20407   0.21570   0.24331

 Mulliken charges:
               1
     1  Si   1.674970
     2  C    1.772919
     3  F   -0.737881
     4  F   -0.818721
     5  F   -0.739604
     6  H   -0.206039
     7  F   -0.739604
     8  H   -0.206039
 Sum of Mulliken charges =  -0.00000

 Dipole moment (field-independent basis, Debye):
    X=              1.3351    Y=              1.7816    Z=             -0.0000  Tot=              2.2263

 Test job not archived.
 1\1\GINC-SE424\SP\RHF\Aug-CC-pVDZ\C1H2F4Si1\OHZDE\08-Apr-2025\0\\#t hf
  aug-cc-pvdz iop(5/13=1,5/36=2,99/5=2) pseudo=read geom=check guess=(r
 ead,tcheck) scf=(maxcycle=1)\\title\\0,1\Si,0,1.097222,0.598547,-0.000
 001\C,0,-0.715359,-0.03359,-0.000001\F,0,-1.565784,1.027452,-0.000005\
 F,0,2.062394,-0.680739,0.000004\F,0,-1.009004,-0.780316,1.089486\H,0,1
 .311797,1.373606,1.231275\F,0,-1.009001,-0.780322,-1.089483\H,0,1.3118
 ,1.373598,-1.23128\\Version=ES64L-G16RevC.01\State=1-A\HF=-726.2579149
 \RMSD=3.072e-03\Dipole=0.5252514,0.700939,-0.0000044\Quadrupole=-1.161

 Normal termination of Gaussian 16 at Tue Apr  8 23:49:21 2025.
