 Gaussian 16, Revision C.01,

 ----------------------------------------------------------------------
 #t hf aug-cc-pvdz symm=none int=(grid=ultrafine) guess=(read,tcheck) s
 table=(opt,rrhf)
 ----------------------------------------------------------------------
 -----
 title
 -----
 Symbolic Z-matrix:
 Charge =  0 Multiplicity = 1

 SCF Done:  E(RHF) =  -211.153407780     A.U. after   12 cycles
 Normal termination of Gaussian 16 at Tue Apr  8 22:39:36 2025.
 Gaussian 16:  ES64L-G16RevC.01  3-Jul-2019

 ----------------------------------------------------------------------
 #t hf aug-cc-pvdz iop(5/13=1,5/36=2,99/5=2) pseudo=read geom=check gue
 ss=(read,tcheck) scf=(maxcycle=1)
 ----------------------------------------------------------------------
 -----
 title
 -----
 Structure from the checkpoint file:  "BDE49_expt_1284_mol1.chk"
 Charge =  0 Multiplicity = 1

                         Standard orientation:
 ---------------------------------------------------------------------
 Center     Atomic      Atomic             Coordinates (Angstroms)
 Number     Number       Type             X           Y           Z
 ---------------------------------------------------------------------
      1          7           0        1.890045   -0.106565   -0.107490
      2          6           0        0.535057    0.000338    0.396255
      3          1           0        1.898762   -0.024824   -1.120342
      4          1           0        2.474181    0.640133    0.256660
      5          6           0       -0.476496   -1.079006   -0.063824
      6          6           0       -0.477634    1.089000   -0.093537
      7          6           0       -1.587747    0.005549   -0.039077
      8          1           0       -0.255185    1.381488   -1.125042
      9          1           0       -0.600649    1.991712    0.509997
     10          1           0       -2.322843   -0.006202   -0.845137
     11          1           0       -2.118833    0.018314    0.915707
     12          1           0        0.584259    0.015420    1.489886
     13          1           0       -0.255178   -1.397820   -1.087527
     14          1           0       -0.593913   -1.967546    0.559331
 ---------------------------------------------------------------------

 SCF Done:  E(RHF) =  -211.386096362     A.U. after    2 cycles

 The electronic state is 1-A.
 Alpha  occ. eigenvalues --  -15.48258 -11.25700 -11.22675 -11.22434 -11.22307
 Alpha  occ. eigenvalues --   -1.18859  -1.09548  -0.89771  -0.87343  -0.76569
 Alpha  occ. eigenvalues --   -0.69153  -0.66522  -0.63968  -0.55233  -0.54547
 Alpha  occ. eigenvalues --   -0.54221  -0.47716  -0.46297  -0.44845  -0.40333
 Alpha virt. eigenvalues --    0.03654   0.04002   0.04188   0.04577   0.06427
 Alpha virt. eigenvalues --    0.06617   0.06641   0.06801   0.09355   0.12589
 Alpha virt. eigenvalues --    0.12802   0.14117   0.14351   0.14932   0.15628

 Mulliken charges:
               1
     1  N    0.580356
     2  C   -1.263138
     3  H    0.158140
     4  H    0.172971
     5  C    0.003594
     6  C    0.034924
     7  C    0.040745
     8  H    0.065718
     9  H    0.044713
    10  H    0.014106
    11  H    0.032378
    12  H   -0.015496
    13  H    0.078093
    14  H    0.052897
 Sum of Mulliken charges =   0.00000

 Dipole moment (field-independent basis, Debye):
    X=             -0.4862    Y=              1.2092    Z=             -0.3197  Tot=              1.3420

 Test job not archived.
 1\1\GINC-SE398\SP\RHF\Aug-CC-pVDZ\C4H9N1\OHZDE\08-Apr-2025\0\\#t hf au
 g-cc-pvdz iop(5/13=1,5/36=2,99/5=2) pseudo=read geom=check guess=(read
 ,tcheck) scf=(maxcycle=1)\\title\\0,1\N,0,1.890045,-0.106565,-0.10749\
 C,0,0.535057,0.000338,0.396255\H,0,1.898762,-0.024824,-1.120342\H,0,2.
 474181,0.640133,0.25666\C,0,-0.476496,-1.079006,-0.063824\C,0,-0.47763
 4,1.089,-0.093537\C,0,-1.587747,0.005549,-0.039077\H,0,-0.255185,1.381
 488,-1.125042\H,0,-0.600649,1.991712,0.509997\H,0,-2.322843,-0.006202,
 -0.845137\H,0,-2.118833,0.018314,0.915707\H,0,0.584259,0.01542,1.48988

 Normal termination of Gaussian 16 at Tue Apr  8 22:39:39 2025.
