 Gaussian 16, Revision C.01,

 ----------------------------------------------------------------------
 #t hf aug-cc-pvdz symm=none int=(grid=ultrafine) guess=(read,tcheck) s
 table=opt
 ----------------------------------------------------------------------
 -----
 title
 -----
 Symbolic Z-matrix:
 Charge =  0 Multiplicity = 2

 SCF Done:  E(UHF) =  -446.781407177     A.U. after   15 cycles
 Normal termination of Gaussian 16 at Tue Apr  8 23:41:46 2025.
 Gaussian 16:  ES64L-G16RevC.01  3-Jul-2019

 ----------------------------------------------------------------------
 #t hf aug-cc-pvdz iop(5/13=1,5/36=2,99/5=2) pseudo=read geom=check gue
 ss=(read,tcheck) scf=(maxcycle=1)
 ----------------------------------------------------------------------
 -----
 title
 -----
 Structure from the checkpoint file:  "BDE49_nonexpt_1647_mol2.chk"
 Charge =  0 Multiplicity = 2

                         Standard orientation:
 ---------------------------------------------------------------------
 Center     Atomic      Atomic             Coordinates (Angstroms)
 Number     Number       Type             X           Y           Z
 ---------------------------------------------------------------------
      1          6           0        0.342246    0.000000   -0.002808
      2          6           0        0.690788   -0.000001    1.502320
      3          1           0        0.298673   -0.884644    2.012465
      4          1           0        0.298673    0.884642    2.012466
      5          6           0        0.929124    1.260692   -0.667124
      6          1           0        0.531186    2.178064   -0.222631
      7          1           0        0.717867    1.289345   -1.740140
      8          1           0        2.019037    1.281154   -0.543336
      9          1           0        1.781446   -0.000001    1.633378
     10          6           0        0.929124   -1.260691   -0.667125
     11          1           0        2.019037   -1.281153   -0.543337
     12          1           0        0.717867   -1.289343   -1.740141
     13          1           0        0.531187   -2.178064   -0.222633
     14         14           0       -1.567100    0.000000   -0.180915
     15          1           0       -2.161629    1.212784    0.447578
     16          1           0       -2.161629   -1.212784    0.447577
 ---------------------------------------------------------------------

 SCF Done:  E(UHF) =  -446.988617131     A.U. after    2 cycles

 The electronic state is 2-A.
 Alpha  occ. eigenvalues --  -69.52677 -11.23861 -11.23069 -11.22980 -11.22961
 Alpha  occ. eigenvalues --   -6.19841  -3.95785  -3.94884  -3.94849  -1.08974
 Alpha  occ. eigenvalues --   -0.93678  -0.93623  -0.78987  -0.70411  -0.61025
 Alpha  occ. eigenvalues --   -0.60821  -0.60518  -0.55092  -0.55005  -0.52577
 Alpha  occ. eigenvalues --   -0.48737  -0.48068  -0.47413  -0.41940  -0.32506
 Alpha virt. eigenvalues --    0.03622   0.04114   0.04203   0.04389   0.05982
 Alpha virt. eigenvalues --    0.06564   0.06616   0.06620   0.06774   0.09665
 Alpha virt. eigenvalues --    0.09895   0.10197   0.10284   0.11243   0.13217

  Beta  occ. eigenvalues --  -69.52127 -11.23800 -11.23014 -11.22979 -11.22959
  Beta  occ. eigenvalues --   -6.19012  -3.94508  -3.94478  -3.93633  -1.08717
  Beta  occ. eigenvalues --   -0.93611  -0.93509  -0.77534  -0.68008  -0.60726
  Beta  occ. eigenvalues --   -0.60694  -0.59501  -0.55038  -0.54626  -0.52546
  Beta  occ. eigenvalues --   -0.48368  -0.47855  -0.46886  -0.40880
  Beta virt. eigenvalues --    0.02634   0.03723   0.04130   0.04364   0.05646
  Beta virt. eigenvalues --    0.06097   0.06635   0.06663   0.06665   0.07888
  Beta virt. eigenvalues --    0.09671   0.10140   0.10242   0.10696   0.11541

 Mulliken charges and spin densities:
               1          2
     1  C   -1.818497  -0.068762
     2  C    0.134652  -0.025374
     3  H    0.148219  -0.006972
     4  H    0.148220  -0.006972
     5  C    0.018885   0.034373
     6  H    0.149671  -0.002918
     7  H    0.146123  -0.003293
     8  H    0.219602  -0.001524
     9  H    0.194474   0.010035
    10  C    0.018885   0.034374
    11  H    0.219602  -0.001524
    12  H    0.146123  -0.003293
    13  H    0.149671  -0.002918
    14  Si   0.209466   1.016613
    15  H   -0.042547   0.014078
    16  H   -0.042547   0.014078
 Sum of Mulliken charges =   0.00000   1.00000

 Dipole moment (field-independent basis, Debye):
    X=              0.8817    Y=             -0.0000    Z=              0.1391  Tot=              0.8926
                          Isotropic Fermi Contact Couplings
        Atom                 a.u.       MegaHertz       Gauss      10(-4) cm-1
     1  C(13)              0.01063      11.95041       4.26420       3.98623
     2  C(13)              0.01828      20.55012       7.33279       6.85478
     3  H(1)               0.00024       1.06350       0.37948       0.35475
     4  H(1)               0.00024       1.06350       0.37948       0.35475
     5  C(13)             -0.00004      -0.04100      -0.01463      -0.01367
     6  H(1)              -0.00008      -0.34342      -0.12254      -0.11455
     7  H(1)              -0.00019      -0.84135      -0.30022      -0.28064
     8  H(1)              -0.00054      -2.40293      -0.85742      -0.80153

 Normal termination of Gaussian 16 at Tue Apr  8 23:41:53 2025.
