 Gaussian 16, Revision C.01,

 ----------------------------------------------------------------------
 #t hf aug-cc-pvdz symm=none int=(grid=ultrafine) guess=(read,tcheck) s
 table=(opt,rrhf)
 ----------------------------------------------------------------------
 -----
 title
 -----
 Symbolic Z-matrix:
 Charge =  0 Multiplicity = 1

 SCF Done:  E(RHF) =  -1875.85020952     A.U. after   10 cycles
 Normal termination of Gaussian 16 at Tue Apr  8 22:47:35 2025.
 Gaussian 16:  ES64L-G16RevC.01  3-Jul-2019

 ----------------------------------------------------------------------
 #t hf aug-cc-pvdz iop(5/13=1,5/36=2,99/5=2) pseudo=read geom=check gue
 ss=(read,tcheck) scf=(maxcycle=1)
 ----------------------------------------------------------------------
 -----
 title
 -----
 Structure from the checkpoint file:  "BDE49_expt_1617_mol1.chk"
 Charge =  0 Multiplicity = 1

                         Standard orientation:
 ---------------------------------------------------------------------
 Center     Atomic      Atomic             Coordinates (Angstroms)
 Number     Number       Type             X           Y           Z
 ---------------------------------------------------------------------
      1          6           0        0.000023    0.000023   -0.000005
      2         17           0       -0.082523   -1.200595   -1.319633
      3         17           0       -1.018680    1.408046   -0.411616
      4         17           0        1.691259    0.531646    0.216254
      5         17           0       -0.590065   -0.739105    1.514997
 ---------------------------------------------------------------------

 SCF Done:  E(RHF) =  -1876.18746233     A.U. after    2 cycles

 The electronic state is 1-A.
 Alpha  occ. eigenvalues -- -105.61165-105.61164-105.61164-105.61163 -11.51026
 Alpha  occ. eigenvalues --  -10.66015 -10.66014 -10.66014 -10.65996  -7.82962
 Alpha  occ. eigenvalues --   -7.82962  -7.82962  -7.82944  -7.82500  -7.82500
 Alpha  occ. eigenvalues --   -7.82500  -7.82497  -7.82497  -7.82496  -7.82496
 Alpha  occ. eigenvalues --   -7.82496  -1.25193  -1.08665  -1.08664  -1.08664
 Alpha  occ. eigenvalues --   -0.82893  -0.66858  -0.66858  -0.66858  -0.54351
 Alpha  occ. eigenvalues --   -0.54351  -0.50022  -0.50021  -0.50021  -0.47228
 Alpha  occ. eigenvalues --   -0.47228  -0.47228
 Alpha virt. eigenvalues --    0.05222   0.07736   0.08300   0.08300   0.08300
 Alpha virt. eigenvalues --    0.12088   0.12089   0.12089   0.15094   0.15094
 Alpha virt. eigenvalues --    0.18635   0.18635   0.18635   0.19126   0.19126

 Mulliken charges:
               1
     1  C   -1.354991
     2  Cl   0.338749
     3  Cl   0.338747
     4  Cl   0.338751
     5  Cl   0.338743
 Sum of Mulliken charges =  -0.00000

 Dipole moment (field-independent basis, Debye):
    X=              0.0001    Y=              0.0001    Z=             -0.0000  Tot=              0.0001

 Test job not archived.
 1\1\GINC-SE088\SP\RHF\Aug-CC-pVDZ\C1Cl4\OHZDE\08-Apr-2025\0\\#t hf aug
 -cc-pvdz iop(5/13=1,5/36=2,99/5=2) pseudo=read geom=check guess=(read,
 tcheck) scf=(maxcycle=1)\\title\\0,1\C,0,-0.000023,0.000023,0.000005\C
 l,0,0.082527,-1.190712,1.328557\Cl,0,1.01574,1.412725,0.40275\Cl,0,-1.
 691808,0.527233,-0.222672\Cl,0,0.593548,-0.749254,-1.508638\\Version=E
 S64L-G16RevC.01\State=1-A\HF=-1876.1874623\RMSD=3.476e-03\Dipole=-0.00
 00368,0.0000333,0.0000126\Quadrupole=0.000237,-0.0000194,-0.0002176,-0
 .0000113,0.0000678,-0.0000238\PG=C01 [X(C1Cl4)]\\@

 Normal termination of Gaussian 16 at Tue Apr  8 22:47:40 2025.
