 Gaussian 16, Revision C.01,

 ----------------------------------------------------------------------
 #t hf aug-cc-pvdz symm=none int=(grid=ultrafine) guess=(read,tcheck) s
 table=(opt,rrhf)
 ----------------------------------------------------------------------
 -----
 title
 -----
 Symbolic Z-matrix:
 Charge =  0 Multiplicity = 1

 SCF Done:  E(RHF) =  -590.646832612     A.U. after   13 cycles
 Normal termination of Gaussian 16 at Tue Apr  8 23:23:07 2025.
 Gaussian 16:  ES64L-G16RevC.01  3-Jul-2019

 ----------------------------------------------------------------------
 #t hf aug-cc-pvdz iop(5/13=1,5/36=2,99/5=2) pseudo=read geom=check gue
 ss=(read,tcheck) scf=(maxcycle=1)
 ----------------------------------------------------------------------
 -----
 title
 -----
 Structure from the checkpoint file:  "BDE49_nonexpt_1221_mol1.chk"
 Charge =  0 Multiplicity = 1

                         Standard orientation:
 ---------------------------------------------------------------------
 Center     Atomic      Atomic             Coordinates (Angstroms)
 Number     Number       Type             X           Y           Z
 ---------------------------------------------------------------------
      1         16           0       -1.845271   -0.119100   -0.112121
      2          8           0       -0.310255   -0.539531    0.427089
      3          6           0        0.815065    0.002786   -0.322434
      4          6           0        1.981643   -0.919219    0.001491
      5          1           0        2.195007   -0.900865    1.073314
      6          1           0        2.878482   -0.600344   -0.536107
      7          1           0        1.747996   -1.946042   -0.285261
      8          6           0        1.070619    1.453384    0.065998
      9          1           0        0.571471   -0.058349   -1.389269
     10          1           0        1.271502    1.529772    1.138133
     11          1           0        0.211950    2.084462   -0.175068
     12          1           0        1.933513    1.847863   -0.477647
     13          1           0       -2.007511    1.043643    0.558799
 ---------------------------------------------------------------------

 SCF Done:  E(RHF) =  -590.911259813     A.U. after    2 cycles

 The electronic state is 1-A.
 Alpha  occ. eigenvalues --  -94.00040 -20.57453 -11.29864 -11.23294 -11.23011
 Alpha  occ. eigenvalues --   -8.27454  -6.25328  -6.25111  -6.24861  -1.46289
 Alpha  occ. eigenvalues --   -1.07037  -0.97035  -0.94195  -0.80522  -0.68605
 Alpha  occ. eigenvalues --   -0.63434  -0.61963  -0.58543  -0.55585  -0.54468
 Alpha  occ. eigenvalues --   -0.52850  -0.50545  -0.48178  -0.43436  -0.37250
 Alpha virt. eigenvalues --    0.03752   0.04026   0.04379   0.04676   0.06547
 Alpha virt. eigenvalues --    0.07050   0.07527   0.07965   0.09343   0.11764
 Alpha virt. eigenvalues --    0.13195   0.13979   0.15058   0.15398   0.15913

 Mulliken charges:
               1
     1  S    0.200050
     2  O   -1.431866
     3  C    0.390071
     4  C   -0.328255
     5  H    0.186011
     6  H    0.195295
     7  H    0.137281
     8  C   -0.333516
     9  H    0.143892
    10  H    0.237662
    11  H    0.099474
    12  H    0.190426
    13  H    0.313476
 Sum of Mulliken charges =  -0.00000

 Dipole moment (field-independent basis, Debye):
    X=              1.1960    Y=              1.4619    Z=             -0.4563  Tot=              1.9432

 Test job not archived.
 1\1\GINC-SE143\SP\RHF\Aug-CC-pVDZ\C3H8O1S1\OHZDE\08-Apr-2025\0\\#t hf
 aug-cc-pvdz iop(5/13=1,5/36=2,99/5=2) pseudo=read geom=check guess=(re
 ad,tcheck) scf=(maxcycle=1)\\title\\0,1\S,0,-1.845271,-0.1191,-0.11212
 1\O,0,-0.310255,-0.539531,0.427089\C,0,0.815065,0.002786,-0.322434\C,0
 ,1.981643,-0.919219,0.001491\H,0,2.195007,-0.900865,1.073314\H,0,2.878
 482,-0.600344,-0.536107\H,0,1.747996,-1.946042,-0.285261\C,0,1.070619,
 1.453384,0.065998\H,0,0.571471,-0.058349,-1.389269\H,0,1.271502,1.5297
 72,1.138133\H,0,0.21195,2.084462,-0.175068\H,0,1.933513,1.847863,-0.47

 Normal termination of Gaussian 16 at Tue Apr  8 23:23:11 2025.
