 Gaussian 16, Revision C.01,

 ----------------------------------------------------------------------
 #t hf aug-cc-pvdz symm=none int=(grid=ultrafine) guess=(read,tcheck) s
 table=(opt,rrhf)
 ----------------------------------------------------------------------
 -----
 title
 -----
 Symbolic Z-matrix:
 Charge =  0 Multiplicity = 1

 SCF Done:  E(RHF) =  -101.339937940     A.U. after   11 cycles
 Normal termination of Gaussian 16 at Wed Apr  9 00:34:45 2025.
 Gaussian 16:  ES64L-G16RevC.01  3-Jul-2019

 ----------------------------------------------------------------------
 #t hf aug-cc-pvdz iop(5/13=1,5/36=2,99/5=2) pseudo=read geom=check gue
 ss=(read,tcheck) scf=(maxcycle=1)
 ----------------------------------------------------------------------
 -----
 title
 -----
 Structure from the checkpoint file:  "BDE49_nonexpt_451_mol1.chk"
 Charge =  0 Multiplicity = 1

                         Standard orientation:
 ---------------------------------------------------------------------
 Center     Atomic      Atomic             Coordinates (Angstroms)
 Number     Number       Type             X           Y           Z
 ---------------------------------------------------------------------
      1          1           0       -1.367019   -0.964764    0.000012
      2          1           0       -1.206052    1.121987    0.000011
      3          8           0        0.627785   -0.127064    0.000003
      4          5           0       -0.712675    0.031192   -0.000011
      5          1           0        1.114166    0.703330    0.000009
 ---------------------------------------------------------------------

 SCF Done:  E(RHF) =  -101.443505227     A.U. after    2 cycles

 The electronic state is 1-A.
 Alpha  occ. eigenvalues --  -20.57164  -7.62172  -1.47089  -0.77587  -0.65597
 Alpha  occ. eigenvalues --   -0.57859  -0.53786  -0.46611
 Alpha virt. eigenvalues --    0.03510   0.04615   0.04987   0.05477   0.08605
 Alpha virt. eigenvalues --    0.11253   0.11991   0.14081   0.18197   0.22294
 Alpha virt. eigenvalues --    0.23427   0.24869   0.25873   0.26652   0.32319

 Mulliken charges:
               1
     1  H    0.021900
     2  H   -0.062822
     3  O   -0.901692
     4  B    0.471174
     5  H    0.471440
 Sum of Mulliken charges =   0.00000

 Dipole moment (field-independent basis, Debye):
    X=              0.4453    Y=              1.4862    Z=             -0.0000  Tot=              1.5515

 Test job not archived.
 1\1\GINC-SE284\SP\RHF\Aug-CC-pVDZ\B1H3O1\OHZDE\09-Apr-2025\0\\#t hf au
 g-cc-pvdz iop(5/13=1,5/36=2,99/5=2) pseudo=read geom=check guess=(read
 ,tcheck) scf=(maxcycle=1)\\title\\0,1\H,0,-1.367019,-0.964764,0.000012
 \H,0,-1.206052,1.121987,0.000011\O,0,0.627785,-0.127064,0.000003\B,0,-
 0.712675,0.031192,-0.000011\H,0,1.114166,0.70333,0.000009\\Version=ES6
 4L-G16RevC.01\State=1-A\HF=-101.4435052\RMSD=9.497e-03\Dipole=0.175194
 6,0.5847204,-0.0000131\Quadrupole=-0.0687593,-0.1596494,0.2284087,1.56
 72719,0.0000359,0.0000114\PG=C01 [X(B1H3O1)]\\@

 Normal termination of Gaussian 16 at Wed Apr  9 00:34:46 2025.
