 Gaussian 16, Revision C.01,

 ----------------------------------------------------------------------
 #t hf aug-cc-pvdz symm=none int=(grid=ultrafine) guess=(read,tcheck) s
 table=(opt,rrhf)
 ----------------------------------------------------------------------
 -----
 title
 -----
 Symbolic Z-matrix:
 Charge =  0 Multiplicity = 1

 SCF Done:  E(RHF) =  -1454.39434174     A.U. after   14 cycles
 Normal termination of Gaussian 16 at Wed Apr  9 00:21:39 2025.
 Gaussian 16:  ES64L-G16RevC.01  3-Jul-2019

 ----------------------------------------------------------------------
 #t hf aug-cc-pvdz iop(5/13=1,5/36=2,99/5=2) pseudo=read geom=check gue
 ss=(read,tcheck) scf=(maxcycle=1)
 ----------------------------------------------------------------------
 -----
 title
 -----
 Structure from the checkpoint file:  "BDE49_nonexpt_2630_mol1.chk"
 Charge =  0 Multiplicity = 1

                         Standard orientation:
 ---------------------------------------------------------------------
 Center     Atomic      Atomic             Coordinates (Angstroms)
 Number     Number       Type             X           Y           Z
 ---------------------------------------------------------------------
      1          9           0       -2.338784    0.008131    0.253867
      2         16           0       -1.051713   -0.903632   -0.279103
      3          6           0        0.277973    0.056919    0.450066
      4         17           0        0.399495    1.744314   -0.138102
      5         17           0        1.717944   -0.924440    0.017441
      6          1           0        0.212163    0.105561    1.531688
 ---------------------------------------------------------------------

 SCF Done:  E(RHF) =  -1454.73206324     A.U. after    2 cycles

 The electronic state is 1-A.
 Alpha  occ. eigenvalues -- -105.61257-105.59826 -94.06975 -26.49230 -11.42750
 Alpha  occ. eigenvalues --  -10.66039 -10.64637  -8.34244  -7.82985  -7.82572
 Alpha  occ. eigenvalues --   -7.82547  -7.81582  -7.81159  -7.81150  -6.32010
 Alpha  occ. eigenvalues --   -6.31719  -6.31395  -1.59382  -1.20738  -1.07691
 Alpha  occ. eigenvalues --   -1.03080  -0.86835  -0.71711  -0.68218  -0.67838
 Alpha  occ. eigenvalues --   -0.65028  -0.61285  -0.56410  -0.50779  -0.50292
 Alpha  occ. eigenvalues --   -0.47856  -0.47139  -0.41058
 Alpha virt. eigenvalues --    0.03997   0.05520   0.06372   0.07804   0.09439
 Alpha virt. eigenvalues --    0.10694   0.12520   0.12964   0.13760   0.14228
 Alpha virt. eigenvalues --    0.15090   0.16618   0.17124   0.17976   0.18657

 Mulliken charges:
               1
     1  F   -0.648495
     2  S    1.187161
     3  C   -1.131800
     4  Cl   0.064832
     5  Cl   0.134215
     6  H    0.394087
 Sum of Mulliken charges =   0.00000

 Dipole moment (field-independent basis, Debye):
    X=              0.6909    Y=             -0.6149    Z=              0.8943  Tot=              1.2865

 Test job not archived.
 1\1\GINC-SE038\SP\RHF\Aug-CC-pVDZ\C1H1Cl2F1S1\OHZDE\09-Apr-2025\0\\#t
 hf aug-cc-pvdz iop(5/13=1,5/36=2,99/5=2) pseudo=read geom=check guess=
 (read,tcheck) scf=(maxcycle=1)\\title\\0,1\F,0,-2.338784,0.008129,0.25
 3867\S,0,-1.051712,-0.903633,-0.279103\C,0,0.277973,0.056919,0.450066\
 Cl,0,0.399493,1.744314,-0.138102\Cl,0,1.717945,-0.924438,0.017441\H,0,
 0.212163,0.105561,1.531688\\Version=ES64L-G16RevC.01\State=1-A\HF=-145
 4.7320632\RMSD=3.777e-03\Dipole=0.271812,-0.2419103,0.3518262\Quadrupo
 le=-1.6721475,0.2593045,1.412843,0.2772844,0.5973599,0.5684048\PG=C01

 Normal termination of Gaussian 16 at Wed Apr  9 00:21:42 2025.
