 Gaussian 16, Revision C.01,

 ----------------------------------------------------------------------
 #t hf aug-cc-pvdz symm=none int=(grid=ultrafine) guess=(read,tcheck) s
 table=(opt,rrhf)
 ----------------------------------------------------------------------
 -----
 title
 -----
 Symbolic Z-matrix:
 Charge =  0 Multiplicity = 1

 SCF Done:  E(RHF) =  -470.152432576     A.U. after   14 cycles
 Normal termination of Gaussian 16 at Wed Apr  9 00:33:17 2025.
 Gaussian 16:  ES64L-G16RevC.01  3-Jul-2019

 ----------------------------------------------------------------------
 #t hf aug-cc-pvdz iop(5/13=1,5/36=2,99/5=2) pseudo=read geom=check gue
 ss=(read,tcheck) scf=(maxcycle=1)
 ----------------------------------------------------------------------
 -----
 title
 -----
 Structure from the checkpoint file:  "BDE49_nonexpt_391_mol1.chk"
 Charge =  0 Multiplicity = 1

                         Standard orientation:
 ---------------------------------------------------------------------
 Center     Atomic      Atomic             Coordinates (Angstroms)
 Number     Number       Type             X           Y           Z
 ---------------------------------------------------------------------
      1          9           0        2.040669    0.218841    1.130772
      2          9           0        2.040676    0.218825   -1.130768
      3          5           0        1.380301    0.024991    0.000001
      4          6           0       -0.089192   -0.562250    0.000001
      5          8           0       -0.105078   -1.793648    0.000005
      6          7           0       -1.202825    0.218961   -0.000002
      7          6           0       -1.134562    1.667672   -0.000007
      8          1           0       -0.093237    1.997543   -0.000006
      9          1           0       -1.620772    2.083877    0.888858
     10          1           0       -1.620769    2.083871   -0.888877
     11          6           0       -2.522286   -0.395924   -0.000002
     12          1           0       -2.390492   -1.476239   -0.000002
     13          1           0       -3.085854   -0.096764   -0.889797
     14          1           0       -3.085853   -0.096766    0.889795
 ---------------------------------------------------------------------

 SCF Done:  E(RHF) =  -470.607707263     A.U. after    2 cycles

 The electronic state is 1-A.
 Alpha  occ. eigenvalues --  -26.49264 -26.49264 -20.52456 -15.54735 -11.35605
 Alpha  occ. eigenvalues --  -11.30053 -11.27824  -7.74213  -1.64409  -1.60400
 Alpha  occ. eigenvalues --   -1.46451  -1.27254  -1.00814  -0.98269  -0.84871
 Alpha  occ. eigenvalues --   -0.79642  -0.75871  -0.75735  -0.70794  -0.68798
 Alpha  occ. eigenvalues --   -0.68483  -0.66755  -0.64492  -0.63721  -0.59294
 Alpha  occ. eigenvalues --   -0.58808  -0.58509  -0.56458  -0.54656  -0.42658
 Alpha  occ. eigenvalues --   -0.41217
 Alpha virt. eigenvalues --    0.02806   0.04125   0.04170   0.05056   0.05726
 Alpha virt. eigenvalues --    0.06301   0.06397   0.07337   0.07911   0.09948
 Alpha virt. eigenvalues --    0.12672   0.13260   0.13396   0.13653   0.14588

 Mulliken charges:
               1
     1  F   -0.731898
     2  F   -0.731897
     3  B    1.698843
     4  C    0.293709
     5  O   -1.167656
     6  N    0.753217
     7  C   -0.425408
     8  H   -0.098081
     9  H    0.169191
    10  H    0.169192
    11  C   -0.310233
    12  H    0.013695
    13  H    0.183663
    14  H    0.183665
 Sum of Mulliken charges =  -0.00000

 Dipole moment (field-independent basis, Debye):
    X=             -2.6514    Y=              3.4819    Z=             -0.0000  Tot=              4.3765

 Test job not archived.
 1\1\GINC-SE186\SP\RHF\Aug-CC-pVDZ\C3H6B1F2N1O1\OHZDE\09-Apr-2025\0\\#t
  hf aug-cc-pvdz iop(5/13=1,5/36=2,99/5=2) pseudo=read geom=check guess
 =(read,tcheck) scf=(maxcycle=1)\\title\\0,1\F,0,-2.040669,0.218841,-1.
 130772\F,0,-2.040676,0.218825,1.130768\B,0,-1.380301,0.024991,-0.00000
 1\C,0,0.089192,-0.56225,-0.000001\O,0,0.105078,-1.793648,-0.000005\N,0
 ,1.202825,0.218961,0.000002\C,0,1.134562,1.667672,0.000007\H,0,0.09323
 7,1.997543,0.000006\H,0,1.620772,2.083877,-0.888858\H,0,1.620769,2.083
 871,0.888877\C,0,2.522286,-0.395924,0.000002\H,0,2.390492,-1.476239,0.

 Normal termination of Gaussian 16 at Wed Apr  9 00:33:22 2025.
