 Gaussian 16, Revision C.01,

 ----------------------------------------------------------------------
 #t hf aug-cc-pvdz symm=none int=(grid=ultrafine) guess=(read,tcheck) s
 table=(opt,rrhf)
 ----------------------------------------------------------------------
 -----
 title
 -----
 Symbolic Z-matrix:
 Charge =  0 Multiplicity = 1

 SCF Done:  E(RHF) =  -1332.74046162     A.U. after   12 cycles
 Normal termination of Gaussian 16 at Tue Apr  8 22:30:31 2025.
 Gaussian 16:  ES64L-G16RevC.01  3-Jul-2019

 ----------------------------------------------------------------------
 #t hf aug-cc-pvdz iop(5/13=1,5/36=2,99/5=2) pseudo=read geom=check gue
 ss=(read,tcheck) scf=(maxcycle=1)
 ----------------------------------------------------------------------
 -----
 title
 -----
 Structure from the checkpoint file:  "BDE49_expt_1024_mol1.chk"
 Charge =  0 Multiplicity = 1

                         Standard orientation:
 ---------------------------------------------------------------------
 Center     Atomic      Atomic             Coordinates (Angstroms)
 Number     Number       Type             X           Y           Z
 ---------------------------------------------------------------------
      1          6           0        1.621344   -0.180901   -0.024460
      2          9           0        1.855684    1.099082   -0.354022
      3          9           0        2.586786   -0.928073   -0.598557
      4          9           0        1.770270   -0.287608    1.316575
      5          6           0        0.257475   -0.682326   -0.468520
      6          6           0       -0.917787   -0.106994    0.311780
      7          1           0        0.265688   -1.763521   -0.317825
      8         17           0       -1.211160    1.624522   -0.060129
      9         17           0       -2.396205   -1.078052   -0.041019
     10          1           0        0.142056   -0.486993   -1.535261
     11          1           0       -0.763390   -0.168757    1.383835
 ---------------------------------------------------------------------

 SCF Done:  E(RHF) =  -1333.27993610     A.U. after    2 cycles

 The electronic state is 1-A.
 Alpha  occ. eigenvalues -- -105.59305-105.58909 -26.51903 -26.51741 -26.51575
 Alpha  occ. eigenvalues --  -11.53629 -11.40260 -11.30615 -10.64105 -10.63741
 Alpha  occ. eigenvalues --   -7.81050  -7.80684  -7.80648  -7.80638  -7.80277
 Alpha  occ. eigenvalues --   -7.80268  -1.72521  -1.62468  -1.62384  -1.19779
 Alpha  occ. eigenvalues --   -1.07972  -1.06198  -0.94292  -0.87287  -0.82414
 Alpha  occ. eigenvalues --   -0.82014  -0.79438  -0.70821  -0.70002  -0.67669
 Alpha  occ. eigenvalues --   -0.65437  -0.64720  -0.63209  -0.63074  -0.62468
 Alpha  occ. eigenvalues --   -0.58310  -0.56394  -0.49374  -0.49141  -0.46983
 Alpha  occ. eigenvalues --   -0.46447
 Alpha virt. eigenvalues --    0.03925   0.04593   0.05381   0.07247   0.08044
 Alpha virt. eigenvalues --    0.09096   0.11277   0.11630   0.11919   0.12496
 Alpha virt. eigenvalues --    0.14621   0.15418   0.16159   0.16699   0.17178

 Mulliken charges:
               1
     1  C    2.679678
     2  F   -0.747250
     3  F   -0.756561
     4  F   -0.794227
     5  C   -0.423190
     6  C   -0.798872
     7  H    0.255931
     8  Cl   0.028619
     9  Cl   0.006278
    10  H    0.240574
    11  H    0.309019
 Sum of Mulliken charges =  -0.00000

 Dipole moment (field-independent basis, Debye):
    X=             -0.1897    Y=             -1.2954    Z=             -0.0666  Tot=              1.3109

 Test job not archived.
 1\1\GINC-SE334\SP\RHF\Aug-CC-pVDZ\C3H3Cl2F3\OHZDE\08-Apr-2025\0\\#t hf
  aug-cc-pvdz iop(5/13=1,5/36=2,99/5=2) pseudo=read geom=check guess=(r
 ead,tcheck) scf=(maxcycle=1)\\title\\0,1\C,0,1.621344,-0.180901,-0.024
 46\F,0,1.855684,1.099082,-0.354022\F,0,2.586786,-0.928073,-0.598557\F,
 0,1.77027,-0.287608,1.316575\C,0,0.257475,-0.682326,-0.46852\C,0,-0.91
 7787,-0.106994,0.31178\H,0,0.265688,-1.763521,-0.317825\Cl,0,-1.21116,
 1.624522,-0.060129\Cl,0,-2.396205,-1.078052,-0.041019\H,0,0.142056,-0.
 486993,-1.535261\H,0,-0.76339,-0.168757,1.383835\\Version=ES64L-G16Rev

 Normal termination of Gaussian 16 at Tue Apr  8 22:30:36 2025.
