 Gaussian 16, Revision C.01,

 ----------------------------------------------------------------------
 #t hf aug-cc-pvdz symm=none int=(grid=ultrafine) guess=(read,tcheck) s
 table=(opt,rrhf)
 ----------------------------------------------------------------------
 -----
 title
 -----
 Symbolic Z-matrix:
 Charge =  0 Multiplicity = 1

 SCF Done:  E(RHF) =  -1367.80014929     A.U. after   14 cycles
 Normal termination of Gaussian 16 at Tue Apr  8 23:17:50 2025.
 Gaussian 16:  ES64L-G16RevC.01  3-Jul-2019

 ----------------------------------------------------------------------
 #t hf aug-cc-pvdz iop(5/13=1,5/36=2,99/5=2) pseudo=read geom=check gue
 ss=(read,tcheck) scf=(maxcycle=1)
 ----------------------------------------------------------------------
 -----
 title
 -----
 Structure from the checkpoint file:  "BDE49_nonexpt_1060_mol1.chk"
 Charge =  0 Multiplicity = 1

                         Standard orientation:
 ---------------------------------------------------------------------
 Center     Atomic      Atomic             Coordinates (Angstroms)
 Number     Number       Type             X           Y           Z
 ---------------------------------------------------------------------
      1         17           0        2.160684   -0.421967   -0.000570
      2          8           0        0.490485   -0.909900    0.000290
      3          6           0       -0.442334    0.075146    0.000938
      4         16           0       -0.223360    1.679261    0.000093
      5         16           0       -1.980910   -0.822147    0.000052
      6          1           0       -2.733199    0.287934   -0.000570
 ---------------------------------------------------------------------

 SCF Done:  E(RHF) =  -1368.09577062     A.U. after    2 cycles

 The electronic state is 1-A.
 Alpha  occ. eigenvalues -- -105.65640 -94.00637 -93.94585 -20.68624 -11.43758
 Alpha  occ. eigenvalues --  -10.69771  -8.28779  -8.22939  -7.86770  -7.86163
 Alpha  occ. eigenvalues --   -7.86150  -6.26615  -6.26442  -6.26219  -6.20790
 Alpha  occ. eigenvalues --   -6.20491  -6.20341  -1.56476  -1.14648  -1.06297
 Alpha  occ. eigenvalues --   -1.03242  -0.81358  -0.69567  -0.67816  -0.64705
 Alpha  occ. eigenvalues --   -0.57485  -0.52820  -0.51277  -0.50378  -0.44787
 Alpha  occ. eigenvalues --   -0.38413  -0.37457
 Alpha virt. eigenvalues --    0.02909   0.04469   0.05018   0.07048   0.08101
 Alpha virt. eigenvalues --    0.09035   0.10607   0.11381   0.13724   0.13908
 Alpha virt. eigenvalues --    0.14366   0.14849   0.16107   0.17348   0.17760

 Mulliken charges:
               1
     1  Cl   0.460372
     2  O   -0.988097
     3  C   -0.109524
     4  S    0.173303
     5  S    0.040672
     6  H    0.423274
 Sum of Mulliken charges =  -0.00000

 Dipole moment (field-independent basis, Debye):
    X=             -0.8029    Y=             -0.7082    Z=             -0.0008  Tot=              1.0706

 Test job not archived.
 1\1\GINC-SE365\SP\RHF\Aug-CC-pVDZ\C1H1Cl1O1S2\OHZDE\08-Apr-2025\0\\#t
 hf aug-cc-pvdz iop(5/13=1,5/36=2,99/5=2) pseudo=read geom=check guess=
 (read,tcheck) scf=(maxcycle=1)\\title\\0,1\Cl,0,-2.160684,-0.421968,0.
 00057\O,0,-0.490485,-0.9099,-0.00029\C,0,0.442334,0.075146,-0.000938\S
 ,0,0.223359,1.679261,-0.000093\S,0,1.98091,-0.822146,-0.000052\H,0,2.7
 33199,0.287935,0.00057\\Version=ES64L-G16RevC.01\State=1-A\HF=-1368.09
 57706\RMSD=5.637e-03\Dipole=0.3158879,-0.2786242,0.0003319\Quadrupole=
 5.0813041,-2.8797838,-2.2015203,0.1470742,0.0015821,0.0018953\PG=C01 [

 Normal termination of Gaussian 16 at Tue Apr  8 23:17:52 2025.
