 Gaussian 16, Revision C.01,

 ----------------------------------------------------------------------
 #t hf aug-cc-pvdz symm=none int=(grid=ultrafine) guess=(read,tcheck) s
 table=(opt,rrhf)
 ----------------------------------------------------------------------
 -----
 title
 -----
 Symbolic Z-matrix:
 Charge =  0 Multiplicity = 1

 SCF Done:  E(RHF) =  -1090.86822966     A.U. after   16 cycles
 Normal termination of Gaussian 16 at Tue Apr  8 22:49:54 2025.
 Gaussian 16:  ES64L-G16RevC.01  3-Jul-2019

 ----------------------------------------------------------------------
 #t hf aug-cc-pvdz iop(5/13=1,5/36=2,99/5=2) pseudo=read geom=check gue
 ss=(read,tcheck) scf=(maxcycle=1)
 ----------------------------------------------------------------------
 -----
 title
 -----
 Structure from the checkpoint file:  "BDE49_expt_1535_mol1.chk"
 Charge =  0 Multiplicity = 1

                         Standard orientation:
 ---------------------------------------------------------------------
 Center     Atomic      Atomic             Coordinates (Angstroms)
 Number     Number       Type             X           Y           Z
 ---------------------------------------------------------------------
      1          6           0       -0.677982    0.339081   -0.401267
      2          6           0        0.695219   -0.376088   -0.347770
      3          7           0        0.980911   -1.151931    0.978155
      4          8           0        1.918192   -0.786583    1.640825
      5          8           0        0.237086   -2.090519    1.145791
      6          7           0        1.843967    0.656817   -0.544038
      7          7           0       -0.946860    1.292360    0.779401
      8          7           0       -1.871968   -0.709824   -0.407040
      9          8           0       -0.535652    0.910325    1.853373
     10          8           0       -1.570580    2.286485    0.509960
     11          8           0       -2.068291   -1.208966   -1.486236
     12          8           0       -2.459503   -0.869720    0.633352
     13          9           0        0.764354   -1.266468   -1.330144
     14          9           0       -0.754737    1.005869   -1.544937
     15          8           0        1.646893    1.750109   -0.057549
     16          8           0        2.802816    0.253305   -1.148940
 ---------------------------------------------------------------------

 SCF Done:  E(RHF) =  -1091.87577778     A.U. after    2 cycles

 The electronic state is 1-A.
 Alpha  occ. eigenvalues --  -26.60581 -26.60581 -20.67672 -20.67404 -20.67153
 Alpha  occ. eigenvalues --  -20.67127 -20.67040 -20.67030 -20.67020 -20.66606
 Alpha  occ. eigenvalues --  -15.87919 -15.87869 -15.87699 -15.87574 -11.57078
 Alpha  occ. eigenvalues --  -11.56844  -1.77979  -1.77062  -1.75597  -1.75272
 Alpha  occ. eigenvalues --   -1.74182  -1.73512  -1.60388  -1.60365  -1.60171
 Alpha  occ. eigenvalues --   -1.59867  -1.26827  -1.19214  -1.09038  -1.07804
 Alpha  occ. eigenvalues --   -1.00688  -0.93136  -0.91388  -0.91098  -0.90062
 Alpha  occ. eigenvalues --   -0.88209  -0.87576  -0.82839  -0.82684  -0.82103
 Alpha  occ. eigenvalues --   -0.81973  -0.81757  -0.81312  -0.80546  -0.79467
 Alpha  occ. eigenvalues --   -0.76263  -0.75894  -0.74963  -0.71915  -0.59679
 Alpha  occ. eigenvalues --   -0.57761  -0.57652  -0.57378  -0.56815  -0.56231
 Alpha  occ. eigenvalues --   -0.55181  -0.54441  -0.53403  -0.51960  -0.51222
 Alpha  occ. eigenvalues --   -0.51115
 Alpha virt. eigenvalues --   -0.01796  -0.01098  -0.00582   0.00017   0.06171
 Alpha virt. eigenvalues --    0.07107   0.08778   0.09211   0.10569   0.10702
 Alpha virt. eigenvalues --    0.11416   0.11541   0.12293   0.12940   0.14033

 Mulliken charges:
               1
     1  C    0.636046
     2  C    0.762810
     3  N    2.961585
     4  O   -1.404172
     5  O   -1.496289
     6  N    3.173315
     7  N    3.106976
     8  N    2.749552
     9  O   -1.519699
    10  O   -1.434344
    11  O   -1.378214
    12  O   -1.341175
    13  F   -0.949146
    14  F   -0.934195
    15  O   -1.509130
    16  O   -1.423919
 Sum of Mulliken charges =  -0.00000

 Dipole moment (field-independent basis, Debye):
    X=              0.1578    Y=             -0.1437    Z=             -1.7564  Tot=              1.7693

 Test job not archived.
 1\1\GINC-SE455\SP\RHF\Aug-CC-pVDZ\C2F2N4O8\OHZDE\08-Apr-2025\0\\#t hf
 aug-cc-pvdz iop(5/13=1,5/36=2,99/5=2) pseudo=read geom=check guess=(re
 ad,tcheck) scf=(maxcycle=1)\\title\\0,1\C,0,-0.677982,0.339081,-0.4012
 67\C,0,0.695219,-0.376088,-0.34777\N,0,0.980911,-1.151931,0.978155\O,0
 ,1.918192,-0.786583,1.640825\O,0,0.237086,-2.090519,1.145791\N,0,1.843
 967,0.656817,-0.544038\N,0,-0.94686,1.29236,0.779401\N,0,-1.871968,-0.
 709824,-0.40704\O,0,-0.535652,0.910325,1.853373\O,0,-1.57058,2.286485,
 0.50996\O,0,-2.068291,-1.208966,-1.486236\O,0,-2.459503,-0.86972,0.633

 Normal termination of Gaussian 16 at Tue Apr  8 22:50:08 2025.
