 Gaussian 16, Revision C.01,

 ----------------------------------------------------------------------
 #t hf aug-cc-pvdz symm=none int=(grid=ultrafine) guess=(read,tcheck) s
 table=(opt,rrhf)
 ----------------------------------------------------------------------
 -----
 title
 -----
 Symbolic Z-matrix:
 Charge =  0 Multiplicity = 1

 SCF Done:  E(RHF) =  -761.556736912     A.U. after   15 cycles
 Normal termination of Gaussian 16 at Tue Apr  8 23:17:53 2025.
 Gaussian 16:  ES64L-G16RevC.01  3-Jul-2019

 ----------------------------------------------------------------------
 #t hf aug-cc-pvdz iop(5/13=1,5/36=2,99/5=2) pseudo=read geom=check gue
 ss=(read,tcheck) scf=(maxcycle=1)
 ----------------------------------------------------------------------
 -----
 title
 -----
 Structure from the checkpoint file:  "BDE49_nonexpt_1043_mol1.chk"
 Charge =  0 Multiplicity = 1

                         Standard orientation:
 ---------------------------------------------------------------------
 Center     Atomic      Atomic             Coordinates (Angstroms)
 Number     Number       Type             X           Y           Z
 ---------------------------------------------------------------------
      1         17           0        2.194515    0.021977    0.000090
      2          8           0        0.667158   -0.773946   -0.000027
      3          6           0       -0.402239    0.094715   -0.000105
      4          8           0       -0.361242    1.286497   -0.000028
      5          8           0       -1.473034   -0.694349   -0.000059
      6          6           0       -2.736452    0.005468   -0.000003
      7          1           0       -3.491580   -0.776054    0.000028
      8          1           0       -2.823080    0.627860   -0.890991
      9          1           0       -2.823006    0.627857    0.890994
 ---------------------------------------------------------------------

 SCF Done:  E(RHF) =  -761.925087690     A.U. after    2 cycles

 The electronic state is 1-A.
 Alpha  occ. eigenvalues -- -105.64373 -20.66605 -20.61984 -20.56163 -11.46615
 Alpha  occ. eigenvalues --  -11.31821 -10.68532  -7.85539  -7.84937  -7.84921
 Alpha  occ. eigenvalues --   -1.60982  -1.50680  -1.48960  -1.07095  -0.98579
 Alpha  occ. eigenvalues --   -0.82653  -0.77130  -0.72401  -0.72305  -0.64308
 Alpha  occ. eigenvalues --   -0.63711  -0.60535  -0.56306  -0.55705  -0.49302
 Alpha  occ. eigenvalues --   -0.48685  -0.48652  -0.46536
 Alpha virt. eigenvalues --    0.03395   0.05158   0.05452   0.05510   0.07182
 Alpha virt. eigenvalues --    0.10759   0.11455   0.12141   0.13715   0.14894
 Alpha virt. eigenvalues --    0.15527   0.15896   0.16688   0.17314   0.19233

 Mulliken charges:
               1
     1  Cl   0.367501
     2  O   -1.107483
     3  C    2.163291
     4  O   -0.852399
     5  O   -1.090670
     6  C    0.176217
     7  H    0.006519
     8  H    0.168511
     9  H    0.168511
 Sum of Mulliken charges =  -0.00000

 Dipole moment (field-independent basis, Debye):
    X=             -2.0869    Y=             -0.5086    Z=             -0.0001  Tot=              2.1480

 Test job not archived.
 1\1\GINC-SE029\SP\RHF\Aug-CC-pVDZ\C2H3Cl1O3\OHZDE\08-Apr-2025\0\\#t hf
  aug-cc-pvdz iop(5/13=1,5/36=2,99/5=2) pseudo=read geom=check guess=(r
 ead,tcheck) scf=(maxcycle=1)\\title\\0,1\Cl,0,-2.194515,0.021977,-0.00
 009\O,0,-0.667158,-0.773946,0.000027\C,0,0.402239,0.094715,0.000105\O,
 0,0.361242,1.286497,0.000028\O,0,1.473034,-0.694349,0.000059\C,0,2.736
 452,0.005468,0.000003\H,0,3.49158,-0.776054,-0.000028\H,0,2.82308,0.62
 786,0.890991\H,0,2.823006,0.627857,-0.890994\\Version=ES64L-G16RevC.01
 \State=1-A\HF=-761.9250877\RMSD=6.908e-03\Dipole=0.8210505,-0.2001174,

 Normal termination of Gaussian 16 at Tue Apr  8 23:17:56 2025.
