 Gaussian 16, Revision C.01,

 ----------------------------------------------------------------------
 #t hf aug-cc-pvdz symm=none int=(grid=ultrafine) guess=(read,tcheck) s
 table=(opt,rrhf)
 ----------------------------------------------------------------------
 -----
 title
 -----
 Symbolic Z-matrix:
 Charge =  0 Multiplicity = 1

 SCF Done:  E(RHF) =  -498.626201940     A.U. after   12 cycles

 1\1\GINC-SE458\Stability\RHF\Aug-CC-pVDZ\C4H11P1\OHZDE\08-Apr-2025\0\\
 #t hf aug-cc-pvdz symm=none int=(grid=ultrafine) guess=(read,tcheck) s
 table=(opt,rrhf)\\title\\0,1\P,0,-0.038317,-1.12518,-0.060766\C,0,1.35
 875,-0.021586,-0.637413\C,0,1.949891,0.980369,0.358357\H,0,0.999892,0.
 493671,-1.534944\H,0,2.136479,-0.708579,-0.987906\H,0,1.209632,1.71405
 3,0.686461\H,0,2.779794,1.534836,-0.091489\H,0,2.332196,0.473575,1.248
 735\C,0,-1.266965,0.086454,0.665748\H,0,0.553698,-1.518139,1.170291\C,
 0,-2.037564,0.8618,-0.409649\H,0,-0.783321,0.774572,1.363861\H,0,-1.96

 Normal termination of Gaussian 16 at Tue Apr  8 23:13:06 2025.
 Gaussian 16:  ES64L-G16RevC.01  3-Jul-2019

 ----------------------------------------------------------------------
 #t hf aug-cc-pvdz iop(5/13=1,5/36=2,99/5=2) pseudo=read geom=check gue
 ss=(read,tcheck) scf=(maxcycle=1)
 ----------------------------------------------------------------------
 -----
 title
 -----
 Structure from the checkpoint file:  "BDE49_expt_822_mol1.chk"
 Charge =  0 Multiplicity = 1

                         Standard orientation:
 ---------------------------------------------------------------------
 Center     Atomic      Atomic             Coordinates (Angstroms)
 Number     Number       Type             X           Y           Z
 ---------------------------------------------------------------------
      1         15           0       -0.038317   -1.125180   -0.060766
      2          6           0        1.358750   -0.021586   -0.637413
      3          6           0        1.949891    0.980369    0.358357
      4          1           0        0.999892    0.493671   -1.534944
      5          1           0        2.136479   -0.708579   -0.987906
      6          1           0        1.209632    1.714053    0.686461
      7          1           0        2.779794    1.534836   -0.091489
      8          1           0        2.332196    0.473575    1.248735
      9          6           0       -1.266965    0.086454    0.665748
     10          1           0        0.553698   -1.518139    1.170291
     11          6           0       -2.037564    0.861800   -0.409649
     12          1           0       -0.783321    0.774572    1.363861
     13          1           0       -1.962940   -0.520313    1.254240
     14          1           0       -1.376732    1.509902   -0.992413
     15          1           0       -2.804024    1.498786    0.040857
     16          1           0       -2.534595    0.183118   -1.108464
 ---------------------------------------------------------------------

 SCF Done:  E(RHF) =  -498.852408237     A.U. after    2 cycles

 The electronic state is 1-A.
 Alpha  occ. eigenvalues --  -84.25763 -11.23787 -11.23677 -11.23117 -11.23112
 Alpha  occ. eigenvalues --   -6.72804  -4.25375  -4.25254  -4.24589  -1.05479
 Alpha  occ. eigenvalues --   -1.02036  -0.89095  -0.84791  -0.74020  -0.63148
 Alpha  occ. eigenvalues --   -0.61678  -0.58329  -0.57243  -0.54028  -0.52577
 Alpha  occ. eigenvalues --   -0.51045  -0.50044  -0.44886  -0.42415  -0.31697
 Alpha virt. eigenvalues --    0.03740   0.03824   0.04101   0.04474   0.06159
 Alpha virt. eigenvalues --    0.06329   0.06455   0.07409   0.07777   0.09501
 Alpha virt. eigenvalues --    0.10028   0.11343   0.12637   0.13401   0.13712

 Mulliken charges:
               1
     1  P    0.379673
     2  C   -0.690826
     3  C   -0.450236
     4  H    0.178465
     5  H    0.139417
     6  H    0.118012
     7  H    0.098166
     8  H    0.134766
     9  C   -0.526054
    10  H    0.457163
    11  C   -0.465118
    12  H    0.117359
    13  H    0.113114
    14  H    0.116244
    15  H    0.106840
    16  H    0.173014
 Sum of Mulliken charges =  -0.00000

 Dipole moment (field-independent basis, Debye):
    X=              0.2230    Y=              1.0800    Z=              0.3731  Tot=              1.1642

 Test job not archived.
 1\1\GINC-SE458\SP\RHF\Aug-CC-pVDZ\C4H11P1\OHZDE\08-Apr-2025\0\\#t hf a
 ug-cc-pvdz iop(5/13=1,5/36=2,99/5=2) pseudo=read geom=check guess=(rea
 d,tcheck) scf=(maxcycle=1)\\title\\0,1\P,0,-0.038317,-1.12518,-0.06076
 6\C,0,1.35875,-0.021586,-0.637413\C,0,1.949891,0.980369,0.358357\H,0,0
 .999892,0.493671,-1.534944\H,0,2.136479,-0.708579,-0.987906\H,0,1.2096
 32,1.714053,0.686461\H,0,2.779794,1.534836,-0.091489\H,0,2.332196,0.47
 3575,1.248735\C,0,-1.266965,0.086454,0.665748\H,0,0.553698,-1.518139,1
 .170291\C,0,-2.037564,0.8618,-0.409649\H,0,-0.783321,0.774572,1.363861

 Normal termination of Gaussian 16 at Tue Apr  8 23:13:11 2025.
