 Gaussian 16, Revision C.01,

 ----------------------------------------------------------------------
 #t hf aug-cc-pvdz symm=none int=(grid=ultrafine) guess=(read,tcheck) s
 table=(opt,rrhf)
 ----------------------------------------------------------------------
 -----
 title
 -----
 Symbolic Z-matrix:
 Charge =  0 Multiplicity = 1

 SCF Done:  E(RHF) =  -540.965834156     A.U. after   14 cycles
 Normal termination of Gaussian 16 at Tue Apr  8 23:20:50 2025.
 Gaussian 16:  ES64L-G16RevC.01  3-Jul-2019

 ----------------------------------------------------------------------
 #t hf aug-cc-pvdz iop(5/13=1,5/36=2,99/5=2) pseudo=read geom=check gue
 ss=(read,tcheck) scf=(maxcycle=1)
 ----------------------------------------------------------------------
 -----
 title
 -----
 Structure from the checkpoint file:  "BDE49_nonexpt_113_mol1.chk"
 Charge =  0 Multiplicity = 1

                         Standard orientation:
 ---------------------------------------------------------------------
 Center     Atomic      Atomic             Coordinates (Angstroms)
 Number     Number       Type             X           Y           Z
 ---------------------------------------------------------------------
      1          5           0       -3.072448   -0.622246    0.000016
      2          5           0       -1.944987    0.601378    0.000014
      3          7           0       -0.551583    0.370930    0.000022
      4          6           0        0.616061    0.130037   -0.000057
      5         16           0        2.162052   -0.180342    0.000019
      6          1           0       -2.305070    1.746419   -0.000293
      7          1           0       -3.518237   -1.066384    1.015710
      8          1           0       -3.517634   -1.066954   -1.015693
 ---------------------------------------------------------------------

 SCF Done:  E(RHF) =  -541.163721271     A.U. after    2 cycles

 The electronic state is 1-A.
 Alpha  occ. eigenvalues --  -93.95838 -15.54943 -11.39859  -8.24115  -7.63716
 Alpha  occ. eigenvalues --   -7.60562  -6.22009  -6.21589  -6.21540  -1.29710
 Alpha  occ. eigenvalues --   -1.08342  -0.91899  -0.73603  -0.63861  -0.62361
 Alpha  occ. eigenvalues --   -0.61555  -0.58557  -0.51224  -0.47060  -0.39938
 Alpha  occ. eigenvalues --   -0.37606
 Alpha virt. eigenvalues --    0.02367   0.02986   0.03706   0.04250   0.04577
 Alpha virt. eigenvalues --    0.06130   0.07085   0.07358   0.07566   0.09051
 Alpha virt. eigenvalues --    0.09307   0.11084   0.12039   0.13303   0.13453

 Mulliken charges:
               1
     1  B   -0.714551
     2  B    0.004946
     3  N    0.708314
     4  C   -1.015384
     5  S    0.363063
     6  H    0.054307
     7  H    0.299636
     8  H    0.299669
 Sum of Mulliken charges =   0.00000

 Dipole moment (field-independent basis, Debye):
    X=             -1.6043    Y=              0.1213    Z=              0.0001  Tot=              1.6089

 Test job not archived.
 1\1\GINC-SE102\SP\RHF\Aug-CC-pVDZ\C1H3B2N1S1\OHZDE\08-Apr-2025\0\\#t h
 f aug-cc-pvdz iop(5/13=1,5/36=2,99/5=2) pseudo=read geom=check guess=(
 read,tcheck) scf=(maxcycle=1)\\title\\0,1\B,0,3.072448,-0.622246,-0.00
 0016\B,0,1.944987,0.601378,-0.000014\N,0,0.551583,0.37093,-0.000022\C,
 0,-0.616061,0.130037,0.000057\S,0,-2.162052,-0.180342,-0.000019\H,0,2.
 30507,1.746419,0.000293\H,0,3.518237,-1.066384,-1.01571\H,0,3.517634,-
 1.066954,1.015693\\Version=ES64L-G16RevC.01\State=1-A\HF=-541.1637213\
 RMSD=1.982e-02\Dipole=0.6311729,0.0477133,-0.0000358\Quadrupole=0.9218

 Normal termination of Gaussian 16 at Tue Apr  8 23:20:52 2025.
