 Gaussian 16, Revision C.01,

 ----------------------------------------------------------------------
 #t hf aug-cc-pvdz symm=none int=(grid=ultrafine) guess=(read,tcheck) s
 table=(opt,rrhf)
 ----------------------------------------------------------------------
 -----
 title
 -----
 Symbolic Z-matrix:
 Charge =  0 Multiplicity = 1

 SCF Done:  E(RHF) =  -1617.22790706     A.U. after   16 cycles
 Normal termination of Gaussian 16 at Tue Apr  8 23:27:18 2025.
 Gaussian 16:  ES64L-G16RevC.01  3-Jul-2019

 ----------------------------------------------------------------------
 #t hf aug-cc-pvdz iop(5/13=1,5/36=2,99/5=2) pseudo=read geom=check gue
 ss=(read,tcheck) scf=(maxcycle=1)
 ----------------------------------------------------------------------
 -----
 title
 -----
 Structure from the checkpoint file:  "BDE49_nonexpt_1241_mol1.chk"
 Charge =  0 Multiplicity = 1

                         Standard orientation:
 ---------------------------------------------------------------------
 Center     Atomic      Atomic             Coordinates (Angstroms)
 Number     Number       Type             X           Y           Z
 ---------------------------------------------------------------------
      1         17           0        1.720739    2.071111   -0.157171
      2         16           0        0.440645   -0.949301    0.486748
      3          8           0        0.531397   -2.317728   -0.011205
      4          8           0        0.787411   -0.622398    1.859780
      5         15           0        1.754584    0.137080   -0.977606
      6          6           0       -1.209571   -0.336523    0.169433
      7          6           0       -1.715996    0.695011    0.959166
      8          1           0       -1.116833    1.100305    1.763815
      9          6           0       -2.999125    1.168393    0.700060
     10          1           0       -3.409715    1.966860    1.306689
     11          6           0       -3.754399    0.613407   -0.332314
     12          1           0       -4.753366    0.985732   -0.528628
     13          6           0       -3.236410   -0.422103   -1.109829
     14          1           0       -3.831835   -0.857729   -1.903485
     15          6           0       -1.955073   -0.905853   -0.862606
     16          1           0       -1.541130   -1.722401   -1.440189
     17          6           0        3.309226   -0.500149   -0.218695
     18          1           0        3.369983   -1.568242   -0.442810
     19          1           0        3.327534   -0.345251    0.860487
     20          1           0        4.151359    0.012368   -0.687747
 ---------------------------------------------------------------------

 SCF Done:  E(RHF) =  -1617.83595335     A.U. after    2 cycles

 The electronic state is 1-A.
 Alpha  occ. eigenvalues -- -105.58062 -94.18925 -84.36840 -20.54361 -20.54280
 Alpha  occ. eigenvalues --  -11.28959 -11.27795 -11.27701 -11.27417 -11.26834
 Alpha  occ. eigenvalues --  -11.26731 -11.26673 -10.62916  -8.44381  -7.79827
 Alpha  occ. eigenvalues --   -7.79466  -7.79440  -6.83362  -6.42462  -6.42228
 Alpha  occ. eigenvalues --   -6.42155  -4.35437  -4.35321  -4.34766  -1.55373
 Alpha  occ. eigenvalues --   -1.43879  -1.18886  -1.09872  -1.06811  -1.04704
 Alpha  occ. eigenvalues --   -1.00494  -0.94669  -0.86633  -0.84673  -0.78634
 Alpha  occ. eigenvalues --   -0.74261  -0.68803  -0.68019  -0.66591  -0.65155
 Alpha  occ. eigenvalues --   -0.63850  -0.62984  -0.61449  -0.59649  -0.55838
 Alpha  occ. eigenvalues --   -0.54887  -0.53550  -0.53397  -0.51031  -0.49819
 Alpha  occ. eigenvalues --   -0.49383  -0.48482  -0.46800  -0.42309  -0.38040
 Alpha  occ. eigenvalues --   -0.37148  -0.36295
 Alpha virt. eigenvalues --    0.02866   0.03518   0.03748   0.04535   0.05376
 Alpha virt. eigenvalues --    0.05962   0.06284   0.06870   0.07529   0.07752
 Alpha virt. eigenvalues --    0.08273   0.08426   0.09387   0.10411   0.11535

 Mulliken charges:
               1
     1  Cl  -0.509656
     2  S    3.733359
     3  O   -1.662870
     4  O   -1.670156
     5  P    1.022422
     6  C    0.701069
     7  C   -0.405237
     8  H   -0.258630
     9  C    0.515027
    10  H   -0.220452
    11  C   -0.017263
    12  H   -0.204067
    13  C    0.438379
    14  H   -0.218212
    15  C   -0.586437
    16  H   -0.263486
    17  C   -0.872875
    18  H    0.171696
    19  H    0.170503
    20  H    0.136885
 Sum of Mulliken charges =  -0.00000

 Dipole moment (field-independent basis, Debye):
    X=             -1.3380    Y=              1.8319    Z=             -2.8869  Tot=              3.6715

 Test job not archived.
 1\1\GINC-SE105\SP\RHF\Aug-CC-pVDZ\C7H8Cl1O2P1S1\OHZDE\08-Apr-2025\0\\#
 t hf aug-cc-pvdz iop(5/13=1,5/36=2,99/5=2) pseudo=read geom=check gues
 s=(read,tcheck) scf=(maxcycle=1)\\title\\0,1\Cl,0,1.720739,2.071111,-0
 .157171\S,0,0.440645,-0.949301,0.486748\O,0,0.531397,-2.317728,-0.0112
 05\O,0,0.787411,-0.622398,1.85978\P,0,1.754584,0.13708,-0.977606\C,0,-
 1.209571,-0.336523,0.169433\C,0,-1.715996,0.695011,0.959166\H,0,-1.116
 833,1.100305,1.763815\C,0,-2.999125,1.168393,0.70006\H,0,-3.409715,1.9
 6686,1.306689\C,0,-3.754399,0.613407,-0.332314\H,0,-4.753366,0.985732,

 Normal termination of Gaussian 16 at Tue Apr  8 23:27:34 2025.
