 Gaussian 16, Revision C.01,

 ----------------------------------------------------------------------
 #t hf aug-cc-pvdz symm=none int=(grid=ultrafine) guess=(read,tcheck) s
 table=opt
 ----------------------------------------------------------------------
 -----
 title
 -----
 Symbolic Z-matrix:
 Charge =  0 Multiplicity = 2

 SCF Done:  E(UHF) =  -396.823553751     A.U. after   17 cycles
 Normal termination of Gaussian 16 at Wed Apr  9 00:37:04 2025.
 Gaussian 16:  ES64L-G16RevC.01  3-Jul-2019

 ----------------------------------------------------------------------
 #t hf aug-cc-pvdz iop(5/13=1,5/36=2,99/5=2) pseudo=read geom=check gue
 ss=(read,tcheck) scf=(maxcycle=1)
 ----------------------------------------------------------------------
 -----
 title
 -----
 Structure from the checkpoint file:  "BDE49_nonexpt_443_mol2.chk"
 Charge =  0 Multiplicity = 2

                         Standard orientation:
 ---------------------------------------------------------------------
 Center     Atomic      Atomic             Coordinates (Angstroms)
 Number     Number       Type             X           Y           Z
 ---------------------------------------------------------------------
      1          6           0       -0.859574    1.405543    0.000561
      2          6           0       -2.168196    0.830879   -0.560984
      3          6           0       -2.533847   -0.499711    0.110743
      4          6           0       -1.380466   -1.507429    0.014102
      5          6           0       -0.072845   -0.927519    0.572946
      6          6           0        1.605591    0.995888    0.494606
      7          6           0        0.307064    0.405387   -0.098157
      8          5           0        2.931508    0.208376    0.233472
      9          9           0        3.038304   -0.778494   -0.638797
     10          1           0       -1.005088    1.676320    1.055437
     11          1           0       -0.598826    2.331689   -0.523825
     12          1           0       -2.057277    0.671171   -1.641315
     13          1           0       -2.979389    1.555644   -0.436532
     14          1           0       -3.440156   -0.916007   -0.340742
     15          1           0       -2.767242   -0.318065    1.168018
     16          1           0       -1.230310   -1.785053   -1.037119
     17          1           0       -1.636486   -2.430282    0.544476
     18          1           0        0.737952   -1.652301    0.448878
     19          1           0       -0.183644   -0.759873    1.653359
     20          1           0        1.497715    1.171944    1.572791
     21          1           0        1.791072    1.999822    0.078780
     22          1           0        0.483044    0.201332   -1.163301
 ---------------------------------------------------------------------

 SCF Done:  E(UHF) =  -397.234141600     A.U. after    2 cycles

 The electronic state is 2-A.
 Alpha  occ. eigenvalues --  -26.47475 -11.23721 -11.22623 -11.22560 -11.22549
 Alpha  occ. eigenvalues --  -11.22508 -11.22460 -11.22349  -7.67293  -1.60573
 Alpha  occ. eigenvalues --   -1.12585  -1.03890  -1.00390  -0.93681  -0.83758
 Alpha  occ. eigenvalues --   -0.81576  -0.76851  -0.75933  -0.68944  -0.65889
 Alpha  occ. eigenvalues --   -0.65237  -0.62231  -0.61339  -0.60828  -0.57700
 Alpha  occ. eigenvalues --   -0.54595  -0.53631  -0.53525  -0.50395  -0.49080
 Alpha  occ. eigenvalues --   -0.48109  -0.45857  -0.44877  -0.43518  -0.34040
 Alpha virt. eigenvalues --    0.03078   0.03191   0.03505   0.03885   0.05173
 Alpha virt. eigenvalues --    0.05187   0.05540   0.05949   0.06325   0.07940
 Alpha virt. eigenvalues --    0.08409   0.08723   0.09321   0.09541   0.10424

  Beta  occ. eigenvalues --  -26.47147 -11.23624 -11.22610 -11.22557 -11.22549
  Beta  occ. eigenvalues --  -11.22507 -11.22461 -11.22068  -7.65422  -1.59660
  Beta  occ. eigenvalues --   -1.12444  -1.03503  -1.00366  -0.92951  -0.83723
  Beta  occ. eigenvalues --   -0.81150  -0.75930  -0.75484  -0.66438  -0.65760
  Beta  occ. eigenvalues --   -0.64822  -0.61717  -0.61176  -0.60575  -0.56810
  Beta  occ. eigenvalues --   -0.54068  -0.53505  -0.52709  -0.49681  -0.49038
  Beta  occ. eigenvalues --   -0.47917  -0.45782  -0.44093  -0.43366
  Beta virt. eigenvalues --    0.02861   0.03143   0.03322   0.03754   0.05085
  Beta virt. eigenvalues --    0.05312   0.05586   0.05959   0.06319   0.08142
  Beta virt. eigenvalues --    0.08347   0.08701   0.09242   0.09515   0.10000

 Mulliken charges and spin densities:
               1          2
     1  C    0.092316  -0.018042
     2  C   -0.258802   0.002866
     3  C   -0.220103  -0.000807
     4  C   -0.282683   0.003682
     5  C   -0.110285   0.016538
     6  C    0.213511   0.040361
     7  C   -1.100070  -0.021749
     8  B    0.508361   1.051960
     9  F   -0.553676  -0.045616
    10  H    0.180337  -0.000905
    11  H    0.077090  -0.000106
    12  H    0.165702  -0.000142
    13  H    0.105276   0.000383
    14  H    0.098011   0.000025
    15  H    0.151916   0.000106
    16  H    0.167273   0.000222
    17  H    0.101419   0.000120
    18  H    0.045106  -0.003098
    19  H    0.170156  -0.002123
    20  H    0.194161  -0.006597
    21  H    0.201464  -0.013599
    22  H    0.053520  -0.003480
 Sum of Mulliken charges =  -0.00000   1.00000

 Dipole moment (field-independent basis, Debye):
    X=             -1.3238    Y=              0.6888    Z=              0.2264  Tot=              1.5094
                          Isotropic Fermi Contact Couplings
        Atom                 a.u.       MegaHertz       Gauss      10(-4) cm-1
     1  C(13)              0.00344       3.86392       1.37874       1.28886
     2  C(13)              0.00190       2.14152       0.76415       0.71433
     3  C(13)             -0.00015      -0.17327      -0.06183      -0.05780
     4  C(13)              0.00037       0.41329       0.14747       0.13786
     5  C(13)             -0.00144      -1.61587      -0.57658      -0.53900
     6  C(13)              0.06852      77.02530      27.48454      25.69287
     7  C(13)              0.01841      20.69493       7.38447       6.90309
     8  B(11)              0.32036     459.51533     163.96650     153.27782

 Normal termination of Gaussian 16 at Wed Apr  9 00:37:19 2025.
