 Gaussian 16, Revision C.01,

 ----------------------------------------------------------------------
 #t hf aug-cc-pvdz symm=none int=(grid=ultrafine) guess=(read,tcheck) s
 table=(opt,rrhf)
 ----------------------------------------------------------------------
 -----
 title
 -----
 Symbolic Z-matrix:
 Charge =  0 Multiplicity = 1

 SCF Done:  E(RHF) =  -251.229427598     A.U. after   11 cycles
 Normal termination of Gaussian 16 at Wed Apr  9 00:40:20 2025.
 Gaussian 16:  ES64L-G16RevC.01  3-Jul-2019

 ----------------------------------------------------------------------
 #t hf aug-cc-pvdz iop(5/13=1,5/36=2,99/5=2) pseudo=read geom=check gue
 ss=(read,tcheck) scf=(maxcycle=1)
 ----------------------------------------------------------------------
 -----
 title
 -----
 Structure from the checkpoint file:  "BDE49_nonexpt_658_mol1.chk"
 Charge =  0 Multiplicity = 1

                         Standard orientation:
 ---------------------------------------------------------------------
 Center     Atomic      Atomic             Coordinates (Angstroms)
 Number     Number       Type             X           Y           Z
 ---------------------------------------------------------------------
      1          8           0       -0.037783    1.346833    0.000001
      2          5           0        0.008520   -0.031998   -0.000003
      3          1           0       -0.916064    1.732235    0.000003
      4          8           0        1.230581   -0.635866    0.000000
      5          8           0       -1.084757   -0.857780    0.000000
      6          1           0       -1.931505   -0.408868    0.000001
      7          1           0        1.940638    0.011123    0.000001
 ---------------------------------------------------------------------

 SCF Done:  E(RHF) =  -251.479145660     A.U. after    2 cycles

 The electronic state is 1-A.
 Alpha  occ. eigenvalues --  -20.56786 -20.56136 -20.54942  -7.67115  -1.50013
 Alpha  occ. eigenvalues --   -1.44908  -1.44093  -0.79877  -0.76183  -0.67655
 Alpha  occ. eigenvalues --   -0.63370  -0.59922  -0.55626  -0.53032  -0.50515
 Alpha  occ. eigenvalues --   -0.49222
 Alpha virt. eigenvalues --    0.02619   0.04992   0.05412   0.05827   0.07695
 Alpha virt. eigenvalues --    0.09856   0.10260   0.16534   0.19816   0.20508
 Alpha virt. eigenvalues --    0.21504   0.22345   0.22565   0.23897   0.24823

 Mulliken charges:
               1
     1  O   -0.987430
     2  B    1.849576
     3  H    0.431315
     4  O   -1.092522
     5  O   -1.049294
     6  H    0.384059
     7  H    0.464296
 Sum of Mulliken charges =  -0.00000

 Dipole moment (field-independent basis, Debye):
    X=             -1.7906    Y=              2.5032    Z=             -0.0000  Tot=              3.0777

 Test job not archived.
 1\1\GINC-SE106\SP\RHF\Aug-CC-pVDZ\B1H3O3\OHZDE\09-Apr-2025\0\\#t hf au
 g-cc-pvdz iop(5/13=1,5/36=2,99/5=2) pseudo=read geom=check guess=(read
 ,tcheck) scf=(maxcycle=1)\\title\\0,1\O,0,-0.037782,1.346833,0.000001\
 B,0,0.00852,-0.031998,-0.000003\H,0,-0.916063,1.732236,0.000003\O,0,1.
 230581,-0.635867,0.\O,0,-1.084758,-0.857779,0.\H,0,-1.931505,-0.408867
 ,0.000001\H,0,1.940638,0.011122,0.000001\\Version=ES64L-G16RevC.01\Sta
 te=1-A\HF=-251.4791457\RMSD=9.121e-03\Dipole=-0.7044586,0.9848399,-0.0
 00002\Quadrupole=4.8344811,-3.5652597,-1.2692214,-1.395715,-0.0000048,

 Normal termination of Gaussian 16 at Wed Apr  9 00:40:22 2025.
