 Gaussian 16, Revision C.01,

 ----------------------------------------------------------------------
 #t hf aug-cc-pvdz symm=none int=(grid=ultrafine) guess=(read,tcheck) s
 table=(opt,rrhf)
 ----------------------------------------------------------------------
 -----
 title
 -----
 Symbolic Z-matrix:
 Charge =  0 Multiplicity = 1

 SCF Done:  E(RHF) =  -875.121940395     A.U. after   15 cycles
 Normal termination of Gaussian 16 at Tue Apr  8 23:41:20 2025.
 Gaussian 16:  ES64L-G16RevC.01  3-Jul-2019

 ----------------------------------------------------------------------
 #t hf aug-cc-pvdz iop(5/13=1,5/36=2,99/5=2) pseudo=read geom=check gue
 ss=(read,tcheck) scf=(maxcycle=1)
 ----------------------------------------------------------------------
 -----
 title
 -----
 Structure from the checkpoint file:  "BDE49_nonexpt_1661_mol1.chk"
 Charge =  0 Multiplicity = 1

                         Standard orientation:
 ---------------------------------------------------------------------
 Center     Atomic      Atomic             Coordinates (Angstroms)
 Number     Number       Type             X           Y           Z
 ---------------------------------------------------------------------
      1         15           0       -0.126399    0.556285   -0.748126
      2         14           0       -1.873352   -0.533594    0.250137
      3          7           0        1.193746   -0.540778   -0.011279
      4          8           0        0.995165   -1.748118   -0.087691
      5          8           0        2.201822   -0.018562    0.433090
      6          6           0        0.091675    2.031994    0.347208
      7          1           0       -0.689373    2.750489    0.083686
      8          1           0        1.061177    2.480937    0.129758
      9          1           0        0.033562    1.803159    1.411574
     10          1           0       -2.208143   -1.736049   -0.534329
     11          1           0       -3.003658    0.425166    0.207913
     12          1           0       -1.552818   -0.870753    1.653873
 ---------------------------------------------------------------------

 SCF Done:  E(RHF) =  -875.438105862     A.U. after    2 cycles

 The electronic state is 1-A.
 Alpha  occ. eigenvalues --  -84.33275 -69.56390 -20.59259 -20.58862 -15.77133
 Alpha  occ. eigenvalues --  -11.27333  -6.80241  -6.23461  -4.32867  -4.32345
 Alpha  occ. eigenvalues --   -4.31734  -3.98838  -3.98779  -3.98759  -1.66293
 Alpha  occ. eigenvalues --   -1.50372  -1.05583  -0.97360  -0.84178  -0.77579
 Alpha  occ. eigenvalues --   -0.74181  -0.73107  -0.68277  -0.61060  -0.60211
 Alpha  occ. eigenvalues --   -0.52671  -0.52125  -0.49663  -0.46809  -0.45182
 Alpha  occ. eigenvalues --   -0.44708  -0.36758
 Alpha virt. eigenvalues --    0.02916   0.03773   0.04226   0.04997   0.05842
 Alpha virt. eigenvalues --    0.06205   0.07155   0.07385   0.08091   0.09242
 Alpha virt. eigenvalues --    0.09714   0.10498   0.11144   0.13094   0.13686

 Mulliken charges:
               1
     1  P    0.337054
     2  Si   0.865660
     3  N    2.075074
     4  O   -1.307625
     5  O   -1.228613
     6  C   -0.762095
     7  H    0.146506
     8  H    0.126332
     9  H    0.094932
    10  H   -0.136409
    11  H   -0.155956
    12  H   -0.054861
 Sum of Mulliken charges =  -0.00000

 Dipole moment (field-independent basis, Debye):
    X=             -3.4485    Y=              3.0613    Z=             -0.2641  Tot=              4.6188

 Test job not archived.
 1\1\GINC-SE082\SP\RHF\Aug-CC-pVDZ\C1H6N1O2P1Si1\OHZDE\08-Apr-2025\0\\#
 t hf aug-cc-pvdz iop(5/13=1,5/36=2,99/5=2) pseudo=read geom=check gues
 s=(read,tcheck) scf=(maxcycle=1)\\title\\0,1\P,0,-0.126399,0.556285,-0
 .748126\Si,0,-1.873352,-0.533594,0.250137\N,0,1.193746,-0.540778,-0.01
 1279\O,0,0.995165,-1.748118,-0.087691\O,0,2.201822,-0.018562,0.43309\C
 ,0,0.091675,2.031994,0.347208\H,0,-0.689373,2.750489,0.083686\H,0,1.06
 1177,2.480937,0.129758\H,0,0.033562,1.803159,1.411574\H,0,-2.208143,-1
 .736049,-0.534329\H,0,-3.003658,0.425166,0.207913\H,0,-1.552818,-0.870

 Normal termination of Gaussian 16 at Tue Apr  8 23:41:24 2025.
