 Gaussian 16, Revision C.01,

 ----------------------------------------------------------------------
 #t hf aug-cc-pvdz symm=none int=(grid=ultrafine) guess=(read,tcheck) s
 table=(opt,rrhf)
 ----------------------------------------------------------------------
 -----
 title
 -----
 Symbolic Z-matrix:
 Charge =  0 Multiplicity = 1

 SCF Done:  E(RHF) =  -311.092897346     A.U. after   15 cycles
 Normal termination of Gaussian 16 at Wed Apr  9 00:30:17 2025.
 Gaussian 16:  ES64L-G16RevC.01  3-Jul-2019

 ----------------------------------------------------------------------
 #t hf aug-cc-pvdz iop(5/13=1,5/36=2,99/5=2) pseudo=read geom=check gue
 ss=(read,tcheck) scf=(maxcycle=1)
 ----------------------------------------------------------------------
 -----
 title
 -----
 Structure from the checkpoint file:  "BDE49_nonexpt_338_mol1.chk"
 Charge =  0 Multiplicity = 1

                         Standard orientation:
 ---------------------------------------------------------------------
 Center     Atomic      Atomic             Coordinates (Angstroms)
 Number     Number       Type             X           Y           Z
 ---------------------------------------------------------------------
      1          6           0        0.473836    0.264081   -0.000014
      2          5           0        1.994133    0.634164   -0.000023
      3          7           0        3.014429   -0.317661    0.000026
      4          1           0        2.859504   -1.314343    0.000076
      5          1           0        3.989216   -0.064405    0.000020
      6          6           0       -0.483780    1.292515    0.000001
      7          6           0       -1.850112    1.020617    0.000015
      8          6           0       -2.294124   -0.299355    0.000010
      9          6           0       -1.366647   -1.341819   -0.000008
     10          6           0       -0.005235   -1.058372   -0.000019
     11          1           0        0.694377   -1.889744   -0.000037
     12          1           0       -0.145757    2.323854    0.000003
     13          1           0       -2.566958    1.834613    0.000027
     14          1           0       -3.356627   -0.517365    0.000019
     15          1           0       -1.708600   -2.371223   -0.000014
     16          1           0        2.319554    1.785424   -0.000068
 ---------------------------------------------------------------------

 SCF Done:  E(RHF) =  -311.416228862     A.U. after    2 cycles

 The electronic state is 1-A.
 Alpha  occ. eigenvalues --  -15.49271 -11.24530 -11.24391 -11.24092 -11.23979
 Alpha  occ. eigenvalues --  -11.23832 -11.21591  -7.58125  -1.16647  -1.14545
 Alpha  occ. eigenvalues --   -1.01269  -1.01122  -0.83387  -0.82842  -0.74991
 Alpha  occ. eigenvalues --   -0.72255  -0.69809  -0.64074  -0.63351  -0.59497
 Alpha  occ. eigenvalues --   -0.58652  -0.52246  -0.51155  -0.49561  -0.47442
 Alpha  occ. eigenvalues --   -0.46383  -0.34251  -0.34197
 Alpha virt. eigenvalues --    0.03057   0.03655   0.03783   0.04956   0.05289
 Alpha virt. eigenvalues --    0.05410   0.07314   0.07493   0.07791   0.08242
 Alpha virt. eigenvalues --    0.10185   0.10371   0.10764   0.12911   0.13179

 Mulliken charges:
               1
     1  C   -0.189909
     2  B   -0.448692
     3  N    0.380992
     4  H   -0.012283
     5  H    0.064834
     6  C    0.091529
     7  C    0.217848
     8  C    0.319920
     9  C   -0.054781
    10  C    0.853956
    11  H   -0.359317
    12  H   -0.364069
    13  H   -0.213790
    14  H   -0.209570
    15  H   -0.241177
    16  H    0.164509
 Sum of Mulliken charges =  -0.00000

 Dipole moment (field-independent basis, Debye):
    X=              0.4272    Y=             -0.9986    Z=              0.0001  Tot=              1.0861

 Test job not archived.
 1\1\GINC-SE455\SP\RHF\Aug-CC-pVDZ\C6H8B1N1\OHZDE\09-Apr-2025\0\\#t hf
 aug-cc-pvdz iop(5/13=1,5/36=2,99/5=2) pseudo=read geom=check guess=(re
 ad,tcheck) scf=(maxcycle=1)\\title\\0,1\C,0,0.473836,0.264081,-0.00001
 4\B,0,1.994133,0.634164,-0.000023\N,0,3.014429,-0.317661,0.000026\H,0,
 2.859504,-1.314343,0.000076\H,0,3.989216,-0.064405,0.00002\C,0,-0.4837
 8,1.292515,0.000001\C,0,-1.850112,1.020617,0.000015\C,0,-2.294124,-0.2
 99355,0.00001\C,0,-1.366647,-1.341819,-0.000008\C,0,-0.005235,-1.05837
 2,-0.000019\H,0,0.694377,-1.889744,-0.000037\H,0,-0.145757,2.323854,0.

 Normal termination of Gaussian 16 at Wed Apr  9 00:30:22 2025.
