 Gaussian 16, Revision C.01,

 ----------------------------------------------------------------------
 #t hf aug-cc-pvdz symm=none int=(grid=ultrafine) guess=(read,tcheck) s
 table=opt
 ----------------------------------------------------------------------
 -----
 title
 -----
 Symbolic Z-matrix:
 Charge =  0 Multiplicity = 2

 SCF Done:  E(UHF) =  -1131.27831322     A.U. after   19 cycles
 Normal termination of Gaussian 16 at Wed Apr  9 00:50:01 2025.
 Gaussian 16:  ES64L-G16RevC.01  3-Jul-2019

 ----------------------------------------------------------------------
 #t hf aug-cc-pvdz iop(5/13=1,5/36=2,99/5=2) pseudo=read geom=check gue
 ss=(read,tcheck) scf=(maxcycle=1)
 ----------------------------------------------------------------------
 -----
 title
 -----
 Structure from the checkpoint file:  "BDE49_nonexpt_916_mol2.chk"
 Charge =  0 Multiplicity = 2

                         Standard orientation:
 ---------------------------------------------------------------------
 Center     Atomic      Atomic             Coordinates (Angstroms)
 Number     Number       Type             X           Y           Z
 ---------------------------------------------------------------------
      1         16           0        2.072394   -0.362433    0.000001
      2         16           0        0.585755    0.944353   -0.000001
      3          6           0       -0.961861   -0.093913    0.000000
      4          9           0       -1.993606    0.763880   -0.000002
      5          9           0       -1.045376   -0.867895    1.082056
      6          9           0       -1.045375   -0.867899   -1.082054
 ---------------------------------------------------------------------

 SCF Done:  E(UHF) =  -1131.69643118     A.U. after    2 cycles

 The electronic state is 2-A.
 Alpha  occ. eigenvalues --  -94.03795 -94.01766 -26.53313 -26.53041 -26.53039
 Alpha  occ. eigenvalues --  -11.56233  -8.31831  -8.29844  -6.29504  -6.29501
 Alpha  occ. eigenvalues --   -6.29280  -6.28742  -6.27306  -6.26876  -1.74310
 Alpha  occ. eigenvalues --   -1.64139  -1.64024  -1.16810  -1.00389  -0.91838
 Alpha  occ. eigenvalues --   -0.83652  -0.83593  -0.78452  -0.70988  -0.70863
 Alpha  occ. eigenvalues --   -0.66325  -0.66304  -0.64355  -0.57358  -0.55122
 Alpha  occ. eigenvalues --   -0.53404  -0.42086  -0.40490
 Alpha virt. eigenvalues --    0.05526   0.07121   0.08560   0.09625   0.10204
 Alpha virt. eigenvalues --    0.11882   0.11999   0.12696   0.13582   0.13718
 Alpha virt. eigenvalues --    0.14442   0.19306   0.23519   0.24120   0.24743

  Beta  occ. eigenvalues --  -94.03603 -94.00929 -26.53320 -26.53031 -26.53028
  Beta  occ. eigenvalues --  -11.56281  -8.31608  -8.28883  -6.29432  -6.29220
  Beta  occ. eigenvalues --   -6.28602  -6.26846  -6.26359  -6.25037  -1.74305
  Beta  occ. eigenvalues --   -1.64144  -1.63994  -1.14140  -0.97975  -0.88616
  Beta  occ. eigenvalues --   -0.83544  -0.83539  -0.76619  -0.70955  -0.70801
  Beta  occ. eigenvalues --   -0.66282  -0.66230  -0.64319  -0.56655  -0.52052
  Beta  occ. eigenvalues --   -0.45357  -0.40236
  Beta virt. eigenvalues --   -0.02189   0.05974   0.07189   0.08581   0.09881
  Beta virt. eigenvalues --    0.10257   0.12367   0.12446   0.12829   0.13782
  Beta virt. eigenvalues --    0.14738   0.15228   0.19498   0.23697   0.24593

 Mulliken charges and spin densities:
               1          2
     1  S    0.036987   0.915826
     2  S    0.162758   0.110903
     3  C    1.614412  -0.021628
     4  F   -0.613417  -0.000059
     5  F   -0.600370  -0.002521
     6  F   -0.600370  -0.002521
 Sum of Mulliken charges =  -0.00000   1.00000

 Dipole moment (field-independent basis, Debye):
    X=              0.6010    Y=              0.2778    Z=              0.0000  Tot=              0.6621
                          Isotropic Fermi Contact Couplings
        Atom                 a.u.       MegaHertz       Gauss      10(-4) cm-1
     1  S(33)              0.19286      66.24348      23.63732      22.09645
     2  S(33)              0.08316      28.56207      10.19166       9.52728
     3  C(13)             -0.01010     -11.35401      -4.05139      -3.78729
     4  F(19)             -0.00174      -7.30310      -2.60593      -2.43605
     5  F(19)              0.00074       3.12645       1.11560       1.04287
     6  F(19)              0.00074       3.12643       1.11559       1.04287
 --------------------------------------------------------
       Center         ----  Spin Dipole Couplings  ----

 Normal termination of Gaussian 16 at Wed Apr  9 00:50:03 2025.
