 Gaussian 16, Revision C.01,

 ----------------------------------------------------------------------
 #t hf aug-cc-pvdz symm=none int=(grid=ultrafine) guess=(read,tcheck) s
 table=(opt,rrhf)
 ----------------------------------------------------------------------
 -----
 title
 -----
 Symbolic Z-matrix:
 Charge =  0 Multiplicity = 1

 SCF Done:  E(RHF) =  -456.376253509     A.U. after   12 cycles
 Normal termination of Gaussian 16 at Tue Apr  8 23:39:06 2025.
 Gaussian 16:  ES64L-G16RevC.01  3-Jul-2019

 ----------------------------------------------------------------------
 #t hf aug-cc-pvdz iop(5/13=1,5/36=2,99/5=2) pseudo=read geom=check gue
 ss=(read,tcheck) scf=(maxcycle=1)
 ----------------------------------------------------------------------
 -----
 title
 -----
 Structure from the checkpoint file:  "BDE49_nonexpt_1599_mol1.chk"
 Charge =  0 Multiplicity = 1

                         Standard orientation:
 ---------------------------------------------------------------------
 Center     Atomic      Atomic             Coordinates (Angstroms)
 Number     Number       Type             X           Y           Z
 ---------------------------------------------------------------------
      1          6           0        1.606122   -0.209834   -0.019991
      2          8           0        0.425139    0.585685    0.078126
      3          1           0        1.798089   -0.754165    0.912122
      4          1           0        2.435442    0.474098   -0.204288
      5          1           0        1.543588   -0.929697   -0.844699
      6         15           0       -1.037346   -0.195475   -0.088316
      7          1           0       -1.796888    0.979413   -0.320262
      8          1           0       -1.457885   -0.264004    1.276807
 ---------------------------------------------------------------------

 SCF Done:  E(RHF) =  -456.540081494     A.U. after    2 cycles

 The electronic state is 1-A.
 Alpha  occ. eigenvalues --  -84.31353 -20.55563 -11.29347  -6.77841  -4.30808
 Alpha  occ. eigenvalues --   -4.29916  -4.29445  -1.45457  -0.95504  -0.82590
 Alpha  occ. eigenvalues --   -0.64690  -0.64078  -0.60703  -0.52088  -0.50170
 Alpha  occ. eigenvalues --   -0.43844  -0.34588
 Alpha virt. eigenvalues --    0.03771   0.04739   0.05643   0.06065   0.07651
 Alpha virt. eigenvalues --    0.08161   0.10667   0.11222   0.14051   0.15119
 Alpha virt. eigenvalues --    0.16534   0.17326   0.18280   0.20901   0.21703

 Mulliken charges:
               1
     1  C    0.349561
     2  O   -1.302727
     3  H    0.123282
     4  H    0.017552
     5  H    0.133562
     6  P    0.198938
     7  H    0.244159
     8  H    0.235674
 Sum of Mulliken charges =   0.00000

 Dipole moment (field-independent basis, Debye):
    X=              0.5231    Y=             -0.6854    Z=              0.1134  Tot=              0.8697

 Test job not archived.
 1\1\GINC-SE398\SP\RHF\Aug-CC-pVDZ\C1H5O1P1\OHZDE\08-Apr-2025\0\\#t hf
 aug-cc-pvdz iop(5/13=1,5/36=2,99/5=2) pseudo=read geom=check guess=(re
 ad,tcheck) scf=(maxcycle=1)\\title\\0,1\C,0,1.606122,-0.209834,-0.0199
 91\O,0,0.425139,0.585685,0.078126\H,0,1.798089,-0.754165,0.912122\H,0,
 2.435442,0.474098,-0.204288\H,0,1.543588,-0.929697,-0.844699\P,0,-1.03
 7346,-0.195475,-0.088316\H,0,-1.796888,0.979413,-0.320262\H,0,-1.45788
 5,-0.264004,1.276807\\Version=ES64L-G16RevC.01\State=1-A\HF=-456.54008
 15\RMSD=2.218e-02\Dipole=0.2057881,-0.2696762,0.044632\Quadrupole=2.30

 Normal termination of Gaussian 16 at Tue Apr  8 23:39:08 2025.
