 Gaussian 16, Revision C.01,

 ----------------------------------------------------------------------
 #t hf aug-cc-pvdz symm=none int=(grid=ultrafine) guess=(read,tcheck) s
 table=opt
 ----------------------------------------------------------------------
 -----
 title
 -----
 Symbolic Z-matrix:
 Charge =  0 Multiplicity = 2

 SCF Done:  E(UHF) =  -703.958737016     A.U. after   25 cycles
 Normal termination of Gaussian 16 at Wed Apr  9 00:20:21 2025.
 Gaussian 16:  ES64L-G16RevC.01  3-Jul-2019

 ----------------------------------------------------------------------
 #t hf aug-cc-pvdz iop(5/13=1,5/36=2,99/5=2) pseudo=read geom=check gue
 ss=(read,tcheck) scf=(maxcycle=1)
 ----------------------------------------------------------------------
 -----
 title
 -----
 Structure from the checkpoint file:  "BDE49_nonexpt_2585_mol2.chk"
 Charge =  0 Multiplicity = 2

                         Standard orientation:
 ---------------------------------------------------------------------
 Center     Atomic      Atomic             Coordinates (Angstroms)
 Number     Number       Type             X           Y           Z
 ---------------------------------------------------------------------
      1         16           0        0.052784    1.654526   -0.446461
      2          6           0        0.011204   -0.044293    0.371784
      3          8           0        1.277428   -0.540769    0.621933
      4          8           0       -0.606042   -0.890723   -0.575713
      5          6           0        2.110115   -0.812467   -0.506876
      6          1           0        3.074464   -1.106691   -0.095585
      7          1           0        2.230194    0.086055   -1.120299
      8          1           0        1.699277   -1.621696   -1.113011
      9          6           0       -2.025394   -0.845139   -0.714682
     10          1           0       -2.255752   -1.431810   -1.603219
     11          1           0       -2.382524    0.178731   -0.856195
     12          1           0       -2.525541   -1.294017    0.148997
     13          6           0       -0.685859    0.037350    1.722235
     14          1           0       -0.097758    0.671970    2.385914
     15          1           0       -0.728948   -0.966457    2.153275
     16          1           0       -1.689428    0.450725    1.638973
 ---------------------------------------------------------------------

 SCF Done:  E(UHF) =  -704.330539676     A.U. after    2 cycles

 The electronic state is 2-A.
 Alpha  occ. eigenvalues --  -93.96111 -20.56526 -20.55856 -11.38977 -11.29362
 Alpha  occ. eigenvalues --  -11.27878 -11.24252  -8.24190  -6.23375  -6.21588
 Alpha  occ. eigenvalues --   -6.21291  -1.52032  -1.44752  -1.06889  -0.98682
 Alpha  occ. eigenvalues --   -0.95905  -0.92755  -0.78381  -0.70781  -0.68114
 Alpha  occ. eigenvalues --   -0.67392  -0.63372  -0.60564  -0.59603  -0.57323
 Alpha  occ. eigenvalues --   -0.55562  -0.53524  -0.50507  -0.49864  -0.45410
 Alpha  occ. eigenvalues --   -0.43384  -0.40915  -0.38593
 Alpha virt. eigenvalues --    0.03602   0.04186   0.04326   0.04939   0.05994
 Alpha virt. eigenvalues --    0.06527   0.06927   0.07343   0.09069   0.09788
 Alpha virt. eigenvalues --    0.11393   0.12618   0.13215   0.14599   0.14782

  Beta  occ. eigenvalues --  -93.95207 -20.56394 -20.55866 -11.39124 -11.29366
  Beta  occ. eigenvalues --  -11.27875 -11.24225  -8.23153  -6.21018  -6.20750
  Beta  occ. eigenvalues --   -6.19379  -1.51909  -1.44588  -1.05471  -0.96222
  Beta  occ. eigenvalues --   -0.93096  -0.91336  -0.77255  -0.70643  -0.67813
  Beta  occ. eigenvalues --   -0.66226  -0.63272  -0.60050  -0.59545  -0.57245
  Beta  occ. eigenvalues --   -0.55521  -0.53047  -0.50215  -0.49301  -0.44547
  Beta  occ. eigenvalues --   -0.39983  -0.36337
  Beta virt. eigenvalues --    0.00865   0.03612   0.04326   0.04539   0.04968
  Beta virt. eigenvalues --    0.06029   0.06550   0.06966   0.07442   0.09140
  Beta virt. eigenvalues --    0.09938   0.11451   0.13147   0.13364   0.14721

 Mulliken charges and spin densities:
               1          2
     1  S    0.152778   1.147715
     2  C    1.735899  -0.151917
     3  O   -1.579069  -0.001685
     4  O   -1.512614  -0.005523
     5  C    0.096119   0.010559
     6  H   -0.019122   0.001406
     7  H    0.229057  -0.014975
     8  H    0.186530   0.001546
     9  C    0.218343  -0.007914
    10  H   -0.036888  -0.001150
    11  H    0.219296  -0.010504
    12  H    0.170620   0.001106
    13  C   -0.381953   0.033947
    14  H    0.125505   0.003401
    15  H    0.228059   0.001826
    16  H    0.167441  -0.007838
 Sum of Mulliken charges =  -0.00000   1.00000

 Dipole moment (field-independent basis, Debye):
    X=             -1.2666    Y=             -0.9611    Z=              0.1828  Tot=              1.6004
                          Isotropic Fermi Contact Couplings
        Atom                 a.u.       MegaHertz       Gauss      10(-4) cm-1
     1  S(33)              0.16794      57.68430      20.58319      19.24141
     2  C(13)             -0.02503     -28.13556     -10.03947      -9.38501
     3  O(17)             -0.00179       1.08811       0.38826       0.36295
     4  O(17)              0.02018     -12.23139      -4.36446      -4.07995
     5  C(13)              0.00001       0.01260       0.00450       0.00420
     6  H(1)               0.00011       0.47295       0.16876       0.15776
     7  H(1)               0.00019       0.84774       0.30250       0.28278
     8  H(1)              -0.00004      -0.16768      -0.05983      -0.05593

 Normal termination of Gaussian 16 at Wed Apr  9 00:20:29 2025.
