 Gaussian 16, Revision C.01,

 ----------------------------------------------------------------------
 #t hf aug-cc-pvdz symm=none int=(grid=ultrafine) guess=(read,tcheck) s
 table=(opt,rrhf)
 ----------------------------------------------------------------------
 -----
 title
 -----
 Symbolic Z-matrix:
 Charge =  0 Multiplicity = 1

 SCF Done:  E(RHF) =  -689.164380149     A.U. after   14 cycles

 1\1\GINC-SE284\Stability\RHF\Aug-CC-pVDZ\C9H13P1\OHZDE\08-Apr-2025\0\\
 #t hf aug-cc-pvdz symm=none int=(grid=ultrafine) guess=(read,tcheck) s
 table=(opt,rrhf)\\title\\0,1\C,0,0.557433,-0.000001,0.691956\C,0,1.206
 846,-1.200726,0.37497\C,0,1.206845,1.200724,0.374972\C,0,2.45464,1.202
 625,-0.243627\C,0,3.083434,0.,-0.558583\C,0,2.454641,-1.202626,-0.2436
 28\H,0,4.056269,0.000001,-1.036835\H,0,2.939103,-2.145352,-0.473424\H,
 0,0.734218,-2.144259,0.627639\H,0,0.734217,2.144257,0.627643\H,0,2.939
 102,2.145352,-0.473421\C,0,-0.797096,-0.000002,1.347638\P,0,-2.337267,

 Normal termination of Gaussian 16 at Tue Apr  8 23:29:06 2025.
 Gaussian 16:  ES64L-G16RevC.01  3-Jul-2019

 ----------------------------------------------------------------------
 #t hf aug-cc-pvdz iop(5/13=1,5/36=2,99/5=2) pseudo=read geom=check gue
 ss=(read,tcheck) scf=(maxcycle=1)
 ----------------------------------------------------------------------
 -----
 title
 -----
 Structure from the checkpoint file:  "BDE49_nonexpt_1303_mol1.chk"
 Charge =  0 Multiplicity = 1

                         Standard orientation:
 ---------------------------------------------------------------------
 Center     Atomic      Atomic             Coordinates (Angstroms)
 Number     Number       Type             X           Y           Z
 ---------------------------------------------------------------------
      1          6           0       -0.557433    0.000001    0.691956
      2          6           0       -1.206846    1.200726    0.374970
      3          6           0       -1.206845   -1.200724    0.374972
      4          6           0       -2.454640   -1.202625   -0.243627
      5          6           0       -3.083434   -0.000000   -0.558583
      6          6           0       -2.454641    1.202626   -0.243628
      7          1           0       -4.056269   -0.000001   -1.036835
      8          1           0       -2.939103    2.145352   -0.473424
      9          1           0       -0.734218    2.144259    0.627639
     10          1           0       -0.734217   -2.144257    0.627643
     11          1           0       -2.939102   -2.145352   -0.473421
     12          6           0        0.797096    0.000002    1.347638
     13         15           0        2.337267   -0.000002    0.251806
     14          1           0        0.910261   -0.875296    1.994497
     15          1           0        0.910262    0.875303    1.994494
     16          6           0        1.988955    1.416816   -0.894211
     17          6           0        1.988948   -1.416817   -0.894211
     18          1           0        2.041423    2.357987   -0.341059
     19          1           0        1.015730    1.345624   -1.386132
     20          1           0        2.771072    1.440241   -1.657481
     21          1           0        2.041411   -2.357988   -0.341058
     22          1           0        2.771065   -1.440247   -1.657480
     23          1           0        1.015724   -1.345622   -1.386131
 ---------------------------------------------------------------------

 SCF Done:  E(RHF) =  -689.580967058     A.U. after    2 cycles

 The electronic state is 1-A.
 Alpha  occ. eigenvalues --  -84.26257 -11.25162 -11.24432 -11.24411 -11.24212
 Alpha  occ. eigenvalues --  -11.24032 -11.24024 -11.24015 -11.22877 -11.22872
 Alpha  occ. eigenvalues --   -6.73209  -4.25741  -4.25707  -4.24988  -1.15834
 Alpha  occ. eigenvalues --   -1.05931  -1.01626  -1.00399  -0.93535  -0.93370
 Alpha  occ. eigenvalues --   -0.83593  -0.81407  -0.72956  -0.69835  -0.65456
 Alpha  occ. eigenvalues --   -0.64372  -0.60053  -0.59911  -0.58587  -0.57727
 Alpha  occ. eigenvalues --   -0.57202  -0.55467  -0.54312  -0.51837  -0.50577
 Alpha  occ. eigenvalues --   -0.49885  -0.44947  -0.44581  -0.34692  -0.33858
 Alpha  occ. eigenvalues --   -0.30188
 Alpha virt. eigenvalues --    0.03312   0.03361   0.03804   0.04050   0.04962
 Alpha virt. eigenvalues --    0.05063   0.05883   0.06434   0.07226   0.07897
 Alpha virt. eigenvalues --    0.08116   0.09079   0.09455   0.09812   0.10956

 Mulliken charges:
               1
     1  C    1.324393
     2  C    0.266626
     3  C    0.266621
     4  C    0.011168
     5  C    0.156360
     6  C    0.011171
     7  H   -0.216599
     8  H   -0.242010
     9  H   -0.372035
    10  H   -0.372033
    11  H   -0.242010
    12  C   -1.041460
    13  P    1.252796
    14  H    0.068362
    15  H    0.068362
    16  C   -0.764881
    17  C   -0.764878
    18  H    0.090949
    19  H    0.147195
    20  H    0.056881
    21  H    0.090952
    22  H    0.056879
    23  H    0.147192
 Sum of Mulliken charges =   0.00000

 Dipole moment (field-independent basis, Debye):
    X=             -0.6276    Y=             -0.0000    Z=             -0.5307  Tot=              0.8219

 Test job not archived.
 1\1\GINC-SE284\SP\RHF\Aug-CC-pVDZ\C9H13P1\OHZDE\08-Apr-2025\0\\#t hf a
 ug-cc-pvdz iop(5/13=1,5/36=2,99/5=2) pseudo=read geom=check guess=(rea
 d,tcheck) scf=(maxcycle=1)\\title\\0,1\C,0,0.557433,-0.000001,0.691956
 \C,0,1.206846,-1.200726,0.37497\C,0,1.206845,1.200724,0.374972\C,0,2.4
 5464,1.202625,-0.243627\C,0,3.083434,0.,-0.558583\C,0,2.454641,-1.2026
 26,-0.243628\H,0,4.056269,0.000001,-1.036835\H,0,2.939103,-2.145352,-0
 .473424\H,0,0.734218,-2.144259,0.627639\H,0,0.734217,2.144257,0.627643
 \H,0,2.939102,2.145352,-0.473421\C,0,-0.797096,-0.000002,1.347638\P,0,

 Normal termination of Gaussian 16 at Tue Apr  8 23:29:20 2025.
