 Gaussian 16, Revision C.01,

 ----------------------------------------------------------------------
 #t hf aug-cc-pvdz symm=none int=(grid=ultrafine) guess=(read,tcheck) s
 table=(opt,rrhf)
 ----------------------------------------------------------------------
 -----
 title
 -----
 Symbolic Z-matrix:
 Charge =  0 Multiplicity = 1

 SCF Done:  E(RHF) =  -360.825314871     A.U. after   15 cycles
 Normal termination of Gaussian 16 at Tue Apr  8 22:52:03 2025.
 Gaussian 16:  ES64L-G16RevC.01  3-Jul-2019

 ----------------------------------------------------------------------
 #t hf aug-cc-pvdz iop(5/13=1,5/36=2,99/5=2) pseudo=read geom=check gue
 ss=(read,tcheck) scf=(maxcycle=1)
 ----------------------------------------------------------------------
 -----
 title
 -----
 Structure from the checkpoint file:  "BDE49_expt_1782_mol1.chk"
 Charge =  0 Multiplicity = 1

                         Standard orientation:
 ---------------------------------------------------------------------
 Center     Atomic      Atomic             Coordinates (Angstroms)
 Number     Number       Type             X           Y           Z
 ---------------------------------------------------------------------
      1          8           0       -1.043014   -0.485583   -0.440803
      2          7           0       -2.402127   -0.704813   -0.185761
      3          8           0       -2.940490    0.162265    0.408777
      4          6           0       -0.479142    0.756414    0.050619
      5          6           0        0.997429    0.755141   -0.309246
      6          1           0       -0.638525    0.813440    1.132163
      7          6           0        1.810664   -0.335356    0.397794
      8          1           0        1.399029    1.742960   -0.052177
      9          1           0        1.096172    0.651459   -1.395258
     10          6           0        3.291685   -0.314535    0.011993
     11          1           0        1.379048   -1.311814    0.159914
     12          1           0        1.711718   -0.209124    1.482872
     13          1           0        3.422240   -0.473235   -1.062836
     14          1           0        3.847284   -1.098946    0.532138
     15          1           0        3.756027    0.644176    0.264028
     16          1           0       -1.013893    1.591333   -0.411268
 ---------------------------------------------------------------------

 SCF Done:  E(RHF) =  -361.194079348     A.U. after    2 cycles

 The electronic state is 1-A.
 Alpha  occ. eigenvalues --  -20.63419 -20.61283 -15.72252 -11.30314 -11.24401
 Alpha  occ. eigenvalues --  -11.23459 -11.22877  -1.66832  -1.49140  -1.09611
 Alpha  occ. eigenvalues --   -1.02411  -0.94567  -0.86582  -0.80770  -0.77840
 Alpha  occ. eigenvalues --   -0.73411  -0.71158  -0.64551  -0.62037  -0.60856
 Alpha  occ. eigenvalues --   -0.56820  -0.55899  -0.53537  -0.50029  -0.49464
 Alpha  occ. eigenvalues --   -0.48390  -0.46539  -0.45783
 Alpha virt. eigenvalues --    0.03651   0.03734   0.03931   0.04735   0.06175
 Alpha virt. eigenvalues --    0.06741   0.07056   0.07426   0.08058   0.09499
 Alpha virt. eigenvalues --    0.11293   0.12246   0.13428   0.14454   0.14841

 Mulliken charges:
               1
     1  O   -1.403902
     2  N    1.723594
     3  O   -0.987362
     4  C    0.362708
     5  C   -0.356436
     6  H    0.156518
     7  C   -0.221715
     8  H    0.147450
     9  H    0.128987
    10  C   -0.357110
    11  H    0.162598
    12  H    0.087848
    13  H    0.165960
    14  H    0.120224
    15  H    0.165414
    16  H    0.105226
 Sum of Mulliken charges =  -0.00000

 Dipole moment (field-independent basis, Debye):
    X=              1.9264    Y=              1.5994    Z=              0.4312  Tot=              2.5406

 Test job not archived.
 1\1\GINC-SE460\SP\RHF\Aug-CC-pVDZ\C4H9N1O2\OHZDE\08-Apr-2025\0\\#t hf
 aug-cc-pvdz iop(5/13=1,5/36=2,99/5=2) pseudo=read geom=check guess=(re
 ad,tcheck) scf=(maxcycle=1)\\title\\0,1\O,0,-1.043014,-0.485583,-0.440
 803\N,0,-2.402127,-0.704813,-0.185761\O,0,-2.94049,0.162265,0.408777\C
 ,0,-0.479142,0.756414,0.050619\C,0,0.997429,0.755141,-0.309246\H,0,-0.
 638525,0.81344,1.132163\C,0,1.810664,-0.335356,0.397794\H,0,1.399029,1
 .74296,-0.052177\H,0,1.096172,0.651459,-1.395258\C,0,3.291685,-0.31453
 5,0.011993\H,0,1.379048,-1.311814,0.159914\H,0,1.711718,-0.209124,1.48

 Normal termination of Gaussian 16 at Tue Apr  8 22:52:08 2025.
