 Gaussian 16, Revision C.01,

 ----------------------------------------------------------------------
 #t hf aug-cc-pvdz symm=none int=(grid=ultrafine) guess=(read,tcheck) s
 table=(opt,rrhf)
 ----------------------------------------------------------------------
 -----
 title
 -----
 Symbolic Z-matrix:
 Charge =  0 Multiplicity = 1

 SCF Done:  E(RHF) =  -474.719545845     A.U. after   12 cycles
 Normal termination of Gaussian 16 at Tue Apr  8 22:44:31 2025.
 Gaussian 16:  ES64L-G16RevC.01  3-Jul-2019

 ----------------------------------------------------------------------
 #t hf aug-cc-pvdz iop(5/13=1,5/36=2,99/5=2) pseudo=read geom=check gue
 ss=(read,tcheck) scf=(maxcycle=1)
 ----------------------------------------------------------------------
 -----
 title
 -----
 Structure from the checkpoint file:  "BDE49_expt_1511_mol1.chk"
 Charge =  0 Multiplicity = 1

                         Standard orientation:
 ---------------------------------------------------------------------
 Center     Atomic      Atomic             Coordinates (Angstroms)
 Number     Number       Type             X           Y           Z
 ---------------------------------------------------------------------
      1          6           0        1.156135    0.243060    0.000000
      2          6           0       -0.360768    0.190551    0.000000
      3          1           0        1.488898    0.768019    0.897575
      4          1           0        1.488898    0.768019   -0.897575
      5          9           0        1.664387   -1.038421    0.000000
      6          9           0       -0.841833   -0.437299   -1.085551
      7          9           0       -0.841833    1.453273    0.000000
      8          9           0       -0.841833   -0.437299    1.085551
 ---------------------------------------------------------------------

 SCF Done:  E(RHF) =  -475.158999151     A.U. after    2 cycles

 The electronic state is 1-A'.
 Alpha  occ. eigenvalues --  -26.52044 -26.51628 -26.51625 -26.48617 -11.53299
 Alpha  occ. eigenvalues --  -11.36965  -1.72549  -1.62640  -1.62405  -1.60879
 Alpha  occ. eigenvalues --   -1.07128  -0.92542  -0.82655  -0.82563  -0.80798
 Alpha  occ. eigenvalues --   -0.73382  -0.71955  -0.68813  -0.68785  -0.65864
 Alpha  occ. eigenvalues --   -0.64560  -0.64498  -0.63084  -0.56559  -0.55147
 Alpha virt. eigenvalues --    0.03424   0.04900   0.07781   0.08906   0.11398
 Alpha virt. eigenvalues --    0.11537   0.12018   0.15569   0.16014   0.19945
 Alpha virt. eigenvalues --    0.21867   0.22876   0.25281   0.27628   0.28759

 Mulliken charges:
               1
     1  C    0.297481
     2  C    2.245264
     3  H    0.146484
     4  H    0.146484
     5  F   -0.676775
     6  F   -0.715992
     7  F   -0.726954
     8  F   -0.715992
 Sum of Mulliken charges =  -0.00000

 Dipole moment (field-independent basis, Debye):
    X=              1.4128    Y=              1.6154    Z=             -0.0000  Tot=              2.1461

 Test job not archived.
 1\1\GINC-SE126\SP\RHF\Aug-CC-pVDZ\C2H2F4\OHZDE\08-Apr-2025\0\\#t hf au
 g-cc-pvdz iop(5/13=1,5/36=2,99/5=2) pseudo=read geom=check guess=(read
 ,tcheck) scf=(maxcycle=1)\\title\\0,1\C,0,1.156135,0.24306,0.\C,0,-0.3
 60768,0.190551,0.\H,0,1.488898,0.768019,0.897575\H,0,1.488898,0.768019
 ,-0.897575\F,0,1.664387,-1.038421,0.\F,0,-0.841833,-0.437299,-1.085551
 \F,0,-0.841833,1.453273,0.\F,0,-0.841833,-0.437299,1.085551\\Version=E
 S64L-G16RevC.01\State=1-A'\HF=-475.1589992\RMSD=5.547e-03\Dipole=0.555
 8449,0.6355428,0.\Quadrupole=0.2629783,-0.8800592,0.6170809,2.4850716,

 Normal termination of Gaussian 16 at Tue Apr  8 22:44:33 2025.
