 Gaussian 16, Revision C.01,

 ----------------------------------------------------------------------
 #t hf aug-cc-pvdz symm=none int=(grid=ultrafine) guess=(read,tcheck) s
 table=(opt,rrhf)
 ----------------------------------------------------------------------
 -----
 title
 -----
 Symbolic Z-matrix:
 Charge =  0 Multiplicity = 1

 SCF Done:  E(RHF) =  -429.211799504     A.U. after   14 cycles
 Normal termination of Gaussian 16 at Wed Apr  9 00:46:26 2025.
 Gaussian 16:  ES64L-G16RevC.01  3-Jul-2019

 ----------------------------------------------------------------------
 #t hf aug-cc-pvdz iop(5/13=1,5/36=2,99/5=2) pseudo=read geom=check gue
 ss=(read,tcheck) scf=(maxcycle=1)
 ----------------------------------------------------------------------
 -----
 title
 -----
 Structure from the checkpoint file:  "BDE49_nonexpt_818_mol1.chk"
 Charge =  0 Multiplicity = 1

                         Standard orientation:
 ---------------------------------------------------------------------
 Center     Atomic      Atomic             Coordinates (Angstroms)
 Number     Number       Type             X           Y           Z
 ---------------------------------------------------------------------
      1          6           0       -1.122937   -0.280551    0.386841
      2          5           0        2.004565   -0.808509   -0.170118
      3          8           0       -2.037231   -0.265716   -0.401895
      4         14           0        0.576597    0.591928    0.044421
      5          1           0        2.785382   -0.800792   -1.068227
      6          1           0        2.085712   -1.686347    0.632091
      7          1           0        0.397210    1.531026   -1.083782
      8          1           0        0.907970    1.346867    1.285839
      9          1           0       -1.235987   -0.826172    1.356892
 ---------------------------------------------------------------------

 SCF Done:  E(RHF) =  -429.383353889     A.U. after    2 cycles

 The electronic state is 1-A.
 Alpha  occ. eigenvalues --  -69.53336 -20.56042 -11.33600  -7.62673  -6.20697
 Alpha  occ. eigenvalues --   -3.96047  -3.96024  -3.95994  -1.48240  -0.86737
 Alpha  occ. eigenvalues --   -0.76723  -0.69405  -0.65677  -0.59053  -0.53657
 Alpha  occ. eigenvalues --   -0.53119  -0.49108  -0.44566  -0.38751
 Alpha virt. eigenvalues --    0.01244   0.03364   0.03814   0.03933   0.05967
 Alpha virt. eigenvalues --    0.07007   0.07114   0.07583   0.08393   0.09109
 Alpha virt. eigenvalues --    0.10076   0.10647   0.12954   0.13694   0.14670

 Mulliken charges:
               1
     1  C    0.333040
     2  B   -1.057756
     3  O   -0.920415
     4  Si   1.077494
     5  H    0.428621
     6  H    0.360854
     7  H   -0.165017
     8  H   -0.163841
     9  H    0.107020
 Sum of Mulliken charges =  -0.00000

 Dipole moment (field-independent basis, Debye):
    X=              2.4957    Y=             -0.1780    Z=              1.2698  Tot=              2.8058

 Test job not archived.
 1\1\GINC-SE096\SP\RHF\Aug-CC-pVDZ\C1H5B1O1Si1\OHZDE\09-Apr-2025\0\\#t
 hf aug-cc-pvdz iop(5/13=1,5/36=2,99/5=2) pseudo=read geom=check guess=
 (read,tcheck) scf=(maxcycle=1)\\title\\0,1\C,0,1.122937,0.280551,0.386
 841\B,0,-2.004565,0.808509,-0.170118\O,0,2.037231,0.265716,-0.401895\S
 i,0,-0.576597,-0.591928,0.044421\H,0,-2.785382,0.800792,-1.068227\H,0,
 -2.085712,1.686347,0.632091\H,0,-0.39721,-1.531026,-1.083782\H,0,-0.90
 797,-1.346867,1.285839\H,0,1.235987,0.826172,1.356892\\Version=ES64L-G
 16RevC.01\State=1-A\HF=-429.3833539\RMSD=9.549e-03\Dipole=-0.9818851,0

 Normal termination of Gaussian 16 at Wed Apr  9 00:46:29 2025.
