 Gaussian 16, Revision C.01,

 ----------------------------------------------------------------------
 #t hf aug-cc-pvdz symm=none int=(grid=ultrafine) guess=(read,tcheck) s
 table=(opt,rrhf)
 ----------------------------------------------------------------------
 -----
 title
 -----
 Symbolic Z-matrix:
 Charge =  0 Multiplicity = 1

 SCF Done:  E(RHF) =  -691.478134256     A.U. after   11 cycles

 1\1\GINC-SE329\Stability\RHF\Aug-CC-pVDZ\H8N2Si2\OHZDE\09-Apr-2025\0\\
 #t hf aug-cc-pvdz symm=none int=(grid=ultrafine) guess=(read,tcheck) s
 table=(opt,rrhf)\\title\\0,1\Si,0,-0.019402,-1.183256,-0.583452\Si,0,0
 .019402,1.183256,-0.583452\N,0,0.019402,-1.618285,1.096518\H,0,0.68468
 ,-1.144046,1.692323\H,0,-0.085757,-2.584227,1.375531\N,0,-0.019402,1.6
 18285,1.096518\H,0,-0.68468,1.144046,1.692323\H,0,0.085757,2.584227,1.
 375531\H,0,1.087405,-1.728973,-1.423093\H,0,-1.276076,-1.731735,-1.152
 055\H,0,-1.087405,1.728973,-1.423093\H,0,1.276076,1.731735,-1.152055\\

 Normal termination of Gaussian 16 at Wed Apr  9 00:01:28 2025.
 Gaussian 16:  ES64L-G16RevC.01  3-Jul-2019

 ----------------------------------------------------------------------
 #t hf aug-cc-pvdz iop(5/13=1,5/36=2,99/5=2) pseudo=read geom=check gue
 ss=(read,tcheck) scf=(maxcycle=1)
 ----------------------------------------------------------------------
 -----
 title
 -----
 Structure from the checkpoint file:  "BDE49_nonexpt_2134_mol1.chk"
 Charge =  0 Multiplicity = 1

                         Standard orientation:
 ---------------------------------------------------------------------
 Center     Atomic      Atomic             Coordinates (Angstroms)
 Number     Number       Type             X           Y           Z
 ---------------------------------------------------------------------
      1         14           0        0.019402    1.183256   -0.583452
      2         14           0       -0.019402   -1.183256   -0.583452
      3          7           0       -0.019402    1.618285    1.096518
      4          1           0       -0.684680    1.144046    1.692323
      5          1           0        0.085757    2.584227    1.375531
      6          7           0        0.019402   -1.618285    1.096518
      7          1           0        0.684680   -1.144046    1.692323
      8          1           0       -0.085757   -2.584227    1.375531
      9          1           0       -1.087405    1.728973   -1.423093
     10          1           0        1.276076    1.731735   -1.152055
     11          1           0        1.087405   -1.728973   -1.423093
     12          1           0       -1.276076   -1.731735   -1.152055
 ---------------------------------------------------------------------

 SCF Done:  E(RHF) =  -691.666113634     A.U. after    2 cycles

 The electronic state is 1-A.
 Alpha  occ. eigenvalues --  -69.53189 -69.53189 -15.47840 -15.47812  -6.20067
 Alpha  occ. eigenvalues --   -6.20057  -3.95460  -3.95446  -3.95437  -3.95386
 Alpha  occ. eigenvalues --   -3.95366  -3.95347  -1.14231  -1.13286  -0.77123
 Alpha  occ. eigenvalues --   -0.71233  -0.69728  -0.67973  -0.58707  -0.56248
 Alpha  occ. eigenvalues --   -0.51274  -0.49800  -0.43450  -0.43426  -0.39382
 Alpha virt. eigenvalues --    0.03054   0.04072   0.04849   0.05916   0.06451
 Alpha virt. eigenvalues --    0.06634   0.07211   0.07345   0.07812   0.09246
 Alpha virt. eigenvalues --    0.09959   0.10250   0.11738   0.11776   0.13878

 Mulliken charges:
               1
     1  Si   0.327602
     2  Si   0.327602
     3  N   -0.120412
     4  H   -0.004256
     5  H   -0.042131
     6  N   -0.120412
     7  H   -0.004256
     8  H   -0.042131
     9  H   -0.105891
    10  H   -0.054912
    11  H   -0.105891
    12  H   -0.054912
 Sum of Mulliken charges =  -0.00000

 Dipole moment (field-independent basis, Debye):
    X=              0.0000    Y=              0.0000    Z=              0.9793  Tot=              0.9793

 Test job not archived.
 1\1\GINC-SE329\SP\RHF\Aug-CC-pVDZ\H8N2Si2\OHZDE\09-Apr-2025\0\\#t hf a
 ug-cc-pvdz iop(5/13=1,5/36=2,99/5=2) pseudo=read geom=check guess=(rea
 d,tcheck) scf=(maxcycle=1)\\title\\0,1\Si,0,-0.019402,-1.183256,-0.583
 452\Si,0,0.019402,1.183256,-0.583452\N,0,0.019402,-1.618285,1.096518\H
 ,0,0.68468,-1.144046,1.692323\H,0,-0.085757,-2.584227,1.375531\N,0,-0.
 019402,1.618285,1.096518\H,0,-0.68468,1.144046,1.692323\H,0,0.085757,2
 .584227,1.375531\H,0,1.087405,-1.728973,-1.423093\H,0,-1.276076,-1.731
 735,-1.152055\H,0,-1.087405,1.728973,-1.423093\H,0,1.276076,1.731735,-

 Normal termination of Gaussian 16 at Wed Apr  9 00:01:31 2025.
