 Gaussian 16, Revision C.01,

 ----------------------------------------------------------------------
 #t hf aug-cc-pvdz symm=none int=(grid=ultrafine) guess=(read,tcheck) s
 table=(opt,rrhf)
 ----------------------------------------------------------------------
 -----
 title
 -----
 Symbolic Z-matrix:
 Charge =  0 Multiplicity = 1

 SCF Done:  E(RHF) =  -704.284528798     A.U. after   15 cycles
 Normal termination of Gaussian 16 at Wed Apr  9 00:23:02 2025.
 Gaussian 16:  ES64L-G16RevC.01  3-Jul-2019

 ----------------------------------------------------------------------
 #t hf aug-cc-pvdz iop(5/13=1,5/36=2,99/5=2) pseudo=read geom=check gue
 ss=(read,tcheck) scf=(maxcycle=1)
 ----------------------------------------------------------------------
 -----
 title
 -----
 Structure from the checkpoint file:  "BDE49_nonexpt_2676_mol1.chk"
 Charge =  0 Multiplicity = 1

                         Standard orientation:
 ---------------------------------------------------------------------
 Center     Atomic      Atomic             Coordinates (Angstroms)
 Number     Number       Type             X           Y           Z
 ---------------------------------------------------------------------
      1          9           0       -2.205524    0.379407   -0.503001
      2         16           0       -1.200464   -0.699887    0.302515
      3          6           0        0.348423    0.084417    0.033751
      4          7           0        1.273050   -0.774385   -0.193632
      5          8           0        2.542937   -0.192222   -0.121992
      6          1           0        3.119418   -0.925295   -0.362358
      7          6           0        0.496441    1.562371    0.223578
      8          1           0       -0.441750    2.064808   -0.009136
      9          1           0        1.293270    1.941308   -0.416802
     10          1           0        0.762180    1.780450    1.262450
 ---------------------------------------------------------------------

 SCF Done:  E(RHF) =  -704.640324314     A.U. after    2 cycles

 The electronic state is 1-A.
 Alpha  occ. eigenvalues --  -94.05083 -26.47719 -20.60846 -15.59087 -11.33599
 Alpha  occ. eigenvalues --  -11.26070  -8.32401  -6.30175  -6.29891  -6.29588
 Alpha  occ. eigenvalues --   -1.57526  -1.52467  -1.22682  -1.03732  -0.99879
 Alpha  occ. eigenvalues --   -0.78764  -0.73790  -0.70125  -0.66733  -0.65574
 Alpha  occ. eigenvalues --   -0.64474  -0.62788  -0.58487  -0.57982  -0.53291
 Alpha  occ. eigenvalues --   -0.48411  -0.45571  -0.38258
 Alpha virt. eigenvalues --    0.03503   0.04650   0.05307   0.05952   0.07025
 Alpha virt. eigenvalues --    0.07407   0.09857   0.10558   0.11672   0.13681
 Alpha virt. eigenvalues --    0.14828   0.15956   0.16161   0.16403   0.17781

 Mulliken charges:
               1
     1  F   -0.675756
     2  S    1.023508
     3  C   -1.353744
     4  N    1.377221
     5  O   -1.146785
     6  H    0.319481
     7  C   -0.255082
     8  H    0.200827
     9  H    0.228477
    10  H    0.281852
 Sum of Mulliken charges =  -0.00000

 Dipole moment (field-independent basis, Debye):
    X=              1.5816    Y=              0.8882    Z=              0.5490  Tot=              1.8952

 Test job not archived.
 1\1\GINC-SE015\SP\RHF\Aug-CC-pVDZ\C2H4F1N1O1S1\OHZDE\09-Apr-2025\0\\#t
  hf aug-cc-pvdz iop(5/13=1,5/36=2,99/5=2) pseudo=read geom=check guess
 =(read,tcheck) scf=(maxcycle=1)\\title\\0,1\F,0,-2.205524,0.379407,-0.
 503001\S,0,-1.200464,-0.699887,0.302515\C,0,0.348423,0.084417,0.033751
 \N,0,1.27305,-0.774385,-0.193632\O,0,2.542937,-0.192222,-0.121992\H,0,
 3.119418,-0.925295,-0.362358\C,0,0.496441,1.562371,0.223578\H,0,-0.441
 75,2.064808,-0.009136\H,0,1.29327,1.941308,-0.416802\H,0,0.76218,1.780
 45,1.26245\\Version=ES64L-G16RevC.01\State=1-A\HF=-704.6403243\RMSD=1.

 Normal termination of Gaussian 16 at Wed Apr  9 00:23:06 2025.
