 Gaussian 16, Revision C.01,

 ----------------------------------------------------------------------
 #t hf aug-cc-pvdz symm=none int=(grid=ultrafine) guess=(read,tcheck) s
 table=(opt,rrhf)
 ----------------------------------------------------------------------
 -----
 title
 -----
 Symbolic Z-matrix:
 Charge =  0 Multiplicity = 1

 SCF Done:  E(RHF) =  -1062.52536413     A.U. after   16 cycles
 Normal termination of Gaussian 16 at Tue Apr  8 23:17:14 2025.
 Gaussian 16:  ES64L-G16RevC.01  3-Jul-2019

 ----------------------------------------------------------------------
 #t hf aug-cc-pvdz iop(5/13=1,5/36=2,99/5=2) pseudo=read geom=check gue
 ss=(read,tcheck) scf=(maxcycle=1)
 ----------------------------------------------------------------------
 -----
 title
 -----
 Structure from the checkpoint file:  "BDE49_expt_500_mol1.chk"
 Charge =  0 Multiplicity = 1

                         Standard orientation:
 ---------------------------------------------------------------------
 Center     Atomic      Atomic             Coordinates (Angstroms)
 Number     Number       Type             X           Y           Z
 ---------------------------------------------------------------------
      1          6           0        3.405452    0.428615    1.025970
      2          6           0        2.391726   -0.479709    0.737188
      3          6           0        3.761265    1.416713    0.109224
      4          6           0        3.084866    1.500013   -1.105235
      5          6           0        2.051035    0.613941   -1.393283
      6          6           0        1.702133   -0.382193   -0.475927
      7          1           0        2.130617   -1.263911    1.434056
      8          1           0        3.933940    0.348975    1.969244
      9          1           0        3.352292    2.262157   -1.828291
     10          1           0        1.511249    0.693346   -2.331350
     11          7           0        0.688095   -1.321300   -0.815743
     12          6           0       -1.589050   -0.057435    0.144783
     13          6           0       -1.342704    0.865302    1.160802
     14          6           0       -2.524429    0.200900   -0.857783
     15          6           0       -3.213827    1.409645   -0.845137
     16          6           0       -2.036824    2.072571    1.159875
     17          6           0       -2.967575    2.345507    0.159157
     18          1           0       -3.508832    3.284685    0.166390
     19          1           0       -3.949541    1.616423   -1.613639
     20          1           0       -2.720613   -0.546790   -1.615716
     21          1           0       -0.632654    0.628904    1.941902
     22          1           0       -1.854919    2.795823    1.946162
     23          1           0        4.561559    2.110956    0.337067
     24         16           0       -0.684266   -1.600147    0.114977
     25          1           0        0.444170   -1.351882   -1.798421
     26          8           0       -0.241207   -1.869896    1.458295
     27          8           0       -1.442303   -2.546411   -0.665124
 ---------------------------------------------------------------------

 SCF Done:  E(RHF) =  -1063.26116966     A.U. after    2 cycles

 The electronic state is 1-A.
 Alpha  occ. eigenvalues --  -94.21899 -20.54163 -20.54119 -15.55054 -11.29989
 Alpha  occ. eigenvalues --  -11.28713 -11.27526 -11.27428 -11.27182 -11.26633
 Alpha  occ. eigenvalues --  -11.26551 -11.25627 -11.25519 -11.25380 -11.24924
 Alpha  occ. eigenvalues --  -11.24756  -8.46776  -6.44929  -6.44710  -6.44592
 Alpha  occ. eigenvalues --   -1.57186  -1.45014  -1.26434  -1.18694  -1.15527
 Alpha  occ. eigenvalues --   -1.06687  -1.04474  -1.03040  -1.02367  -0.93380
 Alpha  occ. eigenvalues --   -0.86501  -0.86407  -0.85838  -0.82221  -0.76961
 Alpha  occ. eigenvalues --   -0.75538  -0.72643  -0.69937  -0.69081  -0.67706
 Alpha  occ. eigenvalues --   -0.65628  -0.64986  -0.64127  -0.62788  -0.62755
 Alpha  occ. eigenvalues --   -0.61071  -0.57190  -0.55550  -0.54827  -0.53818
 Alpha  occ. eigenvalues --   -0.53329  -0.52372  -0.50824  -0.50059  -0.49012
 Alpha  occ. eigenvalues --   -0.47111  -0.46725  -0.37870  -0.37031  -0.35808
 Alpha  occ. eigenvalues --   -0.34160
 Alpha virt. eigenvalues --    0.02603   0.02918   0.03135   0.03709   0.04123
 Alpha virt. eigenvalues --    0.05100   0.05506   0.06438   0.06739   0.07124
 Alpha virt. eigenvalues --    0.07441   0.08180   0.08455   0.09171   0.09585

 Mulliken charges:
               1
     1  C    0.368297
     2  C    0.533655
     3  C    0.134376
     4  C    0.315664
     5  C    0.326233
     6  C   -0.993879
     7  H   -0.292537
     8  H   -0.239242
     9  H   -0.226141
    10  H   -0.402412
    11  N    0.433562
    12  C    0.794398
    13  C   -0.155845
    14  C   -0.584028
    15  C    0.392932
    16  C    0.288284
    17  C    0.131890
    18  H   -0.208813
    19  H   -0.223123
    20  H   -0.311512
    21  H   -0.339225
    22  H   -0.238009
    23  H   -0.222281
    24  S    3.982548
    25  H    0.079926
    26  O   -1.725117
    27  O   -1.619600
 Sum of Mulliken charges =  -0.00000

 Dipole moment (field-independent basis, Debye):
    X=              0.1271    Y=              5.6221    Z=             -1.5475  Tot=              5.8326

 Test job not archived.
 1\1\GINC-SE069\SP\RHF\Aug-CC-pVDZ\C12H11N1O2S1\OHZDE\08-Apr-2025\0\\#t
  hf aug-cc-pvdz iop(5/13=1,5/36=2,99/5=2) pseudo=read geom=check guess
 =(read,tcheck) scf=(maxcycle=1)\\title\\0,1\C,0,3.405452,0.428615,1.02
 597\C,0,2.391726,-0.479709,0.737188\C,0,3.761265,1.416713,0.109224\C,0
 ,3.084866,1.500013,-1.105235\C,0,2.051035,0.613941,-1.393283\C,0,1.702
 133,-0.382193,-0.475927\H,0,2.130617,-1.263911,1.434056\H,0,3.93394,0.
 348975,1.969244\H,0,3.352292,2.262157,-1.828291\H,0,1.511249,0.693346,
 -2.33135\N,0,0.688095,-1.3213,-0.815743\C,0,-1.58905,-0.057435,0.14478

 Normal termination of Gaussian 16 at Tue Apr  8 23:17:48 2025.
