 Gaussian 16, Revision C.01,

 ----------------------------------------------------------------------
 #t hf aug-cc-pvdz symm=none int=(grid=ultrafine) guess=(read,tcheck) s
 table=(opt,rrhf)
 ----------------------------------------------------------------------
 -----
 title
 -----
 Symbolic Z-matrix:
 Charge =  0 Multiplicity = 1

 SCF Done:  E(RHF) =  -1601.05665694     A.U. after   12 cycles
 Normal termination of Gaussian 16 at Tue Apr  8 23:12:34 2025.
 Gaussian 16:  ES64L-G16RevC.01  3-Jul-2019

 ----------------------------------------------------------------------
 #t hf aug-cc-pvdz iop(5/13=1,5/36=2,99/5=2) pseudo=read geom=check gue
 ss=(read,tcheck) scf=(maxcycle=1)
 ----------------------------------------------------------------------
 -----
 title
 -----
 Structure from the checkpoint file:  "BDE49_expt_805_mol1.chk"
 Charge =  0 Multiplicity = 1

                         Standard orientation:
 ---------------------------------------------------------------------
 Center     Atomic      Atomic             Coordinates (Angstroms)
 Number     Number       Type             X           Y           Z
 ---------------------------------------------------------------------
      1         14           0       -0.000000   -0.306541   -0.510594
      2         16           0       -1.684584   -1.163665    0.515773
      3         16           0        1.684585   -1.163664    0.515773
      4         16           0       -0.000000    1.846032   -0.569537
      5          1           0       -0.000000   -0.644179   -1.952708
      6          6           0       -3.061039   -0.494087   -0.510419
      7          1           0       -3.028980    0.593933   -0.542434
      8          1           0       -3.982170   -0.815479   -0.024954
      9          1           0       -3.026312   -0.902673   -1.519690
     10          6           0        3.061039   -0.494087   -0.510419
     11          1           0        3.982170   -0.815479   -0.024954
     12          1           0        3.028980    0.593934   -0.542434
     13          1           0        3.026312   -0.902673   -1.519690
     14          6           0        0.000000    2.278200    1.219836
     15          1           0        0.892078    1.889162    1.708177
     16          1           0       -0.892079    1.889162    1.708177
     17          1           0        0.000000    3.366462    1.272708
 ---------------------------------------------------------------------

 SCF Done:  E(RHF) =  -1601.40689747     A.U. after    2 cycles

 The electronic state is 1-A.
 Alpha  occ. eigenvalues --  -93.94214 -93.94212 -93.94153 -69.59464 -11.27540
 Alpha  occ. eigenvalues --  -11.27539 -11.27223  -8.22468  -8.22455  -8.22411
 Alpha  occ. eigenvalues --   -6.25847  -6.20259  -6.20257  -6.20213  -6.20130
 Alpha  occ. eigenvalues --   -6.20125  -6.20072  -6.19922  -6.19922  -6.19885
 Alpha  occ. eigenvalues --   -4.01155  -4.01155  -4.01053  -1.07379  -1.05188
 Alpha  occ. eigenvalues --   -1.04756  -0.90903  -0.87910  -0.86828  -0.68878
 Alpha  occ. eigenvalues --   -0.61424  -0.61117  -0.60426  -0.59873  -0.59364
 Alpha  occ. eigenvalues --   -0.58714  -0.54768  -0.49499  -0.48734  -0.47299
 Alpha  occ. eigenvalues --   -0.44476  -0.42218  -0.37205  -0.37024  -0.35798
 Alpha virt. eigenvalues --    0.03413   0.03560   0.03950   0.04428   0.05590
 Alpha virt. eigenvalues --    0.06054   0.06465   0.07267   0.08338   0.08388
 Alpha virt. eigenvalues --    0.08753   0.09100   0.09982   0.10831   0.12487

 Mulliken charges:
               1
     1  Si   2.214279
     2  S   -0.411183
     3  S   -0.411182
     4  S   -0.425422
     5  H   -0.122894
     6  C   -0.709507
     7  H    0.133445
     8  H    0.137080
     9  H    0.132952
    10  C   -0.709510
    11  H    0.137080
    12  H    0.133448
    13  H    0.132952
    14  C   -0.642284
    15  H    0.142169
    16  H    0.142171
    17  H    0.126406
 Sum of Mulliken charges =  -0.00000

 Dipole moment (field-independent basis, Debye):
    X=             -0.0000    Y=              1.3553    Z=             -0.6712  Tot=              1.5124

 Test job not archived.
 1\1\GINC-SE339\SP\RHF\Aug-CC-pVDZ\C3H10S3Si1\OHZDE\08-Apr-2025\0\\#t h
 f aug-cc-pvdz iop(5/13=1,5/36=2,99/5=2) pseudo=read geom=check guess=(
 read,tcheck) scf=(maxcycle=1)\\title\\0,1\Si,0,0.,-0.306541,-0.510594\
 S,0,-1.684584,-1.163665,0.515773\S,0,1.684585,-1.163664,0.515773\S,0,0
 .,1.846032,-0.569537\H,0,0.,-0.644179,-1.952708\C,0,-3.061039,-0.49408
 7,-0.510419\H,0,-3.02898,0.593933,-0.542434\H,0,-3.98217,-0.815479,-0.
 024954\H,0,-3.026312,-0.902673,-1.51969\C,0,3.061039,-0.494087,-0.5104
 19\H,0,3.98217,-0.815479,-0.024954\H,0,3.02898,0.593934,-0.542434\H,0,

 Normal termination of Gaussian 16 at Tue Apr  8 23:12:42 2025.
