 Gaussian 16, Revision C.01,

 ----------------------------------------------------------------------
 #t hf aug-cc-pvdz symm=none int=(grid=ultrafine) guess=(read,tcheck) s
 table=(opt,rrhf)
 ----------------------------------------------------------------------
 -----
 title
 -----
 Symbolic Z-matrix:
 Charge =  0 Multiplicity = 1

 SCF Done:  E(RHF) =  -552.566298852     A.U. after   12 cycles
 Normal termination of Gaussian 16 at Wed Apr  9 00:20:35 2025.
 Gaussian 16:  ES64L-G16RevC.01  3-Jul-2019

 ----------------------------------------------------------------------
 #t hf aug-cc-pvdz iop(5/13=1,5/36=2,99/5=2) pseudo=read geom=check gue
 ss=(read,tcheck) scf=(maxcycle=1)
 ----------------------------------------------------------------------
 -----
 title
 -----
 Structure from the checkpoint file:  "BDE49_nonexpt_2619_mol1.chk"
 Charge =  0 Multiplicity = 1

                         Standard orientation:
 ---------------------------------------------------------------------
 Center     Atomic      Atomic             Coordinates (Angstroms)
 Number     Number       Type             X           Y           Z
 ---------------------------------------------------------------------
      1          9           0        1.339373    0.519256   -0.000001
      2          7           0       -1.310394    0.372982    0.000017
      3         16           0        0.018236   -0.560608   -0.000007
      4          1           0       -1.586677    0.842766   -0.852926
      5          1           0       -1.586699    0.842792    0.852937
 ---------------------------------------------------------------------

 SCF Done:  E(RHF) =  -552.773824709     A.U. after    2 cycles

 The electronic state is 1-A.
 Alpha  occ. eigenvalues --  -94.05804 -26.44432 -15.55958  -8.32728  -6.30492
 Alpha  occ. eigenvalues --   -6.30234  -6.29891  -1.54080  -1.25164  -0.95702
 Alpha  occ. eigenvalues --   -0.76565  -0.70698  -0.63666  -0.62303  -0.54726
 Alpha  occ. eigenvalues --   -0.50127  -0.38881
 Alpha virt. eigenvalues --    0.02767   0.05604   0.08190   0.08489   0.12509
 Alpha virt. eigenvalues --    0.14729   0.15744   0.16221   0.19073   0.20214
 Alpha virt. eigenvalues --    0.22347   0.24542   0.26908   0.28114   0.30808

 Mulliken charges:
               1
     1  F   -0.629582
     2  N   -0.256183
     3  S    0.752354
     4  H    0.066710
     5  H    0.066702
 Sum of Mulliken charges =  -0.00000

 Dipole moment (field-independent basis, Debye):
    X=             -2.4815    Y=              0.7036    Z=             -0.0000  Tot=              2.5793

 Test job not archived.
 1\1\GINC-SE247\SP\RHF\Aug-CC-pVDZ\F1H2N1S1\OHZDE\09-Apr-2025\0\\#t hf
 aug-cc-pvdz iop(5/13=1,5/36=2,99/5=2) pseudo=read geom=check guess=(re
 ad,tcheck) scf=(maxcycle=1)\\title\\0,1\F,0,1.339373,-0.519256,0.00000
 1\N,0,-1.310394,-0.372982,-0.000017\S,0,0.018236,0.560608,0.000007\H,0
 ,-1.586677,-0.842766,0.852926\H,0,-1.586699,-0.842792,-0.852937\\Versi
 on=ES64L-G16RevC.01\State=1-A\HF=-552.7738247\RMSD=7.970e-03\Dipole=-0
 .9762907,-0.2768197,0.0000042\Quadrupole=-0.4340981,0.2645845,0.169513
 6,2.9478869,0.0000429,0.0000671\PG=C01 [X(F1H2N1S1)]\\@

 Normal termination of Gaussian 16 at Wed Apr  9 00:20:36 2025.
