 Gaussian 16, Revision C.01,

 ----------------------------------------------------------------------
 #t hf aug-cc-pvdz symm=none int=(grid=ultrafine) guess=(read,tcheck) s
 table=(opt,rrhf)
 ----------------------------------------------------------------------
 -----
 title
 -----
 Symbolic Z-matrix:
 Charge =  0 Multiplicity = 1

 SCF Done:  E(RHF) =  -1203.48738524     A.U. after   13 cycles
 Normal termination of Gaussian 16 at Wed Apr  9 00:16:07 2025.
 Gaussian 16:  ES64L-G16RevC.01  3-Jul-2019

 ----------------------------------------------------------------------
 #t hf aug-cc-pvdz iop(5/13=1,5/36=2,99/5=2) pseudo=read geom=check gue
 ss=(read,tcheck) scf=(maxcycle=1)
 ----------------------------------------------------------------------
 -----
 title
 -----
 Structure from the checkpoint file:  "BDE49_nonexpt_2518_mol1.chk"
 Charge =  0 Multiplicity = 1

                         Standard orientation:
 ---------------------------------------------------------------------
 Center     Atomic      Atomic             Coordinates (Angstroms)
 Number     Number       Type             X           Y           Z
 ---------------------------------------------------------------------
      1         14           0       -1.501272    0.064940   -0.349277
      2         16           0        0.376211   -0.829018   -1.020580
      3         16           0        1.616538   -0.483963    0.649974
      4          6           0        2.543314    1.008608    0.149356
      5          1           0        3.259368    1.192590    0.954525
      6          1           0        1.885271    1.870234    0.044383
      7          1           0        3.083946    0.828680   -0.778997
      8          6           0       -1.337100    1.906436   -0.033005
      9          1           0       -0.653749    2.103745    0.797208
     10          1           0       -2.312891    2.326754    0.231526
     11          1           0       -0.970414    2.430526   -0.918572
     12          6           0       -2.176996   -0.825193    1.154015
     13          1           0       -1.495761   -0.730312    2.003495
     14          1           0       -2.320240   -1.888175    0.946910
     15          1           0       -3.142890   -0.398772    1.443777
     16          1           0       -2.374113   -0.175833   -1.526868
 ---------------------------------------------------------------------

 SCF Done:  E(RHF) =  -1203.78029136     A.U. after    2 cycles

 The electronic state is 1-A.
 Alpha  occ. eigenvalues --  -93.97196 -93.95280 -69.54826 -11.27234 -11.22408
 Alpha  occ. eigenvalues --  -11.21994  -8.25044  -8.23384  -6.22854  -6.22659
 Alpha  occ. eigenvalues --   -6.22421  -6.21620  -6.21173  -6.20968  -6.20787
 Alpha  occ. eigenvalues --   -3.97006  -3.96918  -3.96883  -1.09254  -0.99030
 Alpha  occ. eigenvalues --   -0.95978  -0.93894  -0.83847  -0.67711  -0.60838
 Alpha  occ. eigenvalues --   -0.60252  -0.58280  -0.57820  -0.56154  -0.55861
 Alpha  occ. eigenvalues --   -0.52804  -0.48275  -0.47195  -0.46458  -0.43983
 Alpha  occ. eigenvalues --   -0.37008  -0.34986
 Alpha virt. eigenvalues --    0.03264   0.03649   0.04008   0.04586   0.05930
 Alpha virt. eigenvalues --    0.06024   0.06605   0.06980   0.07320   0.08481
 Alpha virt. eigenvalues --    0.09381   0.09964   0.10509   0.11692   0.12403

 Mulliken charges:
               1
     1  Si   2.216331
     2  S   -0.765962
     3  S    0.016956
     4  C   -0.708170
     5  H    0.195124
     6  H    0.134183
     7  H    0.206394
     8  C   -0.547272
     9  H    0.101525
    10  H   -0.002169
    11  H   -0.038733
    12  C   -0.570508
    13  H    0.098483
    14  H   -0.036780
    15  H    0.023209
    16  H   -0.322611
 Sum of Mulliken charges =  -0.00000

 Dipole moment (field-independent basis, Debye):
    X=             -0.5030    Y=              2.2539    Z=              0.7542  Tot=              2.4294

 Test job not archived.
 1\1\GINC-SE402\SP\RHF\Aug-CC-pVDZ\C3H10S2Si1\OHZDE\09-Apr-2025\0\\#t h
 f aug-cc-pvdz iop(5/13=1,5/36=2,99/5=2) pseudo=read geom=check guess=(
 read,tcheck) scf=(maxcycle=1)\\title\\0,1\Si,0,-1.501272,0.06494,-0.34
 9277\S,0,0.376211,-0.829018,-1.02058\S,0,1.616538,-0.483963,0.649974\C
 ,0,2.543314,1.008608,0.149356\H,0,3.259368,1.19259,0.954525\H,0,1.8852
 71,1.870234,0.044383\H,0,3.083946,0.82868,-0.778997\C,0,-1.3371,1.9064
 36,-0.033005\H,0,-0.653749,2.103745,0.797208\H,0,-2.312891,2.326754,0.
 231526\H,0,-0.970414,2.430526,-0.918572\C,0,-2.176996,-0.825193,1.1540

 Normal termination of Gaussian 16 at Wed Apr  9 00:16:13 2025.
