 Gaussian 16, Revision C.01,

 ----------------------------------------------------------------------
 #t hf aug-cc-pvdz symm=none int=(grid=ultrafine) guess=(read,tcheck) s
 table=(opt,rrhf)
 ----------------------------------------------------------------------
 -----
 title
 -----
 Symbolic Z-matrix:
 Charge =  0 Multiplicity = 1

 SCF Done:  E(RHF) =  -424.364615814     A.U. after   11 cycles
 Normal termination of Gaussian 16 at Tue Apr  8 23:56:27 2025.
 Gaussian 16:  ES64L-G16RevC.01  3-Jul-2019

 ----------------------------------------------------------------------
 #t hf aug-cc-pvdz iop(5/13=1,5/36=2,99/5=2) pseudo=read geom=check gue
 ss=(read,tcheck) scf=(maxcycle=1)
 ----------------------------------------------------------------------
 -----
 title
 -----
 Structure from the checkpoint file:  "BDE49_nonexpt_2012_mol1.chk"
 Charge =  0 Multiplicity = 1

                         Standard orientation:
 ---------------------------------------------------------------------
 Center     Atomic      Atomic             Coordinates (Angstroms)
 Number     Number       Type             X           Y           Z
 ---------------------------------------------------------------------
      1          7           0       -0.147668    0.367350   -0.000000
      2         14           0        0.020773   -1.349636    0.000000
      3          6           0        0.020773    1.147203    1.217761
      4          1           0        1.036815    1.559921    1.322609
      5          1           0       -0.184391    0.531787    2.096939
      6          1           0       -0.681667    1.990827    1.231603
      7          6           0        0.020773    1.147203   -1.217761
      8          1           0       -0.184391    0.531787   -2.096939
      9          1           0        1.036815    1.559921   -1.322609
     10          1           0       -0.681667    1.990827   -1.231603
     11          1           0       -0.634944   -1.872300    1.221457
     12          1           0        1.421961   -1.863458    0.000000
     13          1           0       -0.634944   -1.872300   -1.221457
 ---------------------------------------------------------------------

 SCF Done:  E(RHF) =  -424.546504316     A.U. after    2 cycles

 The electronic state is 1-A'.
 Alpha  occ. eigenvalues --  -69.53536 -15.47483 -11.26093 -11.26087  -6.20354
 Alpha  occ. eigenvalues --   -3.95765  -3.95747  -3.95675  -1.19549  -0.96262
 Alpha  occ. eigenvalues --   -0.87560  -0.74169  -0.63938  -0.63595  -0.62611
 Alpha  occ. eigenvalues --   -0.55232  -0.53270  -0.51563  -0.48663  -0.48081
 Alpha  occ. eigenvalues --   -0.38195
 Alpha virt. eigenvalues --    0.03573   0.04731   0.04878   0.05030   0.06109
 Alpha virt. eigenvalues --    0.06201   0.06773   0.06955   0.07816   0.10176
 Alpha virt. eigenvalues --    0.10999   0.11106   0.13841   0.14684   0.14726

 Mulliken charges:
               1
     1  N    0.271272
     2  Si   0.471284
     3  C   -0.525457
     4  H    0.196050
     5  H   -0.018442
     6  H    0.142464
     7  C   -0.525457
     8  H   -0.018442
     9  H    0.196050
    10  H    0.142464
    11  H   -0.094923
    12  H   -0.141940
    13  H   -0.094923
 Sum of Mulliken charges =   0.00000

 Dipole moment (field-independent basis, Debye):
    X=              0.2390    Y=              0.9246    Z=              0.0000  Tot=              0.9550

 Test job not archived.
 1\1\GINC-SE333\SP\RHF\Aug-CC-pVDZ\C2H9N1Si1\OHZDE\08-Apr-2025\0\\#t hf
  aug-cc-pvdz iop(5/13=1,5/36=2,99/5=2) pseudo=read geom=check guess=(r
 ead,tcheck) scf=(maxcycle=1)\\title\\0,1\N,0,-0.147668,0.36735,0.\Si,0
 ,0.020773,-1.349636,0.\C,0,0.020773,1.147203,1.217761\H,0,1.036815,1.5
 59921,1.322609\H,0,-0.184391,0.531787,2.096939\H,0,-0.681667,1.990827,
 1.231603\C,0,0.020773,1.147203,-1.217761\H,0,-0.184391,0.531787,-2.096
 939\H,0,1.036815,1.559921,-1.322609\H,0,-0.681667,1.990827,-1.231603\H
 ,0,-0.634944,-1.8723,1.221457\H,0,1.421961,-1.863458,0.\H,0,-0.634944,

 Normal termination of Gaussian 16 at Tue Apr  8 23:56:30 2025.
