 Gaussian 16, Revision C.01,

 ----------------------------------------------------------------------
 #t hf aug-cc-pvdz symm=none int=(grid=ultrafine) guess=(read,tcheck) s
 table=(opt,rrhf)
 ----------------------------------------------------------------------
 -----
 title
 -----
 Symbolic Z-matrix:
 Charge =  0 Multiplicity = 1

 SCF Done:  E(RHF) =  -825.921966515     A.U. after   13 cycles
 Normal termination of Gaussian 16 at Tue Apr  8 23:45:12 2025.
 Gaussian 16:  ES64L-G16RevC.01  3-Jul-2019

 ----------------------------------------------------------------------
 #t hf aug-cc-pvdz iop(5/13=1,5/36=2,99/5=2) pseudo=read geom=check gue
 ss=(read,tcheck) scf=(maxcycle=1)
 ----------------------------------------------------------------------
 -----
 title
 -----
 Structure from the checkpoint file:  "BDE49_nonexpt_1751_mol1.chk"
 Charge =  0 Multiplicity = 1

                         Standard orientation:
 ---------------------------------------------------------------------
 Center     Atomic      Atomic             Coordinates (Angstroms)
 Number     Number       Type             X           Y           Z
 ---------------------------------------------------------------------
      1         14           0        0.052950    0.817090    0.000001
      2          6           0       -1.541734   -0.053891   -0.000006
      3          6           0       -2.609083   -0.618983    0.000008
      4         17           0        1.608678   -0.561759   -0.000005
      5          1           0       -3.548244   -1.119818    0.000045
      6          1           0        0.182116    1.633845    1.217426
      7          1           0        0.182199    1.633863   -1.217402
 ---------------------------------------------------------------------

 SCF Done:  E(RHF) =  -826.109660490     A.U. after    2 cycles

 The electronic state is 1-A.
 Alpha  occ. eigenvalues -- -105.56107 -69.60120 -11.27266 -11.24461 -10.61130
 Alpha  occ. eigenvalues --   -7.78016  -7.77698  -7.77695  -6.26634  -4.02100
 Alpha  occ. eigenvalues --   -4.01989  -4.01914  -1.06262  -1.04208  -0.80460
 Alpha  occ. eigenvalues --   -0.73811  -0.59958  -0.55202  -0.54671  -0.47447
 Alpha  occ. eigenvalues --   -0.46425  -0.42882  -0.42528
 Alpha virt. eigenvalues --    0.03088   0.04685   0.05042   0.05302   0.06074
 Alpha virt. eigenvalues --    0.08327   0.09070   0.09978   0.10619   0.12319
 Alpha virt. eigenvalues --    0.14138   0.14367   0.14373   0.16285   0.17331

 Mulliken charges:
               1
     1  Si   1.064119
     2  C   -1.017748
     3  C    1.102880
     4  Cl  -0.544413
     5  H   -0.283137
     6  H   -0.160851
     7  H   -0.160850
 Sum of Mulliken charges =   0.00000

 Dipole moment (field-independent basis, Debye):
    X=             -1.8858    Y=              0.7111    Z=              0.0000  Tot=              2.0154

 Test job not archived.
 1\1\GINC-SE345\SP\RHF\Aug-CC-pVDZ\C2H3Cl1Si1\OHZDE\08-Apr-2025\0\\#t h
 f aug-cc-pvdz iop(5/13=1,5/36=2,99/5=2) pseudo=read geom=check guess=(
 read,tcheck) scf=(maxcycle=1)\\title\\0,1\Si,0,-0.05295,0.81709,-0.000
 001\C,0,1.541734,-0.053891,0.000006\C,0,2.609083,-0.618984,-0.000008\C
 l,0,-1.608678,-0.561759,0.000005\H,0,3.548244,-1.119819,-0.000045\H,0,
 -0.182116,1.633845,-1.217426\H,0,-0.182199,1.633863,1.217402\\Version=
 ES64L-G16RevC.01\State=1-A\HF=-826.1096605\RMSD=2.109e-02\Dipole=0.741
 9165,0.2797655,-0.0000147\Quadrupole=2.2800152,-0.2287424,-2.0512728,-

 Normal termination of Gaussian 16 at Tue Apr  8 23:45:15 2025.
