 Gaussian 16, Revision C.01,

 ----------------------------------------------------------------------
 #t hf aug-cc-pvdz symm=none int=(grid=ultrafine) guess=(read,tcheck) s
 table=(opt,rrhf)
 ----------------------------------------------------------------------
 -----
 title
 -----
 Symbolic Z-matrix:
 Charge =  0 Multiplicity = 1

 SCF Done:  E(RHF) =  -809.219245025     A.U. after   12 cycles
 Normal termination of Gaussian 16 at Wed Apr  9 00:10:55 2025.
 Gaussian 16:  ES64L-G16RevC.01  3-Jul-2019

 ----------------------------------------------------------------------
 #t hf aug-cc-pvdz iop(5/13=1,5/36=2,99/5=2) pseudo=read geom=check gue
 ss=(read,tcheck) scf=(maxcycle=1)
 ----------------------------------------------------------------------
 -----
 title
 -----
 Structure from the checkpoint file:  "BDE49_nonexpt_2358_mol1.chk"
 Charge =  0 Multiplicity = 1

                         Standard orientation:
 ---------------------------------------------------------------------
 Center     Atomic      Atomic             Coordinates (Angstroms)
 Number     Number       Type             X           Y           Z
 ---------------------------------------------------------------------
      1         14           0       -0.955140   -0.949042   -0.255561
      2         14           0        1.348164   -0.922821    0.275269
      3          8           0       -1.561413    0.515999    0.238921
      4          1           0       -1.660915   -2.065346    0.437857
      5          1           0       -1.201523   -1.133247   -1.713434
      6          6           0       -2.921029    0.912480    0.095151
      7          1           0       -3.023821    1.920057    0.501232
      8          1           0       -3.590897    0.241891    0.646310
      9          1           0       -3.222646    0.925226   -0.959038
     10          8           0        2.125118    0.379279   -0.380999
     11          1           0        2.010072   -2.117791   -0.294597
     12          1           0        1.502144   -0.945405    1.756168
     13          6           0        1.874031    1.739935   -0.037102
     14          1           0        2.434490    2.366956   -0.732145
     15          1           0        2.214191    1.954611    0.982594
     16          1           0        0.808920    1.982414   -0.112534
 ---------------------------------------------------------------------

 SCF Done:  E(RHF) =  -809.524142272     A.U. after    2 cycles

 The electronic state is 1-A.
 Alpha  occ. eigenvalues --  -69.55087 -69.55060 -20.54049 -20.53469 -11.29439
 Alpha  occ. eigenvalues --  -11.28676  -6.21778  -6.21767  -3.97237  -3.97225
 Alpha  occ. eigenvalues --   -3.97115  -3.97093  -3.97068  -3.97030  -1.43968
 Alpha  occ. eigenvalues --   -1.43394  -0.94158  -0.93484  -0.76458  -0.71458
 Alpha  occ. eigenvalues --   -0.63973  -0.63372  -0.62819  -0.62246  -0.61219
 Alpha  occ. eigenvalues --   -0.59152  -0.50905  -0.49878  -0.48412  -0.47610
 Alpha  occ. eigenvalues --   -0.44782  -0.43379  -0.38724
 Alpha virt. eigenvalues --    0.03519   0.03989   0.04430   0.04648   0.05943
 Alpha virt. eigenvalues --    0.06062   0.06433   0.07344   0.07379   0.08715
 Alpha virt. eigenvalues --    0.09421   0.09721   0.10158   0.10227   0.11629

 Mulliken charges:
               1
     1  Si   1.226653
     2  Si   1.166450
     3  O   -1.411213
     4  H   -0.207891
     5  H   -0.212431
     6  C    0.420163
     7  H   -0.012560
     8  H    0.107933
     9  H    0.125533
    10  O   -1.544994
    11  H   -0.158754
    12  H   -0.127561
    13  C    0.424191
    14  H    0.005892
    15  H    0.116876
    16  H    0.081712
 Sum of Mulliken charges =  -0.00000

 Dipole moment (field-independent basis, Debye):
    X=             -1.5751    Y=              0.8190    Z=              0.2821  Tot=              1.7975

 Test job not archived.
 1\1\GINC-SE341\SP\RHF\Aug-CC-pVDZ\C2H10O2Si2\OHZDE\09-Apr-2025\0\\#t h
 f aug-cc-pvdz iop(5/13=1,5/36=2,99/5=2) pseudo=read geom=check guess=(
 read,tcheck) scf=(maxcycle=1)\\title\\0,1\Si,0,-0.95514,-0.949042,-0.2
 55561\Si,0,1.348164,-0.922821,0.275269\O,0,-1.561413,0.515999,0.238921
 \H,0,-1.660915,-2.065346,0.437857\H,0,-1.201523,-1.133247,-1.713434\C,
 0,-2.921029,0.91248,0.095151\H,0,-3.023821,1.920057,0.501232\H,0,-3.59
 0897,0.241891,0.64631\H,0,-3.222646,0.925226,-0.959038\O,0,2.125118,0.
 379279,-0.380999\H,0,2.010072,-2.117791,-0.294597\H,0,1.502144,-0.9454

 Normal termination of Gaussian 16 at Wed Apr  9 00:11:01 2025.
