 Gaussian 16, Revision C.01,

 ----------------------------------------------------------------------
 #t hf aug-cc-pvdz symm=none int=(grid=ultrafine) guess=(read,tcheck) s
 table=(opt,rrhf)
 ----------------------------------------------------------------------
 -----
 title
 -----
 Symbolic Z-matrix:
 Charge =  0 Multiplicity = 1

 SCF Done:  E(RHF) =  -490.429354371     A.U. after   14 cycles
 Normal termination of Gaussian 16 at Tue Apr  8 23:05:41 2025.
 Gaussian 16:  ES64L-G16RevC.01  3-Jul-2019

 ----------------------------------------------------------------------
 #t hf aug-cc-pvdz iop(5/13=1,5/36=2,99/5=2) pseudo=read geom=check gue
 ss=(read,tcheck) scf=(maxcycle=1)
 ----------------------------------------------------------------------
 -----
 title
 -----
 Structure from the checkpoint file:  "BDE49_expt_405_mol1.chk"
 Charge =  0 Multiplicity = 1

                         Standard orientation:
 ---------------------------------------------------------------------
 Center     Atomic      Atomic             Coordinates (Angstroms)
 Number     Number       Type             X           Y           Z
 ---------------------------------------------------------------------
      1          7           0       -0.135123    1.689730   -0.000000
      2          6           0       -0.000000    0.496775   -0.000000
      3         16           0        0.026279   -1.078577    0.000000
      4          1           0        0.525400    2.448472   -0.000000
 ---------------------------------------------------------------------

 SCF Done:  E(RHF) =  -490.578572394     A.U. after    2 cycles

 The electronic state is 1-A'.
 Alpha  occ. eigenvalues --  -93.96193 -15.55213 -11.40100  -8.24495  -6.22383
 Alpha  occ. eigenvalues --   -6.21969  -6.21917  -1.29255  -1.08601  -0.86483
 Alpha  occ. eigenvalues --   -0.63068  -0.60654  -0.59907  -0.40800  -0.39295
 Alpha virt. eigenvalues --    0.02735   0.06943   0.07368   0.10200   0.10665
 Alpha virt. eigenvalues --    0.11945   0.12390   0.14263   0.14863   0.15130
 Alpha virt. eigenvalues --    0.18229   0.20961   0.23247   0.25517   0.29992

 Mulliken charges:
               1
     1  N    0.583889
     2  C   -1.017851
     3  S    0.357014
     4  H    0.076948
 Sum of Mulliken charges =  -0.00000

 Dipole moment (field-independent basis, Debye):
    X=              1.2868    Y=              1.3102    Z=             -0.0000  Tot=              1.8365

 Test job not archived.
 1\1\GINC-SE339\SP\RHF\Aug-CC-pVDZ\C1H1N1S1\OHZDE\08-Apr-2025\0\\#t hf
 aug-cc-pvdz iop(5/13=1,5/36=2,99/5=2) pseudo=read geom=check guess=(re
 ad,tcheck) scf=(maxcycle=1)\\title\\0,1\N,0,-0.135123,1.68973,0.\C,0,0
 .,0.496775,0.\S,0,0.026279,-1.078577,0.\H,0,0.5254,2.448472,0.\\Versio
 n=ES64L-G16RevC.01\State=1-A'\HF=-490.5785724\RMSD=1.618e-02\Dipole=0.
 5062697,0.515484,0.\Quadrupole=-0.9988686,2.7402754,-1.7414067,2.55310
 33,0.,0.\PG=CS [SG(C1H1N1S1)]\\@

 Normal termination of Gaussian 16 at Tue Apr  8 23:05:42 2025.
