 Gaussian 16, Revision C.01,

 ----------------------------------------------------------------------
 #t hf aug-cc-pvdz symm=none int=(grid=ultrafine) guess=(read,tcheck) s
 table=(opt,rrhf)
 ----------------------------------------------------------------------
 -----
 title
 -----
 Symbolic Z-matrix:
 Charge =  0 Multiplicity = 1

 SCF Done:  E(RHF) =  -498.625967518     A.U. after   12 cycles

 1\1\GINC-SE073\Stability\RHF\Aug-CC-pVDZ\C4H11P1\OHZDE\08-Apr-2025\0\\
 #t hf aug-cc-pvdz symm=none int=(grid=ultrafine) guess=(read,tcheck) s
 table=(opt,rrhf)\\title\\0,1\P,0,1.959984,-0.001883,-0.190491\C,0,0.29
 722,-0.705751,0.330066\H,0,0.315741,-1.754998,0.016743\H,0,0.193597,-0
 .699315,1.419176\C,0,-0.910236,-0.005508,-0.322763\C,0,-2.200858,-0.78
 3838,-0.027967\H,0,-2.405885,-0.808293,1.0477\H,0,-2.132025,-1.817691,
 -0.37843\C,0,-1.042151,1.457001,0.123696\H,0,-3.060763,-0.31974,-0.519
 653\H,0,-0.752683,-0.013465,-1.409114\H,0,-1.913949,1.928296,-0.338417

 Normal termination of Gaussian 16 at Tue Apr  8 23:27:18 2025.
 Gaussian 16:  ES64L-G16RevC.01  3-Jul-2019

 ----------------------------------------------------------------------
 #t hf aug-cc-pvdz iop(5/13=1,5/36=2,99/5=2) pseudo=read geom=check gue
 ss=(read,tcheck) scf=(maxcycle=1)
 ----------------------------------------------------------------------
 -----
 title
 -----
 Structure from the checkpoint file:  "BDE49_nonexpt_1311_mol1.chk"
 Charge =  0 Multiplicity = 1

                         Standard orientation:
 ---------------------------------------------------------------------
 Center     Atomic      Atomic             Coordinates (Angstroms)
 Number     Number       Type             X           Y           Z
 ---------------------------------------------------------------------
      1         15           0        1.959984   -0.001883   -0.190491
      2          6           0        0.297220   -0.705751    0.330066
      3          1           0        0.315741   -1.754998    0.016743
      4          1           0        0.193597   -0.699315    1.419176
      5          6           0       -0.910236   -0.005508   -0.322763
      6          6           0       -2.200858   -0.783838   -0.027967
      7          1           0       -2.405885   -0.808293    1.047700
      8          1           0       -2.132025   -1.817691   -0.378430
      9          6           0       -1.042151    1.457001    0.123696
     10          1           0       -3.060763   -0.319740   -0.519653
     11          1           0       -0.752683   -0.013465   -1.409114
     12          1           0       -1.913949    1.928296   -0.338417
     13          1           0       -1.164194    1.522887    1.210482
     14          1           0       -0.165657    2.050204   -0.150694
     15          1           0        2.763473   -0.880053    0.582973
     16          1           0        2.058734    1.048989    0.758410
 ---------------------------------------------------------------------

 SCF Done:  E(RHF) =  -498.850419118     A.U. after    2 cycles

 The electronic state is 1-A.
 Alpha  occ. eigenvalues --  -84.26542 -11.24136 -11.23981 -11.22543 -11.22525
 Alpha  occ. eigenvalues --   -6.73596  -4.26191  -4.26015  -4.25302  -1.09276
 Alpha  occ. eigenvalues --   -0.95826  -0.93432  -0.82215  -0.76245  -0.64384
 Alpha  occ. eigenvalues --   -0.61004  -0.58478  -0.55645  -0.54392  -0.51204
 Alpha  occ. eigenvalues --   -0.50002  -0.47485  -0.46589  -0.43853  -0.33660
 Alpha virt. eigenvalues --    0.03831   0.03865   0.04105   0.04404   0.06235
 Alpha virt. eigenvalues --    0.06388   0.06729   0.07214   0.07774   0.09197
 Alpha virt. eigenvalues --    0.09898   0.10833   0.12549   0.13455   0.14307

 Mulliken charges:
               1
     1  P   -0.457422
     2  C   -0.268478
     3  H    0.104838
     4  H    0.133105
     5  C   -1.312289
     6  C   -0.073619
     7  H    0.234238
     8  H    0.143956
     9  C   -0.110942
    10  H    0.142380
    11  H    0.179566
    12  H    0.138721
    13  H    0.206966
    14  H    0.148273
    15  H    0.390293
    16  H    0.400411
 Sum of Mulliken charges =  -0.00000

 Dipole moment (field-independent basis, Debye):
    X=             -0.7935    Y=             -0.2928    Z=              0.5094  Tot=              0.9874

 Test job not archived.
 1\1\GINC-SE073\SP\RHF\Aug-CC-pVDZ\C4H11P1\OHZDE\08-Apr-2025\0\\#t hf a
 ug-cc-pvdz iop(5/13=1,5/36=2,99/5=2) pseudo=read geom=check guess=(rea
 d,tcheck) scf=(maxcycle=1)\\title\\0,1\P,0,1.959984,-0.001883,-0.19049
 1\C,0,0.29722,-0.705751,0.330066\H,0,0.315741,-1.754998,0.016743\H,0,0
 .193597,-0.699315,1.419176\C,0,-0.910236,-0.005508,-0.322763\C,0,-2.20
 0858,-0.783838,-0.027967\H,0,-2.405885,-0.808293,1.0477\H,0,-2.132025,
 -1.817691,-0.37843\C,0,-1.042151,1.457001,0.123696\H,0,-3.060763,-0.31
 974,-0.519653\H,0,-0.752683,-0.013465,-1.409114\H,0,-1.913949,1.928296

 Normal termination of Gaussian 16 at Tue Apr  8 23:27:23 2025.
