 Gaussian 16, Revision C.01,

 ----------------------------------------------------------------------
 #t hf aug-cc-pvdz symm=none int=(grid=ultrafine) guess=(read,tcheck) s
 table=(opt,rrhf)
 ----------------------------------------------------------------------
 -----
 title
 -----
 Symbolic Z-matrix:
 Charge =  0 Multiplicity = 1

 SCF Done:  E(RHF) =  -780.540872363     A.U. after   13 cycles
 Normal termination of Gaussian 16 at Tue Apr  8 23:57:21 2025.
 Gaussian 16:  ES64L-G16RevC.01  3-Jul-2019

 ----------------------------------------------------------------------
 #t hf aug-cc-pvdz iop(5/13=1,5/36=2,99/5=2) pseudo=read geom=check gue
 ss=(read,tcheck) scf=(maxcycle=1)
 ----------------------------------------------------------------------
 -----
 title
 -----
 Structure from the checkpoint file:  "BDE49_nonexpt_2047_mol1.chk"
 Charge =  0 Multiplicity = 1

                         Standard orientation:
 ---------------------------------------------------------------------
 Center     Atomic      Atomic             Coordinates (Angstroms)
 Number     Number       Type             X           Y           Z
 ---------------------------------------------------------------------
      1         14           0       -1.511216   -0.482441    0.000045
      2          6           0        1.416111   -0.124691   -0.000097
      3          7           0        2.315962   -0.854349    0.000013
      4         16           0        0.126170    0.982671   -0.000019
      5          1           0       -2.711296    0.376515   -0.000030
      6          1           0       -1.429433   -1.308168    1.218005
      7          1           0       -1.429380   -1.308323   -1.217808
 ---------------------------------------------------------------------

 SCF Done:  E(RHF) =  -780.722339825     A.U. after    2 cycles

 The electronic state is 1-A.
 Alpha  occ. eigenvalues --  -94.00778 -69.59416 -15.52724 -11.31202  -8.28993
 Alpha  occ. eigenvalues --   -6.26823  -6.26606  -6.26397  -6.26280  -4.01711
 Alpha  occ. eigenvalues --   -4.01585  -4.01551  -1.24574  -1.08821  -0.79112
 Alpha  occ. eigenvalues --   -0.67964  -0.60535  -0.56907  -0.56793  -0.52923
 Alpha  occ. eigenvalues --   -0.52845  -0.46560  -0.41320
 Alpha virt. eigenvalues --    0.02724   0.03941   0.04825   0.05319   0.07956
 Alpha virt. eigenvalues --    0.08285   0.09092   0.09537   0.10329   0.12379
 Alpha virt. eigenvalues --    0.12519   0.12955   0.14103   0.14859   0.16135

 Mulliken charges:
               1
     1  Si   1.170538
     2  C   -1.280800
     3  N    0.600529
     4  S   -0.022905
     5  H   -0.162113
     6  H   -0.152624
     7  H   -0.152626
 Sum of Mulliken charges =  -0.00000

 Dipole moment (field-independent basis, Debye):
    X=             -4.8274    Y=              1.1632    Z=             -0.0001  Tot=              4.9656

 Test job not archived.
 1\1\GINC-SE082\SP\RHF\Aug-CC-pVDZ\C1H3N1S1Si1\OHZDE\08-Apr-2025\0\\#t
 hf aug-cc-pvdz iop(5/13=1,5/36=2,99/5=2) pseudo=read geom=check guess=
 (read,tcheck) scf=(maxcycle=1)\\title\\0,1\Si,0,1.511216,-0.482441,-0.
 000045\C,0,-1.416111,-0.124691,0.000097\N,0,-2.315962,-0.854349,-0.000
 013\S,0,-0.12617,0.982671,0.000019\H,0,2.711296,0.376515,0.00003\H,0,1
 .429433,-1.308168,-1.218005\H,0,1.42938,-1.308323,1.217808\\Version=ES
 64L-G16RevC.01\State=1-A\HF=-780.7223398\RMSD=1.083e-02\Dipole=1.89924
 37,0.4576399,0.0000291\Quadrupole=-2.5592302,1.2156454,1.3435848,-4.03

 Normal termination of Gaussian 16 at Tue Apr  8 23:57:23 2025.
