 Gaussian 16, Revision C.01,

 ----------------------------------------------------------------------
 #t hf aug-cc-pvdz symm=none int=(grid=ultrafine) guess=(read,tcheck) s
 table=(opt,rrhf)
 ----------------------------------------------------------------------
 -----
 title
 -----
 Symbolic Z-matrix:
 Charge =  0 Multiplicity = 1

 SCF Done:  E(RHF) =  -1219.59202747     A.U. after   15 cycles
 Normal termination of Gaussian 16 at Tue Apr  8 23:23:21 2025.
 Gaussian 16:  ES64L-G16RevC.01  3-Jul-2019

 ----------------------------------------------------------------------
 #t hf aug-cc-pvdz iop(5/13=1,5/36=2,99/5=2) pseudo=read geom=check gue
 ss=(read,tcheck) scf=(maxcycle=1)
 ----------------------------------------------------------------------
 -----
 title
 -----
 Structure from the checkpoint file:  "BDE49_nonexpt_1231_mol1.chk"
 Charge =  0 Multiplicity = 1

                         Standard orientation:
 ---------------------------------------------------------------------
 Center     Atomic      Atomic             Coordinates (Angstroms)
 Number     Number       Type             X           Y           Z
 ---------------------------------------------------------------------
      1         16           0       -0.896931   -1.030633   -0.203780
      2          8           0        0.215258   -0.346480    0.782172
      3          8           0        1.069403    0.671639    0.031737
      4          6           0       -2.257442    0.192296   -0.026535
      5          9           0       -3.296353   -0.333824   -0.697471
      6          9           0       -1.951875    1.377484   -0.555784
      7          9           0       -2.608010    0.382958    1.244696
      8          6           0        2.326128    0.129459   -0.052798
      9          9           0        2.337183   -1.019820   -0.746516
     10          9           0        2.865259   -0.112752    1.142525
     11          9           0        3.060628    1.034656   -0.695760
 ---------------------------------------------------------------------

 SCF Done:  E(RHF) =  -1220.39860807     A.U. after    2 cycles

 The electronic state is 1-A.
 Alpha  occ. eigenvalues --  -94.07499 -26.54430 -26.53920 -26.53884 -26.53803
 Alpha  occ. eigenvalues --  -26.53486 -26.53343 -20.72053 -20.69648 -11.59927
 Alpha  occ. eigenvalues --  -11.57268  -8.35104  -6.32908  -6.32641  -6.32372
 Alpha  occ. eigenvalues --   -1.76408  -1.75195  -1.65223  -1.65186  -1.64776
 Alpha  occ. eigenvalues --   -1.64516  -1.63886  -1.42752  -1.08419  -0.97319
 Alpha  occ. eigenvalues --   -0.94880  -0.85881  -0.85695  -0.85316  -0.84543
 Alpha  occ. eigenvalues --   -0.84440  -0.81138  -0.73010  -0.72472  -0.71864
 Alpha  occ. eigenvalues --   -0.71618  -0.68859  -0.67872  -0.67457  -0.67013
 Alpha  occ. eigenvalues --   -0.66693  -0.65524  -0.65174  -0.64958  -0.64792
 Alpha  occ. eigenvalues --   -0.61082  -0.56347  -0.51026  -0.44438
 Alpha virt. eigenvalues --    0.05058   0.06828   0.08144   0.08312   0.08749
 Alpha virt. eigenvalues --    0.09459   0.10116   0.10559   0.11815   0.12277
 Alpha virt. eigenvalues --    0.14085   0.16821   0.17729   0.19881   0.20087

 Mulliken charges:
               1
     1  S    1.066256
     2  O   -0.720581
     3  O   -0.968645
     4  C    1.645282
     5  F   -0.615083
     6  F   -0.676351
     7  F   -0.671684
     8  C    2.940752
     9  F   -0.691400
    10  F   -0.657318
    11  F   -0.651227
 Sum of Mulliken charges =  -0.00000

 Dipole moment (field-independent basis, Debye):
    X=             -0.5177    Y=             -0.8408    Z=             -0.3986  Tot=              1.0649

 Test job not archived.
 1\1\GINC-SE367\SP\RHF\Aug-CC-pVDZ\C2F6O2S1\OHZDE\08-Apr-2025\0\\#t hf
 aug-cc-pvdz iop(5/13=1,5/36=2,99/5=2) pseudo=read geom=check guess=(re
 ad,tcheck) scf=(maxcycle=1)\\title\\0,1\S,0,-0.896931,-1.030633,-0.203
 78\O,0,0.215258,-0.34648,0.782172\O,0,1.069403,0.671639,0.031737\C,0,-
 2.257442,0.192296,-0.026535\F,0,-3.296353,-0.333824,-0.697471\F,0,-1.9
 51875,1.377484,-0.555784\F,0,-2.60801,0.382958,1.244696\C,0,2.326128,0
 .129459,-0.052798\F,0,2.337183,-1.01982,-0.746516\F,0,2.865259,-0.1127
 52,1.142525\F,0,3.060628,1.034656,-0.69576\\Version=ES64L-G16RevC.01\S

 Normal termination of Gaussian 16 at Tue Apr  8 23:23:27 2025.
