 Gaussian 16, Revision C.01,

 ----------------------------------------------------------------------
 #t hf aug-cc-pvdz symm=none int=(grid=ultrafine) guess=(read,tcheck) s
 table=(opt,rrhf)
 ----------------------------------------------------------------------
 -----
 title
 -----
 Symbolic Z-matrix:
 Charge =  0 Multiplicity = 1

 SCF Done:  E(RHF) =  -495.096016869     A.U. after   14 cycles
 Normal termination of Gaussian 16 at Tue Apr  8 23:35:09 2025.
 Gaussian 16:  ES64L-G16RevC.01  3-Jul-2019

 ----------------------------------------------------------------------
 #t hf aug-cc-pvdz iop(5/13=1,5/36=2,99/5=2) pseudo=read geom=check gue
 ss=(read,tcheck) scf=(maxcycle=1)
 ----------------------------------------------------------------------
 -----
 title
 -----
 Structure from the checkpoint file:  "BDE49_nonexpt_1487_mol1.chk"
 Charge =  0 Multiplicity = 1

                         Standard orientation:
 ---------------------------------------------------------------------
 Center     Atomic      Atomic             Coordinates (Angstroms)
 Number     Number       Type             X           Y           Z
 ---------------------------------------------------------------------
      1         15           0        0.163994   -1.209860   -0.000000
      2          6           0       -0.049533    0.045385    1.285039
      3          6           0       -0.049533    1.278994    0.728301
      4          6           0       -0.049533    1.278994   -0.728301
      5          6           0       -0.049533    0.045385   -1.285039
      6          1           0       -0.032848   -0.160430    2.346503
      7          1           0       -0.045607    2.199950    1.301582
      8          1           0       -0.032848   -0.160430   -2.346503
      9          1           0       -0.045607    2.199950   -1.301582
     10          1           0       -1.114195   -1.823691   -0.000000
 ---------------------------------------------------------------------

 SCF Done:  E(RHF) =  -495.299769353     A.U. after    2 cycles

 The electronic state is 1-A'.
 Alpha  occ. eigenvalues --  -84.27430 -11.25361 -11.25310 -11.24622 -11.24604
 Alpha  occ. eigenvalues --   -6.74657  -4.27394  -4.27199  -4.26410  -1.13799
 Alpha  occ. eigenvalues --   -0.98153  -0.91163  -0.75595  -0.72977  -0.69714
 Alpha  occ. eigenvalues --   -0.58707  -0.55871  -0.52274  -0.47670  -0.45419
 Alpha  occ. eigenvalues --   -0.33330  -0.33230
 Alpha virt. eigenvalues --    0.03604   0.04019   0.04351   0.05661   0.06238
 Alpha virt. eigenvalues --    0.07086   0.08659   0.10517   0.10732   0.13181
 Alpha virt. eigenvalues --    0.13307   0.14511   0.14523   0.14871   0.15177

 Mulliken charges:
               1
     1  P    0.728885
     2  C   -0.445343
     3  C    0.100991
     4  C    0.100991
     5  C   -0.445343
     6  H   -0.200694
     7  H   -0.134619
     8  H   -0.200694
     9  H   -0.134619
    10  H    0.630444
 Sum of Mulliken charges =  -0.00000

 Dipole moment (field-independent basis, Debye):
    X=             -0.4078    Y=              0.4857    Z=              0.0000  Tot=              0.6342

 Test job not archived.
 1\1\GINC-SE186\SP\RHF\Aug-CC-pVDZ\C4H5P1\OHZDE\08-Apr-2025\0\\#t hf au
 g-cc-pvdz iop(5/13=1,5/36=2,99/5=2) pseudo=read geom=check guess=(read
 ,tcheck) scf=(maxcycle=1)\\title\\0,1\P,0,0.163994,-1.20986,0.\C,0,-0.
 049533,0.045385,1.285039\C,0,-0.049533,1.278994,0.728301\C,0,-0.049533
 ,1.278994,-0.728301\C,0,-0.049533,0.045385,-1.285039\H,0,-0.032848,-0.
 16043,2.346503\H,0,-0.045607,2.19995,1.301582\H,0,-0.032848,-0.16043,-
 2.346503\H,0,-0.045607,2.19995,-1.301582\H,0,-1.114195,-1.823691,0.\\V
 ersion=ES64L-G16RevC.01\State=1-A'\HF=-495.2997694\RMSD=7.014e-02\Dipo

 Normal termination of Gaussian 16 at Tue Apr  8 23:35:12 2025.
