 Gaussian 16, Revision C.01,

 ----------------------------------------------------------------------
 #t hf aug-cc-pvdz symm=none int=(grid=ultrafine) guess=(read,tcheck) s
 table=opt
 ----------------------------------------------------------------------
 -----
 title
 -----
 Symbolic Z-matrix:
 Charge =  0 Multiplicity = 2

 SCF Done:  E(UHF) =  -635.795877956     A.U. after   15 cycles

 1\1\GINC-SE331\Stability\UHF\Aug-CC-pVDZ\H6N1Si2\OHZDE\09-Apr-2025\0\\
 #t hf aug-cc-pvdz symm=none int=(grid=ultrafine) guess=(read,tcheck) s
 table=opt\\title\\0,2\Si,0,-0.621001,-0.588378,0.053133\Si,0,1.58249,0
 .218829,-0.10992\N,0,-1.705245,0.749398,-0.077588\H,0,-1.630505,1.5366
 66,0.550062\H,0,-2.665024,0.59522,-0.35178\H,0,-0.754702,-1.410524,1.2
 93167\H,0,-0.911646,-1.491946,-1.085397\H,0,2.619401,-0.775309,0.27720
 2\H,0,1.818341,1.473793,0.654885\\Version=ES64L-G16RevC.01\HF=-635.795
 878\S2=0.758297\S2-1=0.\S2A=0.750028\RMSD=4.371e-09\Dipole=-0.4912469,

 Normal termination of Gaussian 16 at Wed Apr  9 00:01:27 2025.
 Gaussian 16:  ES64L-G16RevC.01  3-Jul-2019

 ----------------------------------------------------------------------
 #t hf aug-cc-pvdz iop(5/13=1,5/36=2,99/5=2) pseudo=read geom=check gue
 ss=(read,tcheck) scf=(maxcycle=1)
 ----------------------------------------------------------------------
 -----
 title
 -----
 Structure from the checkpoint file:  "BDE49_nonexpt_2134_mol2.chk"
 Charge =  0 Multiplicity = 2

                         Standard orientation:
 ---------------------------------------------------------------------
 Center     Atomic      Atomic             Coordinates (Angstroms)
 Number     Number       Type             X           Y           Z
 ---------------------------------------------------------------------
      1         14           0       -0.621001   -0.588378    0.053133
      2         14           0        1.582490    0.218829   -0.109920
      3          7           0       -1.705245    0.749398   -0.077588
      4          1           0       -1.630505    1.536666    0.550062
      5          1           0       -2.665024    0.595220   -0.351780
      6          1           0       -0.754702   -1.410524    1.293167
      7          1           0       -0.911646   -1.491946   -1.085397
      8          1           0        2.619401   -0.775309    0.277202
      9          1           0        1.818341    1.473793    0.654885
 ---------------------------------------------------------------------

 SCF Done:  E(UHF) =  -635.919983862     A.U. after    2 cycles

 The electronic state is 2-A.
 Alpha  occ. eigenvalues --  -69.54491 -69.52848 -15.48412  -6.21287  -6.20145
 Alpha  occ. eigenvalues --   -3.96685  -3.96664  -3.96566  -3.96111  -3.95189
 Alpha  occ. eigenvalues --   -3.95161  -1.14456  -0.77981  -0.70919  -0.69191
 Alpha  occ. eigenvalues --   -0.58451  -0.51353  -0.48962  -0.45116  -0.41581
 Alpha  occ. eigenvalues --   -0.32395
 Alpha virt. eigenvalues --    0.03187   0.04260   0.05061   0.06048   0.07093
 Alpha virt. eigenvalues --    0.07198   0.07670   0.08036   0.08576   0.09563
 Alpha virt. eigenvalues --    0.09892   0.11334   0.13650   0.14689   0.15707

  Beta  occ. eigenvalues --  -69.54493 -69.52295 -15.48432  -6.21289  -6.19324
  Beta  occ. eigenvalues --   -3.96682  -3.96632  -3.96606  -3.94790  -3.94773
  Beta  occ. eigenvalues --   -3.93926  -1.14496  -0.76346  -0.69992  -0.66774
  Beta  occ. eigenvalues --   -0.58138  -0.51063  -0.48381  -0.44808  -0.40359
  Beta virt. eigenvalues --    0.02183   0.03250   0.04454   0.05121   0.06302
  Beta virt. eigenvalues --    0.07321   0.07407   0.07847   0.08577   0.09535
  Beta virt. eigenvalues --    0.09781   0.10261   0.11866   0.13940   0.15271

 Mulliken charges and spin densities:
               1          2
     1  Si   0.429215  -0.069507
     2  Si   0.235608   1.097041
     3  N   -0.102194  -0.008246
     4  H    0.001722   0.000633
     5  H   -0.030982   0.000257
     6  H   -0.134318   0.027311
     7  H   -0.102661   0.001204
     8  H   -0.149098  -0.021040
     9  H   -0.147292  -0.027652
 Sum of Mulliken charges =  -0.00000   1.00000

 Dipole moment (field-independent basis, Debye):
    X=             -1.1051    Y=              0.2726    Z=              0.6062  Tot=              1.2896
                          Isotropic Fermi Contact Couplings
        Atom                 a.u.       MegaHertz       Gauss      10(-4) cm-1
     1  Si(29)            -0.00144       1.27556       0.45515       0.42548
     2  Si(29)             0.50157    -445.76115    -159.05866    -148.68992
     3  N(14)             -0.00473      -1.52726      -0.54497      -0.50944
     4  H(1)               0.00011       0.51330       0.18316       0.17122
     5  H(1)               0.00006       0.28651       0.10223       0.09557
     6  H(1)               0.00929      41.50835      14.81121      13.84570
     7  H(1)              -0.00051      -2.26998      -0.80999      -0.75718
     8  H(1)              -0.00327     -14.62529      -5.21867      -4.87847

 Normal termination of Gaussian 16 at Wed Apr  9 00:01:30 2025.
