 Gaussian 16, Revision C.01,

 ----------------------------------------------------------------------
 #t hf aug-cc-pvdz symm=none int=(grid=ultrafine) guess=(read,tcheck) s
 table=(opt,rrhf)
 ----------------------------------------------------------------------
 -----
 title
 -----
 Symbolic Z-matrix:
 Charge =  0 Multiplicity = 1

 SCF Done:  E(RHF) =  -726.660211785     A.U. after   12 cycles
 Normal termination of Gaussian 16 at Tue Apr  8 23:40:56 2025.
 Gaussian 16:  ES64L-G16RevC.01  3-Jul-2019

 ----------------------------------------------------------------------
 #t hf aug-cc-pvdz iop(5/13=1,5/36=2,99/5=2) pseudo=read geom=check gue
 ss=(read,tcheck) scf=(maxcycle=1)
 ----------------------------------------------------------------------
 -----
 title
 -----
 Structure from the checkpoint file:  "BDE49_nonexpt_1642_mol1.chk"
 Charge =  0 Multiplicity = 1

                         Standard orientation:
 ---------------------------------------------------------------------
 Center     Atomic      Atomic             Coordinates (Angstroms)
 Number     Number       Type             X           Y           Z
 ---------------------------------------------------------------------
      1         15           0       -0.531032   -0.071438   -0.597939
      2          7           0       -0.989536   -1.446875    0.333216
      3         14           0        1.633996    0.051560    0.092154
      4          6           0       -1.232735    1.403228    0.310270
      5          1           0       -2.317189    1.420099    0.173530
      6          1           0       -0.825623    2.318322   -0.130277
      7          1           0       -1.012850    1.403517    1.381846
      8          1           0       -1.807005   -1.935100   -0.004707
      9          1           0       -0.990827   -1.383773    1.344098
     10          1           0        2.394938   -1.069717   -0.503540
     11          1           0        1.738990   -0.030618    1.574330
     12          1           0        2.232272    1.335753   -0.350481
 ---------------------------------------------------------------------

 SCF Done:  E(RHF) =  -726.846951503     A.U. after    2 cycles

 The electronic state is 1-A.
 Alpha  occ. eigenvalues --  -84.27990 -69.52852 -15.49600 -11.23915  -6.74849
 Alpha  occ. eigenvalues --   -6.19982  -4.27513  -4.26947  -4.26459  -3.95322
 Alpha  occ. eigenvalues --   -3.95303  -3.95292  -1.16273  -0.97616  -0.80924
 Alpha  occ. eigenvalues --   -0.72035  -0.69592  -0.58670  -0.57819  -0.56001
 Alpha  occ. eigenvalues --   -0.49564  -0.48836  -0.47781  -0.39697  -0.31761
 Alpha virt. eigenvalues --    0.03414   0.04373   0.04783   0.05265   0.06011
 Alpha virt. eigenvalues --    0.06614   0.07165   0.08044   0.08696   0.09934
 Alpha virt. eigenvalues --    0.11029   0.11338   0.11883   0.12274   0.15321

 Mulliken charges:
               1
     1  P    0.264675
     2  N   -0.146527
     3  Si   0.828007
     4  C   -0.771245
     5  H    0.083900
     6  H    0.110414
     7  H    0.069820
     8  H    0.050653
     9  H   -0.025150
    10  H   -0.162812
    11  H   -0.133027
    12  H   -0.168708
 Sum of Mulliken charges =   0.00000

 Dipole moment (field-independent basis, Debye):
    X=             -1.3571    Y=              0.5862    Z=              1.0799  Tot=              1.8307

 Test job not archived.
 1\1\GINC-SE120\SP\RHF\Aug-CC-pVDZ\C1H8N1P1Si1\OHZDE\08-Apr-2025\0\\#t
 hf aug-cc-pvdz iop(5/13=1,5/36=2,99/5=2) pseudo=read geom=check guess=
 (read,tcheck) scf=(maxcycle=1)\\title\\0,1\P,0,-0.531032,-0.071438,-0.
 597939\N,0,-0.989536,-1.446875,0.333216\Si,0,1.633996,0.05156,0.092154
 \C,0,-1.232735,1.403228,0.31027\H,0,-2.317189,1.420099,0.17353\H,0,-0.
 825623,2.318322,-0.130277\H,0,-1.01285,1.403517,1.381846\H,0,-1.807005
 ,-1.9351,-0.004707\H,0,-0.990827,-1.383773,1.344098\H,0,2.394938,-1.06
 9717,-0.50354\H,0,1.73899,-0.030618,1.57433\H,0,2.232272,1.335753,-0.3

 Normal termination of Gaussian 16 at Tue Apr  8 23:41:00 2025.
