 Gaussian 16, Revision C.01,

 ----------------------------------------------------------------------
 #t hf aug-cc-pvdz symm=none int=(grid=ultrafine) guess=(read,tcheck) s
 table=(opt,rrhf)
 ----------------------------------------------------------------------
 -----
 title
 -----
 Symbolic Z-matrix:
 Charge =  0 Multiplicity = 1

 SCF Done:  E(RHF) =  -475.599552075     A.U. after   12 cycles
 Normal termination of Gaussian 16 at Tue Apr  8 23:35:07 2025.
 Gaussian 16:  ES64L-G16RevC.01  3-Jul-2019

 ----------------------------------------------------------------------
 #t hf aug-cc-pvdz iop(5/13=1,5/36=2,99/5=2) pseudo=read geom=check gue
 ss=(read,tcheck) scf=(maxcycle=1)
 ----------------------------------------------------------------------
 -----
 title
 -----
 Structure from the checkpoint file:  "BDE49_nonexpt_1498_mol1.chk"
 Charge =  0 Multiplicity = 1

                         Standard orientation:
 ---------------------------------------------------------------------
 Center     Atomic      Atomic             Coordinates (Angstroms)
 Number     Number       Type             X           Y           Z
 ---------------------------------------------------------------------
      1          7           0        1.319414    0.967742   -0.209544
      2         15           0        0.808847   -0.638481    0.117068
      3          6           0       -1.810517    0.589032    0.174023
      4          6           0       -0.982993   -0.577194   -0.372214
      5          1           0       -1.405435   -1.536647   -0.049530
      6          1           0       -1.004952   -0.582155   -1.466788
      7          1           0       -1.401514    1.546659   -0.158827
      8          1           0       -2.846830    0.538328   -0.174218
      9          1           0       -1.826449    0.586950    1.268189
     10          1           0        0.564561   -0.598876    1.523920
     11          1           0        2.300896    1.053007   -0.429001
     12          1           0        1.012192    1.724726    0.386185
 ---------------------------------------------------------------------

 SCF Done:  E(RHF) =  -475.794959061     A.U. after    2 cycles

 The electronic state is 1-A.
 Alpha  occ. eigenvalues --  -84.28169 -15.49098 -11.23373 -11.22989  -6.74883
 Alpha  occ. eigenvalues --   -4.27637  -4.27122  -4.26608  -1.16148  -1.03296
 Alpha  occ. eigenvalues --   -0.87972  -0.77779  -0.70042  -0.63163  -0.58249
 Alpha  occ. eigenvalues --   -0.56904  -0.53703  -0.50027  -0.48502  -0.41576
 Alpha  occ. eigenvalues --   -0.32819
 Alpha virt. eigenvalues --    0.03568   0.04321   0.04844   0.04983   0.06693
 Alpha virt. eigenvalues --    0.07164   0.07293   0.08324   0.10414   0.11211
 Alpha virt. eigenvalues --    0.12185   0.14264   0.15228   0.15927   0.16756

 Mulliken charges:
               1
     1  N   -0.152298
     2  P    0.373362
     3  C   -0.429939
     4  C   -0.914056
     5  H    0.201083
     6  H    0.191561
     7  H    0.163101
     8  H    0.095708
     9  H    0.157618
    10  H    0.286822
    11  H    0.030895
    12  H   -0.003858
 Sum of Mulliken charges =  -0.00000

 Dipole moment (field-independent basis, Debye):
    X=             -0.2777    Y=              0.8158    Z=              0.7200  Tot=              1.1230

 Test job not archived.
 1\1\GINC-SE334\SP\RHF\Aug-CC-pVDZ\C2H8N1P1\OHZDE\08-Apr-2025\0\\#t hf
 aug-cc-pvdz iop(5/13=1,5/36=2,99/5=2) pseudo=read geom=check guess=(re
 ad,tcheck) scf=(maxcycle=1)\\title\\0,1\N,0,1.319414,0.967742,-0.20954
 4\P,0,0.808847,-0.638481,0.117068\C,0,-1.810517,0.589032,0.174023\C,0,
 -0.982993,-0.577194,-0.372214\H,0,-1.405435,-1.536647,-0.04953\H,0,-1.
 004952,-0.582155,-1.466788\H,0,-1.401514,1.546659,-0.158827\H,0,-2.846
 83,0.538328,-0.174218\H,0,-1.826449,0.58695,1.268189\H,0,0.564561,-0.5
 98876,1.52392\H,0,2.300896,1.053007,-0.429001\H,0,1.012192,1.724726,0.

 Normal termination of Gaussian 16 at Tue Apr  8 23:35:10 2025.
