 Gaussian 16, Revision C.01,

 ----------------------------------------------------------------------
 #t hf aug-cc-pvdz symm=none int=(grid=ultrafine) guess=(read,tcheck) s
 table=opt
 ----------------------------------------------------------------------
 -----
 title
 -----
 Symbolic Z-matrix:
 Charge =  0 Multiplicity = 2

 SCF Done:  E(UHF) =  -733.730293408     A.U. after   14 cycles
 Normal termination of Gaussian 16 at Tue Apr  8 23:22:50 2025.
 Gaussian 16:  ES64L-G16RevC.01  3-Jul-2019

 ----------------------------------------------------------------------
 #t hf aug-cc-pvdz iop(5/13=1,5/36=2,99/5=2) pseudo=read geom=check gue
 ss=(read,tcheck) scf=(maxcycle=1)
 ----------------------------------------------------------------------
 -----
 title
 -----
 Structure from the checkpoint file:  "BDE49_nonexpt_1216_mol3.chk"
 Charge =  0 Multiplicity = 2

                         Standard orientation:
 ---------------------------------------------------------------------
 Center     Atomic      Atomic             Coordinates (Angstroms)
 Number     Number       Type             X           Y           Z
 ---------------------------------------------------------------------
      1          6           0       -0.327960   -0.004434   -0.000007
      2         16           0        1.484992   -0.043140    0.000038
      3          9           0       -0.854070   -0.600744    1.079708
      4          9           0       -0.854126   -0.603414   -1.078226
      5          9           0       -0.713150    1.283807   -0.001546
 ---------------------------------------------------------------------

 SCF Done:  E(UHF) =  -734.086450425     A.U. after    2 cycles

 The electronic state is 2-A.
 Alpha  occ. eigenvalues --  -94.02458 -26.53043 -26.52533 -26.52531 -11.56195
 Alpha  occ. eigenvalues --   -8.30598  -6.29763  -6.27979  -6.27609  -1.73795
 Alpha  occ. eigenvalues --   -1.63800  -1.63256  -1.11101  -0.94018  -0.83384
 Alpha  occ. eigenvalues --   -0.82996  -0.78489  -0.70979  -0.70447  -0.65971
 Alpha  occ. eigenvalues --   -0.65627  -0.63910  -0.55075  -0.50793  -0.44419
 Alpha virt. eigenvalues --    0.06181   0.09036   0.09657   0.10289   0.10373
 Alpha virt. eigenvalues --    0.11793   0.12424   0.19119   0.23119   0.23389
 Alpha virt. eigenvalues --    0.24800   0.28326   0.29217   0.29712   0.30220

  Beta  occ. eigenvalues --  -94.01540 -26.52912 -26.52516 -26.52514 -11.56334
  Beta  occ. eigenvalues --   -8.29543  -6.27472  -6.27066  -6.25656  -1.73683
  Beta  occ. eigenvalues --   -1.63545  -1.63216  -1.05222  -0.91952  -0.82983
  Beta  occ. eigenvalues --   -0.82982  -0.76024  -0.70409  -0.70290  -0.65696
  Beta  occ. eigenvalues --   -0.65570  -0.63819  -0.53840  -0.42078
  Beta virt. eigenvalues --   -0.03861   0.06426   0.09062   0.10345   0.10624
  Beta virt. eigenvalues --    0.10934   0.12489   0.12994   0.20418   0.23410
  Beta virt. eigenvalues --    0.23613   0.25362   0.30076   0.30266   0.30338

 Mulliken charges and spin densities:
               1          2
     1  C    1.481275  -0.075526
     2  S    0.280103   1.078947
     3  F   -0.584129   0.001135
     4  F   -0.584137   0.001136
     5  F   -0.593113  -0.005691
 Sum of Mulliken charges =  -0.00000   1.00000

 Dipole moment (field-independent basis, Debye):
    X=              0.9969    Y=             -0.0827    Z=              0.0001  Tot=              1.0003
                          Isotropic Fermi Contact Couplings
        Atom                 a.u.       MegaHertz       Gauss      10(-4) cm-1
     1  C(13)             -0.02882     -32.40132     -11.56160     -10.80792
     2  S(33)              0.19334      66.40691      23.69564      22.15096
     3  F(19)              0.00111       4.65757       1.66194       1.55360
     4  F(19)              0.00111       4.65065       1.65947       1.55129
     5  F(19)              0.02291      96.40683      34.40035      32.15786
 --------------------------------------------------------
       Center         ----  Spin Dipole Couplings  ----
                      3XX-RR        3YY-RR        3ZZ-RR

 Normal termination of Gaussian 16 at Tue Apr  8 23:22:52 2025.
