 Gaussian 16, Revision C.01,

 ----------------------------------------------------------------------
 #t hf aug-cc-pvdz symm=none int=(grid=ultrafine) guess=(read,tcheck) s
 table=(opt,rrhf)
 ----------------------------------------------------------------------
 -----
 title
 -----
 Symbolic Z-matrix:
 Charge =  0 Multiplicity = 1

 SCF Done:  E(RHF) =  -749.689776619     A.U. after   12 cycles
 Normal termination of Gaussian 16 at Tue Apr  8 23:54:16 2025.
 Gaussian 16:  ES64L-G16RevC.01  3-Jul-2019

 ----------------------------------------------------------------------
 #t hf aug-cc-pvdz iop(5/13=1,5/36=2,99/5=2) pseudo=read geom=check gue
 ss=(read,tcheck) scf=(maxcycle=1)
 ----------------------------------------------------------------------
 -----
 title
 -----
 Structure from the checkpoint file:  "BDE49_nonexpt_1953_mol1.chk"
 Charge =  0 Multiplicity = 1

                         Standard orientation:
 ---------------------------------------------------------------------
 Center     Atomic      Atomic             Coordinates (Angstroms)
 Number     Number       Type             X           Y           Z
 ---------------------------------------------------------------------
      1         14           0        2.258073   -0.022833   -0.025066
      2          6           0        0.557576   -0.715290    0.409248
      3         15           0       -0.861865   -0.008273   -0.574640
      4          1           0        2.582670   -0.297343   -1.443630
      5          1           0        3.289355   -0.657593    0.831654
      6          6           0       -2.272416   -0.936286    0.200973
      7          1           0       -2.264887   -0.874026    1.293773
      8          1           0       -2.222620   -1.987138   -0.094229
      9          1           0       -3.217690   -0.531530   -0.170103
     10          6           0       -1.077358    1.625107    0.281634
     11          1           0       -0.245789    2.288568    0.035695
     12          1           0       -1.139495    1.523217    1.369959
     13          1           0       -1.994616    2.096399   -0.080251
     14          1           0        2.313843    1.441964    0.196672
     15          1           0        0.378155   -0.610216    1.486567
     16          1           0        0.589217   -1.789737    0.193287
 ---------------------------------------------------------------------

 SCF Done:  E(RHF) =  -749.906140630     A.U. after    2 cycles

 The electronic state is 1-A.
 Alpha  occ. eigenvalues --  -84.26651 -69.52617 -11.23354 -11.23308 -11.22876
 Alpha  occ. eigenvalues --   -6.73614  -6.19682  -4.26071  -4.26020  -4.25334
 Alpha  occ. eigenvalues --   -3.95059  -3.95053  -3.95047  -1.03172  -0.94196
 Alpha  occ. eigenvalues --   -0.93880  -0.74086  -0.70656  -0.60570  -0.58909
 Alpha  occ. eigenvalues --   -0.57635  -0.55879  -0.55594  -0.51147  -0.48104
 Alpha  occ. eigenvalues --   -0.47604  -0.44403  -0.42710  -0.31168
 Alpha virt. eigenvalues --    0.03675   0.03875   0.03955   0.04382   0.05708
 Alpha virt. eigenvalues --    0.06345   0.06774   0.07064   0.07709   0.08628
 Alpha virt. eigenvalues --    0.09606   0.10034   0.10408   0.10534   0.12406

 Mulliken charges:
               1
     1  Si   0.952409
     2  C   -0.823621
     3  P    1.247998
     4  H   -0.168880
     5  H   -0.180152
     6  C   -0.743054
     7  H    0.122309
     8  H    0.098248
     9  H    0.105409
    10  C   -0.794116
    11  H    0.075859
    12  H    0.119575
    13  H    0.112305
    14  H   -0.208087
    15  H    0.026432
    16  H    0.057366
 Sum of Mulliken charges =  -0.00000

 Dipole moment (field-independent basis, Debye):
    X=             -0.8064    Y=             -0.2564    Z=              1.1909  Tot=              1.4609

 Test job not archived.
 1\1\GINC-SE095\SP\RHF\Aug-CC-pVDZ\C3H11P1Si1\OHZDE\08-Apr-2025\0\\#t h
 f aug-cc-pvdz iop(5/13=1,5/36=2,99/5=2) pseudo=read geom=check guess=(
 read,tcheck) scf=(maxcycle=1)\\title\\0,1\Si,0,2.258073,-0.022833,-0.0
 25066\C,0,0.557576,-0.71529,0.409248\P,0,-0.861865,-0.008273,-0.57464\
 H,0,2.58267,-0.297343,-1.44363\H,0,3.289355,-0.657593,0.831654\C,0,-2.
 272416,-0.936286,0.200973\H,0,-2.264887,-0.874026,1.293773\H,0,-2.2226
 2,-1.987138,-0.094229\H,0,-3.21769,-0.53153,-0.170103\C,0,-1.077358,1.
 625107,0.281634\H,0,-0.245789,2.288568,0.035695\H,0,-1.139495,1.523217

 Normal termination of Gaussian 16 at Tue Apr  8 23:54:21 2025.
