 Gaussian 16, Revision C.01,

 ----------------------------------------------------------------------
 #t hf aug-cc-pvdz symm=none int=(grid=ultrafine) guess=(read,tcheck) s
 table=(opt,rrhf)
 ----------------------------------------------------------------------
 -----
 title
 -----
 Symbolic Z-matrix:
 Charge =  0 Multiplicity = 1

 SCF Done:  E(RHF) =  -776.715005586     A.U. after   15 cycles
 Normal termination of Gaussian 16 at Tue Apr  8 23:39:21 2025.
 Gaussian 16:  ES64L-G16RevC.01  3-Jul-2019

 ----------------------------------------------------------------------
 #t hf aug-cc-pvdz iop(5/13=1,5/36=2,99/5=2) pseudo=read geom=check gue
 ss=(read,tcheck) scf=(maxcycle=1)
 ----------------------------------------------------------------------
 -----
 title
 -----
 Structure from the checkpoint file:  "BDE49_nonexpt_1555_mol1.chk"
 Charge =  0 Multiplicity = 1

                         Standard orientation:
 ---------------------------------------------------------------------
 Center     Atomic      Atomic             Coordinates (Angstroms)
 Number     Number       Type             X           Y           Z
 ---------------------------------------------------------------------
      1          6           0       -2.370988   -1.240690   -0.312927
      2          6           0       -1.081687   -1.251740    0.211205
      3          6           0       -3.039168   -0.030998   -0.496244
      4          6           0       -2.413461    1.167665   -0.159753
      5          6           0       -1.119013    1.158495    0.356322
      6          6           0       -0.436813   -0.053013    0.552932
      7          1           0       -0.637407    2.094773    0.614509
      8          1           0       -4.046419   -0.022883   -0.897389
      9          1           0       -2.931710    2.109738   -0.299742
     10          1           0       -2.856812   -2.174621   -0.572059
     11          1           0       -0.568502   -2.195468    0.360216
     12          7           0        2.293679    0.187444   -0.201910
     13          8           0        2.306678   -1.027331   -0.964806
     14          8           0        1.832444    1.217455   -1.044268
     15          1           0        0.937614    0.958604   -1.328455
     16          1           0        3.204882   -1.048763   -1.317275
     17         15           0        1.276644   -0.149333    1.222648
     18          1           0        1.346741    1.187203    1.677238
 ---------------------------------------------------------------------

 SCF Done:  E(RHF) =  -777.197307745     A.U. after    2 cycles

 The electronic state is 1-A.
 Alpha  occ. eigenvalues --  -84.30488 -20.59016 -20.58705 -15.60883 -11.26320
 Alpha  occ. eigenvalues --  -11.26163 -11.26135 -11.25876 -11.25712 -11.25599
 Alpha  occ. eigenvalues --   -6.77266  -4.30259  -4.29908  -4.29334  -1.53697
 Alpha  occ. eigenvalues --   -1.43971  -1.16983  -1.06970  -1.03228  -1.02885
 Alpha  occ. eigenvalues --   -0.87539  -0.84980  -0.80880  -0.75687  -0.72288
 Alpha  occ. eigenvalues --   -0.66958  -0.65904  -0.65352  -0.63499  -0.62618
 Alpha  occ. eigenvalues --   -0.61427  -0.56989  -0.52708  -0.52029  -0.50252
 Alpha  occ. eigenvalues --   -0.49023  -0.48277  -0.43495  -0.37570  -0.36094
 Alpha  occ. eigenvalues --   -0.34796
 Alpha virt. eigenvalues --    0.03152   0.03636   0.03993   0.05157   0.05763
 Alpha virt. eigenvalues --    0.06338   0.06767   0.07229   0.08017   0.08808
 Alpha virt. eigenvalues --    0.09272   0.09875   0.12081   0.12459   0.13211

 Mulliken charges:
               1
     1  C    0.432004
     2  C   -0.446488
     3  C    0.137392
     4  C    0.383111
     5  C   -0.037887
     6  C    0.551313
     7  H   -0.318856
     8  H   -0.203151
     9  H   -0.216663
    10  H   -0.209747
    11  H   -0.262957
    12  N    1.309263
    13  O   -1.206535
    14  O   -1.238457
    15  H    0.409022
    16  H    0.370843
    17  P    0.348016
    18  H    0.199778
 Sum of Mulliken charges =  -0.00000

 Dipole moment (field-independent basis, Debye):
    X=             -2.3729    Y=             -0.4319    Z=             -0.3386  Tot=              2.4355

 Test job not archived.
 1\1\GINC-SE092\SP\RHF\Aug-CC-pVDZ\C6H8N1O2P1\OHZDE\08-Apr-2025\0\\#t h
 f aug-cc-pvdz iop(5/13=1,5/36=2,99/5=2) pseudo=read geom=check guess=(
 read,tcheck) scf=(maxcycle=1)\\title\\0,1\C,0,2.370988,1.24069,-0.3129
 27\C,0,1.081687,1.25174,0.211205\C,0,3.039168,0.030998,-0.496244\C,0,2
 .413461,-1.167665,-0.159753\C,0,1.119013,-1.158495,0.356322\C,0,0.4368
 13,0.053013,0.552932\H,0,0.637407,-2.094773,0.614509\H,0,4.046419,0.02
 2883,-0.897389\H,0,2.93171,-2.109738,-0.299742\H,0,2.856812,2.174621,-
 0.572059\H,0,0.568502,2.195468,0.360216\N,0,-2.293679,-0.187444,-0.201

 Normal termination of Gaussian 16 at Tue Apr  8 23:39:32 2025.
