 Gaussian 16, Revision C.01,

 ----------------------------------------------------------------------
 #t hf aug-cc-pvdz symm=none int=(grid=ultrafine) guess=(read,tcheck) s
 table=(opt,rrhf)
 ----------------------------------------------------------------------
 -----
 title
 -----
 Symbolic Z-matrix:
 Charge =  0 Multiplicity = 1

 SCF Done:  E(RHF) =  -362.406141266     A.U. after   15 cycles
 Normal termination of Gaussian 16 at Tue Apr  8 23:19:50 2025.
 Gaussian 16:  ES64L-G16RevC.01  3-Jul-2019

 ----------------------------------------------------------------------
 #t hf aug-cc-pvdz iop(5/13=1,5/36=2,99/5=2) pseudo=read geom=check gue
 ss=(read,tcheck) scf=(maxcycle=1)
 ----------------------------------------------------------------------
 -----
 title
 -----
 Structure from the checkpoint file:  "BDE49_nonexpt_1128_mol1.chk"
 Charge =  0 Multiplicity = 1

                         Standard orientation:
 ---------------------------------------------------------------------
 Center     Atomic      Atomic             Coordinates (Angstroms)
 Number     Number       Type             X           Y           Z
 ---------------------------------------------------------------------
      1          9           0        1.782367   -0.000477    0.000092
      2          8           0        0.587288   -0.759582   -0.000027
      3          6           0       -0.467103    0.134626   -0.000125
      4          8           0       -0.404645    1.319193    0.000004
      5          8           0       -1.547771   -0.651703    0.000002
      6          1           0       -2.317672   -0.066725    0.000093
 ---------------------------------------------------------------------

 SCF Done:  E(RHF) =  -362.747158474     A.U. after    2 cycles

 The electronic state is 1-A.
 Alpha  occ. eigenvalues --  -26.55022 -20.72746 -20.65177 -20.58355 -11.49157
 Alpha  occ. eigenvalues --   -1.72627  -1.60233  -1.51656  -1.40518  -0.91457
 Alpha  occ. eigenvalues --   -0.80704  -0.76492  -0.76352  -0.68844  -0.67637
 Alpha  occ. eigenvalues --   -0.67016  -0.61817  -0.55620  -0.52061  -0.50930
 Alpha virt. eigenvalues --    0.02910   0.08797   0.09297   0.09532   0.11369
 Alpha virt. eigenvalues --    0.16022   0.17227   0.17276   0.18486   0.20970
 Alpha virt. eigenvalues --    0.21070   0.22562   0.25486   0.27968   0.28324

 Mulliken charges:
               1
     1  F   -0.396442
     2  O   -0.378303
     3  C    2.289022
     4  O   -0.835729
     5  O   -0.990503
     6  H    0.311955
 Sum of Mulliken charges =  -0.00000

 Dipole moment (field-independent basis, Debye):
    X=             -2.3815    Y=             -0.6767    Z=             -0.0002  Tot=              2.4758

 Test job not archived.
 1\1\GINC-SE403\SP\RHF\Aug-CC-pVDZ\C1H1F1O3\OHZDE\08-Apr-2025\0\\#t hf
 aug-cc-pvdz iop(5/13=1,5/36=2,99/5=2) pseudo=read geom=check guess=(re
 ad,tcheck) scf=(maxcycle=1)\\title\\0,1\F,0,1.782367,-0.000477,0.00009
 2\O,0,0.587288,-0.759582,-0.000027\C,0,-0.467103,0.134626,-0.000125\O,
 0,-0.404645,1.319193,0.000004\O,0,-1.547771,-0.651703,0.000002\H,0,-2.
 317672,-0.066725,0.000093\\Version=ES64L-G16RevC.01\State=1-A\HF=-362.
 7471585\RMSD=7.638e-03\Dipole=-0.9369669,-0.2662491,-0.0000803\Quadrup
 ole=3.8357507,-3.9336147,0.097864,-0.4709509,-0.0002431,0.0000031\PG=C

 Normal termination of Gaussian 16 at Tue Apr  8 23:19:52 2025.
