 Gaussian 16, Revision C.01,

 ----------------------------------------------------------------------
 #t hf aug-cc-pvdz symm=none int=(grid=ultrafine) guess=(read,tcheck) s
 table=(opt,rrhf)
 ----------------------------------------------------------------------
 -----
 title
 -----
 Symbolic Z-matrix:
 Charge =  0 Multiplicity = 1

 SCF Done:  E(RHF) =  -2876.24404983     A.U. after   11 cycles
 Normal termination of Gaussian 16 at Wed Apr  9 00:09:08 2025.
 Gaussian 16:  ES64L-G16RevC.01  3-Jul-2019

 ----------------------------------------------------------------------
 #t hf aug-cc-pvdz iop(5/13=1,5/36=2,99/5=2) pseudo=read geom=check gue
 ss=(read,tcheck) scf=(maxcycle=1)
 ----------------------------------------------------------------------
 -----
 title
 -----
 Structure from the checkpoint file:  "BDE49_nonexpt_2317_mol1.chk"
 Charge =  0 Multiplicity = 1

                         Standard orientation:
 ---------------------------------------------------------------------
 Center     Atomic      Atomic             Coordinates (Angstroms)
 Number     Number       Type             X           Y           Z
 ---------------------------------------------------------------------
      1         14           0       -0.918351    1.155877    0.000000
      2         14           0        0.186116   -0.922043   -0.000000
      3         17           0       -0.370941   -1.986430    1.674780
      4         17           0       -0.370941    2.200526    1.693396
      5         17           0        2.226874   -0.679767    0.000000
      6         17           0       -0.370941    2.200526   -1.693396
      7         17           0       -0.370941   -1.986430   -1.674780
      8          1           0       -2.381594    1.003100   -0.000000
 ---------------------------------------------------------------------

 SCF Done:  E(RHF) =  -2876.69239995     A.U. after    2 cycles

 The electronic state is 1-A'.
 Alpha  occ. eigenvalues -- -105.59361-105.59361-105.59316-105.58840-105.58840
 Alpha  occ. eigenvalues --  -69.68477 -69.64984 -10.64373 -10.64359 -10.64324
 Alpha  occ. eigenvalues --  -10.63851 -10.63839  -7.81259  -7.81252  -7.81217
 Alpha  occ. eigenvalues --   -7.80924  -7.80922  -7.80921  -7.80916  -7.80880
 Alpha  occ. eigenvalues --   -7.80876  -7.80738  -7.80731  -7.80407  -7.80404
 Alpha  occ. eigenvalues --   -7.80400  -7.80400  -6.34316  -6.31243  -4.09651
 Alpha  occ. eigenvalues --   -4.09650  -4.09462  -4.06646  -4.06534  -4.06417
 Alpha  occ. eigenvalues --   -1.12612  -1.10172  -1.07317  -1.07267  -1.06614
 Alpha  occ. eigenvalues --   -0.78258  -0.71147  -0.60341  -0.60142  -0.59010
 Alpha  occ. eigenvalues --   -0.58261  -0.57995  -0.52459  -0.52283  -0.52198
 Alpha  occ. eigenvalues --   -0.50688  -0.49698  -0.49666  -0.49581  -0.48639
 Alpha  occ. eigenvalues --   -0.48236  -0.43484
 Alpha virt. eigenvalues --    0.04105   0.04725   0.05066   0.05203   0.07013
 Alpha virt. eigenvalues --    0.07463   0.07561   0.08722   0.08900   0.09023
 Alpha virt. eigenvalues --    0.10096   0.11536   0.12683   0.13512   0.14289

 Mulliken charges:
               1
     1  Si   1.209274
     2  Si   1.530438
     3  Cl  -0.532615
     4  Cl  -0.531018
     5  Cl  -0.518685
     6  Cl  -0.531018
     7  Cl  -0.532615
     8  H   -0.093761
 Sum of Mulliken charges =  -0.00000

 Dipole moment (field-independent basis, Debye):
    X=             -1.0978    Y=             -0.0317    Z=             -0.0000  Tot=              1.0983

 Test job not archived.
 1\1\GINC-SE329\SP\RHF\Aug-CC-pVDZ\Cl5H1Si2\OHZDE\09-Apr-2025\0\\#t hf
 aug-cc-pvdz iop(5/13=1,5/36=2,99/5=2) pseudo=read geom=check guess=(re
 ad,tcheck) scf=(maxcycle=1)\\title\\0,1\Si,0,-0.918351,1.155877,0.\Si,
 0,0.186116,-0.922043,0.\Cl,0,-0.370941,-1.98643,1.67478\Cl,0,-0.370941
 ,2.200526,1.693396\Cl,0,2.226874,-0.679767,0.\Cl,0,-0.370941,2.200526,
 -1.693396\Cl,0,-0.370941,-1.98643,-1.67478\H,0,-2.381594,1.0031,0.\\Ve
 rsion=ES64L-G16RevC.01\State=1-A'\HF=-2876.6924\RMSD=3.105e-03\Dipole=
 -0.4319241,-0.0124661,0.\Quadrupole=2.2054862,-1.6427392,-0.562747,-0.

 Normal termination of Gaussian 16 at Wed Apr  9 00:09:12 2025.
