 Gaussian 16, Revision C.01,

 ----------------------------------------------------------------------
 #t hf aug-cc-pvdz symm=none int=(grid=ultrafine) guess=(read,tcheck) s
 table=(opt,rrhf)
 ----------------------------------------------------------------------
 -----
 title
 -----
 Symbolic Z-matrix:
 Charge =  0 Multiplicity = 1

 SCF Done:  E(RHF) =  -423.980070167     A.U. after   12 cycles
 Normal termination of Gaussian 16 at Wed Apr  9 00:34:45 2025.
 Gaussian 16:  ES64L-G16RevC.01  3-Jul-2019

 ----------------------------------------------------------------------
 #t hf aug-cc-pvdz iop(5/13=1,5/36=2,99/5=2) pseudo=read geom=check gue
 ss=(read,tcheck) scf=(maxcycle=1)
 ----------------------------------------------------------------------
 -----
 title
 -----
 Structure from the checkpoint file:  "BDE49_nonexpt_449_mol1.chk"
 Charge =  0 Multiplicity = 1

                         Standard orientation:
 ---------------------------------------------------------------------
 Center     Atomic      Atomic             Coordinates (Angstroms)
 Number     Number       Type             X           Y           Z
 ---------------------------------------------------------------------
      1          1           0       -1.807125   -1.005493    0.000069
      2          1           0       -1.774172    1.076656    0.000057
      3         16           0        0.552231   -0.089341    0.000025
      4          5           0       -1.222801    0.027379   -0.000112
      5          1           0        0.859598    1.221390    0.000026
 ---------------------------------------------------------------------

 SCF Done:  E(RHF) =  -424.068943966     A.U. after    2 cycles

 The electronic state is 1-A.
 Alpha  occ. eigenvalues --  -93.96019  -8.24383  -7.62725  -6.22201  -6.22044
 Alpha  occ. eigenvalues --   -6.21924  -1.03245  -0.70747  -0.58735  -0.50754
 Alpha  occ. eigenvalues --   -0.46128  -0.41291
 Alpha virt. eigenvalues --    0.03834   0.04383   0.04704   0.04999   0.08305
 Alpha virt. eigenvalues --    0.09927   0.10357   0.11775   0.13449   0.15027
 Alpha virt. eigenvalues --    0.16154   0.18449   0.21905   0.23031   0.26507

 Mulliken charges:
               1
     1  H    0.198553
     2  H    0.182511
     3  S   -0.550175
     4  B   -0.107455
     5  H    0.276566
 Sum of Mulliken charges =  -0.00000

 Dipole moment (field-independent basis, Debye):
    X=             -0.1625    Y=              0.9642    Z=             -0.0002  Tot=              0.9777

 Test job not archived.
 1\1\GINC-SE127\SP\RHF\Aug-CC-pVDZ\B1H3S1\OHZDE\09-Apr-2025\0\\#t hf au
 g-cc-pvdz iop(5/13=1,5/36=2,99/5=2) pseudo=read geom=check guess=(read
 ,tcheck) scf=(maxcycle=1)\\title\\0,1\H,0,1.807125,-1.005493,-0.000069
 \H,0,1.774172,1.076656,-0.000057\S,0,-0.552231,-0.089341,-0.000025\B,0
 ,1.222801,0.027379,0.000112\H,0,-0.859598,1.22139,-0.000026\\Version=E
 S64L-G16RevC.01\State=1-A\HF=-424.068944\RMSD=6.079e-03\Dipole=0.06392
 05,0.3793271,0.000086\Quadrupole=-0.1507757,0.736826,-0.5860503,-1.014
 2776,0.000425,-0.0000192\PG=C01 [X(B1H3S1)]\\@

 Normal termination of Gaussian 16 at Wed Apr  9 00:34:47 2025.
