 Gaussian 16, Revision C.01,

 ----------------------------------------------------------------------
 #t hf aug-cc-pvdz symm=none int=(grid=ultrafine) guess=(read,tcheck) s
 table=opt
 ----------------------------------------------------------------------
 -----
 title
 -----
 Symbolic Z-matrix:
 Charge =  0 Multiplicity = 2

 SCF Done:  E(UHF) =  -376.341685988     A.U. after   19 cycles
 Normal termination of Gaussian 16 at Tue Apr  8 23:04:22 2025.
 Gaussian 16:  ES64L-G16RevC.01  3-Jul-2019

 ----------------------------------------------------------------------
 #t hf aug-cc-pvdz iop(5/13=1,5/36=2,99/5=2) pseudo=read geom=check gue
 ss=(read,tcheck) scf=(maxcycle=1)
 ----------------------------------------------------------------------
 -----
 title
 -----
 Structure from the checkpoint file:  "BDE49_expt_371_mol2.chk"
 Charge =  0 Multiplicity = 2

                         Standard orientation:
 ---------------------------------------------------------------------
 Center     Atomic      Atomic             Coordinates (Angstroms)
 Number     Number       Type             X           Y           Z
 ---------------------------------------------------------------------
      1          7           0        2.794185    0.192710   -0.119914
      2          6           0        1.695961   -0.609879   -0.199741
      3          6           0        0.425979   -0.036722    0.128361
      4          1           0        1.812048   -1.651487   -0.456369
      5          8           0        0.269110    1.148341    0.416001
      6          8           0       -0.587822   -0.940808    0.086139
      7          6           0       -1.891153   -0.391671    0.397142
      8          7           0       -2.377188    0.447074   -0.661819
      9          1           0       -1.800038    0.113985    1.363601
     10          1           0       -2.526207   -1.270606    0.496225
     11          1           0        2.604509    1.178846    0.002157
     12          1           0        3.642853   -0.061858   -0.596904
     13          1           0       -2.110014    1.412908   -0.522092
     14          1           0       -3.377165    0.369090   -0.786184
 ---------------------------------------------------------------------

 SCF Done:  E(UHF) =  -376.722260476     A.U. after    2 cycles

 The electronic state is 2-A.
 Alpha  occ. eigenvalues --  -20.57302 -20.52488 -15.52966 -15.48726 -11.37305
 Alpha  occ. eigenvalues --  -11.31955 -11.28403  -1.52542  -1.43844  -1.24085
 Alpha  occ. eigenvalues --   -1.18331  -1.00849  -0.90600  -0.79318  -0.76656
 Alpha  occ. eigenvalues --   -0.73150  -0.69673  -0.69258  -0.67095  -0.62270
 Alpha  occ. eigenvalues --   -0.61873  -0.57256  -0.55267  -0.53448  -0.47542
 Alpha  occ. eigenvalues --   -0.44692  -0.43925  -0.32462
 Alpha virt. eigenvalues --    0.03224   0.03914   0.05010   0.05695   0.06005
 Alpha virt. eigenvalues --    0.06693   0.08312   0.10402   0.11060   0.12538
 Alpha virt. eigenvalues --    0.12696   0.13384   0.14675   0.15696   0.16459

  Beta  occ. eigenvalues --  -20.57172 -20.51587 -15.52097 -15.48718 -11.37604
  Beta  occ. eigenvalues --  -11.31971 -11.26675  -1.51972  -1.42187  -1.21327
  Beta  occ. eigenvalues --   -1.18277  -0.97435  -0.88870  -0.78279  -0.76242
  Beta  occ. eigenvalues --   -0.72866  -0.69034  -0.68521  -0.66531  -0.61375
  Beta  occ. eigenvalues --   -0.57468  -0.56268  -0.53284  -0.47809  -0.44126
  Beta  occ. eigenvalues --   -0.43455  -0.42509
  Beta virt. eigenvalues --    0.03266   0.03910   0.05034   0.05697   0.06023
  Beta virt. eigenvalues --    0.06686   0.07062   0.08338   0.10881   0.11331
  Beta virt. eigenvalues --    0.12596   0.13045   0.13552   0.14762   0.15837

 Mulliken charges and spin densities:
               1          2
     1  N    0.519981   0.195789
     2  C   -0.721056   0.888326
     3  C    2.271180  -0.222273
     4  H   -0.190328  -0.073992
     5  O   -1.332008   0.215638
     6  O   -1.345064   0.025553
     7  C    0.201932  -0.005741
     8  N    0.077412   0.002865
     9  H    0.166131  -0.000498
    10  H   -0.080030   0.000265
    11  H    0.080171  -0.011643
    12  H    0.071648  -0.014579
    13  H    0.116676  -0.000099
    14  H    0.163354   0.000389
 Sum of Mulliken charges =  -0.00000   1.00000

 Dipole moment (field-independent basis, Debye):
    X=              0.3042    Y=             -0.8161    Z=             -0.2019  Tot=              0.8940
                          Isotropic Fermi Contact Couplings
        Atom                 a.u.       MegaHertz       Gauss      10(-4) cm-1
     1  N(14)              0.09164      29.60973      10.56549       9.87674
     2  C(13)              0.12791     143.79197      51.30855      47.96384
     3  C(13)             -0.05549     -62.37790     -22.25799     -20.80703
     4  H(1)              -0.01834     -81.99776     -29.25884     -27.35151
     5  O(17)              0.07134     -43.24552     -15.43108     -14.42515
     6  O(17)              0.00562      -3.40497      -1.21498      -1.13577
     7  C(13)             -0.00247      -2.77999      -0.99197      -0.92731
     8  N(14)              0.00342       1.10488       0.39425       0.36855

 Normal termination of Gaussian 16 at Tue Apr  8 23:04:27 2025.
