 Gaussian 16, Revision C.01,

 ----------------------------------------------------------------------
 #t hf aug-cc-pvdz symm=none int=(grid=ultrafine) guess=(read,tcheck) s
 table=(opt,rrhf)
 ----------------------------------------------------------------------
 -----
 title
 -----
 Symbolic Z-matrix:
 Charge =  0 Multiplicity = 1

 SCF Done:  E(RHF) =  -934.103575443     A.U. after   14 cycles
 Normal termination of Gaussian 16 at Wed Apr  9 00:20:37 2025.
 Gaussian 16:  ES64L-G16RevC.01  3-Jul-2019

 ----------------------------------------------------------------------
 #t hf aug-cc-pvdz iop(5/13=1,5/36=2,99/5=2) pseudo=read geom=check gue
 ss=(read,tcheck) scf=(maxcycle=1)
 ----------------------------------------------------------------------
 -----
 title
 -----
 Structure from the checkpoint file:  "BDE49_nonexpt_2617_mol1.chk"
 Charge =  0 Multiplicity = 1

                         Standard orientation:
 ---------------------------------------------------------------------
 Center     Atomic      Atomic             Coordinates (Angstroms)
 Number     Number       Type             X           Y           Z
 ---------------------------------------------------------------------
      1          9           0        1.772098    0.788944   -0.446415
      2         16           0       -0.844316   -0.560801   -0.413445
      3         16           0        0.942394   -0.369703    0.474772
      4          6           0       -1.875860    0.782089    0.296695
      5          1           0       -2.877392    0.648035   -0.117963
      6          1           0       -1.478229    1.748476   -0.007026
      7          1           0       -1.907359    0.698522    1.381306
 ---------------------------------------------------------------------

 SCF Done:  E(RHF) =  -934.357624986     A.U. after    2 cycles

 The electronic state is 1-A.
 Alpha  occ. eigenvalues --  -94.05889 -94.00145 -26.46264 -11.28971  -8.33054
 Alpha  occ. eigenvalues --   -8.28187  -6.30776  -6.30533  -6.30192  -6.25985
 Alpha  occ. eigenvalues --   -6.25733  -6.25553  -1.55689  -1.13342  -0.99503
 Alpha  occ. eigenvalues --   -0.85442  -0.65794  -0.64533  -0.64399  -0.61621
 Alpha  occ. eigenvalues --   -0.60886  -0.54037  -0.48032  -0.40893  -0.38816
 Alpha virt. eigenvalues --    0.03240   0.04819   0.05414   0.07284   0.07461
 Alpha virt. eigenvalues --    0.07626   0.12037   0.13038   0.13192   0.13639
 Alpha virt. eigenvalues --    0.15526   0.15764   0.16410   0.17375   0.17826

 Mulliken charges:
               1
     1  F   -0.615997
     2  S    0.127449
     3  S    0.590438
     4  C   -0.719351
     5  H    0.191797
     6  H    0.212876
     7  H    0.212788
 Sum of Mulliken charges =  -0.00000

 Dipole moment (field-independent basis, Debye):
    X=             -2.6801    Y=              0.4205    Z=              1.0251  Tot=              2.9001

 Test job not archived.
 1\1\GINC-SE179\SP\RHF\Aug-CC-pVDZ\C1H3F1S2\OHZDE\09-Apr-2025\0\\#t hf
 aug-cc-pvdz iop(5/13=1,5/36=2,99/5=2) pseudo=read geom=check guess=(re
 ad,tcheck) scf=(maxcycle=1)\\title\\0,1\F,0,1.772098,0.788944,-0.44641
 5\S,0,-0.844316,-0.560801,-0.413445\S,0,0.942394,-0.369703,0.474772\C,
 0,-1.87586,0.782089,0.296695\H,0,-2.877392,0.648035,-0.117963\H,0,-1.4
 78229,1.748476,-0.007026\H,0,-1.907359,0.698522,1.381306\\Version=ES64
 L-G16RevC.01\State=1-A\HF=-934.357625\RMSD=4.241e-03\Dipole=-1.0544208
 ,0.1654444,0.4033237\Quadrupole=1.4617953,-0.771626,-0.6901693,-2.3692

 Normal termination of Gaussian 16 at Wed Apr  9 00:20:39 2025.
