 Gaussian 16, Revision C.01,

 ----------------------------------------------------------------------
 #t hf aug-cc-pvdz symm=none int=(grid=ultrafine) guess=(read,tcheck) s
 table=(opt,rrhf)
 ----------------------------------------------------------------------
 -----
 title
 -----
 Symbolic Z-matrix:
 Charge =  0 Multiplicity = 1

 SCF Done:  E(RHF) =  -1155.98323876     A.U. after   13 cycles
 Normal termination of Gaussian 16 at Tue Apr  8 23:52:55 2025.
 Gaussian 16:  ES64L-G16RevC.01  3-Jul-2019

 ----------------------------------------------------------------------
 #t hf aug-cc-pvdz iop(5/13=1,5/36=2,99/5=2) pseudo=read geom=check gue
 ss=(read,tcheck) scf=(maxcycle=1)
 ----------------------------------------------------------------------
 -----
 title
 -----
 Structure from the checkpoint file:  "BDE49_nonexpt_192_mol1.chk"
 Charge =  0 Multiplicity = 1

                         Standard orientation:
 ---------------------------------------------------------------------
 Center     Atomic      Atomic             Coordinates (Angstroms)
 Number     Number       Type             X           Y           Z
 ---------------------------------------------------------------------
      1         17           0        1.138768   -1.522821    0.002831
      2         17           0        1.138678    1.522868    0.002650
      3          5           0        0.293733   -0.000003   -0.030310
      4          6           0       -1.289486   -0.000054   -0.137470
      5          8           0       -1.940261   -0.000289   -1.124392
      6          9           0       -1.880694    0.000206    1.097591
 ---------------------------------------------------------------------

 SCF Done:  E(RHF) =  -1156.35208364     A.U. after    2 cycles

 The electronic state is 1-A.
 Alpha  occ. eigenvalues -- -105.61417-105.61417 -26.51115 -20.60088 -11.44527
 Alpha  occ. eigenvalues --  -10.66449 -10.66418  -7.83342  -7.83320  -7.83030
 Alpha  occ. eigenvalues --   -7.83025  -7.82984  -7.82972  -7.76610  -1.64917
 Alpha  occ. eigenvalues --   -1.53338  -1.15037  -1.09870  -0.91783  -0.79932
 Alpha  occ. eigenvalues --   -0.73368  -0.71445  -0.69472  -0.62743  -0.62709
 Alpha  occ. eigenvalues --   -0.56480  -0.55643  -0.54433  -0.51120  -0.50113
 Alpha  occ. eigenvalues --   -0.47774
 Alpha virt. eigenvalues --    0.04048   0.04397   0.05082   0.05252   0.05620
 Alpha virt. eigenvalues --    0.09817   0.10889   0.12117   0.12249   0.12809
 Alpha virt. eigenvalues --    0.14121   0.16021   0.17099   0.17669   0.17672

 Mulliken charges:
               1
     1  Cl  -0.228295
     2  Cl  -0.228296
     3  B    0.650961
     4  C    1.436975
     5  O   -0.955876
     6  F   -0.675469
 Sum of Mulliken charges =  -0.00000

 Dipole moment (field-independent basis, Debye):
    X=              1.9441    Y=              0.0002    Z=              0.6304  Tot=              2.0437

 Test job not archived.
 1\1\GINC-SE059\SP\RHF\Aug-CC-pVDZ\C1B1Cl2F1O1\OHZDE\08-Apr-2025\0\\#t
 hf aug-cc-pvdz iop(5/13=1,5/36=2,99/5=2) pseudo=read geom=check guess=
 (read,tcheck) scf=(maxcycle=1)\\title\\0,1\Cl,0,1.138768,-1.522821,0.0
 02831\Cl,0,1.138678,1.522868,0.00265\B,0,0.293733,-0.000003,-0.03031\C
 ,0,-1.289486,-0.000054,-0.13747\O,0,-1.940261,-0.00029,-1.124392\F,0,-
 1.880694,0.000206,1.097591\\Version=ES64L-G16RevC.01\State=1-A\HF=-115
 6.3520836\RMSD=5.600e-03\Dipole=0.7648549,0.0000693,0.2480176\Quadrupo
 le=-2.5683732,2.6142323,-0.0458591,-0.0003673,-1.1956026,-0.0006775\PG

 Normal termination of Gaussian 16 at Tue Apr  8 23:52:57 2025.
