 Gaussian 16, Revision C.01,

 ----------------------------------------------------------------------
 #t hf aug-cc-pvdz symm=none int=(grid=ultrafine) guess=(read,tcheck) s
 table=(opt,rrhf)
 ----------------------------------------------------------------------
 -----
 title
 -----
 Symbolic Z-matrix:
 Charge =  0 Multiplicity = 1

 SCF Done:  E(RHF) =  -268.869850221     A.U. after   13 cycles
 Normal termination of Gaussian 16 at Tue Apr  8 22:47:43 2025.
 Gaussian 16:  ES64L-G16RevC.01  3-Jul-2019

 ----------------------------------------------------------------------
 #t hf aug-cc-pvdz iop(5/13=1,5/36=2,99/5=2) pseudo=read geom=check gue
 ss=(read,tcheck) scf=(maxcycle=1)
 ----------------------------------------------------------------------
 -----
 title
 -----
 Structure from the checkpoint file:  "BDE49_expt_164_mol1.chk"
 Charge =  0 Multiplicity = 1

                         Standard orientation:
 ---------------------------------------------------------------------
 Center     Atomic      Atomic             Coordinates (Angstroms)
 Number     Number       Type             X           Y           Z
 ---------------------------------------------------------------------
      1          6           0        0.055230    1.208633    0.094845
      2          6           0        1.323246    0.888342   -0.150261
      3          6           0        1.564945   -0.599356   -0.046272
      4          6           0        0.132168   -1.182646    0.017807
      5          1           0        2.137284   -0.832628    0.860519
      6          1           0        2.145663   -0.992538   -0.886639
      7          6           0       -0.788377   -0.008558    0.408060
      8          1           0        0.041261   -2.033688    0.694361
      9          1           0       -0.187223   -1.507550   -0.975293
     10          1           0       -0.351496    2.214229    0.109659
     11          1           0        2.114637    1.595934   -0.372188
     12          8           0       -1.997540   -0.102217   -0.353344
     13          1           0       -1.036085   -0.032770    1.481068
     14          1           0       -2.606988    0.568255   -0.029807
 ---------------------------------------------------------------------

 SCF Done:  E(RHF) =  -269.154217696     A.U. after    2 cycles

 The electronic state is 1-A.
 Alpha  occ. eigenvalues --  -20.54529 -11.28888 -11.23876 -11.23528 -11.23045
 Alpha  occ. eigenvalues --  -11.22661  -1.44288  -1.13117  -0.97189  -0.94754
 Alpha  occ. eigenvalues --   -0.79356  -0.74819  -0.69406  -0.69058  -0.61871
 Alpha  occ. eigenvalues --   -0.58039  -0.55127  -0.52583  -0.50451  -0.50188
 Alpha  occ. eigenvalues --   -0.48067  -0.43657  -0.36157
 Alpha virt. eigenvalues --    0.03521   0.03799   0.04101   0.04786   0.06074
 Alpha virt. eigenvalues --    0.06342   0.06666   0.07629   0.12305   0.12500
 Alpha virt. eigenvalues --    0.12936   0.14008   0.14528   0.14780   0.15647

 Mulliken charges:
               1
     1  C    0.312427
     2  C    0.284336
     3  C   -0.489145
     4  C   -0.373747
     5  H    0.193027
     6  H    0.156832
     7  C    0.627093
     8  H    0.169170
     9  H    0.168057
    10  H   -0.126627
    11  H   -0.099001
    12  O   -1.305970
    13  H    0.201902
    14  H    0.281646
 Sum of Mulliken charges =  -0.00000

 Dipole moment (field-independent basis, Debye):
    X=              0.5535    Y=              0.8590    Z=              1.2034  Tot=              1.5787

 Test job not archived.
 1\1\GINC-SE332\SP\RHF\Aug-CC-pVDZ\C5H8O1\OHZDE\08-Apr-2025\0\\#t hf au
 g-cc-pvdz iop(5/13=1,5/36=2,99/5=2) pseudo=read geom=check guess=(read
 ,tcheck) scf=(maxcycle=1)\\title\\0,1\C,0,0.05523,1.208633,0.094845\C,
 0,1.323246,0.888342,-0.150261\C,0,1.564945,-0.599356,-0.046272\C,0,0.1
 32168,-1.182646,0.017807\H,0,2.137284,-0.832629,0.860519\H,0,2.145663,
 -0.992539,-0.886639\C,0,-0.788377,-0.008558,0.40806\H,0,0.041261,-2.03
 3688,0.694361\H,0,-0.187223,-1.50755,-0.975293\H,0,-0.351495,2.214229,
 0.109659\H,0,2.114637,1.595933,-0.372188\O,0,-1.99754,-0.102217,-0.353

 Normal termination of Gaussian 16 at Tue Apr  8 22:47:47 2025.
