 Gaussian 16, Revision C.01,

 ----------------------------------------------------------------------
 #t hf aug-cc-pvdz symm=none int=(grid=ultrafine) guess=(read,tcheck) s
 table=opt
 ----------------------------------------------------------------------
 -----
 title
 -----
 Symbolic Z-matrix:
 Charge =  0 Multiplicity = 2

 SCF Done:  E(UHF) =  -1491.18088128     A.U. after   20 cycles

 1\1\GINC-SE339\Stability\UHF\Aug-CC-pVDZ\C1Cl3O1\OHZDE\08-Apr-2025\0\\
 #t hf aug-cc-pvdz symm=none int=(grid=ultrafine) guess=(read,tcheck) s
 table=opt\\title\\0,2\O,0,0.298272,0.000038,1.568705\C,0,-0.02477,0.00
 0001,0.321248\Cl,0,1.696474,0.000215,-0.381303\Cl,0,-0.914247,1.467102
 ,-0.235145\Cl,0,-0.913849,-1.467335,-0.235148\\Version=ES64L-G16RevC.0
 1\HF=-1491.1808813\S2=0.777796\S2-1=0.\S2A=0.750365\RMSD=4.603e-09\Dip
 ole=-0.0441431,-0.0000043,-0.0876358\Quadrupole=0.7487098,0.1664107,-0
 .9151206,0.0000504,-0.591148,-0.0000702\PG=Unknown\\@

 Normal termination of Gaussian 16 at Tue Apr  8 23:16:52 2025.
 Gaussian 16:  ES64L-G16RevC.01  3-Jul-2019

 ----------------------------------------------------------------------
 #t hf aug-cc-pvdz iop(5/13=1,5/36=2,99/5=2) pseudo=read geom=check gue
 ss=(read,tcheck) scf=(maxcycle=1)
 ----------------------------------------------------------------------
 -----
 title
 -----
 Structure from the checkpoint file:  "BDE49_nonexpt_1031_mol2.chk"
 Charge =  0 Multiplicity = 2

                         Standard orientation:
 ---------------------------------------------------------------------
 Center     Atomic      Atomic             Coordinates (Angstroms)
 Number     Number       Type             X           Y           Z
 ---------------------------------------------------------------------
      1          8           0       -0.298272   -0.000039    1.568705
      2          6           0        0.024770   -0.000001    0.321248
      3         17           0       -1.696474   -0.000220   -0.381303
      4         17           0        0.914251   -1.467099   -0.235145
      5         17           0        0.913844    1.467338   -0.235148
 ---------------------------------------------------------------------

 SCF Done:  E(UHF) =  -1491.50847436     A.U. after    2 cycles

 The electronic state is 2-A.
 Alpha  occ. eigenvalues -- -105.61867-105.61075-105.61074 -20.69774 -11.51304
 Alpha  occ. eigenvalues --  -10.66627 -10.65905 -10.65900  -7.83990  -7.83078
 Alpha  occ. eigenvalues --   -7.83019  -7.82900  -7.82891  -7.82398  -7.82396
 Alpha  occ. eigenvalues --   -7.82388  -7.82385  -1.62584  -1.18072  -1.09536
 Alpha  occ. eigenvalues --   -1.08559  -0.86038  -0.77898  -0.72673  -0.71989
 Alpha  occ. eigenvalues --   -0.59929  -0.56055  -0.53020  -0.51759  -0.51751
 Alpha  occ. eigenvalues --   -0.48911  -0.48698  -0.47594
 Alpha virt. eigenvalues --    0.05484   0.07636   0.08378   0.08426   0.10425
 Alpha virt. eigenvalues --    0.11864   0.12423   0.13996   0.14450   0.14636
 Alpha virt. eigenvalues --    0.18462   0.18472   0.18638   0.18680   0.21863

  Beta  occ. eigenvalues -- -105.61568-105.61049-105.61048 -20.65889 -11.51935
  Beta  occ. eigenvalues --  -10.66319 -10.65880 -10.65875  -7.83044  -7.82850
  Beta  occ. eigenvalues --   -7.82774  -7.82766  -7.82610  -7.82388  -7.82385
  Beta  occ. eigenvalues --   -7.82377  -7.82375  -1.50941  -1.16500  -1.08361
  Beta  occ. eigenvalues --   -1.07276  -0.83685  -0.71124  -0.70189  -0.65869
  Beta  occ. eigenvalues --   -0.54384  -0.53043  -0.51513  -0.50252  -0.48855
  Beta  occ. eigenvalues --   -0.48298  -0.47495
  Beta virt. eigenvalues --   -0.00629   0.05514   0.07970   0.08433   0.09227
  Beta virt. eigenvalues --    0.10679   0.12063   0.12288   0.14316   0.14534
  Beta virt. eigenvalues --    0.14691   0.18492   0.18512   0.18631   0.20410

 Mulliken charges and spin densities:
               1          2
     1  O   -0.627829   1.028545
     2  C    0.051771  -0.284897
     3  Cl   0.182628   0.213013
     4  Cl   0.196713   0.021669
     5  Cl   0.196716   0.021670
 Sum of Mulliken charges =  -0.00000   1.00000

 Dipole moment (field-independent basis, Debye):
    X=              0.1009    Y=              0.0000    Z=             -0.1280  Tot=              0.1630
                          Isotropic Fermi Contact Couplings
        Atom                 a.u.       MegaHertz       Gauss      10(-4) cm-1
     1  O(17)              0.24896    -150.91607     -53.85061     -50.34018
     2  C(13)             -0.09740    -109.49471     -39.07043     -36.52350
     3  Cl(35)             0.06493      28.46849      10.15827       9.49607
     4  Cl(35)            -0.00568      -2.48870      -0.88803      -0.83014
     5  Cl(35)            -0.00568      -2.48849      -0.88796      -0.83007
 --------------------------------------------------------
       Center         ----  Spin Dipole Couplings  ----
                      3XX-RR        3YY-RR        3ZZ-RR

 Normal termination of Gaussian 16 at Tue Apr  8 23:16:55 2025.
