 Gaussian 16, Revision C.01,

 ----------------------------------------------------------------------
 #t hf aug-cc-pvdz symm=none int=(grid=ultrafine) guess=(read,tcheck) s
 table=opt
 ----------------------------------------------------------------------
 -----
 title
 -----
 Symbolic Z-matrix:
 Charge =  0 Multiplicity = 2

 SCF Done:  E(UHF) =  -231.560052156     A.U. after   24 cycles
 Normal termination of Gaussian 16 at Tue Apr  8 22:41:56 2025.
 Gaussian 16:  ES64L-G16RevC.01  3-Jul-2019

 ----------------------------------------------------------------------
 #t hf aug-cc-pvdz iop(5/13=1,5/36=2,99/5=2) pseudo=read geom=check gue
 ss=(read,tcheck) scf=(maxcycle=1)
 ----------------------------------------------------------------------
 -----
 title
 -----
 Structure from the checkpoint file:  "BDE49_expt_1378_mol2.chk"
 Charge =  0 Multiplicity = 2

                         Standard orientation:
 ---------------------------------------------------------------------
 Center     Atomic      Atomic             Coordinates (Angstroms)
 Number     Number       Type             X           Y           Z
 ---------------------------------------------------------------------
      1          6           0        2.354568   -0.122102   -0.139025
      2          6           0        0.917260   -0.343319    0.337807
      3          1           0        2.736656    0.851730    0.183395
      4          1           0        2.417081   -0.156438   -1.231035
      5          1           0        3.026298   -0.889032    0.255597
      6          6           0       -0.063979    0.708932   -0.187218
      7          1           0        0.890680   -0.345278    1.434872
      8          1           0        0.566333   -1.330048    0.019694
      9          6           0       -1.516504    0.416054    0.198730
     10          1           0       -0.003035    0.758860   -1.280770
     11          1           0        0.206639    1.704020    0.188023
     12          8           0       -2.020284   -0.770333   -0.255204
     13          1           0       -2.199301    1.236180   -0.094092
     14          1           0       -1.627151    0.375285    1.304179
 ---------------------------------------------------------------------

 SCF Done:  E(UHF) =  -231.805229940     A.U. after    2 cycles

 The electronic state is 2-A.
 Alpha  occ. eigenvalues --  -20.60500 -11.28940 -11.23359 -11.22952 -11.22510
 Alpha  occ. eigenvalues --   -1.48829  -1.07401  -0.97701  -0.86563  -0.80015
 Alpha  occ. eigenvalues --   -0.70150  -0.66555  -0.62944  -0.61702  -0.57614
 Alpha  occ. eigenvalues --   -0.54460  -0.52449  -0.50707  -0.47933  -0.47184
 Alpha  occ. eigenvalues --   -0.45101
 Alpha virt. eigenvalues --    0.03636   0.03875   0.03991   0.04768   0.06244
 Alpha virt. eigenvalues --    0.06636   0.07114   0.08040   0.09493   0.11677
 Alpha virt. eigenvalues --    0.12717   0.13430   0.14850   0.16053   0.16327

  Beta  occ. eigenvalues --  -20.56538 -11.29247 -11.23353 -11.22955 -11.22510
  Beta  occ. eigenvalues --   -1.35621  -1.07009  -0.96852  -0.85495  -0.79267
  Beta  occ. eigenvalues --   -0.65520  -0.63229  -0.60785  -0.59370  -0.55190
  Beta  occ. eigenvalues --   -0.52561  -0.51271  -0.48146  -0.47747  -0.42530
  Beta virt. eigenvalues --    0.03627   0.03875   0.03985   0.04779   0.06177
  Beta virt. eigenvalues --    0.06593   0.07074   0.08034   0.08879   0.09628
  Beta virt. eigenvalues --    0.12661   0.12807   0.13465   0.15124   0.16060

 Mulliken charges and spin densities:
               1          2
     1  C   -0.380435  -0.000178
     2  C   -0.262131   0.003779
     3  H    0.165392   0.000017
     4  H    0.166369   0.000025
     5  H    0.120028  -0.000008
     6  C   -0.362646   0.003286
     7  H    0.099803   0.000425
     8  H    0.157287  -0.000654
     9  C    0.549425  -0.197638
    10  H    0.131233   0.000926
    11  H    0.153921   0.001261
    12  O   -0.841253   1.052789
    13  H    0.120825   0.049988
    14  H    0.182181   0.085984
 Sum of Mulliken charges =  -0.00000   1.00000

 Dipole moment (field-independent basis, Debye):
    X=              0.7741    Y=              1.4519    Z=              0.6132  Tot=              1.7559
                          Isotropic Fermi Contact Couplings
        Atom                 a.u.       MegaHertz       Gauss      10(-4) cm-1
     1  C(13)              0.00005       0.05770       0.02059       0.01925
     2  C(13)             -0.00111      -1.24374      -0.44380      -0.41487
     3  H(1)               0.00001       0.03384       0.01207       0.01129
     4  H(1)               0.00001       0.03861       0.01378       0.01288
     5  H(1)              -0.00001      -0.04529      -0.01616      -0.01511
     6  C(13)              0.00009       0.10300       0.03675       0.03436
     7  H(1)               0.00002       0.09236       0.03296       0.03081
     8  H(1)               0.00023       1.02043       0.36412       0.34038

 Normal termination of Gaussian 16 at Tue Apr  8 22:42:02 2025.
