 Gaussian 16, Revision C.01,

 ----------------------------------------------------------------------
 #t hf aug-cc-pvdz symm=none int=(grid=ultrafine) guess=(read,tcheck) s
 table=opt
 ----------------------------------------------------------------------
 -----
 title
 -----
 Symbolic Z-matrix:
 Charge =  0 Multiplicity = 2

 SCF Done:  E(UHF) =  -557.471831553     A.U. after   16 cycles
 Normal termination of Gaussian 16 at Tue Apr  8 23:59:04 2025.
 Gaussian 16:  ES64L-G16RevC.01  3-Jul-2019

 ----------------------------------------------------------------------
 #t hf aug-cc-pvdz iop(5/13=1,5/36=2,99/5=2) pseudo=read geom=check gue
 ss=(read,tcheck) scf=(maxcycle=1)
 ----------------------------------------------------------------------
 -----
 title
 -----
 Structure from the checkpoint file:  "BDE49_nonexpt_2071_mol2.chk"
 Charge =  0 Multiplicity = 2

                         Standard orientation:
 ---------------------------------------------------------------------
 Center     Atomic      Atomic             Coordinates (Angstroms)
 Number     Number       Type             X           Y           Z
 ---------------------------------------------------------------------
      1         14           0       -1.810595   -0.557854   -0.026151
      2          6           0       -0.049097    0.231262    0.064839
      3          8           0        0.814041   -0.889697   -0.084831
      4          8           0        0.156189    0.874345    1.321359
      5          6           0        2.218305   -0.621497   -0.115329
      6          1           0        2.528270   -0.190394   -1.073315
      7          1           0        2.712106   -1.584329    0.013480
      8          1           0        2.510346    0.048347    0.698033
      9          6           0        0.166998    1.315222   -0.989193
     10          1           0        0.127558    0.887382   -1.992852
     11          1           0        1.137259    1.799203   -0.843101
     12          1           0       -0.601467    2.084845   -0.900879
     13          1           0        0.008809    0.216901    2.011738
     14          1           0       -2.000487   -1.378655   -1.248989
     15          1           0       -2.853143    0.499541    0.047872
 ---------------------------------------------------------------------

 SCF Done:  E(UHF) =  -557.778670804     A.U. after    2 cycles

 The electronic state is 2-A.
 Alpha  occ. eigenvalues --  -69.53640 -20.55912 -20.55302 -11.33909 -11.28247
 Alpha  occ. eigenvalues --  -11.23463  -6.20829  -3.96781  -3.95864  -3.95845
 Alpha  occ. eigenvalues --   -1.49510  -1.42831  -1.02214  -0.94856  -0.81812
 Alpha  occ. eigenvalues --   -0.75600  -0.70409  -0.65555  -0.63901  -0.59844
 Alpha  occ. eigenvalues --   -0.58904  -0.56607  -0.54884  -0.52977  -0.49367
 Alpha  occ. eigenvalues --   -0.47145  -0.43890  -0.41778  -0.33676
 Alpha virt. eigenvalues --    0.03547   0.04140   0.04380   0.04626   0.05882
 Alpha virt. eigenvalues --    0.06277   0.06813   0.06871   0.08717   0.09756
 Alpha virt. eigenvalues --    0.09826   0.10572   0.12745   0.13586   0.13945

  Beta  occ. eigenvalues --  -69.53079 -20.55926 -20.55310 -11.33871 -11.28253
  Beta  occ. eigenvalues --  -11.23425  -6.19981  -3.95477  -3.95460  -3.94605
  Beta  occ. eigenvalues --   -1.49499  -1.42847  -1.01934  -0.94792  -0.81220
  Beta  occ. eigenvalues --   -0.73329  -0.70049  -0.65447  -0.62394  -0.59602
  Beta  occ. eigenvalues --   -0.58681  -0.56478  -0.54796  -0.52816  -0.48611
  Beta  occ. eigenvalues --   -0.47035  -0.43784  -0.41034
  Beta virt. eigenvalues --    0.02164   0.03675   0.04204   0.04653   0.05351
  Beta virt. eigenvalues --    0.06069   0.06661   0.06856   0.07626   0.08902
  Beta virt. eigenvalues --    0.09848   0.10118   0.10759   0.13171   0.14049

 Mulliken charges and spin densities:
               1          2
     1  Si   0.395266   1.004452
     2  C    1.550673   0.024025
     3  O   -1.391413  -0.030555
     4  O   -1.357262  -0.006938
     5  C    0.232881  -0.004857
     6  H    0.150777   0.000470
     7  H   -0.039610   0.000087
     8  H    0.165894  -0.001647
     9  C   -0.254152  -0.022252
    10  H    0.216261  -0.004340
    11  H    0.143692   0.008261
    12  H    0.123338  -0.002818
    13  H    0.278833   0.009532
    14  H   -0.101980   0.009959
    15  H   -0.113200   0.016621
 Sum of Mulliken charges =  -0.00000   1.00000

 Dipole moment (field-independent basis, Debye):
    X=              0.7871    Y=             -0.0004    Z=             -0.2712  Tot=              0.8325
                          Isotropic Fermi Contact Couplings
        Atom                 a.u.       MegaHertz       Gauss      10(-4) cm-1
     1  Si(29)             0.56760    -504.43982    -179.99667    -168.26301
     2  C(13)              0.00221       2.48354       0.88619       0.82842
     3  O(17)             -0.00513       3.11207       1.11046       1.03807
     4  O(17)              0.00009      -0.05628      -0.02008      -0.01877
     5  C(13)             -0.00113      -1.27102      -0.45353      -0.42397
     6  H(1)               0.00006       0.27410       0.09780       0.09143
     7  H(1)               0.00000       0.01389       0.00496       0.00463
     8  H(1)               0.00004       0.16306       0.05819       0.05439

 Normal termination of Gaussian 16 at Tue Apr  8 23:59:09 2025.
