 Gaussian 16, Revision C.01,

 ----------------------------------------------------------------------
 #t hf aug-cc-pvdz symm=none int=(grid=ultrafine) guess=(read,tcheck) s
 table=(opt,rrhf)
 ----------------------------------------------------------------------
 -----
 title
 -----
 Symbolic Z-matrix:
 Charge =  0 Multiplicity = 1

 SCF Done:  E(RHF) =  -1566.42399348     A.U. after   14 cycles
 Normal termination of Gaussian 16 at Tue Apr  8 23:50:23 2025.
 Gaussian 16:  ES64L-G16RevC.01  3-Jul-2019

 ----------------------------------------------------------------------
 #t hf aug-cc-pvdz iop(5/13=1,5/36=2,99/5=2) pseudo=read geom=check gue
 ss=(read,tcheck) scf=(maxcycle=1)
 ----------------------------------------------------------------------
 -----
 title
 -----
 Structure from the checkpoint file:  "BDE49_nonexpt_186_mol1.chk"
 Charge =  0 Multiplicity = 1

                         Standard orientation:
 ---------------------------------------------------------------------
 Center     Atomic      Atomic             Coordinates (Angstroms)
 Number     Number       Type             X           Y           Z
 ---------------------------------------------------------------------
      1         17           0        1.439554    1.618940   -0.026568
      2         17           0        1.718169   -1.419322   -0.006166
      3          5           0        0.761173    0.020897   -0.028375
      4         16           0       -1.125786   -0.199141    0.040964
      5          8           0       -1.536125   -1.260966   -0.829212
      6          8           0       -1.457152   -0.170186    1.448700
      7          8           0       -1.707236    1.166459   -0.624722
      8          1           0       -1.870454    1.805814    0.084811
 ---------------------------------------------------------------------

 SCF Done:  E(RHF) =  -1566.87900625     A.U. after    2 cycles

 The electronic state is 1-A.
 Alpha  occ. eigenvalues -- -105.62582-105.62182 -94.24747 -20.63637 -20.57279
 Alpha  occ. eigenvalues --  -20.56858 -10.67587 -10.67178  -8.49655  -7.84489
 Alpha  occ. eigenvalues --   -7.84182  -7.84135  -7.84083  -7.83774  -7.83720
 Alpha  occ. eigenvalues --   -7.78612  -6.47775  -6.47644  -6.47415  -1.62696
 Alpha  occ. eigenvalues --   -1.50262  -1.47595  -1.16166  -1.10914  -0.96833
 Alpha  occ. eigenvalues --   -0.81312  -0.75027  -0.70996  -0.69972  -0.64899
 Alpha  occ. eigenvalues --   -0.63860  -0.58419  -0.57169  -0.56400  -0.53492
 Alpha  occ. eigenvalues --   -0.52348  -0.51667  -0.50362  -0.49376  -0.46413
 Alpha virt. eigenvalues --    0.02028   0.03414   0.04378   0.05296   0.05712
 Alpha virt. eigenvalues --    0.07665   0.10768   0.11750   0.12296   0.13570
 Alpha virt. eigenvalues --    0.13805   0.14530   0.16087   0.17032   0.17348

 Mulliken charges:
               1
     1  Cl  -0.205172
     2  Cl  -0.205921
     3  B    0.741051
     4  S    3.293663
     5  O   -1.392844
     6  O   -1.378842
     7  O   -1.232683
     8  H    0.380748
 Sum of Mulliken charges =  -0.00000

 Dipole moment (field-independent basis, Debye):
    X=              2.3947    Y=              2.8101    Z=              0.0543  Tot=              3.6924

 Test job not archived.
 1\1\GINC-SE250\SP\RHF\Aug-CC-pVDZ\B1Cl2H1O3S1\OHZDE\08-Apr-2025\0\\#t
 hf aug-cc-pvdz iop(5/13=1,5/36=2,99/5=2) pseudo=read geom=check guess=
 (read,tcheck) scf=(maxcycle=1)\\title\\0,1\Cl,0,1.439554,1.61894,-0.02
 6568\Cl,0,1.718169,-1.419322,-0.006166\B,0,0.761173,0.020897,-0.028375
 \S,0,-1.125786,-0.199141,0.040964\O,0,-1.536125,-1.260966,-0.829212\O,
 0,-1.457152,-0.170186,1.4487\O,0,-1.707236,1.166459,-0.624722\H,0,-1.8
 70454,1.805814,0.084811\\Version=ES64L-G16RevC.01\State=1-A\HF=-1566.8
 790062\RMSD=5.692e-03\Dipole=0.942133,1.1055758,0.0213576\Quadrupole=-

 Normal termination of Gaussian 16 at Tue Apr  8 23:50:26 2025.
