 Gaussian 16, Revision C.01,

 ----------------------------------------------------------------------
 #t hf aug-cc-pvdz symm=none int=(grid=ultrafine) guess=(read,tcheck) s
 table=(opt,rrhf)
 ----------------------------------------------------------------------
 -----
 title
 -----
 Symbolic Z-matrix:
 Charge =  0 Multiplicity = 1

 SCF Done:  E(RHF) =  -1047.59190298     A.U. after   13 cycles
 Normal termination of Gaussian 16 at Tue Apr  8 22:56:50 2025.
 Gaussian 16:  ES64L-G16RevC.01  3-Jul-2019

 ----------------------------------------------------------------------
 #t hf aug-cc-pvdz iop(5/13=1,5/36=2,99/5=2) pseudo=read geom=check gue
 ss=(read,tcheck) scf=(maxcycle=1)
 ----------------------------------------------------------------------
 -----
 title
 -----
 Structure from the checkpoint file:  "BDE49_expt_1873_mol1.chk"
 Charge =  0 Multiplicity = 1

                         Standard orientation:
 ---------------------------------------------------------------------
 Center     Atomic      Atomic             Coordinates (Angstroms)
 Number     Number       Type             X           Y           Z
 ---------------------------------------------------------------------
      1          8           0        0.677422    0.241618    0.772602
      2          8           0       -0.677414   -0.241568    0.772615
      3          6           0       -1.434077    0.419859   -0.157176
      4          6           0        1.434057   -0.419784   -0.157229
      5          8           0        1.065236   -1.220944   -0.945326
      6          8           0       -1.065269    1.220990   -0.945308
      7          6           0       -2.902035   -0.060738    0.024576
      8          6           0        2.902039    0.060722    0.024569
      9          9           0        3.645541   -0.432915   -0.959490
     10          9           0        3.380414   -0.380039    1.196819
     11          9           0        2.978377    1.395819    0.004618
     12          9           0       -3.645535    0.432844   -0.959513
     13          9           0       -3.380476    0.380005    1.196806
     14          9           0       -2.978289   -1.395840    0.004636
 ---------------------------------------------------------------------

 SCF Done:  E(RHF) =  -1048.55263229     A.U. after    2 cycles

 The electronic state is 1-A.
 Alpha  occ. eigenvalues --  -26.54864 -26.54864 -26.54827 -26.54827 -26.54540
 Alpha  occ. eigenvalues --  -26.54540 -20.72991 -20.72989 -20.62297 -20.62295
 Alpha  occ. eigenvalues --  -11.57640 -11.57638 -11.47491 -11.47486  -1.76080
 Alpha  occ. eigenvalues --   -1.75978  -1.72318  -1.65791  -1.65776  -1.65723
 Alpha  occ. eigenvalues --   -1.65722  -1.58027  -1.56117  -1.43547  -1.07372
 Alpha  occ. eigenvalues --   -1.04122  -0.94100  -0.90720  -0.87222  -0.85568
 Alpha  occ. eigenvalues --   -0.85487  -0.85212  -0.84862  -0.83791  -0.76576
 Alpha  occ. eigenvalues --   -0.75438  -0.73938  -0.72783  -0.72591  -0.72026
 Alpha  occ. eigenvalues --   -0.71957  -0.68146  -0.68104  -0.67800  -0.67772
 Alpha  occ. eigenvalues --   -0.66259  -0.65986  -0.65940  -0.65676  -0.65542
 Alpha  occ. eigenvalues --   -0.62225  -0.55655  -0.55439  -0.51941  -0.51806
 Alpha virt. eigenvalues --    0.06825   0.07335   0.07722   0.07903   0.08072
 Alpha virt. eigenvalues --    0.08871   0.09041   0.10147   0.10539   0.11603
 Alpha virt. eigenvalues --    0.12707   0.12996   0.13062   0.13799   0.14198

 Mulliken charges:
               1
     1  O   -0.735835
     2  O   -0.735837
     3  C    1.281937
     4  C    1.281908
     5  O   -1.007220
     6  O   -1.007223
     7  C    2.579897
     8  C    2.579926
     9  F   -0.720028
    10  F   -0.685292
    11  F   -0.713456
    12  F   -0.720025
    13  F   -0.685288
    14  F   -0.713465
 Sum of Mulliken charges =  -0.00000

 Dipole moment (field-independent basis, Debye):
    X=             -0.0000    Y=              0.0001    Z=              1.1855  Tot=              1.1855

 Test job not archived.
 1\1\GINC-SE435\SP\RHF\Aug-CC-pVDZ\C4F6O4\OHZDE\08-Apr-2025\0\\#t hf au
 g-cc-pvdz iop(5/13=1,5/36=2,99/5=2) pseudo=read geom=check guess=(read
 ,tcheck) scf=(maxcycle=1)\\title\\0,1\O,0,-0.677422,0.241618,-0.772602
 \O,0,0.677414,-0.241568,-0.772615\C,0,1.434077,0.419859,0.157176\C,0,-
 1.434057,-0.419784,0.157229\O,0,-1.065236,-1.220944,0.945326\O,0,1.065
 269,1.22099,0.945308\C,0,2.902035,-0.060738,-0.024576\C,0,-2.902039,0.
 060722,-0.024569\F,0,-3.645541,-0.432915,0.95949\F,0,-3.380414,-0.3800
 39,-1.196819\F,0,-2.978377,1.395819,-0.004618\F,0,3.645535,0.432844,0.

 Normal termination of Gaussian 16 at Tue Apr  8 22:56:59 2025.
