 Gaussian 16, Revision C.01,

 ----------------------------------------------------------------------
 #t hf aug-cc-pvdz symm=none int=(grid=ultrafine) guess=(read,tcheck) s
 table=(opt,rrhf)
 ----------------------------------------------------------------------
 -----
 title
 -----
 Symbolic Z-matrix:
 Charge =  0 Multiplicity = 1

 SCF Done:  E(RHF) =  -521.128788827     A.U. after   13 cycles
 Normal termination of Gaussian 16 at Wed Apr  9 00:08:56 2025.
 Gaussian 16:  ES64L-G16RevC.01  3-Jul-2019

 ----------------------------------------------------------------------
 #t hf aug-cc-pvdz iop(5/13=1,5/36=2,99/5=2) pseudo=read geom=check gue
 ss=(read,tcheck) scf=(maxcycle=1)
 ----------------------------------------------------------------------
 -----
 title
 -----
 Structure from the checkpoint file:  "BDE49_nonexpt_2283_mol1.chk"
 Charge =  0 Multiplicity = 1

                         Standard orientation:
 ---------------------------------------------------------------------
 Center     Atomic      Atomic             Coordinates (Angstroms)
 Number     Number       Type             X           Y           Z
 ---------------------------------------------------------------------
      1          6           0        1.916268   -0.332665   -0.523051
      2          8           0        0.862328    0.480594   -0.804074
      3         14           0       -0.360905    1.046485    0.185256
      4          6           0       -1.555137   -0.311572    0.682110
      5          6           0        2.252525   -0.838582    0.661533
      6          6           0       -2.241103   -1.028347   -0.494958
      7          1           0       -2.306463    0.153861    1.334033
      8          1           0       -1.025225   -1.036623    1.309921
      9          1           0       -2.805276   -0.326549   -1.115970
     10          1           0       -2.939988   -1.792256   -0.143038
     11          1           0       -1.509619   -1.521677   -1.139892
     12          1           0        2.498353   -0.539199   -1.416002
     13          1           0        1.695185   -0.639682    1.569034
     14          1           0        3.127762   -1.469215    0.739708
     15          1           0       -1.036243    2.063140   -0.646911
     16          1           0        0.220249    1.679663    1.394319
 ---------------------------------------------------------------------

 SCF Done:  E(RHF) =  -521.407917286     A.U. after    2 cycles

 The electronic state is 1-A.
 Alpha  occ. eigenvalues --  -69.55509 -20.55519 -11.30977 -11.23313 -11.22624
 Alpha  occ. eigenvalues --  -11.22481  -6.22148  -3.97632  -3.97476  -3.97443
 Alpha  occ. eigenvalues --   -1.46975  -1.03260  -1.02593  -0.86493  -0.82819
 Alpha  occ. eigenvalues --   -0.70772  -0.67969  -0.63648  -0.61574  -0.60016
 Alpha  occ. eigenvalues --   -0.56245  -0.55024  -0.52834  -0.52044  -0.49726
 Alpha  occ. eigenvalues --   -0.46321  -0.43884  -0.35383
 Alpha virt. eigenvalues --    0.03552   0.03775   0.04163   0.04389   0.05819
 Alpha virt. eigenvalues --    0.06065   0.06731   0.07423   0.07531   0.08935
 Alpha virt. eigenvalues --    0.09879   0.10512   0.11827   0.12959   0.13422

 Mulliken charges:
               1
     1  C    1.143203
     2  O   -1.721623
     3  Si   1.668164
     4  C   -0.592063
     5  C   -0.033060
     6  C   -0.406661
     7  H    0.056730
     8  H    0.132156
     9  H    0.139772
    10  H    0.118074
    11  H    0.105701
    12  H   -0.094114
    13  H   -0.122554
    14  H   -0.093689
    15  H   -0.146562
    16  H   -0.153475
 Sum of Mulliken charges =   0.00000

 Dipole moment (field-independent basis, Debye):
    X=             -0.6468    Y=             -0.6007    Z=              0.5748  Tot=              1.0534

 Test job not archived.
 1\1\GINC-SE247\SP\RHF\Aug-CC-pVDZ\C4H10O1Si1\OHZDE\09-Apr-2025\0\\#t h
 f aug-cc-pvdz iop(5/13=1,5/36=2,99/5=2) pseudo=read geom=check guess=(
 read,tcheck) scf=(maxcycle=1)\\title\\0,1\C,0,1.916268,-0.332665,-0.52
 3051\O,0,0.862328,0.480594,-0.804074\Si,0,-0.360905,1.046485,0.185256\
 C,0,-1.555137,-0.311572,0.68211\C,0,2.252525,-0.838582,0.661533\C,0,-2
 .241103,-1.028347,-0.494958\H,0,-2.306463,0.153861,1.334033\H,0,-1.025
 225,-1.036623,1.309921\H,0,-2.805276,-0.326549,-1.11597\H,0,-2.939988,
 -1.792256,-0.143038\H,0,-1.509619,-1.521677,-1.139892\H,0,2.498353,-0.

 Normal termination of Gaussian 16 at Wed Apr  9 00:09:01 2025.
