 Gaussian 16, Revision C.01,

 ----------------------------------------------------------------------
 #t hf aug-cc-pvdz symm=none int=(grid=ultrafine) guess=(read,tcheck) s
 table=(opt,rrhf)
 ----------------------------------------------------------------------
 -----
 title
 -----
 Symbolic Z-matrix:
 Charge =  0 Multiplicity = 1

 SCF Done:  E(RHF) =  -834.513591245     A.U. after   12 cycles
 Normal termination of Gaussian 16 at Wed Apr  9 00:14:10 2025.
 Gaussian 16:  ES64L-G16RevC.01  3-Jul-2019

 ----------------------------------------------------------------------
 #t hf aug-cc-pvdz iop(5/13=1,5/36=2,99/5=2) pseudo=read geom=check gue
 ss=(read,tcheck) scf=(maxcycle=1)
 ----------------------------------------------------------------------
 -----
 title
 -----
 Structure from the checkpoint file:  "BDE49_nonexpt_2454_mol1.chk"
 Charge =  0 Multiplicity = 1

                         Standard orientation:
 ---------------------------------------------------------------------
 Center     Atomic      Atomic             Coordinates (Angstroms)
 Number     Number       Type             X           Y           Z
 ---------------------------------------------------------------------
      1         14           0        2.816503    0.239961   -0.000015
      2         14           0        0.881141   -1.102543    0.000031
      3          5           0       -0.795310    0.070096   -0.000023
      4          1           0        0.913531   -2.001668    1.187913
      5          1           0        0.913556   -2.001770   -1.187775
      6          1           0        2.848282    1.106019   -1.203790
      7          1           0        4.046951   -0.591359    0.000023
      8          8           0       -2.091186   -0.347288   -0.000058
      9          8           0       -0.548456    1.408239    0.000004
     10          6           0       -2.505421   -1.708305    0.000027
     11          1           0       -3.113806   -1.892398   -0.888133
     12          1           0       -3.112331   -1.892819    0.889114
     13          1           0       -1.656102   -2.397119   -0.000847
     14          6           0       -1.614852    2.366190   -0.000001
     15          1           0       -1.157671    3.355033    0.000056
     16          1           0       -2.241228    2.250317    0.887665
     17          1           0       -2.241152    2.250386   -0.887730
     18          1           0        2.848272    1.106117    1.203689
 ---------------------------------------------------------------------

 SCF Done:  E(RHF) =  -834.842522850     A.U. after    2 cycles

 The electronic state is 1-A.
 Alpha  occ. eigenvalues --  -69.51544 -69.50697 -20.55577 -20.54861 -11.29993
 Alpha  occ. eigenvalues --  -11.28744  -7.63967  -6.18706  -6.18061  -3.94062
 Alpha  occ. eigenvalues --   -3.94059  -3.94055  -3.93396  -3.93385  -3.93340
 Alpha  occ. eigenvalues --   -1.48648  -1.44546  -0.95779  -0.94444  -0.77702
 Alpha  occ. eigenvalues --   -0.73608  -0.69316  -0.68075  -0.65382  -0.63722
 Alpha  occ. eigenvalues --   -0.62442  -0.60308  -0.52163  -0.50276  -0.49886
 Alpha  occ. eigenvalues --   -0.48811  -0.47833  -0.46391  -0.44665  -0.42305
 Alpha  occ. eigenvalues --   -0.39175
 Alpha virt. eigenvalues --    0.03310   0.03839   0.04263   0.04298   0.05384
 Alpha virt. eigenvalues --    0.05910   0.06799   0.07026   0.07044   0.08340
 Alpha virt. eigenvalues --    0.08936   0.09023   0.09838   0.09900   0.10441

 Mulliken charges:
               1
     1  Si   0.272849
     2  Si  -0.091072
     3  B    1.499781
     4  H   -0.095019
     5  H   -0.094964
     6  H   -0.078311
     7  H   -0.148068
     8  O   -1.297341
     9  O   -1.389474
    10  C    0.491577
    11  H    0.102177
    12  H    0.102267
    13  H    0.102210
    14  C    0.440586
    15  H   -0.045251
    16  H    0.153165
    17  H    0.153176
    18  H   -0.078287
 Sum of Mulliken charges =  -0.00000

 Dipole moment (field-independent basis, Debye):
    X=             -2.3097    Y=             -0.4226    Z=              0.0001  Tot=              2.3481

 Test job not archived.
 1\1\GINC-SE362\SP\RHF\Aug-CC-pVDZ\C2H11B1O2Si2\OHZDE\09-Apr-2025\0\\#t
  hf aug-cc-pvdz iop(5/13=1,5/36=2,99/5=2) pseudo=read geom=check guess
 =(read,tcheck) scf=(maxcycle=1)\\title\\0,1\Si,0,2.816503,0.239961,-0.
 000015\Si,0,0.881141,-1.102543,0.000031\B,0,-0.79531,0.070096,-0.00002
 3\H,0,0.913531,-2.001668,1.187913\H,0,0.913556,-2.00177,-1.187775\H,0,
 2.848282,1.106019,-1.20379\H,0,4.046951,-0.591359,0.000023\O,0,-2.0911
 86,-0.347288,-0.000058\O,0,-0.548456,1.408239,0.000004\C,0,-2.505421,-
 1.708305,0.000027\H,0,-3.113806,-1.892398,-0.888133\H,0,-3.112331,-1.8

 Normal termination of Gaussian 16 at Wed Apr  9 00:14:16 2025.
