 Gaussian 16, Revision C.01,

 ----------------------------------------------------------------------
 #t hf aug-cc-pvdz symm=none int=(grid=ultrafine) guess=(read,tcheck) s
 table=(opt,rrhf)
 ----------------------------------------------------------------------
 -----
 title
 -----
 Symbolic Z-matrix:
 Charge =  0 Multiplicity = 1

 SCF Done:  E(RHF) =  -1346.84592599     A.U. after   15 cycles
 Normal termination of Gaussian 16 at Wed Apr  9 00:18:35 2025.
 Gaussian 16:  ES64L-G16RevC.01  3-Jul-2019

 ----------------------------------------------------------------------
 #t hf aug-cc-pvdz iop(5/13=1,5/36=2,99/5=2) pseudo=read geom=check gue
 ss=(read,tcheck) scf=(maxcycle=1)
 ----------------------------------------------------------------------
 -----
 title
 -----
 Structure from the checkpoint file:  "BDE49_nonexpt_2571_mol1.chk"
 Charge =  0 Multiplicity = 1

                         Standard orientation:
 ---------------------------------------------------------------------
 Center     Atomic      Atomic             Coordinates (Angstroms)
 Number     Number       Type             X           Y           Z
 ---------------------------------------------------------------------
      1         17           0        1.869439   -1.058335    0.000024
      2         16           0        1.332164    0.969512   -0.000032
      3          7           0       -0.306636    1.004282    0.000026
      4          6           0       -1.322274    0.352759    0.000069
      5         16           0       -2.688437   -0.416689   -0.000031
 ---------------------------------------------------------------------

 SCF Done:  E(RHF) =  -1347.12475973     A.U. after    2 cycles

 The electronic state is 1-A.
 Alpha  occ. eigenvalues -- -105.60677 -94.08839 -93.98004 -15.58743 -11.41582
 Alpha  occ. eigenvalues --  -10.65375  -8.35974  -8.26261  -7.82305  -7.81862
 Alpha  occ. eigenvalues --   -7.81818  -6.33754  -6.33513  -6.33140  -6.24140
 Alpha  occ. eigenvalues --   -6.23745  -6.23664  -1.33766  -1.15407  -1.09723
 Alpha  occ. eigenvalues --   -1.01520  -0.75635  -0.65912  -0.65591  -0.63972
 Alpha  occ. eigenvalues --   -0.53848  -0.53534  -0.50092  -0.44846  -0.42151
 Alpha  occ. eigenvalues --   -0.36512
 Alpha virt. eigenvalues --    0.00336   0.06078   0.06413   0.07211   0.08113
 Alpha virt. eigenvalues --    0.08532   0.10528   0.10606   0.12175   0.12539
 Alpha virt. eigenvalues --    0.13599   0.14588   0.15412   0.16109   0.16636

 Mulliken charges:
               1
     1  Cl  -0.217325
     2  S    0.514797
     3  N    0.203336
     4  C   -0.930455
     5  S    0.429646
 Sum of Mulliken charges =  -0.00000

 Dipole moment (field-independent basis, Debye):
    X=              0.2640    Y=              0.3175    Z=             -0.0000  Tot=              0.4129

 Test job not archived.
 1\1\GINC-SE099\SP\RHF\Aug-CC-pVDZ\C1Cl1N1S2\OHZDE\09-Apr-2025\0\\#t hf
  aug-cc-pvdz iop(5/13=1,5/36=2,99/5=2) pseudo=read geom=check guess=(r
 ead,tcheck) scf=(maxcycle=1)\\title\\0,1\Cl,0,-1.869439,1.058335,0.000
 024\S,0,-1.332164,-0.969512,-0.000032\N,0,0.306636,-1.004282,0.000026\
 C,0,1.322274,-0.352759,0.000069\S,0,2.688437,0.416689,-0.000031\\Versi
 on=ES64L-G16RevC.01\State=1-A\HF=-1347.1247597\RMSD=8.612e-03\Dipole=-
 0.1038644,-0.1249267,-0.0000018\Quadrupole=1.0530231,0.7247526,-1.7777
 757,1.2710285,-0.0000096,0.0000205\PG=C01 [X(C1Cl1N1S2)]\\@

 Normal termination of Gaussian 16 at Wed Apr  9 00:18:37 2025.
