 Gaussian 16, Revision C.01,

 ----------------------------------------------------------------------
 #t hf aug-cc-pvdz symm=none int=(grid=ultrafine) guess=(read,tcheck) s
 table=opt
 ----------------------------------------------------------------------
 -----
 title
 -----
 Symbolic Z-matrix:
 Charge =  0 Multiplicity = 2

 SCF Done:  E(UHF) =  -472.944078827     A.U. after   18 cycles
 Normal termination of Gaussian 16 at Tue Apr  8 22:46:26 2025.
 Gaussian 16:  ES64L-G16RevC.01  3-Jul-2019

 ----------------------------------------------------------------------
 #t hf aug-cc-pvdz iop(5/13=1,5/36=2,99/5=2) pseudo=read geom=check gue
 ss=(read,tcheck) scf=(maxcycle=1)
 ----------------------------------------------------------------------
 -----
 title
 -----
 Structure from the checkpoint file:  "BDE49_expt_1595_mol2.chk"
 Charge =  0 Multiplicity = 2

                         Standard orientation:
 ---------------------------------------------------------------------
 Center     Atomic      Atomic             Coordinates (Angstroms)
 Number     Number       Type             X           Y           Z
 ---------------------------------------------------------------------
      1         16           0        0.036809   -0.608062    0.000000
      2          8           0        0.036809    1.047795    0.000000
      3          1           0       -0.883419    1.346626    0.000000
 ---------------------------------------------------------------------

 SCF Done:  E(UHF) =  -473.070291019     A.U. after    2 cycles

 The electronic state is 2-A".
 Alpha  occ. eigenvalues --  -94.02333 -20.61931  -8.29821  -6.28866  -6.27275
 Alpha  occ. eigenvalues --   -6.26834  -1.50537  -0.98247  -0.70807  -0.61953
 Alpha  occ. eigenvalues --   -0.58793  -0.42858  -0.39539
 Alpha virt. eigenvalues --    0.03512   0.07166   0.10799   0.11536   0.15831
 Alpha virt. eigenvalues --    0.18016   0.21336   0.22125   0.22552   0.28153
 Alpha virt. eigenvalues --    0.32211   0.36854   0.38539   0.43015   0.44843

  Beta  occ. eigenvalues --  -94.01473 -20.61190  -8.28835  -6.26899  -6.26320
  Beta  occ. eigenvalues --   -6.24956  -1.48517  -0.90472  -0.69207  -0.56887
  Beta  occ. eigenvalues --   -0.53765  -0.37505
  Beta virt. eigenvalues --    0.00995   0.03561   0.07733   0.11659   0.13359
  Beta virt. eigenvalues --    0.16287   0.18498   0.21676   0.23008   0.23058
  Beta virt. eigenvalues --    0.29172   0.34361   0.37798   0.39019   0.45828

 Mulliken charges and spin densities:
               1          2
     1  S    0.573013   0.932558
     2  O   -0.997475   0.079878
     3  H    0.424462  -0.012436
 Sum of Mulliken charges =  -0.00000   1.00000

 Dipole moment (field-independent basis, Debye):
    X=             -1.5185    Y=              0.3979    Z=              0.0000  Tot=              1.5698
                          Isotropic Fermi Contact Couplings
        Atom                 a.u.       MegaHertz       Gauss      10(-4) cm-1
     1  S(33)              0.20584      70.70195      25.22821      23.58363
     2  O(17)              0.06715     -40.70900     -14.52598     -13.57906
     3  H(1)              -0.00352     -15.72233      -5.61012      -5.24441
 --------------------------------------------------------
       Center         ----  Spin Dipole Couplings  ----
                      3XX-RR        3YY-RR        3ZZ-RR
 --------------------------------------------------------
     1   Atom       -1.867944     -2.099435      3.967379

 Normal termination of Gaussian 16 at Tue Apr  8 22:46:28 2025.
