 Gaussian 16, Revision C.01,

 ----------------------------------------------------------------------
 #t hf aug-cc-pvdz symm=none int=(grid=ultrafine) guess=(read,tcheck) s
 table=opt
 ----------------------------------------------------------------------
 -----
 title
 -----
 Symbolic Z-matrix:
 Charge =  0 Multiplicity = 2

 SCF Done:  E(UHF) =  -809.720020817     A.U. after   16 cycles
 Normal termination of Gaussian 16 at Tue Apr  8 22:43:08 2025.
 Gaussian 16:  ES64L-G16RevC.01  3-Jul-2019

 ----------------------------------------------------------------------
 #t hf aug-cc-pvdz iop(5/13=1,5/36=2,99/5=2) pseudo=read geom=check gue
 ss=(read,tcheck) scf=(maxcycle=1)
 ----------------------------------------------------------------------
 -----
 title
 -----
 Structure from the checkpoint file:  "BDE49_expt_143_mol2.chk"
 Charge =  0 Multiplicity = 2

                         Standard orientation:
 ---------------------------------------------------------------------
 Center     Atomic      Atomic             Coordinates (Angstroms)
 Number     Number       Type             X           Y           Z
 ---------------------------------------------------------------------
      1          6           0        1.177707    0.197340   -0.103003
      2          6           0       -0.192495   -0.490576    0.125715
      3          9           0        1.275204    1.311132    0.629775
      4          9           0        1.316085    0.518160   -1.396491
      5          9           0        2.162525   -0.633681    0.242691
      6          6           0       -1.370718    0.328041   -0.358124
      7          9           0       -0.301173   -0.762269    1.458899
      8          9           0       -0.193185   -1.665592   -0.542813
      9          9           0       -1.480780    1.533104    0.182021
     10          9           0       -2.521672   -0.324058   -0.350473
 ---------------------------------------------------------------------

 SCF Done:  E(UHF) =  -810.452542851     A.U. after    2 cycles

 The electronic state is 2-A.
 Alpha  occ. eigenvalues --  -26.54617 -26.54615 -26.54473 -26.54402 -26.54294
 Alpha  occ. eigenvalues --  -26.53917 -26.53572 -11.56773 -11.50368 -11.48449
 Alpha  occ. eigenvalues --   -1.75831  -1.72558  -1.70111  -1.65752  -1.65415
 Alpha  occ. eigenvalues --   -1.65322  -1.63700  -1.12835  -1.01993  -0.93351
 Alpha  occ. eigenvalues --   -0.88418  -0.86542  -0.85849  -0.83230  -0.82834
 Alpha  occ. eigenvalues --   -0.80847  -0.78264  -0.73752  -0.72764  -0.71984
 Alpha  occ. eigenvalues --   -0.71204  -0.70817  -0.69779  -0.67684  -0.67292
 Alpha  occ. eigenvalues --   -0.66377  -0.65705  -0.65303  -0.64529  -0.57811
 Alpha  occ. eigenvalues --   -0.46850
 Alpha virt. eigenvalues --    0.06812   0.07573   0.07992   0.08720   0.10877
 Alpha virt. eigenvalues --    0.11124   0.11493   0.12756   0.13720   0.15221
 Alpha virt. eigenvalues --    0.20019   0.20832   0.21555   0.22732   0.25226

  Beta  occ. eigenvalues --  -26.54601 -26.54398 -26.54303 -26.54178 -26.54031
  Beta  occ. eigenvalues --  -26.53939 -26.53346 -11.56784 -11.50359 -11.45560
  Beta  occ. eigenvalues --   -1.75798  -1.71250  -1.69585  -1.65643  -1.65393
  Beta  occ. eigenvalues --   -1.64328  -1.63343  -1.11180  -0.99708  -0.92229
  Beta  occ. eigenvalues --   -0.87251  -0.86296  -0.85617  -0.82816  -0.81028
  Beta  occ. eigenvalues --   -0.78908  -0.73831  -0.73255  -0.72466  -0.71920
  Beta  occ. eigenvalues --   -0.70849  -0.69495  -0.67905  -0.67200  -0.66987
  Beta  occ. eigenvalues --   -0.66163  -0.65574  -0.65154  -0.63616  -0.56981
  Beta virt. eigenvalues --    0.05102   0.07566   0.07975   0.08114   0.09549
  Beta virt. eigenvalues --    0.11052   0.11201   0.11579   0.12798   0.14080
  Beta virt. eigenvalues --    0.15325   0.20249   0.21484   0.21991   0.23526

 Mulliken charges and spin densities:
               1          2
     1  C    2.286406  -0.007993
     2  C    1.426994  -0.104890
     3  F   -0.707433   0.000308
     4  F   -0.710924  -0.000662
     5  F   -0.706377  -0.000907
     6  C    1.349662   1.035803
     7  F   -0.784871   0.023465
     8  F   -0.802774  -0.005972
     9  F   -0.669178   0.030902
    10  F   -0.681505   0.029946
 Sum of Mulliken charges =  -0.00000   1.00000

 Dipole moment (field-independent basis, Debye):
    X=             -0.1462    Y=              0.2685    Z=             -0.4442  Tot=              0.5392
                          Isotropic Fermi Contact Couplings
        Atom                 a.u.       MegaHertz       Gauss      10(-4) cm-1
     1  C(13)             -0.00268      -3.00794      -1.07331      -1.00334
     2  C(13)              0.01897      21.32912       7.61076       7.11463
     3  F(19)              0.00042       1.75944       0.62781       0.58688
     4  F(19)              0.00311      13.10149       4.67494       4.37019
     5  F(19)             -0.00130      -5.45403      -1.94613      -1.81927
     6  C(13)              0.44849     504.19298     179.90859     168.18067
     7  F(19)              0.03106     130.69687      46.63589      43.59578
     8  F(19)             -0.00384     -16.15436      -5.76428      -5.38851

 Normal termination of Gaussian 16 at Tue Apr  8 22:43:16 2025.
