 Gaussian 16, Revision C.01,

 ----------------------------------------------------------------------
 #t hf aug-cc-pvdz symm=none int=(grid=ultrafine) guess=(read,tcheck) s
 table=(opt,rrhf)
 ----------------------------------------------------------------------
 -----
 title
 -----
 Symbolic Z-matrix:
 Charge =  0 Multiplicity = 1

 SCF Done:  E(RHF) =  -1030.29438401     A.U. after   15 cycles
 Normal termination of Gaussian 16 at Tue Apr  8 23:21:06 2025.
 Gaussian 16:  ES64L-G16RevC.01  3-Jul-2019

 ----------------------------------------------------------------------
 #t hf aug-cc-pvdz iop(5/13=1,5/36=2,99/5=2) pseudo=read geom=check gue
 ss=(read,tcheck) scf=(maxcycle=1)
 ----------------------------------------------------------------------
 -----
 title
 -----
 Structure from the checkpoint file:  "BDE49_nonexpt_114_mol1.chk"
 Charge =  0 Multiplicity = 1

                         Standard orientation:
 ---------------------------------------------------------------------
 Center     Atomic      Atomic             Coordinates (Angstroms)
 Number     Number       Type             X           Y           Z
 ---------------------------------------------------------------------
      1          5           0       -0.653143    1.563366    0.538431
      2          5           0        0.653143    1.563366   -0.538433
      3          7           0        1.768859    0.728435   -0.337661
      4          6           0        2.693107    0.002600   -0.127188
      5         16           0        3.915890   -0.951498    0.143746
      6          7           0       -1.768858    0.728433    0.337661
      7          6           0       -2.693106    0.002598    0.127187
      8         16           0       -3.915893   -0.951495   -0.143747
      9          1           0        0.680251    2.292501   -1.487465
     10          1           0       -0.680223    2.292455    1.487500
 ---------------------------------------------------------------------

 SCF Done:  E(RHF) =  -1030.63269260     A.U. after    2 cycles

 The electronic state is 1-A.
 Alpha  occ. eigenvalues --  -93.96606 -93.96606 -15.55616 -15.55613 -11.40639
 Alpha  occ. eigenvalues --  -11.40638  -8.24880  -8.24880  -7.64970  -7.64952
 Alpha  occ. eigenvalues --   -6.22770  -6.22770  -6.22354  -6.22354  -6.22302
 Alpha  occ. eigenvalues --   -6.22302  -1.30486  -1.30315  -1.09175  -1.09120
 Alpha  occ. eigenvalues --   -0.94109  -0.91076  -0.66750  -0.64859  -0.64688
 Alpha  occ. eigenvalues --   -0.63004  -0.62753  -0.61973  -0.61896  -0.56748
 Alpha  occ. eigenvalues --   -0.48588  -0.40767  -0.40715  -0.39701  -0.37333
 Alpha virt. eigenvalues --    0.01585   0.01728   0.03778   0.04008   0.04853
 Alpha virt. eigenvalues --    0.04969   0.06387   0.06785   0.06897   0.07074
 Alpha virt. eigenvalues --    0.07897   0.08870   0.10128   0.10735   0.10810

 Mulliken charges:
               1
     1  B   -0.135690
     2  B   -0.135680
     3  N    0.624514
     4  C   -0.991689
     5  S    0.375742
     6  N    0.624521
     7  C   -0.991689
     8  S    0.375741
     9  H    0.127117
    10  H    0.127115
 Sum of Mulliken charges =   0.00000

 Dipole moment (field-independent basis, Debye):
    X=             -0.0000    Y=              1.3980    Z=             -0.0000  Tot=              1.3980

 Test job not archived.
 1\1\GINC-SE109\SP\RHF\Aug-CC-pVDZ\C2H2B2N2S2\OHZDE\08-Apr-2025\0\\#t h
 f aug-cc-pvdz iop(5/13=1,5/36=2,99/5=2) pseudo=read geom=check guess=(
 read,tcheck) scf=(maxcycle=1)\\title\\0,1\B,0,0.653143,1.563366,-0.538
 431\B,0,-0.653143,1.563366,0.538433\N,0,-1.768859,0.728435,0.337661\C,
 0,-2.693107,0.0026,0.127188\S,0,-3.91589,-0.951498,-0.143746\N,0,1.768
 858,0.728433,-0.337661\C,0,2.693106,0.002598,-0.127187\S,0,3.915893,-0
 .951495,0.143747\H,0,-0.680251,2.292501,1.487465\H,0,0.680223,2.292455
 ,-1.4875\\Version=ES64L-G16RevC.01\State=1-A\HF=-1030.6326926\RMSD=1.7

 Normal termination of Gaussian 16 at Tue Apr  8 23:21:11 2025.
