 Gaussian 16, Revision C.01,

 ----------------------------------------------------------------------
 #t hf aug-cc-pvdz symm=none int=(grid=ultrafine) guess=(read,tcheck) s
 table=(opt,rrhf)
 ----------------------------------------------------------------------
 -----
 title
 -----
 Symbolic Z-matrix:
 Charge =  0 Multiplicity = 1

 SCF Done:  E(RHF) =  -102.134349610     A.U. after   12 cycles
 Normal termination of Gaussian 16 at Tue Apr  8 23:33:03 2025.
 Gaussian 16:  ES64L-G16RevC.01  3-Jul-2019

 ----------------------------------------------------------------------
 #t hf aug-cc-pvdz iop(5/13=1,5/36=2,99/5=2) pseudo=read geom=check gue
 ss=(read,tcheck) scf=(maxcycle=1)
 ----------------------------------------------------------------------
 -----
 title
 -----
 Structure from the checkpoint file:  "BDE49_nonexpt_143_mol1.chk"
 Charge =  0 Multiplicity = 1

                         Standard orientation:
 ---------------------------------------------------------------------
 Center     Atomic      Atomic             Coordinates (Angstroms)
 Number     Number       Type             X           Y           Z
 ---------------------------------------------------------------------
      1          5           0       -0.534492   -0.614268   -0.474794
      2          5           0        0.534492    0.614268   -0.474794
      3          5           0        0.534492    1.974741    0.420708
      4          1           0       -0.011741    2.974106    0.058513
      5          1           0        1.100116    2.022763    1.473470
      6          5           0       -0.534492   -1.974741    0.420708
      7          1           0        0.011741   -2.974106    0.058513
      8          1           0       -1.100116   -2.022763    1.473470
      9          1           0        1.438394    0.488788   -1.261552
     10          1           0       -1.438394   -0.488788   -1.261552
 ---------------------------------------------------------------------

 SCF Done:  E(RHF) =  -102.242675315     A.U. after    2 cycles

 The electronic state is 1-A.
 Alpha  occ. eigenvalues --   -7.58603  -7.58573  -7.56491  -7.56464  -0.79558
 Alpha  occ. eigenvalues --   -0.73449  -0.65550  -0.58533  -0.50008  -0.49830
 Alpha  occ. eigenvalues --   -0.46302  -0.44914  -0.41758
 Alpha virt. eigenvalues --    0.02616   0.03261   0.03366   0.03973   0.04775
 Alpha virt. eigenvalues --    0.05318   0.05709   0.06293   0.06652   0.07197
 Alpha virt. eigenvalues --    0.08891   0.09090   0.09931   0.10389   0.10732

 Mulliken charges:
               1
     1  B   -0.153791
     2  B   -0.153791
     3  B   -0.712814
     4  H    0.317099
     5  H    0.330011
     6  B   -0.712814
     7  H    0.317099
     8  H    0.330011
     9  H    0.219495
    10  H    0.219495
 Sum of Mulliken charges =  -0.00000

 Dipole moment (field-independent basis, Debye):
    X=              0.0000    Y=              0.0000    Z=             -0.1675  Tot=              0.1675

 Test job not archived.
 1\1\GINC-SE099\SP\RHF\Aug-CC-pVDZ\B4H6\OHZDE\08-Apr-2025\0\\#t hf aug-
 cc-pvdz iop(5/13=1,5/36=2,99/5=2) pseudo=read geom=check guess=(read,t
 check) scf=(maxcycle=1)\\title\\0,1\B,0,-0.534492,-0.614268,-0.474794\
 B,0,0.534492,0.614268,-0.474794\B,0,0.534492,1.974741,0.420708\H,0,-0.
 011741,2.974106,0.058513\H,0,1.100116,2.022763,1.47347\B,0,-0.534492,-
 1.974741,0.420708\H,0,0.011741,-2.974106,0.058513\H,0,-1.100116,-2.022
 763,1.47347\H,0,1.438394,0.488788,-1.261552\H,0,-1.438394,-0.488788,-1
 .261552\\Version=ES64L-G16RevC.01\State=1-A\HF=-102.2426753\RMSD=2.929

 Normal termination of Gaussian 16 at Tue Apr  8 23:33:06 2025.
