 Gaussian 16, Revision C.01,

 ----------------------------------------------------------------------
 #t hf aug-cc-pvdz symm=none int=(grid=ultrafine) guess=(read,tcheck) s
 table=opt
 ----------------------------------------------------------------------
 -----
 title
 -----
 Symbolic Z-matrix:
 Charge =  0 Multiplicity = 2

 SCF Done:  E(UHF) =  -195.728556545     A.U. after   16 cycles
 Normal termination of Gaussian 16 at Tue Apr  8 22:43:58 2025.
 Gaussian 16:  ES64L-G16RevC.01  3-Jul-2019

 ----------------------------------------------------------------------
 #t hf aug-cc-pvdz iop(5/13=1,5/36=2,99/5=2) pseudo=read geom=check gue
 ss=(read,tcheck) scf=(maxcycle=1)
 ----------------------------------------------------------------------
 -----
 title
 -----
 Structure from the checkpoint file:  "BDE49_expt_1485_mol2.chk"
 Charge =  0 Multiplicity = 2

                         Standard orientation:
 ---------------------------------------------------------------------
 Center     Atomic      Atomic             Coordinates (Angstroms)
 Number     Number       Type             X           Y           Z
 ---------------------------------------------------------------------
      1          6           0        0.899938   -0.000000    0.698455
      2          6           0        1.912413   -0.000000   -0.472619
      3          6           0       -0.536130    0.000000    0.265849
      4          1           0        1.785284    0.883824   -1.103803
      5          1           0        1.785284   -0.883824   -1.103803
      6          1           0        2.940730   -0.000000   -0.098931
      7          6           0       -1.183027    1.285614   -0.143037
      8          1           0       -1.025963    1.512969   -1.212077
      9          1           0       -0.787617    2.136467    0.420474
     10          1           0       -2.268489    1.254807    0.004045
     11          6           0       -1.183027   -1.285614   -0.143037
     12          1           0       -1.025964   -1.512969   -1.212077
     13          1           0       -2.268489   -1.254806    0.004045
     14          1           0       -0.787618   -2.136467    0.420474
     15          1           0        1.095918    0.879551    1.323992
     16          1           0        1.095918   -0.879551    1.323991
 ---------------------------------------------------------------------

 SCF Done:  E(UHF) =  -195.948219630     A.U. after    2 cycles

 The electronic state is 2-A.
 Alpha  occ. eigenvalues --  -11.22831 -11.22481 -11.22383 -11.22146 -11.22135
 Alpha  occ. eigenvalues --   -1.09798  -0.99496  -0.93592  -0.86406  -0.73950
 Alpha  occ. eigenvalues --   -0.62801  -0.62770  -0.60335  -0.55908  -0.55504
 Alpha  occ. eigenvalues --   -0.53746  -0.51750  -0.50627  -0.47635  -0.47518
 Alpha  occ. eigenvalues --   -0.31269
 Alpha virt. eigenvalues --    0.03880   0.03922   0.04107   0.04181   0.06348
 Alpha virt. eigenvalues --    0.06385   0.06722   0.06902   0.08697   0.09866
 Alpha virt. eigenvalues --    0.10371   0.11744   0.14060   0.14396   0.15376

  Beta  occ. eigenvalues --  -11.22808 -11.22476 -11.22467 -11.22137 -11.20275
  Beta  occ. eigenvalues --   -1.06463  -0.98627  -0.93587  -0.85598  -0.70220
  Beta  occ. eigenvalues --   -0.62365  -0.60991  -0.56991  -0.55268  -0.54989
  Beta  occ. eigenvalues --   -0.52914  -0.50695  -0.50317  -0.47252  -0.46746
  Beta virt. eigenvalues --    0.03837   0.03944   0.04121   0.04190   0.06283
  Beta virt. eigenvalues --    0.06397   0.06729   0.06866   0.08720   0.09866
  Beta virt. eigenvalues --    0.10384   0.10935   0.13759   0.14098   0.14722

 Mulliken charges and spin densities:
               1          2
     1  C   -0.414522  -0.263145
     2  C   -0.349729   0.069752
     3  C    0.074111   1.616502
     4  H    0.144526  -0.006666
     5  H    0.144526  -0.006666
     6  H    0.120722   0.000703
     7  C   -0.477303  -0.272579
     8  H    0.219815   0.046327
     9  H    0.149875   0.004527
    10  H    0.141752   0.012143
    11  C   -0.477302  -0.272579
    12  H    0.219814   0.046327
    13  H    0.141752   0.012143
    14  H    0.149874   0.004527
    15  H    0.106046   0.004341
    16  H    0.106044   0.004341
 Sum of Mulliken charges =  -0.00000   1.00000

 Dipole moment (field-independent basis, Debye):
    X=              0.0736    Y=             -0.0000    Z=             -0.1086  Tot=              0.1312
                          Isotropic Fermi Contact Couplings
        Atom                 a.u.       MegaHertz       Gauss      10(-4) cm-1
     1  C(13)             -0.05967     -67.07962     -23.93568     -22.37535
     2  C(13)              0.05767      64.82919      23.13267      21.62469
     3  C(13)              0.25203     283.33241     101.10005      94.50952
     4  H(1)              -0.00138      -6.15909      -2.19772      -2.05445
     5  H(1)              -0.00138      -6.15909      -2.19772      -2.05445
     6  H(1)               0.00079       3.51565       1.25447       1.17269
     7  C(13)             -0.05970     -67.11350     -23.94777     -22.38665
     8  H(1)               0.02381     106.44246      37.98132      35.50538

 Normal termination of Gaussian 16 at Tue Apr  8 22:44:02 2025.
