 Gaussian 16, Revision C.01,

 ----------------------------------------------------------------------
 #t hf aug-cc-pvdz symm=none int=(grid=ultrafine) guess=(read,tcheck) s
 table=opt
 ----------------------------------------------------------------------
 -----
 title
 -----
 Symbolic Z-matrix:
 Charge =  0 Multiplicity = 2

 SCF Done:  E(UHF) =  -411.061869966     A.U. after   16 cycles
 Normal termination of Gaussian 16 at Tue Apr  8 22:54:35 2025.
 Gaussian 16:  ES64L-G16RevC.01  3-Jul-2019

 ----------------------------------------------------------------------
 #t hf aug-cc-pvdz iop(5/13=1,5/36=2,99/5=2) pseudo=read geom=check gue
 ss=(read,tcheck) scf=(maxcycle=1)
 ----------------------------------------------------------------------
 -----
 title
 -----
 Structure from the checkpoint file:  "BDE49_expt_1845_mol2.chk"
 Charge =  0 Multiplicity = 2

                         Standard orientation:
 ---------------------------------------------------------------------
 Center     Atomic      Atomic             Coordinates (Angstroms)
 Number     Number       Type             X           Y           Z
 ---------------------------------------------------------------------
      1          8           0        0.745813   -0.000018    1.172235
      2          6           0        0.005322   -0.000013    0.042181
      3          9           0        0.891279   -0.001014   -0.964436
      4          9           0       -0.778087    1.079356   -0.053254
      5          9           0       -0.779686   -1.078318   -0.052417
 ---------------------------------------------------------------------

 SCF Done:  E(UHF) =  -411.433228961     A.U. after    2 cycles

 The electronic state is 2-A.
 Alpha  occ. eigenvalues --  -26.54437 -26.53685 -26.53681 -20.70241 -11.59781
 Alpha  occ. eigenvalues --   -1.76733  -1.65662  -1.64747  -1.57688  -0.97366
 Alpha  occ. eigenvalues --   -0.87414  -0.85902  -0.83926  -0.74863  -0.72289
 Alpha  occ. eigenvalues --   -0.68539  -0.67108  -0.65976  -0.65843  -0.65137
 Alpha  occ. eigenvalues --   -0.60543
 Alpha virt. eigenvalues --    0.08301   0.08901   0.09040   0.09108   0.19461
 Alpha virt. eigenvalues --    0.21225   0.21737   0.23464   0.23783   0.29244
 Alpha virt. eigenvalues --    0.31123   0.31284   0.34106   0.34382   0.34565

  Beta  occ. eigenvalues --  -26.54149 -26.53656 -26.53652 -20.66242 -11.60029
  Beta  occ. eigenvalues --   -1.75785  -1.65055  -1.64673  -1.44321  -0.96195
  Beta  occ. eigenvalues --   -0.85650  -0.84718  -0.81563  -0.71817  -0.71597
  Beta  occ. eigenvalues --   -0.66924  -0.66854  -0.64991  -0.63636  -0.56395
  Beta virt. eigenvalues --    0.01586   0.08485   0.09050   0.09138   0.09863
  Beta virt. eigenvalues --    0.19550   0.21777   0.22618   0.23743   0.23799
  Beta virt. eigenvalues --    0.29296   0.31399   0.32315   0.34418   0.34635

 Mulliken charges and spin densities:
               1          2
     1  O   -0.743669   1.060658
     2  C    2.670814  -0.114594
     3  F   -0.643925   0.038491
     4  F   -0.641611   0.007730
     5  F   -0.641609   0.007716
 Sum of Mulliken charges =  -0.00000   1.00000

 Dipole moment (field-independent basis, Debye):
    X=              0.0304    Y=             -0.0000    Z=              0.1651  Tot=              0.1679
                          Isotropic Fermi Contact Couplings
        Atom                 a.u.       MegaHertz       Gauss      10(-4) cm-1
     1  O(17)              0.24422    -148.04222     -52.82515     -49.38157
     2  C(13)             -0.04197     -47.17904     -16.83465     -15.73723
     3  F(19)              0.03390     142.61935      50.89013      47.57269
     4  F(19)             -0.00108      -4.54255      -1.62090      -1.51523
     5  F(19)             -0.00109      -4.59872      -1.64094      -1.53397
 --------------------------------------------------------
       Center         ----  Spin Dipole Couplings  ----
                      3XX-RR        3YY-RR        3ZZ-RR

 Normal termination of Gaussian 16 at Tue Apr  8 22:54:37 2025.
