 Gaussian 16, Revision C.01,

 ----------------------------------------------------------------------
 #t hf aug-cc-pvdz symm=none int=(grid=ultrafine) guess=(read,tcheck) s
 table=(opt,rrhf)
 ----------------------------------------------------------------------
 -----
 title
 -----
 Symbolic Z-matrix:
 Charge =  0 Multiplicity = 1

 SCF Done:  E(RHF) =  -499.983329513     A.U. after   15 cycles
 Normal termination of Gaussian 16 at Wed Apr  9 00:40:56 2025.
 Gaussian 16:  ES64L-G16RevC.01  3-Jul-2019

 ----------------------------------------------------------------------
 #t hf aug-cc-pvdz iop(5/13=1,5/36=2,99/5=2) pseudo=read geom=check gue
 ss=(read,tcheck) scf=(maxcycle=1)
 ----------------------------------------------------------------------
 -----
 title
 -----
 Structure from the checkpoint file:  "BDE49_nonexpt_613_mol1.chk"
 Charge =  0 Multiplicity = 1

                         Standard orientation:
 ---------------------------------------------------------------------
 Center     Atomic      Atomic             Coordinates (Angstroms)
 Number     Number       Type             X           Y           Z
 ---------------------------------------------------------------------
      1          6           0       -2.118761   -1.303759   -0.720437
      2          6           0       -0.939992   -0.609266   -0.973780
      3          6           0       -3.058538   -0.791485    0.174161
      4          6           0       -2.808504    0.418146    0.815958
      5          6           0       -1.626022    1.112261    0.560347
      6          6           0       -0.681332    0.611364   -0.340301
      7          1           0       -0.201331   -1.013617   -1.656313
      8          5           0        2.363887   -0.209185    0.247172
      9          8           0        1.732821   -0.502329    1.435854
     10          8           0        3.623762   -0.718092    0.032866
     11          1           0       -2.304766   -2.248297   -1.219703
     12          1           0       -3.528833    0.820509    1.519551
     13          1           0       -3.974671   -1.335716    0.373713
     14          1           0       -1.434727    2.054147    1.065855
     15          6           0        0.583621    1.402632   -0.647827
     16          1           0        3.891485   -1.287272    0.759540
     17          1           0        0.806805   -0.244030    1.461119
     18          7           0        1.784560    0.590597   -0.776672
     19          1           0        0.699789    2.178056    0.122075
     20          1           0        0.433577    1.938049   -1.591174
     21          1           0        2.345825    0.773917   -1.592307
 ---------------------------------------------------------------------

 SCF Done:  E(RHF) =  -500.494680170     A.U. after    2 cycles

 The electronic state is 1-A.
 Alpha  occ. eigenvalues --  -20.54235 -20.53724 -15.47998 -11.28002 -11.25390
 Alpha  occ. eigenvalues --  -11.25053 -11.24951 -11.24880 -11.24746 -11.24458
 Alpha  occ. eigenvalues --   -7.63383  -1.46438  -1.42343  -1.19713  -1.15532
 Alpha  occ. eigenvalues --   -1.03939  -1.02227  -0.92938  -0.84282  -0.81902
 Alpha  occ. eigenvalues --   -0.76246  -0.73118  -0.71893  -0.70957  -0.66323
 Alpha  occ. eigenvalues --   -0.64784  -0.61531  -0.60860  -0.59921  -0.57817
 Alpha  occ. eigenvalues --   -0.56114  -0.54565  -0.53956  -0.51488  -0.50874
 Alpha  occ. eigenvalues --   -0.50319  -0.48028  -0.42352  -0.35299  -0.34566
 Alpha virt. eigenvalues --    0.03261   0.03379   0.03507   0.04359   0.04860
 Alpha virt. eigenvalues --    0.05272   0.06080   0.06766   0.07034   0.07607
 Alpha virt. eigenvalues --    0.08030   0.09367   0.09794   0.10129   0.10655

 Mulliken charges:
               1
     1  C   -0.237953
     2  C    0.257321
     3  C    0.224115
     4  C    0.018555
     5  C    0.358917
     6  C    1.343481
     7  H   -0.358021
     8  B    1.539261
     9  O   -1.553576
    10  O   -1.363488
    11  H   -0.247698
    12  H   -0.236918
    13  H   -0.215360
    14  H   -0.301205
    15  C   -1.483939
    16  H    0.530576
    17  H    0.764375
    18  N    0.840229
    19  H   -0.012395
    20  H    0.054680
    21  H    0.079045
 Sum of Mulliken charges =  -0.00000

 Dipole moment (field-independent basis, Debye):
    X=             -1.8118    Y=              0.7491    Z=             -0.2965  Tot=              1.9828

 Test job not archived.
 1\1\GINC-SE073\SP\RHF\Aug-CC-pVDZ\C7H10B1N1O2\OHZDE\09-Apr-2025\0\\#t
 hf aug-cc-pvdz iop(5/13=1,5/36=2,99/5=2) pseudo=read geom=check guess=
 (read,tcheck) scf=(maxcycle=1)\\title\\0,1\C,0,-2.118761,-1.303759,-0.
 720437\C,0,-0.939992,-0.609266,-0.97378\C,0,-3.058538,-0.791485,0.1741
 61\C,0,-2.808504,0.418146,0.815958\C,0,-1.626022,1.112261,0.560347\C,0
 ,-0.681332,0.611364,-0.340301\H,0,-0.201331,-1.013617,-1.656313\B,0,2.
 363887,-0.209185,0.247172\O,0,1.732821,-0.502329,1.435854\O,0,3.623762
 ,-0.718092,0.032866\H,0,-2.304766,-2.248297,-1.219703\H,0,-3.528833,0.

 Normal termination of Gaussian 16 at Wed Apr  9 00:41:10 2025.
