 Gaussian 16, Revision C.01,

 ----------------------------------------------------------------------
 #t hf aug-cc-pvdz symm=none int=(grid=ultrafine) guess=(read,tcheck) s
 table=(opt,rrhf)
 ----------------------------------------------------------------------
 -----
 title
 -----
 Symbolic Z-matrix:
 Charge =  0 Multiplicity = 1

 SCF Done:  E(RHF) =  -594.123847800     A.U. after   12 cycles
 Normal termination of Gaussian 16 at Wed Apr  9 00:08:18 2025.
 Gaussian 16:  ES64L-G16RevC.01  3-Jul-2019

 ----------------------------------------------------------------------
 #t hf aug-cc-pvdz iop(5/13=1,5/36=2,99/5=2) pseudo=read geom=check gue
 ss=(read,tcheck) scf=(maxcycle=1)
 ----------------------------------------------------------------------
 -----
 title
 -----
 Structure from the checkpoint file:  "BDE49_nonexpt_2278_mol1.chk"
 Charge =  0 Multiplicity = 1

                         Standard orientation:
 ---------------------------------------------------------------------
 Center     Atomic      Atomic             Coordinates (Angstroms)
 Number     Number       Type             X           Y           Z
 ---------------------------------------------------------------------
      1         14           0        0.435164    0.034528   -0.006402
      2          8           0        1.538801    1.251374   -0.020337
      3          8           0        0.637475   -0.978863    1.285334
      4          1           0        2.441728    1.028929   -0.260530
      5          6           0       -1.229973    0.861205   -0.025335
      6          6           0       -2.418726   -0.116521   -0.018362
      7          1           0       -1.269741    1.502546   -0.912969
      8          1           0       -1.288692    1.542944    0.831866
      9          1           0       -2.389065   -0.774690   -0.890697
     10          1           0       -3.375079    0.413399   -0.035129
     11          1           0       -2.406880   -0.752641    0.871013
     12          8           0        0.658015   -0.951252   -1.302751
     13          1           0        0.769001   -1.886080   -1.115003
     14          1           0        0.644302   -0.595981    2.165277
 ---------------------------------------------------------------------

 SCF Done:  E(RHF) =  -594.470166820     A.U. after    2 cycles

 The electronic state is 1-A.
 Alpha  occ. eigenvalues --  -69.58564 -20.54755 -20.54381 -20.54207 -11.22813
 Alpha  occ. eigenvalues --  -11.21574  -6.24687  -4.00198  -4.00176  -3.99958
 Alpha  occ. eigenvalues --   -1.45847  -1.42441  -1.41956  -1.02339  -0.85475
 Alpha  occ. eigenvalues --   -0.76552  -0.71083  -0.69784  -0.61183  -0.60697
 Alpha  occ. eigenvalues --   -0.58247  -0.55656  -0.54034  -0.52665  -0.51793
 Alpha  occ. eigenvalues --   -0.50223  -0.49714  -0.48223  -0.43851
 Alpha virt. eigenvalues --    0.03179   0.04309   0.04469   0.04704   0.06518
 Alpha virt. eigenvalues --    0.06913   0.07195   0.07480   0.09111   0.09757
 Alpha virt. eigenvalues --    0.10273   0.12887   0.14265   0.15778   0.16659

 Mulliken charges:
               1
     1  Si   3.914990
     2  O   -1.523073
     3  O   -1.512483
     4  H    0.422148
     5  C   -0.582069
     6  C   -0.410488
     7  H    0.062900
     8  H    0.049715
     9  H    0.131864
    10  H    0.109188
    11  H    0.119424
    12  O   -1.537267
    13  H    0.389501
    14  H    0.365649
 Sum of Mulliken charges =  -0.00000

 Dipole moment (field-independent basis, Debye):
    X=              0.2459    Y=             -0.4637    Z=              1.2624  Tot=              1.3671

 Test job not archived.
 1\1\GINC-SE250\SP\RHF\Aug-CC-pVDZ\C2H8O3Si1\OHZDE\09-Apr-2025\0\\#t hf
  aug-cc-pvdz iop(5/13=1,5/36=2,99/5=2) pseudo=read geom=check guess=(r
 ead,tcheck) scf=(maxcycle=1)\\title\\0,1\Si,0,0.435164,0.034528,-0.006
 402\O,0,1.538801,1.251374,-0.020337\O,0,0.637475,-0.978863,1.285334\H,
 0,2.441728,1.028929,-0.26053\C,0,-1.229973,0.861205,-0.025335\C,0,-2.4
 18726,-0.11652,-0.018362\H,0,-1.269741,1.502546,-0.912969\H,0,-1.28869
 2,1.542944,0.831866\H,0,-2.389065,-0.774689,-0.890697\H,0,-3.375079,0.
 4134,-0.035129\H,0,-2.40688,-0.75264,0.871013\O,0,0.658015,-0.951252,-

 Normal termination of Gaussian 16 at Wed Apr  9 00:08:23 2025.
