 Gaussian 16, Revision C.01,

 ----------------------------------------------------------------------
 #t hf aug-cc-pvdz symm=none int=(grid=ultrafine) guess=(read,tcheck) s
 table=opt
 ----------------------------------------------------------------------
 -----
 title
 -----
 Symbolic Z-matrix:
 Charge =  0 Multiplicity = 2

 SCF Done:  E(UHF) =  -375.228767655     A.U. after   15 cycles
 Normal termination of Gaussian 16 at Tue Apr  8 22:38:26 2025.
 Gaussian 16:  ES64L-G16RevC.01  3-Jul-2019

 ----------------------------------------------------------------------
 #t hf aug-cc-pvdz iop(5/13=1,5/36=2,99/5=2) pseudo=read geom=check gue
 ss=(read,tcheck) scf=(maxcycle=1)
 ----------------------------------------------------------------------
 -----
 title
 -----
 Structure from the checkpoint file:  "BDE49_expt_123_mol2.chk"
 Charge =  0 Multiplicity = 2

                         Standard orientation:
 ---------------------------------------------------------------------
 Center     Atomic      Atomic             Coordinates (Angstroms)
 Number     Number       Type             X           Y           Z
 ---------------------------------------------------------------------
      1          6           0       -0.018237    0.000000   -0.009086
      2          9           0        0.466866   -0.000021    1.261471
      3          6           0       -1.494948    0.000002   -0.037186
      4          9           0        0.495257   -1.090939   -0.618638
      5          9           0        0.495260    1.090959   -0.618602
      6          1           0       -2.018672   -0.941836    0.029774
      7          1           0       -2.018671    0.941840    0.029774
 ---------------------------------------------------------------------

 SCF Done:  E(UHF) =  -375.576112618     A.U. after    2 cycles

 The electronic state is 2-A.
 Alpha  occ. eigenvalues --  -26.50503 -26.50499 -26.50151 -11.52390 -11.29657
 Alpha  occ. eigenvalues --   -1.70968  -1.61163  -1.60768  -1.08427  -0.91171
 Alpha  occ. eigenvalues --   -0.80999  -0.80901  -0.77650  -0.69364  -0.68666
 Alpha  occ. eigenvalues --   -0.64572  -0.63283  -0.61837  -0.61775  -0.58814
 Alpha  occ. eigenvalues --   -0.44493
 Alpha virt. eigenvalues --    0.03431   0.04775   0.08184   0.10006   0.11497
 Alpha virt. eigenvalues --    0.11497   0.12231   0.15967   0.17326   0.21396
 Alpha virt. eigenvalues --    0.22445   0.23638   0.27294   0.28380   0.28825

  Beta  occ. eigenvalues --  -26.50446 -26.50442 -26.49911 -11.52662 -11.27161
  Beta  occ. eigenvalues --   -1.70727  -1.61017  -1.60244  -1.02949  -0.88959
  Beta  occ. eigenvalues --   -0.80837  -0.79928  -0.75719  -0.68853  -0.67834
  Beta  occ. eigenvalues --   -0.64023  -0.62985  -0.61555  -0.60968  -0.57418
  Beta virt. eigenvalues --    0.03573   0.04575   0.04807   0.08202   0.11502
  Beta virt. eigenvalues --    0.11541   0.11767   0.14685   0.16517   0.17517
  Beta virt. eigenvalues --    0.21654   0.23150   0.23779   0.27901   0.28561

 Mulliken charges and spin densities:
               1          2
     1  C    2.420855  -0.125882
     2  F   -0.691163   0.003795
     3  C   -0.402384   1.302588
     4  F   -0.717848   0.004031
     5  F   -0.717851   0.004031
     6  H    0.054196  -0.094281
     7  H    0.054196  -0.094282
 Sum of Mulliken charges =  -0.00000   1.00000

 Dipole moment (field-independent basis, Debye):
    X=             -2.3725    Y=              0.0000    Z=              0.0260  Tot=              2.3726
                          Isotropic Fermi Contact Couplings
        Atom                 a.u.       MegaHertz       Gauss      10(-4) cm-1
     1  C(13)             -0.05695     -64.02498     -22.84570     -21.35643
     2  F(19)              0.04267     179.53154      64.06132      59.88528
     3  C(13)              0.20735     233.09561      83.17431      77.75233
     4  F(19)              0.00760      31.98232      11.41209      10.66815
     5  F(19)              0.00760      31.97754      11.41038      10.66656
     6  H(1)              -0.02451    -109.57598     -39.09943     -36.55061
     7  H(1)              -0.02451    -109.57619     -39.09951     -36.55068
 --------------------------------------------------------

 Normal termination of Gaussian 16 at Tue Apr  8 22:38:28 2025.
