 Gaussian 16, Revision C.01,

 ----------------------------------------------------------------------
 #t hf aug-cc-pvdz symm=none int=(grid=ultrafine) guess=(read,tcheck) s
 table=(opt,rrhf)
 ----------------------------------------------------------------------
 -----
 title
 -----
 Symbolic Z-matrix:
 Charge =  0 Multiplicity = 1

 SCF Done:  E(RHF) =  -903.230161099     A.U. after   12 cycles
 Normal termination of Gaussian 16 at Wed Apr  9 00:02:32 2025.
 Gaussian 16:  ES64L-G16RevC.01  3-Jul-2019

 ----------------------------------------------------------------------
 #t hf aug-cc-pvdz iop(5/13=1,5/36=2,99/5=2) pseudo=read geom=check gue
 ss=(read,tcheck) scf=(maxcycle=1)
 ----------------------------------------------------------------------
 -----
 title
 -----
 Structure from the checkpoint file:  "BDE49_nonexpt_2162_mol1.chk"
 Charge =  0 Multiplicity = 1

                         Standard orientation:
 ---------------------------------------------------------------------
 Center     Atomic      Atomic             Coordinates (Angstroms)
 Number     Number       Type             X           Y           Z
 ---------------------------------------------------------------------
      1          6           0        2.401118   -0.308423   -0.066500
      2          8           0        1.281582    0.548385   -0.280599
      3         14           0       -0.199845    0.421174    0.394809
      4          6           0       -1.254677    1.794639   -0.261289
      5          1           0       -1.326802    1.737006   -1.349742
      6          1           0       -0.821410    2.762230    0.007086
      7          1           0        2.213610   -1.302450   -0.482542
      8          1           0        2.630434   -0.404129    1.000517
      9         17           0       -1.053948   -1.426786   -0.114285
     10          1           0       -2.263083    1.737427    0.156105
     11          1           0        3.258634    0.134799   -0.573583
     12          1           0       -0.107745    0.389671    1.869196
 ---------------------------------------------------------------------

 SCF Done:  E(RHF) =  -903.504084759     A.U. after    2 cycles

 The electronic state is 1-A.
 Alpha  occ. eigenvalues -- -105.54763 -69.59404 -20.54894 -11.29802 -11.22883
 Alpha  occ. eigenvalues --  -10.59773  -7.76650  -7.76371  -7.76361  -6.25705
 Alpha  occ. eigenvalues --   -4.01178  -4.01050  -4.00936  -1.45254  -1.04479
 Alpha  occ. eigenvalues --   -0.97146  -0.93839  -0.72861  -0.64615  -0.63424
 Alpha  occ. eigenvalues --   -0.62652  -0.58371  -0.56668  -0.52374  -0.51396
 Alpha  occ. eigenvalues --   -0.48591  -0.46398  -0.45461  -0.44047
 Alpha virt. eigenvalues --    0.03603   0.04094   0.04744   0.04955   0.06371
 Alpha virt. eigenvalues --    0.06977   0.07573   0.08689   0.09632   0.09926
 Alpha virt. eigenvalues --    0.11902   0.14315   0.14852   0.15368   0.15777

 Mulliken charges:
               1
     1  C    0.351662
     2  O   -1.612762
     3  Si   2.350556
     4  C   -0.648042
     5  H    0.121221
     6  H    0.070015
     7  H    0.120404
     8  H    0.122475
     9  Cl  -0.637043
    10  H    0.011495
    11  H    0.000841
    12  H   -0.250823
 Sum of Mulliken charges =  -0.00000

 Dipole moment (field-independent basis, Debye):
    X=              1.0744    Y=              1.2916    Z=              0.5721  Tot=              1.7748

 Test job not archived.
 1\1\GINC-SE402\SP\RHF\Aug-CC-pVDZ\C2H7Cl1O1Si1\OHZDE\09-Apr-2025\0\\#t
  hf aug-cc-pvdz iop(5/13=1,5/36=2,99/5=2) pseudo=read geom=check guess
 =(read,tcheck) scf=(maxcycle=1)\\title\\0,1\C,0,2.401118,-0.308423,-0.
 0665\O,0,1.281582,0.548385,-0.280599\Si,0,-0.199845,0.421174,0.394809\
 C,0,-1.254677,1.794639,-0.261289\H,0,-1.326802,1.737006,-1.349742\H,0,
 -0.82141,2.76223,0.007086\H,0,2.21361,-1.30245,-0.482542\H,0,2.630434,
 -0.404129,1.000517\Cl,0,-1.053948,-1.426786,-0.114285\H,0,-2.263083,1.
 737427,0.156105\H,0,3.258634,0.134799,-0.573583\H,0,-0.107745,0.389671

 Normal termination of Gaussian 16 at Wed Apr  9 00:02:36 2025.
