 Gaussian 16, Revision C.01,

 ----------------------------------------------------------------------
 #t hf aug-cc-pvdz symm=none int=(grid=ultrafine) guess=(read,tcheck) s
 table=(opt,rrhf)
 ----------------------------------------------------------------------
 -----
 title
 -----
 Symbolic Z-matrix:
 Charge =  0 Multiplicity = 1

 SCF Done:  E(RHF) =  -629.222317465     A.U. after   15 cycles
 Normal termination of Gaussian 16 at Tue Apr  8 23:15:05 2025.
 Gaussian 16:  ES64L-G16RevC.01  3-Jul-2019

 ----------------------------------------------------------------------
 #t hf aug-cc-pvdz iop(5/13=1,5/36=2,99/5=2) pseudo=read geom=check gue
 ss=(read,tcheck) scf=(maxcycle=1)
 ----------------------------------------------------------------------
 -----
 title
 -----
 Structure from the checkpoint file:  "BDE49_expt_482_mol1.chk"
 Charge =  0 Multiplicity = 1

                         Standard orientation:
 ---------------------------------------------------------------------
 Center     Atomic      Atomic             Coordinates (Angstroms)
 Number     Number       Type             X           Y           Z
 ---------------------------------------------------------------------
      1          6           0       -2.001421   -1.070371   -0.722458
      2          6           0       -0.691862   -0.620282   -0.745236
      3          6           0       -3.014749   -0.300302   -0.139249
      4          6           0       -2.687493    0.932289    0.426747
      5          6           0       -1.361980    1.367670    0.425892
      6          6           0       -0.345278    0.608568   -0.158173
      7          7           0        0.964589    1.118608   -0.202472
      8          1           0       -2.270533   -2.017754   -1.173874
      9          1           0        0.068247   -1.214817   -1.235705
     10          1           0       -3.443339    1.556463    0.884110
     11          1           0       -1.116186    2.316027    0.892740
     12          6           0        2.171481    0.437216   -0.043469
     13          1           0        1.038012    2.122811   -0.232035
     14          6           0        3.364499    1.096123   -0.390579
     15          6           0        2.255271   -0.865596    0.473881
     16          6           0        3.494132   -1.482129    0.621964
     17          6           0        4.672610   -0.825131    0.276153
     18          6           0        4.594670    0.473903   -0.224885
     19          1           0        1.356403   -1.385071    0.778093
     20          1           0        3.533956   -2.488041    1.025984
     21          1           0        3.315383    2.101182   -0.798491
     22          1           0        5.632303   -1.313123    0.396457
     23          1           0        5.498958    1.006628   -0.498511
     24          8           0       -4.271753   -0.835799   -0.180227
     25          6           0       -5.335338   -0.096406    0.398109
     26          1           0       -5.176954    0.067091    1.470520
     27          1           0       -6.230471   -0.700044    0.256358
     28          1           0       -5.471132    0.871468   -0.098710
 ---------------------------------------------------------------------

 SCF Done:  E(RHF) =  -629.867428356     A.U. after    2 cycles

 The electronic state is 1-A.
 Alpha  occ. eigenvalues --  -20.56957 -15.51818 -11.30102 -11.29522 -11.28872
 Alpha  occ. eigenvalues --  -11.28090 -11.24487 -11.24340 -11.24301 -11.24299
 Alpha  occ. eigenvalues --  -11.24223 -11.23943 -11.23290 -11.22994 -11.22722
 Alpha  occ. eigenvalues --   -1.49291  -1.25652  -1.15167  -1.13076  -1.03312
 Alpha  occ. eigenvalues --   -1.02394  -1.01228  -0.98790  -0.94087  -0.86113
 Alpha  occ. eigenvalues --   -0.84909  -0.83335  -0.80399  -0.74198  -0.73722
 Alpha  occ. eigenvalues --   -0.71505  -0.68254  -0.67101  -0.65525  -0.63893
 Alpha  occ. eigenvalues --   -0.62488  -0.61609  -0.60469  -0.59658  -0.59342
 Alpha  occ. eigenvalues --   -0.57251  -0.56346  -0.53066  -0.52890  -0.51956
 Alpha  occ. eigenvalues --   -0.50014  -0.49198  -0.48676  -0.44870  -0.35410
 Alpha  occ. eigenvalues --   -0.34546  -0.33434  -0.28288
 Alpha virt. eigenvalues --    0.02997   0.03352   0.03776   0.03954   0.04044
 Alpha virt. eigenvalues --    0.04808   0.05326   0.05861   0.06088   0.07229
 Alpha virt. eigenvalues --    0.07493   0.08745   0.09048   0.09783   0.10288

 Mulliken charges:
               1
     1  C    0.321492
     2  C    1.288661
     3  C    1.772499
     4  C    0.184652
     5  C    0.459592
     6  C   -2.143448
     7  N    1.405785
     8  H   -0.310556
     9  H   -0.336526
    10  H   -0.431291
    11  H   -0.356311
    12  C   -1.169065
    13  H    0.072290
    14  C    0.523110
    15  C    0.631392
    16  C    0.286243
    17  C    0.050794
    18  C    0.558804
    19  H   -0.292182
    20  H   -0.238951
    21  H   -0.347589
    22  H   -0.227871
    23  H   -0.234549
    24  O   -1.900202
    25  C    0.125307
    26  H    0.172435
    27  H   -0.043208
    28  H    0.178692
 Sum of Mulliken charges =   0.00000

 Dipole moment (field-independent basis, Debye):
    X=             -1.2287    Y=              1.4925    Z=              0.6029  Tot=              2.0250

 Test job not archived.
 1\1\GINC-SE341\SP\RHF\Aug-CC-pVDZ\C13H13N1O1\OHZDE\08-Apr-2025\0\\#t h
 f aug-cc-pvdz iop(5/13=1,5/36=2,99/5=2) pseudo=read geom=check guess=(
 read,tcheck) scf=(maxcycle=1)\\title\\0,1\C,0,2.001421,-1.070371,0.722
 458\C,0,0.691862,-0.620282,0.745236\C,0,3.014749,-0.300302,0.139249\C,
 0,2.687493,0.932289,-0.426747\C,0,1.36198,1.36767,-0.425892\C,0,0.3452
 78,0.608568,0.158173\N,0,-0.964589,1.118608,0.202472\H,0,2.270533,-2.0
 17754,1.173874\H,0,-0.068247,-1.214817,1.235705\H,0,3.443339,1.556463,
 -0.88411\H,0,1.116186,2.316027,-0.89274\C,0,-2.171481,0.437216,0.04346

 Normal termination of Gaussian 16 at Tue Apr  8 23:15:34 2025.
