 Gaussian 16, Revision C.01,

 ----------------------------------------------------------------------
 #t hf aug-cc-pvdz symm=none int=(grid=ultrafine) guess=(read,tcheck) s
 table=(opt,rrhf)
 ----------------------------------------------------------------------
 -----
 title
 -----
 Symbolic Z-matrix:
 Charge =  0 Multiplicity = 1

 SCF Done:  E(RHF) =  -865.271224575     A.U. after   12 cycles
 Normal termination of Gaussian 16 at Wed Apr  9 00:32:24 2025.
 Gaussian 16:  ES64L-G16RevC.01  3-Jul-2019

 ----------------------------------------------------------------------
 #t hf aug-cc-pvdz iop(5/13=1,5/36=2,99/5=2) pseudo=read geom=check gue
 ss=(read,tcheck) scf=(maxcycle=1)
 ----------------------------------------------------------------------
 -----
 title
 -----
 Structure from the checkpoint file:  "BDE49_nonexpt_380_mol1.chk"
 Charge =  0 Multiplicity = 1

                         Standard orientation:
 ---------------------------------------------------------------------
 Center     Atomic      Atomic             Coordinates (Angstroms)
 Number     Number       Type             X           Y           Z
 ---------------------------------------------------------------------
      1          9           0       -1.855866    1.197611    0.083044
      2          9           0       -2.732502   -0.898627   -0.035238
      3          5           0       -1.677118   -0.109836    0.010449
      4         15           0        1.006803    0.011779    0.098738
      5          8           0        1.298810    0.662145    1.371741
      6          8           0        1.959486   -1.195564   -0.302451
      7          1           0        2.326889   -1.638939    0.471429
      8          8           0        1.016944    0.913350   -1.209398
      9          1           0        1.572009    1.695777   -1.108857
     10          8           0       -0.440245   -0.676831   -0.025659
 ---------------------------------------------------------------------

 SCF Done:  E(RHF) =  -865.811419273     A.U. after    2 cycles

 The electronic state is 1-A.
 Alpha  occ. eigenvalues --  -84.48861 -26.49848 -26.49524 -20.61806 -20.61544
 Alpha  occ. eigenvalues --  -20.61339 -20.52915  -7.77784  -6.93641  -4.47852
 Alpha  occ. eigenvalues --   -4.47152  -4.47073  -1.65472  -1.61341  -1.58900
 Alpha  occ. eigenvalues --   -1.51108  -1.50329  -1.41489  -0.92334  -0.82626
 Alpha  occ. eigenvalues --   -0.79196  -0.78362  -0.75434  -0.72572  -0.70080
 Alpha  occ. eigenvalues --   -0.67514  -0.65606  -0.65223  -0.64267  -0.61909
 Alpha  occ. eigenvalues --   -0.60007  -0.58500  -0.56216  -0.55144  -0.48440
 Alpha  occ. eigenvalues --   -0.48247
 Alpha virt. eigenvalues --    0.03107   0.04147   0.05486   0.05903   0.06517
 Alpha virt. eigenvalues --    0.08707   0.09944   0.10360   0.12558   0.14793
 Alpha virt. eigenvalues --    0.17668   0.18172   0.18688   0.19905   0.21488

 Mulliken charges:
               1
     1  F   -0.486030
     2  F   -0.636317
     3  B    1.660645
     4  P    4.222590
     5  O   -1.310640
     6  O   -1.233844
     7  H    0.335446
     8  O   -1.220505
     9  H    0.354987
    10  O   -1.686332
 Sum of Mulliken charges =  -0.00000

 Dipole moment (field-independent basis, Debye):
    X=              1.6178    Y=             -0.5351    Z=             -1.1957  Tot=              2.0817

 Test job not archived.
 1\1\GINC-SE070\SP\RHF\Aug-CC-pVDZ\B1F2H2O4P1\OHZDE\09-Apr-2025\0\\#t h
 f aug-cc-pvdz iop(5/13=1,5/36=2,99/5=2) pseudo=read geom=check guess=(
 read,tcheck) scf=(maxcycle=1)\\title\\0,1\F,0,-1.855866,1.197611,0.083
 044\F,0,-2.732502,-0.898627,-0.035238\B,0,-1.677118,-0.109836,0.010449
 \P,0,1.006803,0.011779,0.098738\O,0,1.29881,0.662145,1.371741\O,0,1.95
 9486,-1.195564,-0.302451\H,0,2.326889,-1.638939,0.471429\O,0,1.016944,
 0.91335,-1.209398\H,0,1.572009,1.695777,-1.108857\O,0,-0.440245,-0.676
 831,-0.025659\\Version=ES64L-G16RevC.01\State=1-A\HF=-865.8114193\RMSD

 Normal termination of Gaussian 16 at Wed Apr  9 00:32:29 2025.
