 Gaussian 16, Revision C.01,

 ----------------------------------------------------------------------
 #t hf aug-cc-pvdz symm=none int=(grid=ultrafine) guess=(read,tcheck) s
 table=(opt,rrhf)
 ----------------------------------------------------------------------
 -----
 title
 -----
 Symbolic Z-matrix:
 Charge =  0 Multiplicity = 1

 SCF Done:  E(RHF) =  -78.0436580278     A.U. after    9 cycles
 Normal termination of Gaussian 16 at Tue Apr  8 23:02:38 2025.
 Gaussian 16:  ES64L-G16RevC.01  3-Jul-2019

 ----------------------------------------------------------------------
 #t hf aug-cc-pvdz iop(5/13=1,5/36=2,99/5=2) pseudo=read geom=check gue
 ss=(read,tcheck) scf=(maxcycle=1)
 ----------------------------------------------------------------------
 -----
 title
 -----
 Structure from the checkpoint file:  "BDE49_expt_33_mol1.chk"
 Charge =  0 Multiplicity = 1

                         Standard orientation:
 ---------------------------------------------------------------------
 Center     Atomic      Atomic             Coordinates (Angstroms)
 Number     Number       Type             X           Y           Z
 ---------------------------------------------------------------------
      1          6           0       -0.000000   -0.000000    0.663482
      2          6           0        0.000000   -0.000000   -0.663482
      3          1           0        0.000000    0.922494    1.234676
      4          1           0       -0.000000   -0.922494    1.234676
      5          1           0        0.000000    0.922494   -1.234676
      6          1           0       -0.000000   -0.922494   -1.234676
 ---------------------------------------------------------------------

 SCF Done:  E(RHF) =  -78.1304706239     A.U. after    2 cycles

 The electronic state is 1-AG.
 Alpha  occ. eigenvalues --  -11.24182 -11.24041  -1.03789  -0.79529  -0.65099
 Alpha  occ. eigenvalues --   -0.60284  -0.51193  -0.38576
 Alpha virt. eigenvalues --    0.04141   0.04655   0.04776   0.06933   0.10047
 Alpha virt. eigenvalues --    0.12022   0.12777   0.14721   0.17505   0.17737
 Alpha virt. eigenvalues --    0.20546   0.20595   0.22254   0.24952   0.29077

 Mulliken charges:
               1
     1  C    0.088646
     2  C    0.088646
     3  H   -0.044323
     4  H   -0.044323
     5  H   -0.044323
     6  H   -0.044323
 Sum of Mulliken charges =  -0.00000

 Dipole moment (field-independent basis, Debye):
    X=              0.0000    Y=              0.0000    Z=              0.0000  Tot=              0.0000

 Test job not archived.
 1\1\GINC-SE461\SP\RHF\Aug-CC-pVDZ\C2H4\OHZDE\08-Apr-2025\0\\#t hf aug-
 cc-pvdz iop(5/13=1,5/36=2,99/5=2) pseudo=read geom=check guess=(read,t
 check) scf=(maxcycle=1)\\title\\0,1\C,0,0.,0.663482,0.\C,0,0.,-0.66348
 2,0.\H,0,0.922494,1.234676,0.\H,0,-0.922494,1.234676,0.\H,0,0.922494,-
 1.234676,0.\H,0,-0.922494,-1.234676,0.\\Version=ES64L-G16RevC.01\State
 =1-AG\HF=-78.1304706\RMSD=1.228e-02\Dipole=0.,0.,0.\Quadrupole=0.86004
 67,1.0909502,-1.950997,0.,0.,0.\PG=D02H [C2"(C1.C1),SG(H4)]\\@

 Normal termination of Gaussian 16 at Tue Apr  8 23:02:40 2025.
