 Gaussian 16, Revision C.01,

 ----------------------------------------------------------------------
 #t hf aug-cc-pvdz symm=none int=(grid=ultrafine) guess=(read,tcheck) s
 table=(opt,rrhf)
 ----------------------------------------------------------------------
 -----
 title
 -----
 Symbolic Z-matrix:
 Charge =  0 Multiplicity = 1

 SCF Done:  E(RHF) =  -650.120008260     A.U. after   15 cycles

 1\1\GINC-SE084\Stability\RHF\Aug-CC-pVDZ\C8H11P1\OHZDE\08-Apr-2025\0\\
 #t hf aug-cc-pvdz symm=none int=(grid=ultrafine) guess=(read,tcheck) s
 table=(opt,rrhf)\\title\\0,1\C,0,-0.644635,-1.616123,0.000014\C,0,0.72
 7623,-1.395548,0.00002\C,0,1.228472,-0.089955,0.000025\C,0,-1.558998,-
 0.557691,0.000009\C,0,-1.068298,0.760826,0.00001\C,0,0.314473,0.968299
 ,0.000023\H,0,-1.019252,-2.635011,0.00002\H,0,1.40601,-2.241364,0.0000
 25\P,0,3.029503,0.327817,-0.000003\C,0,-3.041899,-0.835644,-0.000031\H
 ,0,-3.240223,-1.908694,0.000399\H,0,-3.532257,-0.404552,-0.879192\H,0,

 Normal termination of Gaussian 16 at Tue Apr  8 23:34:36 2025.
 Gaussian 16:  ES64L-G16RevC.01  3-Jul-2019

 ----------------------------------------------------------------------
 #t hf aug-cc-pvdz iop(5/13=1,5/36=2,99/5=2) pseudo=read geom=check gue
 ss=(read,tcheck) scf=(maxcycle=1)
 ----------------------------------------------------------------------
 -----
 title
 -----
 Structure from the checkpoint file:  "BDE49_nonexpt_1433_mol1.chk"
 Charge =  0 Multiplicity = 1

                         Standard orientation:
 ---------------------------------------------------------------------
 Center     Atomic      Atomic             Coordinates (Angstroms)
 Number     Number       Type             X           Y           Z
 ---------------------------------------------------------------------
      1          6           0        0.644635   -1.616123   -0.000014
      2          6           0       -0.727623   -1.395548   -0.000020
      3          6           0       -1.228472   -0.089955   -0.000025
      4          6           0        1.558998   -0.557691   -0.000009
      5          6           0        1.068298    0.760826   -0.000010
      6          6           0       -0.314473    0.968299   -0.000023
      7          1           0        1.019252   -2.635011   -0.000020
      8          1           0       -1.406010   -2.241364   -0.000025
      9         15           0       -3.029503    0.327817    0.000003
     10          6           0        3.041899   -0.835644    0.000031
     11          1           0        3.240223   -1.908694   -0.000399
     12          1           0        3.532257   -0.404552    0.879192
     13          1           0        3.532469   -0.403794   -0.878632
     14          6           0        2.009384    1.940963   -0.000003
     15          1           0        2.662426    1.935870    0.879054
     16          1           0        1.457345    2.882193    0.000251
     17          1           0        2.662077    1.936150   -0.879326
     18          1           0       -0.688296    1.987694   -0.000028
     19          1           0       -3.442475   -0.558102    1.030267
     20          1           0       -3.442599   -0.558411   -1.029945
 ---------------------------------------------------------------------

 SCF Done:  E(RHF) =  -650.489946856     A.U. after    2 cycles

 The electronic state is 1-A.
 Alpha  occ. eigenvalues --  -84.27039 -11.24971 -11.24653 -11.24517 -11.24310
 Alpha  occ. eigenvalues --  -11.24165 -11.23975 -11.23815 -11.23672  -6.74087
 Alpha  occ. eigenvalues --   -4.26929  -4.26332  -4.26162  -1.16268  -1.06014
 Alpha  occ. eigenvalues --   -1.03916  -0.95915  -0.93159  -0.85624  -0.82499
 Alpha  occ. eigenvalues --   -0.77529  -0.67352  -0.66752  -0.62283  -0.60242
 Alpha  occ. eigenvalues --   -0.58322  -0.56159  -0.55403  -0.55218  -0.54247
 Alpha  occ. eigenvalues --   -0.52345  -0.49508  -0.47560  -0.46388  -0.34543
 Alpha  occ. eigenvalues --   -0.34253  -0.32981
 Alpha virt. eigenvalues --    0.03387   0.03461   0.03792   0.04841   0.05013
 Alpha virt. eigenvalues --    0.05460   0.06887   0.07220   0.07292   0.07817
 Alpha virt. eigenvalues --    0.08939   0.09532   0.10167   0.10586   0.10990

 Mulliken charges:
               1
     1  C    0.653428
     2  C    0.187291
     3  C    0.111400
     4  C    0.288144
     5  C    0.507736
     6  C   -0.967503
     7  H   -0.319077
     8  H   -0.256607
     9  P   -0.599436
    10  C   -0.633832
    11  H   -0.033601
    12  H    0.307530
    13  H    0.307504
    14  C   -0.733098
    15  H    0.322053
    16  H   -0.025132
    17  H    0.322068
    18  H   -0.234646
    19  H    0.397910
    20  H    0.397868
 Sum of Mulliken charges =  -0.00000

 Dipole moment (field-independent basis, Debye):
    X=              1.6133    Y=             -0.3948    Z=              0.0001  Tot=              1.6609

 Test job not archived.
 1\1\GINC-SE084\SP\RHF\Aug-CC-pVDZ\C8H11P1\OHZDE\08-Apr-2025\0\\#t hf a
 ug-cc-pvdz iop(5/13=1,5/36=2,99/5=2) pseudo=read geom=check guess=(rea
 d,tcheck) scf=(maxcycle=1)\\title\\0,1\C,0,-0.644635,-1.616123,0.00001
 4\C,0,0.727623,-1.395548,0.00002\C,0,1.228472,-0.089955,0.000025\C,0,-
 1.558998,-0.557691,0.000009\C,0,-1.068298,0.760826,0.00001\C,0,0.31447
 3,0.968299,0.000023\H,0,-1.019252,-2.635011,0.00002\H,0,1.40601,-2.241
 364,0.000025\P,0,3.029503,0.327817,-0.000003\C,0,-3.041899,-0.835644,-
 0.000031\H,0,-3.240223,-1.908694,0.000399\H,0,-3.532257,-0.404552,-0.8

 Normal termination of Gaussian 16 at Tue Apr  8 23:34:50 2025.
