 Gaussian 16, Revision C.01,

 ----------------------------------------------------------------------
 #t hf aug-cc-pvdz symm=none int=(grid=ultrafine) guess=(read,tcheck) s
 table=(opt,rrhf)
 ----------------------------------------------------------------------
 -----
 title
 -----
 Symbolic Z-matrix:
 Charge =  0 Multiplicity = 1

 SCF Done:  E(RHF) =  -522.681398621     A.U. after   14 cycles
 Normal termination of Gaussian 16 at Wed Apr  9 00:43:24 2025.
 Gaussian 16:  ES64L-G16RevC.01  3-Jul-2019

 ----------------------------------------------------------------------
 #t hf aug-cc-pvdz iop(5/13=1,5/36=2,99/5=2) pseudo=read geom=check gue
 ss=(read,tcheck) scf=(maxcycle=1)
 ----------------------------------------------------------------------
 -----
 title
 -----
 Structure from the checkpoint file:  "BDE49_nonexpt_717_mol1.chk"
 Charge =  0 Multiplicity = 1

                         Standard orientation:
 ---------------------------------------------------------------------
 Center     Atomic      Atomic             Coordinates (Angstroms)
 Number     Number       Type             X           Y           Z
 ---------------------------------------------------------------------
      1          5           0       -2.735596    0.654251   -0.268083
      2          6           0        0.271518   -0.018670   -0.403189
      3          6           0        1.482146   -0.975850   -0.193556
      4          6           0        1.087944    1.099925    0.308673
      5          6           0        2.373720    0.275532    0.031852
      6          1           0        0.860020    1.145075    1.376371
      7          1           0        1.015049    2.106195   -0.107826
      8          1           0        2.866011    0.591528   -0.890682
      9          1           0        3.118808    0.224005    0.827400
     10          1           0        1.733022   -1.649916   -1.014144
     11          1           0        1.378877   -1.564022    0.722233
     12         15           0       -1.403195   -0.532460    0.183491
     13          1           0        0.155236    0.213708   -1.465830
     14          1           0       -3.704645    0.721663    0.418195
     15          1           0       -2.700380    1.194971   -1.328090
     16          1           0       -1.288048   -0.553187    1.587745
 ---------------------------------------------------------------------

 SCF Done:  E(RHF) =  -522.926105872     A.U. after    2 cycles

 The electronic state is 1-A.
 Alpha  occ. eigenvalues --  -84.25015 -11.25235 -11.23860 -11.23803 -11.23541
 Alpha  occ. eigenvalues --   -7.60030  -6.72602  -4.25415  -4.25256  -4.24341
 Alpha  occ. eigenvalues --   -1.13985  -0.93794  -0.90685  -0.83417  -0.75851
 Alpha  occ. eigenvalues --   -0.68300  -0.66533  -0.62148  -0.55499  -0.53068
 Alpha  occ. eigenvalues --   -0.51936  -0.51465  -0.47432  -0.46101  -0.45814
 Alpha  occ. eigenvalues --   -0.41528  -0.30976
 Alpha virt. eigenvalues --    0.03461   0.03585   0.03867   0.04461   0.04834
 Alpha virt. eigenvalues --    0.05417   0.05889   0.06748   0.07042   0.07835
 Alpha virt. eigenvalues --    0.09041   0.09199   0.11075   0.11837   0.12308

 Mulliken charges:
               1
     1  B   -0.492772
     2  C   -0.167083
     3  C   -0.192272
     4  C   -0.333979
     5  C    0.061751
     6  H    0.020845
     7  H    0.012159
     8  H    0.037613
     9  H    0.037309
    10  H    0.035500
    11  H    0.047278
    12  P   -0.011963
    13  H    0.024296
    14  H    0.371346
    15  H    0.317064
    16  H    0.232909
 Sum of Mulliken charges =  -0.00000

 Dipole moment (field-independent basis, Debye):
    X=              1.6362    Y=              0.3492    Z=              0.1622  Tot=              1.6809

 Test job not archived.
 1\1\GINC-SE187\SP\RHF\Aug-CC-pVDZ\C4H10B1P1\OHZDE\09-Apr-2025\0\\#t hf
  aug-cc-pvdz iop(5/13=1,5/36=2,99/5=2) pseudo=read geom=check guess=(r
 ead,tcheck) scf=(maxcycle=1)\\title\\0,1\B,0,-2.735596,0.654251,-0.268
 083\C,0,0.271518,-0.01867,-0.403189\C,0,1.482146,-0.97585,-0.193556\C,
 0,1.087944,1.099925,0.308673\C,0,2.37372,0.275532,0.031852\H,0,0.86002
 ,1.145075,1.376371\H,0,1.015049,2.106195,-0.107826\H,0,2.866011,0.5915
 28,-0.890682\H,0,3.118808,0.224005,0.8274\H,0,1.733022,-1.649916,-1.01
 4144\H,0,1.378877,-1.564022,0.722233\P,0,-1.403195,-0.53246,0.183491\H

 Normal termination of Gaussian 16 at Wed Apr  9 00:43:30 2025.
