 Gaussian 16, Revision C.01,

 ----------------------------------------------------------------------
 #t hf aug-cc-pvdz symm=none int=(grid=ultrafine) guess=(read,tcheck) s
 table=(opt,rrhf)
 ----------------------------------------------------------------------
 -----
 title
 -----
 Symbolic Z-matrix:
 Charge =  0 Multiplicity = 1

 SCF Done:  E(RHF) =  -636.138953167     A.U. after   14 cycles
 Normal termination of Gaussian 16 at Wed Apr  9 00:08:09 2025.
 Gaussian 16:  ES64L-G16RevC.01  3-Jul-2019

 ----------------------------------------------------------------------
 #t hf aug-cc-pvdz iop(5/13=1,5/36=2,99/5=2) pseudo=read geom=check gue
 ss=(read,tcheck) scf=(maxcycle=1)
 ----------------------------------------------------------------------
 -----
 title
 -----
 Structure from the checkpoint file:  "BDE49_nonexpt_2250_mol1.chk"
 Charge =  0 Multiplicity = 1

                         Standard orientation:
 ---------------------------------------------------------------------
 Center     Atomic      Atomic             Coordinates (Angstroms)
 Number     Number       Type             X           Y           Z
 ---------------------------------------------------------------------
      1         14           0        1.331597   -0.141479    0.372204
      2          8           0        1.074736    1.213251   -0.619416
      3          8           0        0.465859    2.251087    0.219888
      4          1           0        1.093581    2.970451    0.069693
      5          6           0       -0.243722   -0.759641    1.181132
      6          6           0       -1.308105   -1.421462    0.279086
      7          1           0       -0.676400    0.074769    1.743653
      8          1           0        0.081493   -1.481716    1.943401
      9          6           0       -1.958987   -0.502763   -0.769091
     10          1           0       -2.099529   -1.836779    0.915939
     11          1           0       -0.860605   -2.279856   -0.235382
     12          6           0       -2.749019    0.669871   -0.177736
     13          1           0       -2.630257   -1.114654   -1.382696
     14          1           0       -1.193407   -0.110764   -1.447103
     15          6           0        2.106617   -1.362208   -0.813715
     16          1           0        1.428571   -1.614301   -1.632685
     17          1           0        2.361312   -2.287287   -0.287005
     18          1           0        3.025305   -0.957070   -1.245137
     19          1           0       -3.501479    0.319393    0.537075
     20          1           0       -3.271666    1.220470   -0.964845
     21          1           0       -2.094715    1.379822    0.332438
     22          1           0        2.289984    0.240737    1.439977
 ---------------------------------------------------------------------

 SCF Done:  E(RHF) =  -636.538688052     A.U. after    2 cycles

 The electronic state is 1-A.
 Alpha  occ. eigenvalues --  -69.54556 -20.61811 -20.59036 -11.22966 -11.22005
 Alpha  occ. eigenvalues --  -11.21729 -11.21471 -11.21151  -6.21257  -3.96706
 Alpha  occ. eigenvalues --   -3.96571  -3.96513  -1.56173  -1.26595  -1.06858
 Alpha  occ. eigenvalues --   -0.97803  -0.94961  -0.87548  -0.78092  -0.70842
 Alpha  occ. eigenvalues --   -0.70224  -0.63419  -0.62791  -0.60292  -0.59202
 Alpha  occ. eigenvalues --   -0.57298  -0.55620  -0.54514  -0.53971  -0.53700
 Alpha  occ. eigenvalues --   -0.50146  -0.48156  -0.47279  -0.46564  -0.46074
 Alpha  occ. eigenvalues --   -0.44677  -0.41587
 Alpha virt. eigenvalues --    0.03335   0.03403   0.03847   0.04205   0.05569
 Alpha virt. eigenvalues --    0.05865   0.06097   0.06486   0.06642   0.08530
 Alpha virt. eigenvalues --    0.08648   0.09260   0.09342   0.09845   0.11536

 Mulliken charges:
               1
     1  Si   2.604433
     2  O   -0.875700
     3  O   -0.755782
     4  H    0.491804
     5  C   -0.511667
     6  C   -0.333191
     7  H    0.034170
     8  H    0.022954
     9  C   -0.395119
    10  H    0.131240
    11  H    0.133252
    12  C   -0.342761
    13  H    0.105995
    14  H    0.154603
    15  C   -0.585517
    16  H    0.070647
    17  H    0.011626
    18  H   -0.037767
    19  H    0.166377
    20  H    0.092658
    21  H    0.153560
    22  H   -0.335815
 Sum of Mulliken charges =  -0.00000

 Dipole moment (field-independent basis, Debye):
    X=              0.8429    Y=             -0.3662    Z=              0.4235  Tot=              1.0119

 Test job not archived.
 1\1\GINC-SE073\SP\RHF\Aug-CC-pVDZ\C5H14O2Si1\OHZDE\09-Apr-2025\0\\#t h
 f aug-cc-pvdz iop(5/13=1,5/36=2,99/5=2) pseudo=read geom=check guess=(
 read,tcheck) scf=(maxcycle=1)\\title\\0,1\Si,0,1.331597,-0.141479,0.37
 2204\O,0,1.074736,1.213251,-0.619416\O,0,0.465859,2.251087,0.219888\H,
 0,1.093581,2.970451,0.069693\C,0,-0.243722,-0.759641,1.181132\C,0,-1.3
 08105,-1.421462,0.279086\H,0,-0.6764,0.074769,1.743653\H,0,0.081493,-1
 .481716,1.943401\C,0,-1.958987,-0.502763,-0.769091\H,0,-2.099529,-1.83
 6779,0.915939\H,0,-0.860605,-2.279856,-0.235382\C,0,-2.749019,0.669871

 Normal termination of Gaussian 16 at Wed Apr  9 00:08:21 2025.
