 Gaussian 16, Revision C.01,

 ----------------------------------------------------------------------
 #t hf aug-cc-pvdz symm=none int=(grid=ultrafine) guess=(read,tcheck) s
 table=(opt,rrhf)
 ----------------------------------------------------------------------
 -----
 title
 -----
 Symbolic Z-matrix:
 Charge =  0 Multiplicity = 1

 SCF Done:  E(RHF) =  -764.853034511     A.U. after   12 cycles
 Normal termination of Gaussian 16 at Wed Apr  9 00:12:02 2025.
 Gaussian 16:  ES64L-G16RevC.01  3-Jul-2019

 ----------------------------------------------------------------------
 #t hf aug-cc-pvdz iop(5/13=1,5/36=2,99/5=2) pseudo=read geom=check gue
 ss=(read,tcheck) scf=(maxcycle=1)
 ----------------------------------------------------------------------
 -----
 title
 -----
 Structure from the checkpoint file:  "BDE49_nonexpt_2402_mol1.chk"
 Charge =  0 Multiplicity = 1

                         Standard orientation:
 ---------------------------------------------------------------------
 Center     Atomic      Atomic             Coordinates (Angstroms)
 Number     Number       Type             X           Y           Z
 ---------------------------------------------------------------------
      1         14           0       -0.808250    0.860893    0.000067
      2         14           0        0.808250   -0.860892    0.000061
      3          6           0        2.466927   -0.034307    0.000003
      4          1           0        0.722077   -1.688468   -1.218238
      5          1           0        0.722072   -1.688447    1.218374
      6          7           0        3.480994    0.520689   -0.000145
      7          6           0       -2.466927    0.034307   -0.000001
      8          1           0       -0.722076    1.688481   -1.218224
      9          1           0       -0.722075    1.688437    1.218388
     10          7           0       -3.480993   -0.520690   -0.000156
 ---------------------------------------------------------------------

 SCF Done:  E(RHF) =  -765.091058079     A.U. after    2 cycles

 The electronic state is 1-A.
 Alpha  occ. eigenvalues --  -69.59642 -69.59642 -15.54427 -15.54425 -11.28218
 Alpha  occ. eigenvalues --  -11.28218  -6.26697  -6.26685  -4.02121  -4.02120
 Alpha  occ. eigenvalues --   -4.02037  -4.01998  -4.01988  -4.01963  -1.25137
 Alpha  occ. eigenvalues --   -1.25114  -0.87764  -0.82034  -0.67011  -0.66158
 Alpha  occ. eigenvalues --   -0.60447  -0.59281  -0.57666  -0.55440  -0.54830
 Alpha  occ. eigenvalues --   -0.53155  -0.51530  -0.50937  -0.45953
 Alpha virt. eigenvalues --    0.02882   0.03049   0.04143   0.04568   0.05307
 Alpha virt. eigenvalues --    0.05864   0.06040   0.06840   0.06890   0.07109
 Alpha virt. eigenvalues --    0.08911   0.09301   0.09995   0.10052   0.11064

 Mulliken charges:
               1
     1  Si   0.763989
     2  Si   0.763988
     3  C   -1.333160
     4  H   -0.118681
     5  H   -0.118687
     6  N    0.806540
     7  C   -1.333161
     8  H   -0.118681
     9  H   -0.118687
    10  N    0.806540
 Sum of Mulliken charges =  -0.00000

 Dipole moment (field-independent basis, Debye):
    X=              0.0000    Y=              0.0000    Z=              0.0008  Tot=              0.0008

 Test job not archived.
 1\1\GINC-SE177\SP\RHF\Aug-CC-pVDZ\C2H4N2Si2\OHZDE\09-Apr-2025\0\\#t hf
  aug-cc-pvdz iop(5/13=1,5/36=2,99/5=2) pseudo=read geom=check guess=(r
 ead,tcheck) scf=(maxcycle=1)\\title\\0,1\Si,0,0.80825,0.860893,-0.0000
 67\Si,0,-0.80825,-0.860892,-0.000061\C,0,-2.466927,-0.034307,-0.000003
 \H,0,-0.722077,-1.688468,1.218238\H,0,-0.722072,-1.688447,-1.218374\N,
 0,-3.480994,0.520689,0.000145\C,0,2.466927,0.034307,0.000001\H,0,0.722
 076,1.688481,1.218224\H,0,0.722075,1.688437,-1.218388\N,0,3.480993,-0.
 52069,0.000156\\Version=ES64L-G16RevC.01\State=1-A\HF=-765.0910581\RMS

 Normal termination of Gaussian 16 at Wed Apr  9 00:12:06 2025.
