 Gaussian 16, Revision C.01,

 ----------------------------------------------------------------------
 #t hf aug-cc-pvdz symm=none int=(grid=ultrafine) guess=(read,tcheck) s
 table=(opt,rrhf)
 ----------------------------------------------------------------------
 -----
 title
 -----
 Symbolic Z-matrix:
 Charge =  0 Multiplicity = 1

 SCF Done:  E(RHF) =  -755.093498627     A.U. after   16 cycles
 Normal termination of Gaussian 16 at Wed Apr  9 00:53:09 2025.
 Gaussian 16:  ES64L-G16RevC.01  3-Jul-2019

 ----------------------------------------------------------------------
 #t hf aug-cc-pvdz iop(5/13=1,5/36=2,99/5=2) pseudo=read geom=check gue
 ss=(read,tcheck) scf=(maxcycle=1)
 ----------------------------------------------------------------------
 -----
 title
 -----
 Structure from the checkpoint file:  "BDE49_nonexpt_987_mol1.chk"
 Charge =  0 Multiplicity = 1

                         Standard orientation:
 ---------------------------------------------------------------------
 Center     Atomic      Atomic             Coordinates (Angstroms)
 Number     Number       Type             X           Y           Z
 ---------------------------------------------------------------------
      1         16           0        0.516793   -1.100170   -0.044589
      2          7           0        1.578880    0.413034   -0.012092
      3          8           0        1.062443    1.482421   -0.230464
      4          8           0        2.737728    0.167140    0.245554
      5          8           0       -0.922131   -0.485274   -0.486687
      6          6           0       -1.767921    0.072078    0.572988
      7          6           0       -3.065736    0.490429   -0.082088
      8          1           0       -1.244183    0.921844    1.013525
      9          1           0       -1.918733   -0.696852    1.335350
     10          1           0       -2.881017    1.239939   -0.853631
     11          1           0       -3.732614    0.922897    0.668584
     12          1           0       -3.566678   -0.365683   -0.538377
 ---------------------------------------------------------------------

 SCF Done:  E(RHF) =  -755.501396511     A.U. after    2 cycles

 The electronic state is 1-A.
 Alpha  occ. eigenvalues --  -94.08234 -20.62410 -20.61202 -20.60871 -15.80870
 Alpha  occ. eigenvalues --  -11.32176 -11.25070  -8.35318  -6.33086  -6.32876
 Alpha  occ. eigenvalues --   -6.32534  -1.69245  -1.53820  -1.52114  -1.11011
 Alpha  occ. eigenvalues --   -1.03838  -0.90845  -0.86971  -0.79665  -0.76442
 Alpha  occ. eigenvalues --   -0.76059  -0.69340  -0.65825  -0.63582  -0.57437
 Alpha  occ. eigenvalues --   -0.56302  -0.53462  -0.51580  -0.50563  -0.47157
 Alpha  occ. eigenvalues --   -0.45882  -0.41868
 Alpha virt. eigenvalues --    0.03091   0.03962   0.04119   0.05563   0.05963
 Alpha virt. eigenvalues --    0.06649   0.07407   0.07924   0.10496   0.11231
 Alpha virt. eigenvalues --    0.12277   0.12764   0.14383   0.15375   0.15469

 Mulliken charges:
               1
     1  S    1.094739
     2  N    1.781029
     3  O   -1.131799
     4  O   -1.175982
     5  O   -1.244348
     6  C    0.396438
     7  C   -0.486320
     8  H    0.140125
     9  H    0.124035
    10  H    0.156545
    11  H    0.188353
    12  H    0.157187
 Sum of Mulliken charges =  -0.00000

 Dipole moment (field-independent basis, Debye):
    X=             -3.8573    Y=             -1.3341    Z=              1.0950  Tot=              4.2258

 Test job not archived.
 1\1\GINC-SE457\SP\RHF\Aug-CC-pVDZ\C2H5N1O3S1\OHZDE\09-Apr-2025\0\\#t h
 f aug-cc-pvdz iop(5/13=1,5/36=2,99/5=2) pseudo=read geom=check guess=(
 read,tcheck) scf=(maxcycle=1)\\title\\0,1\S,0,0.516793,-1.10017,-0.044
 589\N,0,1.57888,0.413034,-0.012092\O,0,1.062443,1.482421,-0.230464\O,0
 ,2.737728,0.16714,0.245554\O,0,-0.922131,-0.485274,-0.486687\C,0,-1.76
 7921,0.072078,0.572988\C,0,-3.065736,0.490429,-0.082088\H,0,-1.244183,
 0.921844,1.013525\H,0,-1.918733,-0.696852,1.33535\H,0,-2.881017,1.2399
 39,-0.853631\H,0,-3.732614,0.922897,0.668584\H,0,-3.566678,-0.365683,-

 Normal termination of Gaussian 16 at Wed Apr  9 00:53:14 2025.
