 Gaussian 16, Revision C.01,

 ----------------------------------------------------------------------
 #t hf aug-cc-pvdz symm=none int=(grid=ultrafine) guess=(read,tcheck) s
 table=(opt,rrhf)
 ----------------------------------------------------------------------
 -----
 title
 -----
 Symbolic Z-matrix:
 Charge =  0 Multiplicity = 1

 SCF Done:  E(RHF) =  -1007.42731746     A.U. after   18 cycles
 Normal termination of Gaussian 16 at Tue Apr  8 23:33:18 2025.
 Gaussian 16:  ES64L-G16RevC.01  3-Jul-2019

 ----------------------------------------------------------------------
 #t hf aug-cc-pvdz iop(5/13=1,5/36=2,99/5=2) pseudo=read geom=check gue
 ss=(read,tcheck) scf=(maxcycle=1)
 ----------------------------------------------------------------------
 -----
 title
 -----
 Structure from the checkpoint file:  "BDE49_nonexpt_1412_mol1.chk"
 Charge =  0 Multiplicity = 1

                         Standard orientation:
 ---------------------------------------------------------------------
 Center     Atomic      Atomic             Coordinates (Angstroms)
 Number     Number       Type             X           Y           Z
 ---------------------------------------------------------------------
      1          6           0       -3.143075   -0.092207    0.000634
      2          6           0       -2.385666   -1.220625   -0.305370
      3          6           0       -0.997336   -1.151503   -0.295817
      4          6           0       -2.503022    1.109845    0.305216
      5          6           0       -1.117813    1.186394    0.296506
      6          6           0       -0.337526    0.055253   -0.001774
      7          1           0       -4.225712   -0.148226    0.002492
      8          1           0       -2.875546   -2.155370   -0.552254
      9          1           0       -0.425102   -2.035403   -0.553878
     10          1           0       -3.087796    1.989280    0.549438
     11          1           0       -0.616218    2.117332    0.527450
     12          6           0        1.138171    0.141351   -0.001927
     13         15           0        2.079688   -1.446070    0.144923
     14         16           0        1.963946    1.538602   -0.264548
     15          1           0        1.471982   -1.953284    1.321254
     16          1           0        3.217536   -0.911959    0.779624
 ---------------------------------------------------------------------

 SCF Done:  E(RHF) =  -1007.80242359     A.U. after    2 cycles

 The electronic state is 1-A.
 Alpha  occ. eigenvalues --  -93.93078 -84.29353 -11.33867 -11.27200 -11.26933
 Alpha  occ. eigenvalues --  -11.26693 -11.26266 -11.25995 -11.25795  -8.21279
 Alpha  occ. eigenvalues --   -6.76509  -6.19091  -6.18903  -6.18685  -4.29195
 Alpha  occ. eigenvalues --   -4.29057  -4.28227  -1.18392  -1.10878  -1.03850
 Alpha  occ. eigenvalues --   -1.01982  -0.91035  -0.86706  -0.84652  -0.76699
 Alpha  occ. eigenvalues --   -0.71049  -0.66593  -0.64488  -0.61884  -0.60189
 Alpha  occ. eigenvalues --   -0.54716  -0.53658  -0.53300  -0.51299  -0.50132
 Alpha  occ. eigenvalues --   -0.45760  -0.36556  -0.36478  -0.34620  -0.32843
 Alpha virt. eigenvalues --    0.01202   0.02909   0.03485   0.04011   0.05038
 Alpha virt. eigenvalues --    0.05907   0.06881   0.07153   0.08027   0.09140
 Alpha virt. eigenvalues --    0.09459   0.10101   0.10931   0.11712   0.12239

 Mulliken charges:
               1
     1  C   -0.044667
     2  C    0.228736
     3  C    0.017856
     4  C    0.239408
     5  C   -0.160294
     6  C    1.829899
     7  H   -0.208418
     8  H   -0.229584
     9  H   -0.290292
    10  H   -0.221847
    11  H   -0.195333
    12  C   -1.412625
    13  P   -0.555181
    14  S   -0.033205
    15  H    0.489557
    16  H    0.545992
 Sum of Mulliken charges =  -0.00000

 Dipole moment (field-independent basis, Debye):
    X=             -2.5550    Y=             -2.1175    Z=              0.8667  Tot=              3.4297

 Test job not archived.
 1\1\GINC-SE222\SP\RHF\Aug-CC-pVDZ\C7H7P1S1\OHZDE\08-Apr-2025\0\\#t hf
 aug-cc-pvdz iop(5/13=1,5/36=2,99/5=2) pseudo=read geom=check guess=(re
 ad,tcheck) scf=(maxcycle=1)\\title\\0,1\C,0,-3.143075,-0.092207,0.0006
 34\C,0,-2.385666,-1.220625,-0.30537\C,0,-0.997336,-1.151503,-0.295817\
 C,0,-2.503022,1.109845,0.305216\C,0,-1.117813,1.186394,0.296506\C,0,-0
 .337526,0.055253,-0.001774\H,0,-4.225712,-0.148226,0.002492\H,0,-2.875
 546,-2.15537,-0.552254\H,0,-0.425102,-2.035403,-0.553878\H,0,-3.087796
 ,1.98928,0.549438\H,0,-0.616218,2.117332,0.52745\C,0,1.138171,0.141351

 Normal termination of Gaussian 16 at Tue Apr  8 23:33:28 2025.
