 Gaussian 16, Revision C.01,

 ----------------------------------------------------------------------
 #t hf aug-cc-pvdz symm=none int=(grid=ultrafine) guess=(read,tcheck) s
 table=(opt,rrhf)
 ----------------------------------------------------------------------
 -----
 title
 -----
 Symbolic Z-matrix:
 Charge =  0 Multiplicity = 1

 SCF Done:  E(RHF) =  -154.105737640     A.U. after   12 cycles
 Normal termination of Gaussian 16 at Tue Apr  8 22:45:27 2025.
 Gaussian 16:  ES64L-G16RevC.01  3-Jul-2019

 ----------------------------------------------------------------------
 #t hf aug-cc-pvdz iop(5/13=1,5/36=2,99/5=2) pseudo=read geom=check gue
 ss=(read,tcheck) scf=(maxcycle=1)
 ----------------------------------------------------------------------
 -----
 title
 -----
 Structure from the checkpoint file:  "BDE49_expt_154_mol1.chk"
 Charge =  0 Multiplicity = 1

                         Standard orientation:
 ---------------------------------------------------------------------
 Center     Atomic      Atomic             Coordinates (Angstroms)
 Number     Number       Type             X           Y           Z
 ---------------------------------------------------------------------
      1          6           0        0.085187    0.549907    0.000000
      2          8           0        1.150841   -0.398060   -0.000001
      3          1           0        1.981698    0.085425    0.000003
      4          6           0       -1.221060   -0.222554    0.000000
      5          1           0        0.136459    1.197836   -0.887438
      6          1           0        0.136460    1.197834    0.887440
      7          1           0       -1.285255   -0.860210   -0.884873
      8          1           0       -2.075604    0.459688    0.000001
      9          1           0       -1.285255   -0.860211    0.884873
 ---------------------------------------------------------------------

 SCF Done:  E(RHF) =  -154.272270273     A.U. after    2 cycles

 The electronic state is 1-A.
 Alpha  occ. eigenvalues --  -20.54566 -11.28476 -11.22339  -1.44336  -1.01546
 Alpha  occ. eigenvalues --   -0.83670  -0.69968  -0.64847  -0.57327  -0.53727
 Alpha  occ. eigenvalues --   -0.52731  -0.49288  -0.43789
 Alpha virt. eigenvalues --    0.03612   0.04436   0.04755   0.05043   0.07397
 Alpha virt. eigenvalues --    0.08075   0.12132   0.13652   0.14207   0.14611
 Alpha virt. eigenvalues --    0.16598   0.17602   0.17636   0.20144   0.23067

 Mulliken charges:
               1
     1  C    0.542365
     2  O   -1.084443
     3  H    0.302737
     4  C   -0.453177
     5  H    0.102853
     6  H    0.102853
     7  H    0.159289
     8  H    0.168233
     9  H    0.159290
 Sum of Mulliken charges =   0.00000

 Dipole moment (field-independent basis, Debye):
    X=              0.1172    Y=              1.6584    Z=              0.0000  Tot=              1.6625

 Test job not archived.
 1\1\GINC-SE398\SP\RHF\Aug-CC-pVDZ\C2H6O1\OHZDE\08-Apr-2025\0\\#t hf au
 g-cc-pvdz iop(5/13=1,5/36=2,99/5=2) pseudo=read geom=check guess=(read
 ,tcheck) scf=(maxcycle=1)\\title\\0,1\C,0,0.085187,0.549907,0.\O,0,1.1
 50841,-0.39806,-0.000001\H,0,1.981698,0.085425,0.000003\C,0,-1.22106,-
 0.222554,0.\H,0,0.136459,1.197836,-0.887438\H,0,0.13646,1.197834,0.887
 44\H,0,-1.285255,-0.86021,-0.884873\H,0,-2.075604,0.459688,0.000001\H,
 0,-1.285255,-0.860211,0.884873\\Version=ES64L-G16RevC.01\State=1-A\HF=
 -154.2722703\RMSD=8.818e-03\Dipole=0.0461105,0.6524578,0.0000028\Quadr

 Normal termination of Gaussian 16 at Tue Apr  8 22:45:29 2025.
