 Gaussian 16, Revision C.01,

 ----------------------------------------------------------------------
 #t hf aug-cc-pvdz symm=none int=(grid=ultrafine) guess=(read,tcheck) s
 table=(opt,rrhf)
 ----------------------------------------------------------------------
 -----
 title
 -----
 Symbolic Z-matrix:
 Charge =  0 Multiplicity = 1

 SCF Done:  E(RHF) =  -666.126227935     A.U. after   15 cycles
 Normal termination of Gaussian 16 at Tue Apr  8 23:39:26 2025.
 Gaussian 16:  ES64L-G16RevC.01  3-Jul-2019

 ----------------------------------------------------------------------
 #t hf aug-cc-pvdz iop(5/13=1,5/36=2,99/5=2) pseudo=read geom=check gue
 ss=(read,tcheck) scf=(maxcycle=1)
 ----------------------------------------------------------------------
 -----
 title
 -----
 Structure from the checkpoint file:  "BDE49_nonexpt_1573_mol1.chk"
 Charge =  0 Multiplicity = 1

                         Standard orientation:
 ---------------------------------------------------------------------
 Center     Atomic      Atomic             Coordinates (Angstroms)
 Number     Number       Type             X           Y           Z
 ---------------------------------------------------------------------
      1         15           0        2.474966   -0.289469   -0.410841
      2          7           0        0.929662   -1.004114   -0.192931
      3          6           0       -0.354251   -0.448107   -0.103635
      4          6           0       -1.434355   -1.273485    0.252493
      5          6           0       -0.609986    0.903566   -0.375223
      6          6           0       -1.906390    1.404821   -0.290221
      7          6           0       -2.972516    0.582267    0.062582
      8          6           0       -2.723704   -0.763458    0.330497
      9          1           0       -3.978108    0.980077    0.127151
     10          1           0       -3.539377   -1.423450    0.605082
     11          1           0       -1.253276   -2.322482    0.467291
     12          1           0        0.198525    1.560830   -0.667578
     13          1           0       -2.079880    2.453339   -0.506872
     14          6           0        2.637042    0.923470    0.986372
     15          1           0        1.749113    1.535926    1.147651
     16          1           0        3.484833    1.578582    0.762457
     17          1           0        2.864707    0.378418    1.904695
     18          1           0        2.152982    0.662164   -1.415007
     19          1           0        0.953318   -2.007007   -0.088934
 ---------------------------------------------------------------------

 SCF Done:  E(RHF) =  -666.511589573     A.U. after    2 cycles

 The electronic state is 1-A.
 Alpha  occ. eigenvalues --  -84.29709 -15.51138 -11.28985 -11.24550 -11.24523
 Alpha  occ. eigenvalues --  -11.23604 -11.23553 -11.23362 -11.23018  -6.76344
 Alpha  occ. eigenvalues --   -4.29420  -4.28551  -4.28158  -1.22935  -1.13414
 Alpha  occ. eigenvalues --   -1.01788  -1.00636  -0.97687  -0.85367  -0.84254
 Alpha  occ. eigenvalues --   -0.78789  -0.73561  -0.68508  -0.64759  -0.62102
 Alpha  occ. eigenvalues --   -0.60654  -0.59930  -0.57789  -0.56678  -0.55324
 Alpha  occ. eigenvalues --   -0.52296  -0.49974  -0.49573  -0.44393  -0.34881
 Alpha  occ. eigenvalues --   -0.34230  -0.31129
 Alpha virt. eigenvalues --    0.03519   0.03740   0.03926   0.04642   0.04882
 Alpha virt. eigenvalues --    0.05497   0.06851   0.07190   0.08104   0.08203
 Alpha virt. eigenvalues --    0.09677   0.10311   0.11311   0.11953   0.12407

 Mulliken charges:
               1
     1  P    0.299036
     2  N    1.077295
     3  C   -1.548711
     4  C    0.317699
     5  C    0.746080
     6  C    0.359059
     7  C   -0.044858
     8  C    0.476448
     9  H   -0.226102
    10  H   -0.225703
    11  H   -0.334628
    12  H   -0.383263
    13  H   -0.237568
    14  C   -0.755573
    15  H    0.066893
    16  H    0.142506
    17  H    0.118401
    18  H    0.306378
    19  H   -0.153387
 Sum of Mulliken charges =  -0.00000

 Dipole moment (field-independent basis, Debye):
    X=              0.1395    Y=              0.1708    Z=              0.5567  Tot=              0.5988

 Test job not archived.
 1\1\GINC-SE424\SP\RHF\Aug-CC-pVDZ\C7H10N1P1\OHZDE\08-Apr-2025\0\\#t hf
  aug-cc-pvdz iop(5/13=1,5/36=2,99/5=2) pseudo=read geom=check guess=(r
 ead,tcheck) scf=(maxcycle=1)\\title\\0,1\P,0,2.474966,-0.289469,-0.410
 841\N,0,0.929662,-1.004114,-0.192931\C,0,-0.354251,-0.448107,-0.103635
 \C,0,-1.434355,-1.273485,0.252493\C,0,-0.609986,0.903566,-0.375223\C,0
 ,-1.90639,1.404821,-0.290221\C,0,-2.972516,0.582267,0.062582\C,0,-2.72
 3704,-0.763458,0.330497\H,0,-3.978108,0.980077,0.127151\H,0,-3.539377,
 -1.42345,0.605082\H,0,-1.253276,-2.322482,0.467291\H,0,0.198525,1.5608

 Normal termination of Gaussian 16 at Tue Apr  8 23:39:36 2025.
