 Gaussian 16, Revision C.01,

 ----------------------------------------------------------------------
 #t hf aug-cc-pvdz symm=none int=(grid=ultrafine) guess=(read,tcheck) s
 table=(opt,rrhf)
 ----------------------------------------------------------------------
 -----
 title
 -----
 Symbolic Z-matrix:
 Charge =  0 Multiplicity = 1

 SCF Done:  E(RHF) =  -459.488077952     A.U. after   16 cycles
 Normal termination of Gaussian 16 at Wed Apr  9 00:38:02 2025.
 Gaussian 16:  ES64L-G16RevC.01  3-Jul-2019

 ----------------------------------------------------------------------
 #t hf aug-cc-pvdz iop(5/13=1,5/36=2,99/5=2) pseudo=read geom=check gue
 ss=(read,tcheck) scf=(maxcycle=1)
 ----------------------------------------------------------------------
 -----
 title
 -----
 Structure from the checkpoint file:  "BDE49_nonexpt_533_mol1.chk"
 Charge =  0 Multiplicity = 1

                         Standard orientation:
 ---------------------------------------------------------------------
 Center     Atomic      Atomic             Coordinates (Angstroms)
 Number     Number       Type             X           Y           Z
 ---------------------------------------------------------------------
      1          1           0       -0.000073   -4.311569    1.030422
      2          1           0       -0.000073   -4.311569   -1.030422
      3          5           0        0.000011   -3.713115   -0.000000
      4          6           0        0.000004   -2.169129   -0.000000
      5          6           0        0.000002   -1.441173    1.207950
      6          6           0        0.000000   -0.052295    1.220162
      7          6           0        0.000000    0.615083    0.000000
      8          6           0        0.000002   -1.441173   -1.207950
      9          1           0        0.000003   -1.979363   -2.148989
     10          6           0        0.000000   -0.052295   -1.220162
     11          1           0        0.000000    0.517758   -2.138549
     12          7           0        0.000000    2.101886    0.000000
     13          8           0        0.000002    2.665289    1.084664
     14          8           0        0.000002    2.665289   -1.084664
     15          1           0        0.000003   -1.979363    2.148989
     16          1           0        0.000000    0.517758    2.138549
 ---------------------------------------------------------------------

 SCF Done:  E(RHF) =  -459.941680475     A.U. after    2 cycles

 The electronic state is 1-A'.
 Alpha  occ. eigenvalues --  -20.59769 -20.59764 -15.79970 -11.33018 -11.28415
 Alpha  occ. eigenvalues --  -11.28413 -11.28237 -11.28225 -11.25708  -7.61774
 Alpha  occ. eigenvalues --   -1.67775  -1.51504  -1.20847  -1.11045  -1.05914
 Alpha  occ. eigenvalues --   -0.98837  -0.87889  -0.85702  -0.80731  -0.75587
 Alpha  occ. eigenvalues --   -0.75506  -0.75251  -0.68196  -0.66815  -0.64067
 Alpha  occ. eigenvalues --   -0.64055  -0.54937  -0.54456  -0.51632  -0.50445
 Alpha  occ. eigenvalues --   -0.50322  -0.49316  -0.45757  -0.39515  -0.38094
 Alpha virt. eigenvalues --   -0.00526   0.02935   0.02985   0.03493   0.03969
 Alpha virt. eigenvalues --    0.05556   0.06069   0.06918   0.07794   0.07802
 Alpha virt. eigenvalues --    0.08222   0.10206   0.11783   0.12166   0.12490

 Mulliken charges:
               1
     1  H    0.263398
     2  H    0.263398
     3  B   -0.859035
     4  C   -0.181263
     5  C    0.671310
     6  C    0.044168
     7  C   -0.003491
     8  C    0.671310
     9  H   -0.273399
    10  C    0.044168
    11  H   -0.192660
    12  N    2.963250
    13  O   -1.472547
    14  O   -1.472547
    15  H   -0.273399
    16  H   -0.192660
 Sum of Mulliken charges =   0.00000

 Dipole moment (field-independent basis, Debye):
    X=              0.0001    Y=             -3.7286    Z=              0.0000  Tot=              3.7286

 Test job not archived.
 1\1\GINC-SE106\SP\RHF\Aug-CC-pVDZ\C6H6B1N1O2\OHZDE\09-Apr-2025\0\\#t h
 f aug-cc-pvdz iop(5/13=1,5/36=2,99/5=2) pseudo=read geom=check guess=(
 read,tcheck) scf=(maxcycle=1)\\title\\0,1\H,0,0.000073,4.311569,1.0304
 22\H,0,0.000073,4.311569,-1.030422\B,0,-0.000011,3.713115,0.\C,0,-0.00
 0004,2.169129,0.\C,0,-0.000002,1.441173,1.20795\C,0,0.,0.052295,1.2201
 62\C,0,0.,-0.615083,0.\C,0,-0.000002,1.441173,-1.20795\H,0,-0.000003,1
 .979363,-2.148989\C,0,0.,0.052295,-1.220162\H,0,0.,-0.517758,-2.138549
 \N,0,0.,-2.101886,0.\O,0,-0.000002,-2.665289,1.084664\O,0,-0.000002,-2

 Normal termination of Gaussian 16 at Wed Apr  9 00:38:07 2025.
