 Gaussian 16, Revision C.01,

 ----------------------------------------------------------------------
 #t hf aug-cc-pvdz symm=none int=(grid=ultrafine) guess=(read,tcheck) s
 table=(opt,rrhf)
 ----------------------------------------------------------------------
 -----
 title
 -----
 Symbolic Z-matrix:
 Charge =  0 Multiplicity = 1

 SCF Done:  E(RHF) =  -725.335162360     A.U. after   14 cycles
 Normal termination of Gaussian 16 at Wed Apr  9 00:23:47 2025.
 Gaussian 16:  ES64L-G16RevC.01  3-Jul-2019

 ----------------------------------------------------------------------
 #t hf aug-cc-pvdz iop(5/13=1,5/36=2,99/5=2) pseudo=read geom=check gue
 ss=(read,tcheck) scf=(maxcycle=1)
 ----------------------------------------------------------------------
 -----
 title
 -----
 Structure from the checkpoint file:  "BDE49_nonexpt_2682_mol1.chk"
 Charge =  0 Multiplicity = 1

                         Standard orientation:
 ---------------------------------------------------------------------
 Center     Atomic      Atomic             Coordinates (Angstroms)
 Number     Number       Type             X           Y           Z
 ---------------------------------------------------------------------
      1          9           0        2.347160    0.252163    0.345783
      2         16           0        1.132103   -0.762647   -0.191490
      3          6           0       -0.308384    0.286777    0.250423
      4          8           0       -1.321609   -0.477837   -0.336605
      5          8           0       -0.230096    1.585813   -0.212932
      6          6           0       -2.613533   -0.296239    0.251145
      7          1           0       -2.625059   -0.648844    1.288564
      8          1           0       -3.307640   -0.890567   -0.340448
      9          1           0       -2.908062    0.756312    0.214796
     10          1           0       -0.040097    1.550802   -1.160217
     11          1           0       -0.412082    0.358138    1.335977
 ---------------------------------------------------------------------

 SCF Done:  E(RHF) =  -725.714699796     A.U. after    2 cycles

 The electronic state is 1-A.
 Alpha  occ. eigenvalues --  -94.03447 -26.46667 -20.58596 -20.58543 -11.39846
 Alpha  occ. eigenvalues --  -11.30842  -8.30796  -6.28579  -6.28260  -6.27984
 Alpha  occ. eigenvalues --   -1.56707  -1.53675  -1.46793  -1.05359  -0.95201
 Alpha  occ. eigenvalues --   -0.88674  -0.74252  -0.71476  -0.70069  -0.64876
 Alpha  occ. eigenvalues --   -0.64846  -0.62145  -0.61200  -0.60005  -0.56111
 Alpha  occ. eigenvalues --   -0.50685  -0.47140  -0.45757  -0.38899
 Alpha virt. eigenvalues --    0.03289   0.04244   0.04789   0.05776   0.06984
 Alpha virt. eigenvalues --    0.07636   0.08326   0.11946   0.12367   0.13484
 Alpha virt. eigenvalues --    0.14453   0.15207   0.15475   0.16322   0.16801

 Mulliken charges:
               1
     1  F   -0.665899
     2  S    0.920489
     3  C    1.089289
     4  O   -1.171915
     5  O   -1.122944
     6  C    0.173892
     7  H    0.157093
     8  H   -0.000069
     9  H    0.192709
    10  H    0.284660
    11  H    0.142694
 Sum of Mulliken charges =  -0.00000

 Dipole moment (field-independent basis, Debye):
    X=             -3.0310    Y=             -0.2023    Z=              0.0371  Tot=              3.0379

 Test job not archived.
 1\1\GINC-SE099\SP\RHF\Aug-CC-pVDZ\C2H5F1O2S1\OHZDE\09-Apr-2025\0\\#t h
 f aug-cc-pvdz iop(5/13=1,5/36=2,99/5=2) pseudo=read geom=check guess=(
 read,tcheck) scf=(maxcycle=1)\\title\\0,1\F,0,2.34716,0.252163,0.34578
 3\S,0,1.132103,-0.762647,-0.19149\C,0,-0.308384,0.286777,0.250423\O,0,
 -1.321609,-0.477837,-0.336605\O,0,-0.230096,1.585813,-0.212932\C,0,-2.
 613533,-0.296239,0.251145\H,0,-2.625059,-0.648844,1.288564\H,0,-3.3076
 4,-0.890567,-0.340448\H,0,-2.908062,0.756312,0.214796\H,0,-0.040097,1.
 550802,-1.160217\H,0,-0.412082,0.358138,1.335977\\Version=ES64L-G16Rev

 Normal termination of Gaussian 16 at Wed Apr  9 00:23:51 2025.
