 Gaussian 16, Revision C.01,

 ----------------------------------------------------------------------
 #t hf aug-cc-pvdz symm=none int=(grid=ultrafine) guess=(read,tcheck) s
 table=(opt,rrhf)
 ----------------------------------------------------------------------
 -----
 title
 -----
 Symbolic Z-matrix:
 Charge =  0 Multiplicity = 1

 SCF Done:  E(RHF) =  -995.886869210     A.U. after   11 cycles

 1\1\GINC-SE460\Stability\RHF\Aug-CC-pVDZ\C2H2Cl2\OHZDE\08-Apr-2025\0\\
 #t hf aug-cc-pvdz symm=none int=(grid=ultrafine) guess=(read,tcheck) s
 table=(opt,rrhf)\\title\\0,1\C,0,0.564534,-0.346282,-0.000001\C,0,-0.5
 64534,0.346282,-0.000001\Cl,0,-0.564534,2.087446,0.\Cl,0,0.564534,-2.0
 87446,0.\H,0,1.550293,0.095636,0.\H,0,-1.550293,-0.095636,0.\\Version=
 ES64L-G16RevC.01\HF=-995.8868692\RMSD=4.167e-09\Dipole=0.,0.,0.0000005
 \Quadrupole=2.6478929,-1.8600246,-0.7878683,1.1386932,0.,0.\PG=Unknown
 \\@

 Normal termination of Gaussian 16 at Tue Apr  8 22:41:26 2025.
 Gaussian 16:  ES64L-G16RevC.01  3-Jul-2019

 ----------------------------------------------------------------------
 #t hf aug-cc-pvdz iop(5/13=1,5/36=2,99/5=2) pseudo=read geom=check gue
 ss=(read,tcheck) scf=(maxcycle=1)
 ----------------------------------------------------------------------
 -----
 title
 -----
 Structure from the checkpoint file:  "BDE49_expt_141_mol1.chk"
 Charge =  0 Multiplicity = 1

                         Standard orientation:
 ---------------------------------------------------------------------
 Center     Atomic      Atomic             Coordinates (Angstroms)
 Number     Number       Type             X           Y           Z
 ---------------------------------------------------------------------
      1          6           0        0.366378    0.551704    0.000001
      2          6           0       -0.366378   -0.551704    0.000001
      3         17           0        0.366378   -2.131173   -0.000000
      4         17           0       -0.366378    2.131173   -0.000000
      5          1           0        1.446571    0.565674   -0.000000
      6          1           0       -1.446571   -0.565674   -0.000000
 ---------------------------------------------------------------------

 SCF Done:  E(RHF) =  -996.118101899     A.U. after    2 cycles

 The electronic state is 1-A.
 Alpha  occ. eigenvalues -- -105.58999-105.58999 -11.33014 -11.32878 -10.63795
 Alpha  occ. eigenvalues --  -10.63795  -7.80760  -7.80755  -7.80345  -7.80343
 Alpha  occ. eigenvalues --   -7.80334  -7.80333  -1.17381  -1.10319  -0.97826
 Alpha  occ. eigenvalues --   -0.81304  -0.67559  -0.65940  -0.56015  -0.55778
 Alpha  occ. eigenvalues --   -0.50749  -0.48356  -0.47789  -0.38058
 Alpha virt. eigenvalues --    0.04085   0.04473   0.07017   0.08544   0.09435
 Alpha virt. eigenvalues --    0.11781   0.12804   0.13764   0.14476   0.15199
 Alpha virt. eigenvalues --    0.15863   0.16988   0.17240   0.18202   0.18529

 Mulliken charges:
               1
     1  C    0.142426
     2  C    0.142426
     3  Cl  -0.181079
     4  Cl  -0.181079
     5  H    0.038653
     6  H    0.038653
 Sum of Mulliken charges =  -0.00000

 Dipole moment (field-independent basis, Debye):
    X=              0.0000    Y=              0.0000    Z=             -0.0000  Tot=              0.0000

 Test job not archived.
 1\1\GINC-SE460\SP\RHF\Aug-CC-pVDZ\C2H2Cl2\OHZDE\08-Apr-2025\0\\#t hf a
 ug-cc-pvdz iop(5/13=1,5/36=2,99/5=2) pseudo=read geom=check guess=(rea
 d,tcheck) scf=(maxcycle=1)\\title\\0,1\C,0,0.564534,-0.346282,-0.00000
 1\C,0,-0.564534,0.346282,-0.000001\Cl,0,-0.564534,2.087446,0.\Cl,0,0.5
 64534,-2.087446,0.\H,0,1.550293,0.095636,0.\H,0,-1.550293,-0.095636,0.
 \\Version=ES64L-G16RevC.01\State=1-A\HF=-996.1181019\RMSD=9.456e-03\Di
 pole=0.,0.,0.0000005\Quadrupole=2.6559335,-1.7611635,-0.89477,1.108874
 1,0.,0.\PG=C02 [X(C2H2Cl2)]\\@

 Normal termination of Gaussian 16 at Tue Apr  8 22:41:28 2025.
