 Gaussian 16, Revision C.01,

 ----------------------------------------------------------------------
 #t hf aug-cc-pvdz symm=none int=(grid=ultrafine) guess=(read,tcheck) s
 table=(opt,rrhf)
 ----------------------------------------------------------------------
 -----
 title
 -----
 Symbolic Z-matrix:
 Charge =  0 Multiplicity = 1

 SCF Done:  E(RHF) =  -673.819721525     A.U. after   15 cycles
 Normal termination of Gaussian 16 at Wed Apr  9 00:04:11 2025.
 Gaussian 16:  ES64L-G16RevC.01  3-Jul-2019

 ----------------------------------------------------------------------
 #t hf aug-cc-pvdz iop(5/13=1,5/36=2,99/5=2) pseudo=read geom=check gue
 ss=(read,tcheck) scf=(maxcycle=1)
 ----------------------------------------------------------------------
 -----
 title
 -----
 Structure from the checkpoint file:  "BDE49_nonexpt_2164_mol1.chk"
 Charge =  0 Multiplicity = 1

                         Standard orientation:
 ---------------------------------------------------------------------
 Center     Atomic      Atomic             Coordinates (Angstroms)
 Number     Number       Type             X           Y           Z
 ---------------------------------------------------------------------
      1          6           0        2.210610    2.105742   -0.030771
      2          8           0        2.291893    0.716527   -0.318102
      3          6           0       -0.441667   -0.188116    0.159748
      4          6           0       -1.315043   -0.096679    1.254393
      5          6           0       -0.990957   -0.070915   -1.128846
      6          6           0       -2.356393    0.126205   -1.315484
      7          6           0       -3.205947    0.208365   -0.212543
      8          6           0       -2.683922    0.096532    1.073719
      9          1           0       -0.920350   -0.177161    2.262730
     10          1           0       -3.340733    0.162614    1.934334
     11          1           0       -0.344261   -0.129920   -1.999375
     12          1           0       -2.759689    0.214799   -2.318487
     13          1           0       -4.270056    0.360445   -0.356543
     14          1           0        2.930573    2.623747   -0.666921
     15          1           0        1.209574    2.500381   -0.238471
     16          1           0        2.459305    2.312758    1.017231
     17         14           0        1.398362   -0.469230    0.411329
     18          6           0        1.981684   -2.073509   -0.340478
     19          1           0        1.471210   -2.923297    0.121872
     20          1           0        3.058094   -2.199196   -0.196792
     21          1           0        1.777453   -2.100148   -1.414307
     22          1           0        1.626482   -0.453758    1.882518
 ---------------------------------------------------------------------

 SCF Done:  E(RHF) =  -674.253012742     A.U. after    2 cycles

 The electronic state is 1-A.
 Alpha  occ. eigenvalues --  -69.54217 -20.52828 -11.28436 -11.24815 -11.24757
 Alpha  occ. eigenvalues --  -11.24754 -11.24423 -11.24388 -11.22633 -11.21070
 Alpha  occ. eigenvalues --   -6.20874  -3.96343  -3.96198  -3.96191  -1.43007
 Alpha  occ. eigenvalues --   -1.15235  -1.01698  -1.01678  -0.95626  -0.92116
 Alpha  occ. eigenvalues --   -0.83350  -0.83110  -0.73498  -0.69596  -0.64374
 Alpha  occ. eigenvalues --   -0.64082  -0.62571  -0.61628  -0.60727  -0.59924
 Alpha  occ. eigenvalues --   -0.56688  -0.55236  -0.53713  -0.51273  -0.50430
 Alpha  occ. eigenvalues --   -0.47973  -0.47809  -0.44064  -0.42384  -0.34775
 Alpha  occ. eigenvalues --   -0.34685
 Alpha virt. eigenvalues --    0.03297   0.03538   0.03734   0.04183   0.04958
 Alpha virt. eigenvalues --    0.05101   0.05996   0.06555   0.07146   0.07631
 Alpha virt. eigenvalues --    0.08009   0.09157   0.09713   0.10098   0.10511

 Mulliken charges:
               1
     1  C    0.313785
     2  O   -1.765559
     3  C   -0.567299
     4  C    0.250330
     5  C    0.418313
     6  C    0.310382
     7  C    0.397397
     8  C    0.385307
     9  H   -0.380172
    10  H   -0.219450
    11  H   -0.429066
    12  H   -0.224367
    13  H   -0.222877
    14  H   -0.037935
    15  H    0.102915
    16  H    0.129602
    17  Si   2.510203
    18  C   -0.629009
    19  H   -0.086381
    20  H   -0.023781
    21  H    0.105152
    22  H   -0.337491
 Sum of Mulliken charges =   0.00000

 Dipole moment (field-independent basis, Debye):
    X=             -0.9200    Y=              0.4594    Z=              0.1339  Tot=              1.0370

 Test job not archived.
 1\1\GINC-SE332\SP\RHF\Aug-CC-pVDZ\C8H12O1Si1\OHZDE\09-Apr-2025\0\\#t h
 f aug-cc-pvdz iop(5/13=1,5/36=2,99/5=2) pseudo=read geom=check guess=(
 read,tcheck) scf=(maxcycle=1)\\title\\0,1\C,0,-2.21061,2.105742,0.0307
 71\O,0,-2.291893,0.716527,0.318102\C,0,0.441667,-0.188116,-0.159748\C,
 0,1.315043,-0.096679,-1.254393\C,0,0.990957,-0.070915,1.128846\C,0,2.3
 56393,0.126205,1.315484\C,0,3.205947,0.208365,0.212543\C,0,2.683922,0.
 096532,-1.073719\H,0,0.92035,-0.177161,-2.26273\H,0,3.340733,0.162614,
 -1.934334\H,0,0.344261,-0.12992,1.999375\H,0,2.759689,0.214799,2.31848

 Normal termination of Gaussian 16 at Wed Apr  9 00:04:23 2025.
