 Gaussian 16, Revision C.01,

 ----------------------------------------------------------------------
 #t hf aug-cc-pvdz symm=none int=(grid=ultrafine) guess=(read,tcheck) s
 table=(opt,rrhf)
 ----------------------------------------------------------------------
 -----
 title
 -----
 Symbolic Z-matrix:
 Charge =  0 Multiplicity = 1

 SCF Done:  E(RHF) =  -598.897567000     A.U. after   14 cycles
 Normal termination of Gaussian 16 at Tue Apr  8 23:52:48 2025.
 Gaussian 16:  ES64L-G16RevC.01  3-Jul-2019

 ----------------------------------------------------------------------
 #t hf aug-cc-pvdz iop(5/13=1,5/36=2,99/5=2) pseudo=read geom=check gue
 ss=(read,tcheck) scf=(maxcycle=1)
 ----------------------------------------------------------------------
 -----
 title
 -----
 Structure from the checkpoint file:  "BDE49_nonexpt_1892_mol1.chk"
 Charge =  0 Multiplicity = 1

                         Standard orientation:
 ---------------------------------------------------------------------
 Center     Atomic      Atomic             Coordinates (Angstroms)
 Number     Number       Type             X           Y           Z
 ---------------------------------------------------------------------
      1          6           0        1.765320   -0.000008   -0.525613
      2         14           0        3.613872   -0.000002   -0.141294
      3          6           0        0.853247    0.000011    0.724381
      4          6           0       -0.621405    0.000006    0.380667
      5          6           0       -1.316224   -1.200917    0.202062
      6          6           0       -1.316226    1.200923    0.202033
      7          6           0       -2.664206   -1.203621   -0.148891
      8          6           0       -3.343086   -0.000005   -0.326671
      9          6           0       -2.664209    1.203616   -0.148919
     10          1           0       -0.796806   -2.143693    0.344804
     11          1           0       -3.185736   -2.145679   -0.278340
     12          1           0       -4.393099   -0.000010   -0.596556
     13          1           0       -3.185740    2.145670   -0.278391
     14          1           0       -0.796810    2.143703    0.344753
     15          1           0        3.980903    1.201657    0.648496
     16          1           0        4.404255   -0.000018   -1.396111
     17          1           0        1.080006    0.876909    1.339792
     18          1           0        1.080006   -0.876868    1.339819
     19          1           0        3.980904   -1.201639    0.648528
     20          1           0        1.539319   -0.874517   -1.146468
     21          1           0        1.539318    0.874483   -1.146495
 ---------------------------------------------------------------------

 SCF Done:  E(RHF) =  -599.258698630     A.U. after    2 cycles

 The electronic state is 1-A.
 Alpha  occ. eigenvalues --  -69.52310 -11.24699 -11.24586 -11.24293 -11.24270
 Alpha  occ. eigenvalues --  -11.23906 -11.23861 -11.23860 -11.22703  -6.19427
 Alpha  occ. eigenvalues --   -3.94799  -3.94794  -3.94779  -1.15744  -1.06714
 Alpha  occ. eigenvalues --   -1.01469  -0.98708  -0.87496  -0.83505  -0.80127
 Alpha  occ. eigenvalues --   -0.72366  -0.70664  -0.65903  -0.64231  -0.60496
 Alpha  occ. eigenvalues --   -0.59444  -0.59097  -0.55371  -0.51788  -0.51754
 Alpha  occ. eigenvalues --   -0.49802  -0.49365  -0.47518  -0.47418  -0.44440
 Alpha  occ. eigenvalues --   -0.34518  -0.33480
 Alpha virt. eigenvalues --    0.03370   0.03385   0.03649   0.04077   0.04464
 Alpha virt. eigenvalues --    0.04888   0.06050   0.06611   0.07315   0.08053
 Alpha virt. eigenvalues --    0.08214   0.08826   0.10385   0.10524   0.10715

 Mulliken charges:
               1
     1  C   -0.549726
     2  Si   0.899153
     3  C   -0.933872
     4  C    1.509404
     5  C    0.231396
     6  C    0.231396
     7  C    0.044377
     8  C    0.122582
     9  C    0.044382
    10  H   -0.338456
    11  H   -0.228867
    12  H   -0.219080
    13  H   -0.228867
    14  H   -0.338456
    15  H   -0.173105
    16  H   -0.185867
    17  H    0.035228
    18  H    0.035229
    19  H   -0.173105
    20  H    0.108125
    21  H    0.108128
 Sum of Mulliken charges =  -0.00000

 Dipole moment (field-independent basis, Debye):
    X=             -0.4231    Y=             -0.0000    Z=             -0.1637  Tot=              0.4537

 Test job not archived.
 1\1\GINC-SE328\SP\RHF\Aug-CC-pVDZ\C8H12Si1\OHZDE\08-Apr-2025\0\\#t hf
 aug-cc-pvdz iop(5/13=1,5/36=2,99/5=2) pseudo=read geom=check guess=(re
 ad,tcheck) scf=(maxcycle=1)\\title\\0,1\C,0,1.76532,-0.000008,-0.52561
 3\Si,0,3.613872,-0.000002,-0.141294\C,0,0.853247,0.000011,0.724381\C,0
 ,-0.621405,0.000006,0.380667\C,0,-1.316224,-1.200917,0.202062\C,0,-1.3
 16226,1.200923,0.202033\C,0,-2.664206,-1.203621,-0.148891\C,0,-3.34308
 6,-0.000005,-0.326671\C,0,-2.664209,1.203616,-0.148919\H,0,-0.796806,-
 2.143693,0.344804\H,0,-3.185736,-2.145679,-0.27834\H,0,-4.393099,-0.00

 Normal termination of Gaussian 16 at Tue Apr  8 23:52:59 2025.
