 Gaussian 16, Revision C.01,

 ----------------------------------------------------------------------
 #t hf aug-cc-pvdz symm=none int=(grid=ultrafine) guess=(read,tcheck) s
 table=(opt,rrhf)
 ----------------------------------------------------------------------
 -----
 title
 -----
 Symbolic Z-matrix:
 Charge =  0 Multiplicity = 1

 SCF Done:  E(RHF) =  -884.019139711     A.U. after   12 cycles
 Normal termination of Gaussian 16 at Wed Apr  9 00:14:59 2025.
 Gaussian 16:  ES64L-G16RevC.01  3-Jul-2019

 ----------------------------------------------------------------------
 #t hf aug-cc-pvdz iop(5/13=1,5/36=2,99/5=2) pseudo=read geom=check gue
 ss=(read,tcheck) scf=(maxcycle=1)
 ----------------------------------------------------------------------
 -----
 title
 -----
 Structure from the checkpoint file:  "BDE49_nonexpt_2467_mol1.chk"
 Charge =  0 Multiplicity = 1

                         Standard orientation:
 ---------------------------------------------------------------------
 Center     Atomic      Atomic             Coordinates (Angstroms)
 Number     Number       Type             X           Y           Z
 ---------------------------------------------------------------------
      1         16           0        3.018429   -1.101790   -0.204125
      2         14           0        2.149160    0.839115    0.241018
      3          1           0        2.226276   -1.795907    0.632511
      4          6           0        0.387094    1.047154   -0.383988
      5          6           0       -0.657441    0.111026    0.248771
      6          1           0        0.394170    0.923963   -1.473394
      7          1           0        0.111170    2.094298   -0.196407
      8          6           0       -2.083920    0.358213   -0.259672
      9          1           0       -0.642621    0.225124    1.340096
     10          1           0       -0.385135   -0.931758    0.046019
     11          6           0       -3.127348   -0.575710    0.363852
     12          1           0       -2.100819    0.244597   -1.351119
     13          1           0       -2.362834    1.400464   -0.057874
     14          6           0       -4.547964   -0.322431   -0.148833
     15          1           0       -3.107288   -0.462190    1.454572
     16          1           0       -2.846462   -1.616349    0.161421
     17          1           0       -4.871074    0.700124    0.069901
     18          1           0       -5.266903   -1.003595    0.314294
     19          1           0       -4.608176   -0.462857   -1.232540
     20          1           0        3.058970    1.786321   -0.441315
     21          1           0        2.195098    1.069283    1.704801
 ---------------------------------------------------------------------

 SCF Done:  E(RHF) =  -884.337071893     A.U. after    2 cycles

 The electronic state is 1-A.
 Alpha  occ. eigenvalues --  -93.94113 -69.55143 -11.23945 -11.23015 -11.22970
 Alpha  occ. eigenvalues --  -11.22811 -11.22500  -8.22373  -6.21993  -6.20196
 Alpha  occ. eigenvalues --   -6.20081  -6.19865  -3.97390  -3.97298  -3.97258
 Alpha  occ. eigenvalues --   -1.09028  -1.02619  -0.99817  -0.92812  -0.83553
 Alpha  occ. eigenvalues --   -0.79768  -0.70882  -0.66103  -0.61064  -0.60191
 Alpha  occ. eigenvalues --   -0.57705  -0.55992  -0.54365  -0.52596  -0.51037
 Alpha  occ. eigenvalues --   -0.49391  -0.48414  -0.47291  -0.47179  -0.45354
 Alpha  occ. eigenvalues --   -0.43648  -0.37542
 Alpha virt. eigenvalues --    0.03125   0.03388   0.03670   0.03963   0.05027
 Alpha virt. eigenvalues --    0.05501   0.05746   0.06303   0.07511   0.07962
 Alpha virt. eigenvalues --    0.08510   0.08884   0.09280   0.10743   0.10965

 Mulliken charges:
               1
     1  S   -0.923440
     2  Si   1.231501
     3  H    0.313018
     4  C   -0.721593
     5  C   -0.083775
     6  H    0.111857
     7  H    0.108945
     8  C   -0.242650
     9  H    0.093288
    10  H    0.098779
    11  C   -0.186261
    12  H    0.109807
    13  H    0.104575
    14  C   -0.406408
    15  H    0.119626
    16  H    0.120519
    17  H    0.161855
    18  H    0.120267
    19  H    0.163013
    20  H   -0.184264
    21  H   -0.108659
 Sum of Mulliken charges =  -0.00000

 Dipole moment (field-independent basis, Debye):
    X=             -1.9294    Y=              0.6784    Z=              0.5147  Tot=              2.1090

 Test job not archived.
 1\1\GINC-SE179\SP\RHF\Aug-CC-pVDZ\C5H14S1Si1\OHZDE\09-Apr-2025\0\\#t h
 f aug-cc-pvdz iop(5/13=1,5/36=2,99/5=2) pseudo=read geom=check guess=(
 read,tcheck) scf=(maxcycle=1)\\title\\0,1\S,0,3.018429,-1.10179,-0.204
 125\Si,0,2.14916,0.839115,0.241018\H,0,2.226276,-1.795907,0.632511\C,0
 ,0.387094,1.047154,-0.383988\C,0,-0.657441,0.111026,0.248771\H,0,0.394
 17,0.923963,-1.473394\H,0,0.11117,2.094298,-0.196407\C,0,-2.08392,0.35
 8213,-0.259672\H,0,-0.642621,0.225124,1.340096\H,0,-0.385135,-0.931758
 ,0.046019\C,0,-3.127348,-0.57571,0.363852\H,0,-2.100819,0.244597,-1.35

 Normal termination of Gaussian 16 at Wed Apr  9 00:15:09 2025.
