 Gaussian 16, Revision C.01,

 ----------------------------------------------------------------------
 #t hf aug-cc-pvdz symm=none int=(grid=ultrafine) guess=(read,tcheck) s
 table=opt
 ----------------------------------------------------------------------
 -----
 title
 -----
 Symbolic Z-matrix:
 Charge =  0 Multiplicity = 2

 SCF Done:  E(UHF) =  -406.557484358     A.U. after   15 cycles

 1\1\GINC-SE402\Stability\UHF\Aug-CC-pVDZ\C3H7Si1\OHZDE\08-Apr-2025\0\\
 #t hf aug-cc-pvdz symm=none int=(grid=ultrafine) guess=(read,tcheck) s
 table=opt\\title\\0,2\Si,0,0.321183,1.065768,0.\C,0,-0.140179,-0.32662
 5,1.220559\C,0,-0.140179,-0.326625,-1.220559\C,0,-0.140179,-1.306381,0
 .\H,0,0.532558,-0.598463,-2.033785\H,0,-1.139391,-0.175594,-1.640845\H
 ,0,0.771925,-1.90754,0.\H,0,-0.988861,-1.996107,0.\H,0,-1.139391,-0.17
 5594,1.640845\H,0,0.532558,-0.598463,2.033785\H,0,-0.542738,2.288791,0
 .\\Version=ES64L-G16RevC.01\HF=-406.5574844\S2=0.75401\S2-1=0.\S2A=0.7

 Normal termination of Gaussian 16 at Tue Apr  8 23:41:17 2025.
 Gaussian 16:  ES64L-G16RevC.01  3-Jul-2019

 ----------------------------------------------------------------------
 #t hf aug-cc-pvdz iop(5/13=1,5/36=2,99/5=2) pseudo=read geom=check gue
 ss=(read,tcheck) scf=(maxcycle=1)
 ----------------------------------------------------------------------
 -----
 title
 -----
 Structure from the checkpoint file:  "BDE49_nonexpt_1656_mol2.chk"
 Charge =  0 Multiplicity = 2

                         Standard orientation:
 ---------------------------------------------------------------------
 Center     Atomic      Atomic             Coordinates (Angstroms)
 Number     Number       Type             X           Y           Z
 ---------------------------------------------------------------------
      1         14           0        0.321183    1.065768   -0.000000
      2          6           0       -0.140179   -0.326625    1.220559
      3          6           0       -0.140179   -0.326625   -1.220559
      4          6           0       -0.140179   -1.306381    0.000000
      5          1           0        0.532558   -0.598463   -2.033785
      6          1           0       -1.139391   -0.175594   -1.640845
      7          1           0        0.771925   -1.907540    0.000000
      8          1           0       -0.988861   -1.996107    0.000000
      9          1           0       -1.139391   -0.175594    1.640845
     10          1           0        0.532558   -0.598463    2.033785
     11          1           0       -0.542738    2.288791   -0.000000
 ---------------------------------------------------------------------

 SCF Done:  E(UHF) =  -406.716514720     A.U. after    2 cycles

 The electronic state is 2-A'.
 Alpha  occ. eigenvalues --  -69.52917 -11.24005 -11.21819 -11.21816  -6.19979
 Alpha  occ. eigenvalues --   -3.95896  -3.95013  -3.94919  -1.07137  -0.90223
 Alpha  occ. eigenvalues --   -0.81409  -0.68603  -0.63646  -0.59776  -0.55194
 Alpha  occ. eigenvalues --   -0.49063  -0.49030  -0.42494  -0.42371  -0.31938
 Alpha virt. eigenvalues --    0.03704   0.03919   0.04164   0.04322   0.06559
 Alpha virt. eigenvalues --    0.06760   0.07086   0.07298   0.08193   0.10737
 Alpha virt. eigenvalues --    0.12976   0.13235   0.15305   0.15478   0.15852

  Beta  occ. eigenvalues --  -69.52386 -11.24015 -11.21709 -11.21706  -6.19174
  Beta  occ. eigenvalues --   -3.94683  -3.94569  -3.93784  -1.06684  -0.89759
  Beta  occ. eigenvalues --   -0.80535  -0.66213  -0.63259  -0.57648  -0.54792
  Beta  occ. eigenvalues --   -0.48716  -0.48377  -0.41383  -0.40713
  Beta virt. eigenvalues --    0.02801   0.03941   0.04068   0.04352   0.05504
  Beta virt. eigenvalues --    0.06705   0.06767   0.07321   0.07413   0.09010
  Beta virt. eigenvalues --    0.11120   0.13555   0.13600   0.15373   0.15493

 Mulliken charges and spin densities:
               1          2
     1  Si   0.883482   0.895939
     2  C   -0.349212   0.003561
     3  C   -0.349212   0.003561
     4  C   -0.339470   0.025237
     5  H    0.020844   0.003158
     6  H    0.007591   0.000086
     7  H    0.111897   0.000963
     8  H    0.099323   0.002264
     9  H    0.007591   0.000086
    10  H    0.020844   0.003158
    11  H   -0.113677   0.061988
 Sum of Mulliken charges =   0.00000   1.00000

 Dipole moment (field-independent basis, Debye):
    X=             -0.2446    Y=             -0.5301    Z=              0.0000  Tot=              0.5838
                          Isotropic Fermi Contact Couplings
        Atom                 a.u.       MegaHertz       Gauss      10(-4) cm-1
     1  Si(29)             0.54163    -481.36223    -171.76202    -160.56516
     2  C(13)              0.01151      12.93395       4.61515       4.31430
     3  C(13)              0.01151      12.93395       4.61515       4.31430
     4  C(13)             -0.00326      -3.66640      -1.30826      -1.22298
     5  H(1)               0.00150       6.68924       2.38689       2.23129
     6  H(1)               0.00456      20.40216       7.28000       6.80543
     7  H(1)               0.00013       0.58514       0.20879       0.19518
     8  H(1)               0.00117       5.22351       1.86388       1.74237

 Normal termination of Gaussian 16 at Tue Apr  8 23:41:20 2025.
