 Gaussian 16, Revision C.01,

 ----------------------------------------------------------------------
 #t hf aug-cc-pvdz symm=none int=(grid=ultrafine) guess=(read,tcheck) s
 table=(opt,rrhf)
 ----------------------------------------------------------------------
 -----
 title
 -----
 Symbolic Z-matrix:
 Charge =  0 Multiplicity = 1

 SCF Done:  E(RHF) =  -930.887250982     A.U. after   15 cycles
 Normal termination of Gaussian 16 at Tue Apr  8 23:25:09 2025.
 Gaussian 16:  ES64L-G16RevC.01  3-Jul-2019

 ----------------------------------------------------------------------
 #t hf aug-cc-pvdz iop(5/13=1,5/36=2,99/5=2) pseudo=read geom=check gue
 ss=(read,tcheck) scf=(maxcycle=1)
 ----------------------------------------------------------------------
 -----
 title
 -----
 Structure from the checkpoint file:  "BDE49_nonexpt_1191_mol1.chk"
 Charge =  0 Multiplicity = 1

                         Standard orientation:
 ---------------------------------------------------------------------
 Center     Atomic      Atomic             Coordinates (Angstroms)
 Number     Number       Type             X           Y           Z
 ---------------------------------------------------------------------
      1          8           0        0.863617    1.050315   -0.600611
      2         16           0       -0.633008    1.537622    0.016749
      3          6           0       -1.563448    0.007680   -0.226909
      4          6           0        1.681088    0.275421    0.210304
      5          8           0        1.411446   -0.033447    1.335000
      6          8           0       -1.051306   -0.992500   -0.655732
      7          6           0        2.909762   -0.079159   -0.536068
      8          6           0        4.191935   -0.220792    0.270221
      9          6           0        3.515749   -1.443966   -0.248333
     10          1           0        4.113071   -0.015341    1.330098
     11          1           0        5.103123    0.118454   -0.206264
     12          1           0        3.948229   -1.966988   -1.091842
     13          1           0        2.979128   -2.061524    0.460196
     14          1           0        2.972761    0.307099   -1.543427
     15          6           0       -2.983727    0.159200    0.173793
     16          6           0       -4.014743   -0.663859   -0.583366
     17          6           0       -3.655313   -1.048291    0.811816
     18          1           0       -3.279819    1.142200    0.524250
     19          1           0       -4.358181   -0.847913    1.610585
     20          1           0       -3.026842   -1.919263    0.947406
     21          1           0       -3.628939   -1.277188   -1.387814
     22          1           0       -4.972275   -0.193827   -0.769187
 ---------------------------------------------------------------------

 SCF Done:  E(RHF) =  -931.482917205     A.U. after    2 cycles

 The electronic state is 1-A.
 Alpha  occ. eigenvalues --  -94.02384 -20.61394 -20.55056 -20.53791 -11.39652
 Alpha  occ. eigenvalues --  -11.37959 -11.27068 -11.26201 -11.26138 -11.25857
 Alpha  occ. eigenvalues --  -11.25289 -11.25194  -8.29906  -6.27733  -6.27476
 Alpha  occ. eigenvalues --   -6.27245  -1.54248  -1.49247  -1.45847  -1.17497
 Alpha  occ. eigenvalues --   -1.16495  -1.05988  -0.94155  -0.88173  -0.84701
 Alpha  occ. eigenvalues --   -0.83868  -0.77862  -0.75339  -0.73284  -0.70966
 Alpha  occ. eigenvalues --   -0.68461  -0.67240  -0.65894  -0.65146  -0.60611
 Alpha  occ. eigenvalues --   -0.58737  -0.57977  -0.57547  -0.54687  -0.53913
 Alpha  occ. eigenvalues --   -0.53465  -0.49115  -0.47244  -0.45965  -0.44406
 Alpha  occ. eigenvalues --   -0.44263  -0.43413  -0.40846  -0.39169
 Alpha virt. eigenvalues --    0.03231   0.03674   0.04290   0.04420   0.04843
 Alpha virt. eigenvalues --    0.05013   0.05375   0.06727   0.07191   0.08127
 Alpha virt. eigenvalues --    0.09055   0.10040   0.10151   0.10462   0.11643

 Mulliken charges:
               1
     1  O   -1.427725
     2  S    0.984943
     3  C    0.348201
     4  C    1.658555
     5  O   -1.253712
     6  O   -1.356562
     7  C    0.612499
     8  C    0.296118
     9  C    0.179612
    10  H   -0.107314
    11  H   -0.129090
    12  H   -0.119068
    13  H   -0.102168
    14  H   -0.250347
    15  C    0.797172
    16  C    0.210078
    17  C    0.212581
    18  H   -0.112072
    19  H   -0.130713
    20  H   -0.090234
    21  H   -0.098621
    22  H   -0.122133
 Sum of Mulliken charges =  -0.00000

 Dipole moment (field-independent basis, Debye):
    X=             -1.0777    Y=              0.4354    Z=             -0.7035  Tot=              1.3587

 Test job not archived.
 1\1\GINC-SE048\SP\RHF\Aug-CC-pVDZ\C8H10O3S1\OHZDE\08-Apr-2025\0\\#t hf
  aug-cc-pvdz iop(5/13=1,5/36=2,99/5=2) pseudo=read geom=check guess=(r
 ead,tcheck) scf=(maxcycle=1)\\title\\0,1\O,0,0.863617,1.050315,-0.6006
 11\S,0,-0.633008,1.537622,0.016749\C,0,-1.563448,0.00768,-0.226909\C,0
 ,1.681088,0.275421,0.210304\O,0,1.411446,-0.033447,1.335\O,0,-1.051306
 ,-0.9925,-0.655732\C,0,2.909762,-0.079159,-0.536068\C,0,4.191935,-0.22
 0792,0.270221\C,0,3.515749,-1.443966,-0.248333\H,0,4.113071,-0.015341,
 1.330098\H,0,5.103123,0.118454,-0.206264\H,0,3.948229,-1.966988,-1.091

 Normal termination of Gaussian 16 at Tue Apr  8 23:25:24 2025.
