 Gaussian 16, Revision C.01,

 ----------------------------------------------------------------------
 #t hf aug-cc-pvdz symm=none int=(grid=ultrafine) guess=(read,tcheck) s
 table=(opt,rrhf)
 ----------------------------------------------------------------------
 -----
 title
 -----
 Symbolic Z-matrix:
 Charge =  0 Multiplicity = 1

 SCF Done:  E(RHF) =  -727.846187593     A.U. after   12 cycles
 Normal termination of Gaussian 16 at Tue Apr  8 23:56:20 2025.
 Gaussian 16:  ES64L-G16RevC.01  3-Jul-2019

 ----------------------------------------------------------------------
 #t hf aug-cc-pvdz iop(5/13=1,5/36=2,99/5=2) pseudo=read geom=check gue
 ss=(read,tcheck) scf=(maxcycle=1)
 ----------------------------------------------------------------------
 -----
 title
 -----
 Structure from the checkpoint file:  "BDE49_nonexpt_2008_mol1.chk"
 Charge =  0 Multiplicity = 1

                         Standard orientation:
 ---------------------------------------------------------------------
 Center     Atomic      Atomic             Coordinates (Angstroms)
 Number     Number       Type             X           Y           Z
 ---------------------------------------------------------------------
      1         16           0       -0.553731   -0.741005   -0.000001
      2         14           0        1.366814    0.228117   -0.000000
      3          6           0       -1.666317    0.726530    0.000002
      4          1           0       -2.685269    0.340122    0.000001
      5          1           0       -1.516752    1.331497   -0.894215
      6          1           0       -1.516752    1.331494    0.894220
      7          1           0        2.365920   -0.860698   -0.000002
      8          1           0        1.537528    1.080415    1.200550
      9          1           0        1.537528    1.080419   -1.200547
 ---------------------------------------------------------------------

 SCF Done:  E(RHF) =  -727.989050868     A.U. after    2 cycles

 The electronic state is 1-A.
 Alpha  occ. eigenvalues --  -93.93723 -69.55502 -11.27568  -8.22018  -6.22382
 Alpha  occ. eigenvalues --   -6.19813  -6.19682  -6.19473  -3.97792  -3.97711
 Alpha  occ. eigenvalues --   -3.97678  -1.05535  -0.88852  -0.73126  -0.60362
 Alpha  occ. eigenvalues --   -0.60230  -0.52803  -0.50363  -0.48171  -0.43311
 Alpha  occ. eigenvalues --   -0.36324
 Alpha virt. eigenvalues --    0.03520   0.04104   0.04978   0.05417   0.06304
 Alpha virt. eigenvalues --    0.07185   0.08334   0.09371   0.09685   0.11856
 Alpha virt. eigenvalues --    0.13257   0.14119   0.14709   0.15953   0.16576

 Mulliken charges:
               1
     1  S   -0.321507
     2  Si   1.139599
     3  C   -0.666846
     4  H    0.156368
     5  H    0.146113
     6  H    0.146111
     7  H   -0.224796
     8  H   -0.187521
     9  H   -0.187521
 Sum of Mulliken charges =   0.00000

 Dipole moment (field-independent basis, Debye):
    X=             -0.2648    Y=              1.6391    Z=              0.0000  Tot=              1.6603

 Test job not archived.
 1\1\GINC-SE252\SP\RHF\Aug-CC-pVDZ\C1H6S1Si1\OHZDE\08-Apr-2025\0\\#t hf
  aug-cc-pvdz iop(5/13=1,5/36=2,99/5=2) pseudo=read geom=check guess=(r
 ead,tcheck) scf=(maxcycle=1)\\title\\0,1\S,0,-0.553731,-0.741005,-0.00
 0001\Si,0,1.366814,0.228117,0.\C,0,-1.666317,0.72653,0.000002\H,0,-2.6
 85269,0.340122,0.000001\H,0,-1.516752,1.331497,-0.894215\H,0,-1.516752
 ,1.331494,0.89422\H,0,2.36592,-0.860698,-0.000002\H,0,1.537528,1.08041
 5,1.20055\H,0,1.537528,1.080419,-1.200547\\Version=ES64L-G16RevC.01\St
 ate=1-A\HF=-727.9890509\RMSD=4.716e-03\Dipole=-0.1041941,0.6448666,0.0

 Normal termination of Gaussian 16 at Tue Apr  8 23:56:23 2025.
