 Gaussian 16, Revision C.01,

 ----------------------------------------------------------------------
 #t hf aug-cc-pvdz symm=none int=(grid=ultrafine) guess=(read,tcheck) s
 table=(opt,rrhf)
 ----------------------------------------------------------------------
 -----
 title
 -----
 Symbolic Z-matrix:
 Charge =  0 Multiplicity = 1

 SCF Done:  E(RHF) =  -540.948221641     A.U. after   14 cycles
 Normal termination of Gaussian 16 at Tue Apr  8 23:19:53 2025.
 Gaussian 16:  ES64L-G16RevC.01  3-Jul-2019

 ----------------------------------------------------------------------
 #t hf aug-cc-pvdz iop(5/13=1,5/36=2,99/5=2) pseudo=read geom=check gue
 ss=(read,tcheck) scf=(maxcycle=1)
 ----------------------------------------------------------------------
 -----
 title
 -----
 Structure from the checkpoint file:  "BDE49_nonexpt_112_mol1.chk"
 Charge =  0 Multiplicity = 1

                         Standard orientation:
 ---------------------------------------------------------------------
 Center     Atomic      Atomic             Coordinates (Angstroms)
 Number     Number       Type             X           Y           Z
 ---------------------------------------------------------------------
      1          5           0       -1.747714    1.377519    0.000035
      2          5           0       -1.514006   -0.256447    0.000121
      3         16           0        0.087796   -1.085839    0.000024
      4          6           0        1.194621    0.221407   -0.000057
      5          7           0        1.976076    1.074665   -0.000102
      6          1           0       -2.391324   -1.063492   -0.000110
      7          1           0       -1.852617    1.990268    1.018126
      8          1           0       -1.852448    1.990191   -1.018120
 ---------------------------------------------------------------------

 SCF Done:  E(RHF) =  -541.145122341     A.U. after    2 cycles

 The electronic state is 1-A.
 Alpha  occ. eigenvalues --  -94.02051 -15.53572 -11.31483  -8.30238  -7.64375
 Alpha  occ. eigenvalues --   -7.61470  -6.28073  -6.27816  -6.27686  -1.25350
 Alpha  occ. eigenvalues --   -1.10474  -0.79767  -0.72917  -0.63851  -0.59631
 Alpha  occ. eigenvalues --   -0.57674  -0.56500  -0.52012  -0.49979  -0.46245
 Alpha  occ. eigenvalues --   -0.43395
 Alpha virt. eigenvalues --    0.02320   0.02949   0.03375   0.04084   0.05268
 Alpha virt. eigenvalues --    0.06205   0.06707   0.07672   0.08747   0.09329
 Alpha virt. eigenvalues --    0.10605   0.12077   0.12564   0.12851   0.13734

 Mulliken charges:
               1
     1  B   -0.551109
     2  B    0.290868
     3  S    0.297868
     4  C   -1.633755
     5  N    0.733398
     6  H    0.247565
     7  H    0.307587
     8  H    0.307578
 Sum of Mulliken charges =  -0.00000

 Dipole moment (field-independent basis, Debye):
    X=             -3.7520    Y=             -2.1927    Z=              0.0003  Tot=              4.3457

 Test job not archived.
 1\1\GINC-SE253\SP\RHF\Aug-CC-pVDZ\C1H3B2N1S1\OHZDE\08-Apr-2025\0\\#t h
 f aug-cc-pvdz iop(5/13=1,5/36=2,99/5=2) pseudo=read geom=check guess=(
 read,tcheck) scf=(maxcycle=1)\\title\\0,1\B,0,-1.747714,1.377519,0.000
 035\B,0,-1.514006,-0.256447,0.000121\S,0,0.087796,-1.085839,0.000024\C
 ,0,1.194621,0.221407,-0.000057\N,0,1.976076,1.074665,-0.000102\H,0,-2.
 391324,-1.063491,-0.00011\H,0,-1.852616,1.990269,1.018126\H,0,-1.85244
 7,1.990192,-1.01812\\Version=ES64L-G16RevC.01\State=1-A\HF=-541.145122
 3\RMSD=1.949e-02\Dipole=-1.4761383,-0.8626914,0.0001365\Quadrupole=-0.

 Normal termination of Gaussian 16 at Tue Apr  8 23:19:56 2025.
