 Gaussian 16, Revision C.01,

 ----------------------------------------------------------------------
 #t hf aug-cc-pvdz symm=none int=(grid=ultrafine) guess=(read,tcheck) s
 table=(opt,rrhf)
 ----------------------------------------------------------------------
 -----
 title
 -----
 Symbolic Z-matrix:
 Charge =  0 Multiplicity = 1

 SCF Done:  E(RHF) =  -808.613179192     A.U. after   13 cycles
 Normal termination of Gaussian 16 at Tue Apr  8 23:24:32 2025.
 Gaussian 16:  ES64L-G16RevC.01  3-Jul-2019

 ----------------------------------------------------------------------
 #t hf aug-cc-pvdz iop(5/13=1,5/36=2,99/5=2) pseudo=read geom=check gue
 ss=(read,tcheck) scf=(maxcycle=1)
 ----------------------------------------------------------------------
 -----
 title
 -----
 Structure from the checkpoint file:  "BDE49_expt_823_mol1.chk"
 Charge =  0 Multiplicity = 1

                         Standard orientation:
 ---------------------------------------------------------------------
 Center     Atomic      Atomic             Coordinates (Angstroms)
 Number     Number       Type             X           Y           Z
 ---------------------------------------------------------------------
      1         15           0        0.009580   -1.392770   -0.148924
      2          6           0        1.445654   -0.233010    0.212170
      3          6           0        2.651221   -1.055430    0.710663
      4          6           0       -1.483904   -0.257943   -0.296033
      5          1           0       -0.218840   -1.792762    1.196586
      6          6           0       -1.709719    0.730611    0.861447
      7          6           0        3.885652   -0.172827    0.953771
      8          1           0        2.897212   -1.822458   -0.034995
      9          1           0        2.387364   -1.589267    1.629626
     10          6           0        4.255794    0.636825   -0.296067
     11          1           0        4.730320   -0.794849    1.267773
     12          1           0        3.680106    0.515792    1.783479
     13          6           0        3.062920    1.460519   -0.798998
     14          1           0        4.578929   -0.050750   -1.088413
     15          1           0        5.107381    1.291986   -0.085812
     16          6           0        1.826220    0.579881   -1.040223
     17          1           0        3.327324    1.989162   -1.720771
     18          1           0        2.817737    2.231516   -0.057118
     19          1           0        0.986291    1.205368   -1.359774
     20          1           0        2.029828   -0.112877   -1.867425
     21          1           0        1.159593    0.464865    1.007130
     22          6           0       -2.968846    1.588487    0.648647
     23          1           0       -0.840815    1.382728    0.986740
     24          1           0       -1.812085    0.163952    1.796157
     25          6           0       -2.742269   -1.122952   -0.523555
     26          1           0       -1.311440    0.317931   -1.216044
     27          6           0       -3.999749   -0.265273   -0.734803
     28          1           0       -2.894144   -1.771902    0.349474
     29          1           0       -2.589816   -1.787118   -1.379690
     30          6           0       -4.213999    0.721825    0.420140
     31          1           0       -4.875550   -0.912362   -0.849817
     32          1           0       -3.899478    0.293374   -1.674415
     33          1           0       -5.085877    1.353941    0.222777
     34          1           0       -4.436396    0.161157    1.337430
     35          1           0       -2.817671    2.240722   -0.221357
     36          1           0       -3.117513    2.249118    1.509361
 ---------------------------------------------------------------------

 SCF Done:  E(RHF) =  -809.172707300     A.U. after    2 cycles

 The electronic state is 1-A.
 Alpha  occ. eigenvalues --  -84.25115 -11.23516 -11.23376 -11.22800 -11.22765
 Alpha  occ. eigenvalues --  -11.22687 -11.22680 -11.22552 -11.22542 -11.22469
 Alpha  occ. eigenvalues --  -11.22447 -11.22396 -11.22382  -6.72153  -4.25108
 Alpha  occ. eigenvalues --   -4.24876  -4.24188  -1.12303  -1.11508  -1.02144
 Alpha  occ. eigenvalues --   -1.00345  -1.00313  -0.99770  -0.86913  -0.83662
 Alpha  occ. eigenvalues --   -0.83638  -0.82313  -0.76861  -0.75788  -0.74056
 Alpha  occ. eigenvalues --   -0.65134  -0.64859  -0.61438  -0.60989  -0.60598
 Alpha  occ. eigenvalues --   -0.60420  -0.60311  -0.58106  -0.54017  -0.53694
 Alpha  occ. eigenvalues --   -0.53471  -0.53417  -0.50421  -0.50244  -0.49604
 Alpha  occ. eigenvalues --   -0.49134  -0.48979  -0.47730  -0.46011  -0.45424
 Alpha  occ. eigenvalues --   -0.44334  -0.44059  -0.42526  -0.38945  -0.31080
 Alpha virt. eigenvalues --    0.02867   0.02923   0.03344   0.03944   0.04284
 Alpha virt. eigenvalues --    0.04372   0.04527   0.05633   0.05821   0.06358
 Alpha virt. eigenvalues --    0.06654   0.06933   0.07343   0.07739   0.09162

 Mulliken charges:
               1
     1  P    0.189473
     2  C    0.115418
     3  C   -0.187797
     4  C   -0.277697
     5  H    0.258402
     6  C   -0.333766
     7  C   -0.316551
     8  H    0.155644
     9  H    0.077560
    10  C   -0.235487
    11  H    0.110891
    12  H    0.153765
    13  C   -0.363918
    14  H    0.152705
    15  H    0.112582
    16  C   -0.460744
    17  H    0.103441
    18  H    0.166792
    19  H    0.054793
    20  H    0.196743
    21  H    0.076012
    22  C   -0.312127
    23  H    0.028688
    24  H    0.136038
    25  C   -0.232884
    26  H    0.125870
    27  C   -0.305325
    28  H    0.166276
    29  H    0.082772
    30  C   -0.231354
    31  H    0.115903
    32  H    0.148877
    33  H    0.114363
    34  H    0.150197
    35  H    0.165036
    36  H    0.099408
 Sum of Mulliken charges =  -0.00000

 Dipole moment (field-independent basis, Debye):
    X=             -0.0607    Y=              1.1851    Z=              0.3800  Tot=              1.2460

 Test job not archived.
 1\1\GINC-SE045\SP\RHF\Aug-CC-pVDZ\C12H23P1\OHZDE\08-Apr-2025\0\\#t hf
 aug-cc-pvdz iop(5/13=1,5/36=2,99/5=2) pseudo=read geom=check guess=(re
 ad,tcheck) scf=(maxcycle=1)\\title\\0,1\P,0,0.00958,-1.39277,-0.148924
 \C,0,1.445654,-0.23301,0.21217\C,0,2.651221,-1.05543,0.710663\C,0,-1.4
 83904,-0.257943,-0.296033\H,0,-0.21884,-1.792762,1.196586\C,0,-1.70971
 9,0.730611,0.861447\C,0,3.885652,-0.172827,0.953771\H,0,2.897212,-1.82
 2458,-0.034995\H,0,2.387364,-1.589267,1.629626\C,0,4.255794,0.636825,-
 0.296067\H,0,4.73032,-0.794849,1.267773\H,0,3.680106,0.515792,1.783479

 Normal termination of Gaussian 16 at Tue Apr  8 23:25:21 2025.
