 Gaussian 16, Revision C.01,

 ----------------------------------------------------------------------
 #t hf aug-cc-pvdz symm=none int=(grid=ultrafine) guess=(read,tcheck) s
 table=(opt,rrhf)
 ----------------------------------------------------------------------
 -----
 title
 -----
 Symbolic Z-matrix:
 Charge =  0 Multiplicity = 1

 SCF Done:  E(RHF) =  -267.658458690     A.U. after   14 cycles
 Normal termination of Gaussian 16 at Tue Apr  8 23:20:51 2025.
 Gaussian 16:  ES64L-G16RevC.01  3-Jul-2019

 ----------------------------------------------------------------------
 #t hf aug-cc-pvdz iop(5/13=1,5/36=2,99/5=2) pseudo=read geom=check gue
 ss=(read,tcheck) scf=(maxcycle=1)
 ----------------------------------------------------------------------
 -----
 title
 -----
 Structure from the checkpoint file:  "BDE49_nonexpt_1154_mol1.chk"
 Charge =  0 Multiplicity = 1

                         Standard orientation:
 ---------------------------------------------------------------------
 Center     Atomic      Atomic             Coordinates (Angstroms)
 Number     Number       Type             X           Y           Z
 ---------------------------------------------------------------------
      1          9           0       -0.251479   -1.375258    0.000000
      2          8           0       -0.934705   -0.114543    0.000000
      3          6           0        0.000000    0.903887    0.000000
      4          7           0        1.247245    0.875871    0.000000
      5          1           0        1.609089   -0.078046    0.000000
      6          1           0       -0.598853    1.817295    0.000000
 ---------------------------------------------------------------------

 SCF Done:  E(RHF) =  -267.914283299     A.U. after    2 cycles

 The electronic state is 1-A'.
 Alpha  occ. eigenvalues --  -26.54079 -20.71876 -15.52267 -11.38452  -1.70080
 Alpha  occ. eigenvalues --   -1.41709  -1.24246  -0.88910  -0.79441  -0.74064
 Alpha  occ. eigenvalues --   -0.73945  -0.64436  -0.61848  -0.59895  -0.51707
 Alpha  occ. eigenvalues --   -0.48397
 Alpha virt. eigenvalues --    0.03671   0.05189   0.08677   0.09194   0.11223
 Alpha virt. eigenvalues --    0.12127   0.13395   0.15604   0.18539   0.19385
 Alpha virt. eigenvalues --    0.20555   0.23007   0.24448   0.25426   0.28259

 Mulliken charges:
               1
     1  F   -0.397044
     2  O   -0.358138
     3  C    0.087748
     4  N    0.455269
     5  H    0.157514
     6  H    0.054650
 Sum of Mulliken charges =  -0.00000

 Dipole moment (field-independent basis, Debye):
    X=             -1.1742    Y=              0.2681    Z=              0.0000  Tot=              1.2044

 Test job not archived.
 1\1\GINC-SE250\SP\RHF\Aug-CC-pVDZ\C1H2F1N1O1\OHZDE\08-Apr-2025\0\\#t h
 f aug-cc-pvdz iop(5/13=1,5/36=2,99/5=2) pseudo=read geom=check guess=(
 read,tcheck) scf=(maxcycle=1)\\title\\0,1\F,0,-1.290885,-0.536836,0.\O
 ,0,-0.604427,0.722123,0.\C,0,0.75855,0.491543,0.\N,0,1.413302,-0.57039
 1,0.\H,0,0.809542,-1.392803,0.\H,0,1.199427,1.490825,0.\\Version=ES64L
 -G16RevC.01\State=1-A'\HF=-267.9142833\RMSD=1.349e-02\Dipole=-0.162717
 6,0.4450445,0.\Quadrupole=-3.5859287,3.4485546,0.1373741,2.2268105,0.,
 0.\PG=CS [SG(C1H2F1N1O1)]\\@

 Normal termination of Gaussian 16 at Tue Apr  8 23:20:53 2025.
