 Gaussian 16, Revision C.01,

 ----------------------------------------------------------------------
 #t hf aug-cc-pvdz symm=none int=(grid=ultrafine) guess=(read,tcheck) s
 table=opt
 ----------------------------------------------------------------------
 -----
 title
 -----
 Symbolic Z-matrix:
 Charge =  0 Multiplicity = 2

 SCF Done:  E(UHF) =  -793.804274154     A.U. after   22 cycles
 Normal termination of Gaussian 16 at Wed Apr  9 00:51:10 2025.
 Gaussian 16:  ES64L-G16RevC.01  3-Jul-2019

 ----------------------------------------------------------------------
 #t hf aug-cc-pvdz iop(5/13=1,5/36=2,99/5=2) pseudo=read geom=check gue
 ss=(read,tcheck) scf=(maxcycle=1)
 ----------------------------------------------------------------------
 -----
 title
 -----
 Structure from the checkpoint file:  "BDE49_nonexpt_929_mol2.chk"
 Charge =  0 Multiplicity = 2

                         Standard orientation:
 ---------------------------------------------------------------------
 Center     Atomic      Atomic             Coordinates (Angstroms)
 Number     Number       Type             X           Y           Z
 ---------------------------------------------------------------------
      1          7           0        1.792641    0.000002   -0.000054
      2          6           0        0.793610   -1.020278    0.000041
      3          8           0        0.773945   -2.199849    0.000004
      4          6           0        0.793608    1.020280    0.000056
      5          7           0       -0.234509   -0.000000    0.000008
      6          8           0        0.773938    2.199851   -0.000002
      7         17           0       -1.930194   -0.000003   -0.000017
 ---------------------------------------------------------------------

 SCF Done:  E(UHF) =  -794.194801608     A.U. after    2 cycles

 The electronic state is 2-A.
 Alpha  occ. eigenvalues -- -105.66599 -20.60570 -20.60567 -15.66141 -15.63377
 Alpha  occ. eigenvalues --  -11.46193 -11.46026 -10.70975  -7.87904  -7.87446
 Alpha  occ. eigenvalues --   -7.87415  -1.56975  -1.55506  -1.43665  -1.27108
 Alpha  occ. eigenvalues --   -1.09133  -0.93557  -0.82792  -0.79642  -0.78851
 Alpha  occ. eigenvalues --   -0.75127  -0.69914  -0.64227  -0.63790  -0.61261
 Alpha  occ. eigenvalues --   -0.55014  -0.54910  -0.54593  -0.49366  -0.48684
 Alpha virt. eigenvalues --    0.04308   0.05312   0.08388   0.08905   0.09078
 Alpha virt. eigenvalues --    0.09620   0.09826   0.10218   0.10986   0.11325
 Alpha virt. eigenvalues --    0.12878   0.15708   0.17905   0.18417   0.19213

  Beta  occ. eigenvalues -- -105.66601 -20.60364 -20.60361 -15.65072 -15.60293
  Beta  occ. eigenvalues --  -11.46602 -11.46434 -10.70975  -7.88049  -7.87411
  Beta  occ. eigenvalues --   -7.87330  -1.56335  -1.55100  -1.39814  -1.22138
  Beta  occ. eigenvalues --   -1.05903  -0.93199  -0.81727  -0.77333  -0.74970
  Beta  occ. eigenvalues --   -0.71264  -0.69452  -0.61350  -0.60295  -0.57097
  Beta  occ. eigenvalues --   -0.54872  -0.53242  -0.48696  -0.44362
  Beta virt. eigenvalues --   -0.06478   0.04693   0.05398   0.08585   0.08904
  Beta virt. eigenvalues --    0.09213   0.09615   0.09835   0.10367   0.10469
  Beta virt. eigenvalues --    0.11518   0.12925   0.15693   0.18549   0.19207

 Mulliken charges and spin densities:
               1          2
     1  N    0.449524   1.036366
     2  C    0.585602  -0.174465
     3  O   -0.973050   0.058844
     4  C    0.585602  -0.174465
     5  N    0.109457   0.215950
     6  O   -0.973050   0.058843
     7  Cl   0.215914  -0.021073
 Sum of Mulliken charges =  -0.00000   1.00000

 Dipole moment (field-independent basis, Debye):
    X=             -1.6984    Y=             -0.0000    Z=              0.0004  Tot=              1.6984
                          Isotropic Fermi Contact Couplings
        Atom                 a.u.       MegaHertz       Gauss      10(-4) cm-1
     1  N(14)              0.26375      85.21782      30.40784      28.42561
     2  C(13)             -0.06258     -70.35668     -25.10501     -23.46846
     3  O(17)              0.01353      -8.19931      -2.92572      -2.73500
     4  C(13)             -0.06258     -70.35669     -25.10502     -23.46847
     5  N(14)              0.12328      39.83382      14.21370      13.28713
     6  O(17)              0.01353      -8.19931      -2.92572      -2.73500
     7  Cl(35)             0.02128       9.32936       3.32895       3.11194
 --------------------------------------------------------

 Normal termination of Gaussian 16 at Wed Apr  9 00:51:14 2025.
