 Gaussian 16, Revision C.01,

 ----------------------------------------------------------------------
 #t hf aug-cc-pvdz symm=none int=(grid=ultrafine) guess=(read,tcheck) s
 table=(opt,rrhf)
 ----------------------------------------------------------------------
 -----
 title
 -----
 Symbolic Z-matrix:
 Charge =  0 Multiplicity = 1

 SCF Done:  E(RHF) =  -969.601297054     A.U. after   12 cycles

 1\1\GINC-SE080\Stability\RHF\Aug-CC-pVDZ\B2Cl2H2\OHZDE\08-Apr-2025\0\\
 #t hf aug-cc-pvdz symm=none int=(grid=ultrafine) guess=(read,tcheck) s
 table=(opt,rrhf)\\title\\0,1\B,0,-0.000031,2.04413,0.000095\B,0,-0.000
 001,0.38202,0.000208\Cl,0,-1.521811,-0.513386,-0.000051\Cl,0,1.521837,
 -0.513336,-0.000044\H,0,-0.000136,2.661834,1.019863\H,0,-0.000141,2.66
 1697,-1.019756\\Version=ES64L-G16RevC.01\HF=-969.6012971\RMSD=1.852e-0
 9\Dipole=0.0000364,0.4343174,0.0001516\Quadrupole=-0.3822072,-0.047787
 2,0.4299944,0.0003188,-0.0000078,0.0000459\PG=Unknown\\@

 Normal termination of Gaussian 16 at Tue Apr  8 23:35:03 2025.
 Gaussian 16:  ES64L-G16RevC.01  3-Jul-2019

 ----------------------------------------------------------------------
 #t hf aug-cc-pvdz iop(5/13=1,5/36=2,99/5=2) pseudo=read geom=check gue
 ss=(read,tcheck) scf=(maxcycle=1)
 ----------------------------------------------------------------------
 -----
 title
 -----
 Structure from the checkpoint file:  "BDE49_nonexpt_14_mol1.chk"
 Charge =  0 Multiplicity = 1

                         Standard orientation:
 ---------------------------------------------------------------------
 Center     Atomic      Atomic             Coordinates (Angstroms)
 Number     Number       Type             X           Y           Z
 ---------------------------------------------------------------------
      1          5           0       -0.000030    2.044130    0.000095
      2          5           0       -0.000001    0.382020    0.000208
      3         17           0       -1.521811   -0.513386   -0.000051
      4         17           0        1.521837   -0.513337   -0.000044
      5          1           0       -0.000135    2.661834    1.019863
      6          1           0       -0.000140    2.661697   -1.019756
 ---------------------------------------------------------------------

 SCF Done:  E(RHF) =  -969.803485722     A.U. after    2 cycles

 The electronic state is 1-A.
 Alpha  occ. eigenvalues -- -105.58210-105.58210 -10.63228 -10.63202  -7.80114
 Alpha  occ. eigenvalues --   -7.80093  -7.79827  -7.79823  -7.79786  -7.79778
 Alpha  occ. eigenvalues --   -7.70356  -7.61529  -1.11136  -1.06190  -0.77097
 Alpha  occ. eigenvalues --   -0.66614  -0.58750  -0.56040  -0.54630  -0.50458
 Alpha  occ. eigenvalues --   -0.48301  -0.47244  -0.44334
 Alpha virt. eigenvalues --    0.02744   0.03798   0.04607   0.04640   0.06749
 Alpha virt. eigenvalues --    0.07223   0.07372   0.07731   0.08759   0.10449
 Alpha virt. eigenvalues --    0.13355   0.14060   0.14846   0.14982   0.16316

 Mulliken charges:
               1
     1  B   -0.287766
     2  B    0.557031
     3  Cl  -0.341489
     4  Cl  -0.341490
     5  H    0.206860
     6  H    0.206855
 Sum of Mulliken charges =  -0.00000

 Dipole moment (field-independent basis, Debye):
    X=              0.0001    Y=              1.0887    Z=              0.0004  Tot=              1.0887

 Test job not archived.
 1\1\GINC-SE080\SP\RHF\Aug-CC-pVDZ\B2Cl2H2\OHZDE\08-Apr-2025\0\\#t hf a
 ug-cc-pvdz iop(5/13=1,5/36=2,99/5=2) pseudo=read geom=check guess=(rea
 d,tcheck) scf=(maxcycle=1)\\title\\0,1\B,0,-0.000031,2.04413,0.000095\
 B,0,-0.000001,0.38202,0.000208\Cl,0,-1.521811,-0.513386,-0.000051\Cl,0
 ,1.521837,-0.513336,-0.000044\H,0,-0.000136,2.661834,1.019863\H,0,-0.0
 00141,2.661697,-1.019756\\Version=ES64L-G16RevC.01\State=1-A\HF=-969.8
 034857\RMSD=1.615e-02\Dipole=0.0000336,0.4283467,0.0001424\Quadrupole=
 -0.3262006,0.0020018,0.3241988,0.0003036,-0.0000072,0.0000468\PG=C01 [

 Normal termination of Gaussian 16 at Tue Apr  8 23:35:05 2025.
