 Gaussian 16, Revision C.01,

 ----------------------------------------------------------------------
 #t hf aug-cc-pvdz symm=none int=(grid=ultrafine) guess=(read,tcheck) s
 table=(opt,rrhf)
 ----------------------------------------------------------------------
 -----
 title
 -----
 Symbolic Z-matrix:
 Charge =  0 Multiplicity = 1

 SCF Done:  E(RHF) =  -1164.39387641     A.U. after   13 cycles
 Normal termination of Gaussian 16 at Tue Apr  8 23:53:40 2025.
 Gaussian 16:  ES64L-G16RevC.01  3-Jul-2019

 ----------------------------------------------------------------------
 #t hf aug-cc-pvdz iop(5/13=1,5/36=2,99/5=2) pseudo=read geom=check gue
 ss=(read,tcheck) scf=(maxcycle=1)
 ----------------------------------------------------------------------
 -----
 title
 -----
 Structure from the checkpoint file:  "BDE49_nonexpt_1930_mol1.chk"
 Charge =  0 Multiplicity = 1

                         Standard orientation:
 ---------------------------------------------------------------------
 Center     Atomic      Atomic             Coordinates (Angstroms)
 Number     Number       Type             X           Y           Z
 ---------------------------------------------------------------------
      1         14           0        2.819924    0.197395    0.031082
      2          6           0        1.023209    0.372221   -0.550819
      3         16           0       -0.096826   -0.650221    0.476050
      4         16           0       -1.962737   -0.442141   -0.422545
      5          1           0        3.662042    1.061410   -0.828955
      6          1           0        3.267658   -1.206945   -0.092033
      7          6           0       -2.639801    1.071733    0.351416
      8          1           0       -3.653933    1.178851   -0.041577
      9          1           0       -2.056249    1.950223    0.077448
     10          1           0       -2.679891    0.961611    1.434065
     11          1           0        2.952357    0.633645    1.438947
     12          1           0        0.951415    0.048457   -1.591587
     13          1           0        0.730239    1.423294   -0.491110
 ---------------------------------------------------------------------

 SCF Done:  E(RHF) =  -1164.63998714     A.U. after    2 cycles

 The electronic state is 1-A.
 Alpha  occ. eigenvalues --  -93.97327 -93.97069 -69.53854 -11.27297 -11.26477
 Alpha  occ. eigenvalues --   -8.25204  -8.24990  -6.23017  -6.22810  -6.22788
 Alpha  occ. eigenvalues --   -6.22592  -6.22584  -6.22364  -6.20929  -3.96308
 Alpha  occ. eigenvalues --   -3.96304  -3.96293  -1.11078  -1.02588  -0.91914
 Alpha  occ. eigenvalues --   -0.81606  -0.73257  -0.61774  -0.60813  -0.60463
 Alpha  occ. eigenvalues --   -0.56083  -0.50826  -0.50087  -0.48900  -0.48330
 Alpha  occ. eigenvalues --   -0.43392  -0.36764  -0.35966
 Alpha virt. eigenvalues --    0.03333   0.03674   0.04502   0.04658   0.05574
 Alpha virt. eigenvalues --    0.06559   0.07026   0.08019   0.08749   0.09168
 Alpha virt. eigenvalues --    0.09837   0.10147   0.11340   0.12851   0.14076

 Mulliken charges:
               1
     1  Si   1.131058
     2  C   -0.954750
     3  S    0.120626
     4  S    0.097651
     5  H   -0.196492
     6  H   -0.199603
     7  C   -0.691125
     8  H    0.177934
     9  H    0.189409
    10  H    0.224071
    11  H   -0.200742
    12  H    0.166651
    13  H    0.135312
 Sum of Mulliken charges =  -0.00000

 Dipole moment (field-independent basis, Debye):
    X=             -0.0011    Y=              2.3003    Z=             -0.3695  Tot=              2.3298

 Test job not archived.
 1\1\GINC-SE084\SP\RHF\Aug-CC-pVDZ\C2H8S2Si1\OHZDE\08-Apr-2025\0\\#t hf
  aug-cc-pvdz iop(5/13=1,5/36=2,99/5=2) pseudo=read geom=check guess=(r
 ead,tcheck) scf=(maxcycle=1)\\title\\0,1\Si,0,2.819924,0.197395,0.0310
 82\C,0,1.023209,0.372221,-0.550819\S,0,-0.096826,-0.650221,0.47605\S,0
 ,-1.962737,-0.442141,-0.422545\H,0,3.662042,1.06141,-0.828955\H,0,3.26
 7658,-1.206945,-0.092033\C,0,-2.639801,1.071733,0.351416\H,0,-3.653933
 ,1.178851,-0.041577\H,0,-2.056249,1.950223,0.077448\H,0,-2.679891,0.96
 1611,1.434065\H,0,2.952357,0.633645,1.438947\H,0,0.951415,0.048457,-1.

 Normal termination of Gaussian 16 at Tue Apr  8 23:53:46 2025.
