 Gaussian 16, Revision C.01,

 ----------------------------------------------------------------------
 #t hf aug-cc-pvdz symm=none int=(grid=ultrafine) guess=(read,tcheck) s
 table=(opt,rrhf)
 ----------------------------------------------------------------------
 -----
 title
 -----
 Symbolic Z-matrix:
 Charge =  0 Multiplicity = 1

 SCF Done:  E(RHF) =  -842.604265144     A.U. after   15 cycles
 Normal termination of Gaussian 16 at Tue Apr  8 23:13:23 2025.
 Gaussian 16:  ES64L-G16RevC.01  3-Jul-2019

 ----------------------------------------------------------------------
 #t hf aug-cc-pvdz iop(5/13=1,5/36=2,99/5=2) pseudo=read geom=check gue
 ss=(read,tcheck) scf=(maxcycle=1)
 ----------------------------------------------------------------------
 -----
 title
 -----
 Structure from the checkpoint file:  "BDE49_expt_774_mol1.chk"
 Charge =  0 Multiplicity = 1

                         Standard orientation:
 ---------------------------------------------------------------------
 Center     Atomic      Atomic             Coordinates (Angstroms)
 Number     Number       Type             X           Y           Z
 ---------------------------------------------------------------------
      1          6           0       -1.417879    0.014044    0.000010
      2          6           0       -0.742668   -1.214441    0.000004
      3          6           0        0.653711   -1.208579   -0.000005
      4          6           0        1.342296   -0.004460   -0.000009
      5          6           0        0.664808    1.209275   -0.000004
      6          6           0       -0.728437    1.235643    0.000005
      7          8           0       -2.786663    0.089507    0.000019
      8          1           0       -3.161181   -0.796586    0.000031
      9          6           0       -1.497039    2.530726    0.000012
     10          1           0        1.221733    2.137993   -0.000008
     11          1           0       -0.819893    3.386158    0.000002
     12          1           0       -2.146784    2.601977    0.877022
     13          1           0       -2.146805    2.601973   -0.876984
     14          6           0       -1.516098   -2.510873    0.000008
     15          1           0       -2.156330   -2.604758    0.885800
     16          1           0       -0.841070   -3.367069   -0.000004
     17          1           0       -2.156352   -2.604750   -0.885768
     18          1           0        1.199061   -2.144087   -0.000009
     19         17           0        3.102868   -0.013819   -0.000021
 ---------------------------------------------------------------------

 SCF Done:  E(RHF) =  -843.075478948     A.U. after    2 cycles

 The electronic state is 1-A.
 Alpha  occ. eigenvalues -- -105.56539 -20.58608 -11.30910 -11.29974 -11.26001
 Alpha  occ. eigenvalues --  -11.25699 -11.25460 -11.25403 -11.25162 -11.23585
 Alpha  occ. eigenvalues --  -10.61315  -7.78282  -7.77893  -7.77870  -1.49937
 Alpha  occ. eigenvalues --   -1.18137  -1.09504  -1.07756  -0.99534  -0.95687
 Alpha  occ. eigenvalues --   -0.94563  -0.83217  -0.80982  -0.74864  -0.70403
 Alpha  occ. eigenvalues --   -0.64140  -0.62455  -0.61704  -0.59707  -0.58691
 Alpha  occ. eigenvalues --   -0.58056  -0.57896  -0.55482  -0.55224  -0.53222
 Alpha  occ. eigenvalues --   -0.52020  -0.50852  -0.45878  -0.45243  -0.34893
 Alpha  occ. eigenvalues --   -0.31733
 Alpha virt. eigenvalues --    0.02796   0.03619   0.04069   0.04361   0.05171
 Alpha virt. eigenvalues --    0.05677   0.06440   0.07526   0.08318   0.09356
 Alpha virt. eigenvalues --    0.10259   0.10458   0.11958   0.12341   0.12645

 Mulliken charges:
               1
     1  C    2.065543
     2  C    0.120388
     3  C    0.505396
     4  C   -0.908019
     5  C    0.638378
     6  C    0.273182
     7  O   -1.992064
     8  H    0.438031
     9  C   -0.712753
    10  H   -0.210938
    11  H    0.033370
    12  H    0.271807
    13  H    0.271808
    14  C   -0.844683
    15  H    0.309110
    16  H   -0.009367
    17  H    0.309107
    18  H   -0.200455
    19  Cl  -0.357841
 Sum of Mulliken charges =  -0.00000

 Dipole moment (field-independent basis, Debye):
    X=             -2.5048    Y=             -1.4086    Z=              0.0000  Tot=              2.8737

 Test job not archived.
 1\1\GINC-SE094\SP\RHF\Aug-CC-pVDZ\C8H9Cl1O1\OHZDE\08-Apr-2025\0\\#t hf
  aug-cc-pvdz iop(5/13=1,5/36=2,99/5=2) pseudo=read geom=check guess=(r
 ead,tcheck) scf=(maxcycle=1)\\title\\0,1\C,0,-1.417879,0.014044,0.0000
 1\C,0,-0.742668,-1.214441,0.000004\C,0,0.653711,-1.208579,-0.000005\C,
 0,1.342296,-0.00446,-0.000009\C,0,0.664808,1.209275,-0.000004\C,0,-0.7
 28437,1.235643,0.000005\O,0,-2.786663,0.089506,0.000019\H,0,-3.161181,
 -0.796587,0.000031\C,0,-1.497039,2.530726,0.000012\H,0,1.221733,2.1379
 93,-0.000008\H,0,-0.819894,3.386158,0.000002\H,0,-2.146784,2.601977,0.

 Normal termination of Gaussian 16 at Tue Apr  8 23:13:34 2025.
