 Gaussian 16, Revision C.01,

 ----------------------------------------------------------------------
 #t hf aug-cc-pvdz symm=none int=(grid=ultrafine) guess=(read,tcheck) s
 table=opt
 ----------------------------------------------------------------------
 -----
 title
 -----
 Symbolic Z-matrix:
 Charge =  0 Multiplicity = 2

 SCF Done:  E(UHF) =  -553.507207232     A.U. after   18 cycles
 Normal termination of Gaussian 16 at Wed Apr  9 00:36:48 2025.
 Gaussian 16:  ES64L-G16RevC.01  3-Jul-2019

 ----------------------------------------------------------------------
 #t hf aug-cc-pvdz iop(5/13=1,5/36=2,99/5=2) pseudo=read geom=check gue
 ss=(read,tcheck) scf=(maxcycle=1)
 ----------------------------------------------------------------------
 -----
 title
 -----
 Structure from the checkpoint file:  "BDE49_nonexpt_555_mol2.chk"
 Charge =  0 Multiplicity = 2

                         Standard orientation:
 ---------------------------------------------------------------------
 Center     Atomic      Atomic             Coordinates (Angstroms)
 Number     Number       Type             X           Y           Z
 ---------------------------------------------------------------------
      1          7           0        0.463680    0.711950   -0.000007
      2          6           0        1.540933   -0.259049    0.000002
      3          1           0        2.473762    0.309298   -0.000012
      4          1           0        1.504311   -0.904469   -0.886466
      5         17           0       -1.057280   -0.113514    0.000002
      6          1           0        1.504320   -0.904439    0.886492
 ---------------------------------------------------------------------

 SCF Done:  E(UHF) =  -553.677741342     A.U. after    2 cycles

 The electronic state is 2-A.
 Alpha  occ. eigenvalues -- -105.59294 -15.60980 -11.28339 -10.63953  -7.80667
 Alpha  occ. eigenvalues --   -7.80618  -7.80429  -1.27603  -1.03350  -0.89321
 Alpha  occ. eigenvalues --   -0.70592  -0.66366  -0.64756  -0.54974  -0.52512
 Alpha  occ. eigenvalues --   -0.45791  -0.45203
 Alpha virt. eigenvalues --    0.03578   0.05459   0.05634   0.07666   0.08043
 Alpha virt. eigenvalues --    0.13722   0.14153   0.14711   0.16475   0.16808
 Alpha virt. eigenvalues --    0.16919   0.20081   0.21851   0.23031   0.26192

  Beta  occ. eigenvalues -- -105.59322 -15.57237 -11.28655 -10.63980  -7.81126
  Beta  occ. eigenvalues --   -7.80445  -7.80301  -1.19406  -1.02686  -0.84324
  Beta  occ. eigenvalues --   -0.64869  -0.62683  -0.60714  -0.50929  -0.48850
  Beta  occ. eigenvalues --   -0.44527
  Beta virt. eigenvalues --    0.03603   0.04949   0.05456   0.06232   0.08013
  Beta virt. eigenvalues --    0.08693   0.14047   0.14323   0.14787   0.16653
  Beta virt. eigenvalues --    0.16905   0.17852   0.20614   0.23010   0.24764

 Mulliken charges and spin densities:
               1          2
     1  N   -0.031150   1.109513
     2  C   -0.461304  -0.139664
     3  H    0.119920   0.007434
     4  H    0.185040   0.041825
     5  Cl   0.002454  -0.060934
     6  H    0.185040   0.041826
 Sum of Mulliken charges =  -0.00000   1.00000

 Dipole moment (field-independent basis, Debye):
    X=              1.6261    Y=             -1.4375    Z=              0.0000  Tot=              2.1704
                          Isotropic Fermi Contact Couplings
        Atom                 a.u.       MegaHertz       Gauss      10(-4) cm-1
     1  N(14)              0.32505     105.02548      37.47570      35.03273
     2  C(13)             -0.05176     -58.18582     -20.76215     -19.40870
     3  H(1)               0.00191       8.53536       3.04563       2.84709
     4  H(1)               0.01920      85.82415      30.62419      28.62786
     5  Cl(35)             0.02432      10.66333       3.80494       3.55690
     6  H(1)               0.01920      85.82568      30.62474      28.62837
 --------------------------------------------------------
       Center         ----  Spin Dipole Couplings  ----

 Normal termination of Gaussian 16 at Wed Apr  9 00:36:50 2025.
