 Gaussian 16, Revision C.01,

 ----------------------------------------------------------------------
 #t hf aug-cc-pvdz symm=none int=(grid=ultrafine) guess=(read,tcheck) s
 table=opt
 ----------------------------------------------------------------------
 -----
 title
 -----
 Symbolic Z-matrix:
 Charge =  0 Multiplicity = 2

 SCF Done:  E(UHF) =  -887.340584178     A.U. after   22 cycles
 Normal termination of Gaussian 16 at Wed Apr  9 00:18:35 2025.
 Gaussian 16:  ES64L-G16RevC.01  3-Jul-2019

 ----------------------------------------------------------------------
 #t hf aug-cc-pvdz iop(5/13=1,5/36=2,99/5=2) pseudo=read geom=check gue
 ss=(read,tcheck) scf=(maxcycle=1)
 ----------------------------------------------------------------------
 -----
 title
 -----
 Structure from the checkpoint file:  "BDE49_nonexpt_2571_mol2.chk"
 Charge =  0 Multiplicity = 2

                         Standard orientation:
 ---------------------------------------------------------------------
 Center     Atomic      Atomic             Coordinates (Angstroms)
 Number     Number       Type             X           Y           Z
 ---------------------------------------------------------------------
      1         16           0        0.000000    0.000000   -2.175144
      2          7           0        0.000000    0.000000   -0.578448
      3          6           0        0.000000    0.000000    0.613593
      4         16           0        0.000000    0.000000    2.198118
 ---------------------------------------------------------------------

 SCF Done:  E(UHF) =  -887.536012982     A.U. after    2 cycles

 Unable to determine electronic state:  an orbital has unidentified symmetry.
 Alpha  occ. eigenvalues --  -94.04875 -93.97043 -15.59654 -11.40393  -8.32455
 Alpha  occ. eigenvalues --   -8.25239  -6.31360  -6.29970  -6.29471  -6.23051
 Alpha  occ. eigenvalues --   -6.23050  -6.22623  -1.34201  -1.13641  -1.06852
 Alpha  occ. eigenvalues --   -0.74154  -0.66877  -0.65733  -0.63350  -0.49488
 Alpha  occ. eigenvalues --   -0.46050  -0.39266  -0.36490
 Alpha virt. eigenvalues --    0.05433   0.06203   0.07545   0.07885   0.08326
 Alpha virt. eigenvalues --    0.10430   0.10816   0.13620   0.13627   0.14315
 Alpha virt. eigenvalues --    0.16518   0.16535   0.16870   0.23861   0.24606

  Beta  occ. eigenvalues --  -94.04063 -93.96827 -15.59743 -11.40333  -8.31520
  Beta  occ. eigenvalues --   -8.24992  -6.29592  -6.28976  -6.27717  -6.22945
  Beta  occ. eigenvalues --   -6.22445  -6.22149  -1.33237  -1.11141  -1.04307
  Beta  occ. eigenvalues --   -0.69745  -0.65768  -0.63651  -0.62148  -0.45026
  Beta  occ. eigenvalues --   -0.40362  -0.35281
  Beta virt. eigenvalues --   -0.04394   0.05587   0.06388   0.07627   0.08250
  Beta virt. eigenvalues --    0.08298   0.10795   0.11244   0.13917   0.14421
  Beta virt. eigenvalues --    0.16068   0.16898   0.17530   0.17652   0.24321

 Mulliken charges and spin densities:
               1          2
     1  S    0.296811   0.900084
     2  N    0.129668  -0.089982
     3  C   -0.751018  -0.068589
     4  S    0.324539   0.258488
 Sum of Mulliken charges =  -0.00000   1.00000

 Dipole moment (field-independent basis, Debye):
    X=              0.0000    Y=              0.0000    Z=             -1.1877  Tot=              1.1877
                          Isotropic Fermi Contact Couplings
        Atom                 a.u.       MegaHertz       Gauss      10(-4) cm-1
     1  S(33)              0.21244      72.96869      26.03704      24.33973
     2  N(14)             -0.02563      -8.28150      -2.95505      -2.76241
     3  C(13)              0.00252       2.83683       1.01225       0.94626
     4  S(33)              0.06297      21.62771       7.71730       7.21423
 --------------------------------------------------------
       Center         ----  Spin Dipole Couplings  ----
                      3XX-RR        3YY-RR        3ZZ-RR
 --------------------------------------------------------

 Normal termination of Gaussian 16 at Wed Apr  9 00:18:37 2025.
