 Gaussian 16, Revision C.01,

 ----------------------------------------------------------------------
 #t hf aug-cc-pvdz symm=none int=(grid=ultrafine) guess=(read,tcheck) s
 table=(opt,rrhf)
 ----------------------------------------------------------------------
 -----
 title
 -----
 Symbolic Z-matrix:
 Charge =  0 Multiplicity = 1

 SCF Done:  E(RHF) =  -408.652875742     A.U. after   16 cycles

 1\1\GINC-SE457\Stability\RHF\Aug-CC-pVDZ\C10H9B1\OHZDE\09-Apr-2025\0\\
 #t hf aug-cc-pvdz symm=none int=(grid=ultrafine) guess=(read,tcheck) s
 table=(opt,rrhf)\\title\\0,1\C,0,-0.739092,1.879528,0.\C,0,-2.111558,1
 .865288,0.\C,0,-2.80885,0.633426,0.\C,0,-2.123869,-0.558108,0.\C,0,-0.
 706023,-0.579032,0.\C,0,0.,0.665849,0.\H,0,-0.197212,2.819497,0.\H,0,-
 2.668069,2.795447,0.\H,0,-3.89315,0.634987,0.\H,0,-2.661419,-1.500444,
 0.\C,0,1.414713,0.644343,0.\C,0,2.14182,-0.542476,0.\C,0,0.038367,-1.7
 91161,0.\C,0,1.407374,-1.772136,0.\H,0,-0.501758,-2.73248,0.\H,0,1.960

 Normal termination of Gaussian 16 at Wed Apr  9 00:27:43 2025.
 Gaussian 16:  ES64L-G16RevC.01  3-Jul-2019

 ----------------------------------------------------------------------
 #t hf aug-cc-pvdz iop(5/13=1,5/36=2,99/5=2) pseudo=read geom=check gue
 ss=(read,tcheck) scf=(maxcycle=1)
 ----------------------------------------------------------------------
 -----
 title
 -----
 Structure from the checkpoint file:  "BDE49_nonexpt_273_mol1.chk"
 Charge =  0 Multiplicity = 1

                         Standard orientation:
 ---------------------------------------------------------------------
 Center     Atomic      Atomic             Coordinates (Angstroms)
 Number     Number       Type             X           Y           Z
 ---------------------------------------------------------------------
      1          6           0       -0.739092    1.879528   -0.000000
      2          6           0       -2.111558    1.865288   -0.000000
      3          6           0       -2.808850    0.633426    0.000000
      4          6           0       -2.123869   -0.558108    0.000000
      5          6           0       -0.706023   -0.579032    0.000000
      6          6           0        0.000000    0.665849   -0.000000
      7          1           0       -0.197212    2.819497   -0.000000
      8          1           0       -2.668069    2.795447   -0.000000
      9          1           0       -3.893150    0.634986    0.000000
     10          1           0       -2.661419   -1.500444    0.000000
     11          6           0        1.414713    0.644343   -0.000000
     12          6           0        2.141820   -0.542476   -0.000000
     13          6           0        0.038367   -1.791161    0.000000
     14          6           0        1.407374   -1.772136    0.000000
     15          1           0       -0.501757   -2.732480    0.000000
     16          1           0        1.960726   -2.705073    0.000000
     17          5           0        3.675861   -0.514965   -0.000000
     18          1           0        1.945580    1.591664   -0.000000
     19          1           0        4.255334    0.528618   -0.000000
     20          1           0        4.303364   -1.530509   -0.000000
 ---------------------------------------------------------------------

 SCF Done:  E(RHF) =  -409.071272481     A.U. after    2 cycles

 The electronic state is 1-A'.
 Alpha  occ. eigenvalues --  -11.26193 -11.26183 -11.25587 -11.25521 -11.25378
 Alpha  occ. eigenvalues --  -11.25015 -11.24991 -11.24969 -11.24467 -11.22194
 Alpha  occ. eigenvalues --   -7.59084  -1.18451  -1.11535  -1.05887  -1.01549
 Alpha  occ. eigenvalues --   -0.98997  -0.86979  -0.85436  -0.82844  -0.73823
 Alpha  occ. eigenvalues --   -0.72036  -0.70670  -0.65769  -0.63974  -0.62107
 Alpha  occ. eigenvalues --   -0.60483  -0.59806  -0.55769  -0.54730  -0.52958
 Alpha  occ. eigenvalues --   -0.49785  -0.47883  -0.47602  -0.46193  -0.40123
 Alpha  occ. eigenvalues --   -0.33779  -0.30566
 Alpha virt. eigenvalues --    0.03000   0.03032   0.03146   0.03637   0.04257
 Alpha virt. eigenvalues --    0.04493   0.05579   0.06250   0.06906   0.07754
 Alpha virt. eigenvalues --    0.07849   0.09427   0.09958   0.10249   0.10869

 Mulliken charges:
               1
     1  C    0.256097
     2  C   -0.204779
     3  C   -0.243233
     4  C    0.222663
     5  C    0.913124
     6  C    1.502439
     7  H   -0.299072
     8  H   -0.239440
     9  H   -0.240995
    10  H   -0.300674
    11  C   -0.206288
    12  C   -0.015132
    13  C    0.294536
    14  C   -0.039479
    15  H   -0.316917
    16  H   -0.294741
    17  B   -0.971436
    18  H   -0.320699
    19  H    0.263406
    20  H    0.240622
 Sum of Mulliken charges =   0.00000

 Dipole moment (field-independent basis, Debye):
    X=             -1.6612    Y=              0.3845    Z=             -0.0000  Tot=              1.7051

 Test job not archived.
 1\1\GINC-SE457\SP\RHF\Aug-CC-pVDZ\C10H9B1\OHZDE\09-Apr-2025\0\\#t hf a
 ug-cc-pvdz iop(5/13=1,5/36=2,99/5=2) pseudo=read geom=check guess=(rea
 d,tcheck) scf=(maxcycle=1)\\title\\0,1\C,0,-0.739092,1.879528,0.\C,0,-
 2.111558,1.865288,0.\C,0,-2.80885,0.633426,0.\C,0,-2.123869,-0.558108,
 0.\C,0,-0.706023,-0.579032,0.\C,0,0.,0.665849,0.\H,0,-0.197212,2.81949
 7,0.\H,0,-2.668069,2.795447,0.\H,0,-3.89315,0.634987,0.\H,0,-2.661419,
 -1.500444,0.\C,0,1.414713,0.644343,0.\C,0,2.14182,-0.542476,0.\C,0,0.0
 38367,-1.791161,0.\C,0,1.407374,-1.772136,0.\H,0,-0.501758,-2.73248,0.

 Normal termination of Gaussian 16 at Wed Apr  9 00:27:55 2025.
