 Gaussian 16, Revision C.01,

 ----------------------------------------------------------------------
 #t hf aug-cc-pvdz symm=none int=(grid=ultrafine) guess=(read,tcheck) s
 table=opt
 ----------------------------------------------------------------------
 -----
 title
 -----
 Symbolic Z-matrix:
 Charge =  0 Multiplicity = 2

 SCF Done:  E(UHF) =  -823.315602271     A.U. after   20 cycles
 Normal termination of Gaussian 16 at Tue Apr  8 23:55:17 2025.
 Gaussian 16:  ES64L-G16RevC.01  3-Jul-2019

 ----------------------------------------------------------------------
 #t hf aug-cc-pvdz iop(5/13=1,5/36=2,99/5=2) pseudo=read geom=check gue
 ss=(read,tcheck) scf=(maxcycle=1)
 ----------------------------------------------------------------------
 -----
 title
 -----
 Structure from the checkpoint file:  "BDE49_nonexpt_1982_mol2.chk"
 Charge =  0 Multiplicity = 2

                         Standard orientation:
 ---------------------------------------------------------------------
 Center     Atomic      Atomic             Coordinates (Angstroms)
 Number     Number       Type             X           Y           Z
 ---------------------------------------------------------------------
      1         14           0        0.000000    0.770830    0.000000
      2          8           0        1.466588    1.194606    0.000000
      3         17           0       -0.690159   -1.196969    0.000000
 ---------------------------------------------------------------------

 SCF Done:  E(UHF) =  -823.485649672     A.U. after    2 cycles

 The electronic state is 2-A'.
 Alpha  occ. eigenvalues -- -105.60954 -69.64947 -20.54577 -10.65912  -7.83110
 Alpha  occ. eigenvalues --   -7.82385  -7.82385  -6.31560  -4.06957  -4.06442
 Alpha  occ. eigenvalues --   -4.06312  -1.38515  -1.10416  -0.70842  -0.59345
 Alpha  occ. eigenvalues --   -0.55100  -0.53682  -0.49105  -0.47750  -0.42375
 Alpha virt. eigenvalues --    0.00853   0.04894   0.05114   0.06815   0.07277
 Alpha virt. eigenvalues --    0.12017   0.13959   0.15085   0.15737   0.16916
 Alpha virt. eigenvalues --    0.21842   0.22773   0.24465   0.26530   0.27281

  Beta  occ. eigenvalues -- -105.60702 -69.64456 -20.53521 -10.65636  -7.82302
  Beta  occ. eigenvalues --   -7.82250  -7.82054  -6.30692  -4.06226  -4.06028
  Beta  occ. eigenvalues --   -4.05381  -1.35030  -1.08259  -0.65831  -0.53702
  Beta  occ. eigenvalues --   -0.53199  -0.52361  -0.47551  -0.46006
  Beta virt. eigenvalues --   -0.04150   0.03471   0.05398   0.05970   0.07726
  Beta virt. eigenvalues --    0.08785   0.12204   0.14877   0.15178   0.16927
  Beta virt. eigenvalues --    0.20008   0.22584   0.23047   0.24835   0.26637

 Mulliken charges and spin densities:
               1          2
     1  Si   1.586261   0.640988
     2  O   -1.182483   0.227074
     3  Cl  -0.403778   0.131938
 Sum of Mulliken charges =   0.00000   1.00000

 Dipole moment (field-independent basis, Debye):
    X=             -3.1236    Y=             -0.2659    Z=              0.0000  Tot=              3.1349
                          Isotropic Fermi Contact Couplings
        Atom                 a.u.       MegaHertz       Gauss      10(-4) cm-1
     1  Si(29)             0.93693    -832.67865    -297.12045    -277.75170
     2  O(17)              0.05177     -31.38391     -11.19856     -10.46855
     3  Cl(35)             0.14611      64.06577      22.86026      21.37004
 --------------------------------------------------------
       Center         ----  Spin Dipole Couplings  ----
                      3XX-RR        3YY-RR        3ZZ-RR
 --------------------------------------------------------
     1   Atom        0.653807     -0.324733     -0.329074

 Normal termination of Gaussian 16 at Tue Apr  8 23:55:19 2025.
