 Gaussian 16, Revision C.01,

 ----------------------------------------------------------------------
 #t hf aug-cc-pvdz symm=none int=(grid=ultrafine) guess=(read,tcheck) s
 table=(opt,rrhf)
 ----------------------------------------------------------------------
 -----
 title
 -----
 Symbolic Z-matrix:
 Charge =  0 Multiplicity = 1

 SCF Done:  E(RHF) =  -780.440412841     A.U. after   16 cycles
 Normal termination of Gaussian 16 at Tue Apr  8 23:19:04 2025.
 Gaussian 16:  ES64L-G16RevC.01  3-Jul-2019

 ----------------------------------------------------------------------
 #t hf aug-cc-pvdz iop(5/13=1,5/36=2,99/5=2) pseudo=read geom=check gue
 ss=(read,tcheck) scf=(maxcycle=1)
 ----------------------------------------------------------------------
 -----
 title
 -----
 Structure from the checkpoint file:  "BDE49_nonexpt_1084_mol1.chk"
 Charge =  0 Multiplicity = 1

                         Standard orientation:
 ---------------------------------------------------------------------
 Center     Atomic      Atomic             Coordinates (Angstroms)
 Number     Number       Type             X           Y           Z
 ---------------------------------------------------------------------
      1         17           0        2.621890    0.244031   -0.000004
      2          8           0        1.299806   -0.876618   -0.000002
      3          6           0        0.035085   -0.335183    0.000000
      4          6           0       -0.983840   -1.290592    0.000004
      5          6           0       -0.294186    1.012896   -0.000002
      6          6           0       -1.649554    1.344548    0.000000
      7          6           0       -2.295278   -0.834076    0.000006
      8          7           0       -2.644447    0.457658    0.000004
      9          1           0       -0.747383   -2.346514    0.000006
     10          1           0       -3.109918   -1.552550    0.000009
     11          1           0        0.463697    1.782806   -0.000005
     12          1           0       -1.939208    2.391513   -0.000002
 ---------------------------------------------------------------------

 SCF Done:  E(RHF) =  -780.834388960     A.U. after    2 cycles

 The electronic state is 1-A.
 Alpha  occ. eigenvalues -- -105.64731 -20.66273 -15.50804 -11.34898 -11.29624
 Alpha  occ. eigenvalues --  -11.29412 -11.25841 -11.25727 -10.68896  -7.85891
 Alpha  occ. eigenvalues --   -7.85337  -7.85302  -1.53072  -1.26775  -1.11297
 Alpha  occ. eigenvalues --   -1.05962  -1.03994  -0.89691  -0.86640  -0.75690
 Alpha  occ. eigenvalues --   -0.72806  -0.68315  -0.66086  -0.65255  -0.62598
 Alpha  occ. eigenvalues --   -0.60521  -0.56694  -0.54210  -0.49490  -0.48916
 Alpha  occ. eigenvalues --   -0.46779  -0.38996  -0.37221
 Alpha virt. eigenvalues --    0.03391   0.03734   0.04684   0.05014   0.06402
 Alpha virt. eigenvalues --    0.08140   0.08292   0.09196   0.11115   0.11295
 Alpha virt. eigenvalues --    0.12172   0.12223   0.12618   0.13342   0.13995

 Mulliken charges:
               1
     1  Cl   0.344623
     2  O   -1.525640
     3  C    0.785970
     4  C    0.980167
     5  C    1.242533
     6  C   -1.103082
     7  C   -0.965264
     8  N    0.963650
     9  H   -0.205659
    10  H   -0.161393
    11  H   -0.194927
    12  H   -0.160977
 Sum of Mulliken charges =  -0.00000

 Dipole moment (field-independent basis, Debye):
    X=              1.5843    Y=             -0.0736    Z=             -0.0000  Tot=              1.5860

 Test job not archived.
 1\1\GINC-SE343\SP\RHF\Aug-CC-pVDZ\C5H4Cl1N1O1\OHZDE\08-Apr-2025\0\\#t
 hf aug-cc-pvdz iop(5/13=1,5/36=2,99/5=2) pseudo=read geom=check guess=
 (read,tcheck) scf=(maxcycle=1)\\title\\0,1\Cl,0,2.62189,0.244031,-0.00
 0004\O,0,1.299806,-0.876618,-0.000002\C,0,0.035085,-0.335183,0.\C,0,-0
 .98384,-1.290592,0.000004\C,0,-0.294186,1.012896,-0.000002\C,0,-1.6495
 54,1.344548,0.\C,0,-2.295278,-0.834076,0.000006\N,0,-2.644447,0.457658
 ,0.000004\H,0,-0.747383,-2.346514,0.000006\H,0,-3.109918,-1.55255,0.00
 0009\H,0,0.463697,1.782806,-0.000005\H,0,-1.939208,2.391513,-0.000002\

 Normal termination of Gaussian 16 at Tue Apr  8 23:19:09 2025.
