 Gaussian 16, Revision C.01,

 ----------------------------------------------------------------------
 #t hf aug-cc-pvdz symm=none int=(grid=ultrafine) guess=(read,tcheck) s
 table=(opt,rrhf)
 ----------------------------------------------------------------------
 -----
 title
 -----
 Symbolic Z-matrix:
 Charge =  0 Multiplicity = 1

 SCF Done:  E(RHF) =  -351.477836727     A.U. after   12 cycles
 Normal termination of Gaussian 16 at Wed Apr  9 00:34:43 2025.
 Gaussian 16:  ES64L-G16RevC.01  3-Jul-2019

 ----------------------------------------------------------------------
 #t hf aug-cc-pvdz iop(5/13=1,5/36=2,99/5=2) pseudo=read geom=check gue
 ss=(read,tcheck) scf=(maxcycle=1)
 ----------------------------------------------------------------------
 -----
 title
 -----
 Structure from the checkpoint file:  "BDE49_nonexpt_441_mol1.chk"
 Charge =  0 Multiplicity = 1

                         Standard orientation:
 ---------------------------------------------------------------------
 Center     Atomic      Atomic             Coordinates (Angstroms)
 Number     Number       Type             X           Y           Z
 ---------------------------------------------------------------------
      1          9           0        2.410098    0.000000   -0.097316
      2          7           0        0.354814   -1.224767    0.040960
      3          7           0        0.354814    1.224767    0.040961
      4          6           0       -1.095244   -1.273061    0.193902
      5          6           0       -1.724991   -0.000000   -0.384547
      6          6           0       -1.095244    1.273061    0.193901
      7          5           0        1.056930    0.000000   -0.002994
      8          1           0        0.848811   -2.101453    0.059316
      9          1           0        0.848811    2.101453    0.059319
     10          1           0       -1.497673    2.144760   -0.332571
     11          1           0       -1.382954    1.378237    1.250715
     12          1           0       -2.800967   -0.000000   -0.186656
     13          1           0       -1.585456   -0.000001   -1.470433
     14          1           0       -1.382952   -1.378235    1.250716
     15          1           0       -1.497674   -2.144760   -0.332568
 ---------------------------------------------------------------------

 SCF Done:  E(RHF) =  -351.835009305     A.U. after    2 cycles

 The electronic state is 1-A.
 Alpha  occ. eigenvalues --  -26.42869 -15.47459 -15.47436 -11.26731 -11.26710
 Alpha  occ. eigenvalues --  -11.23609  -7.63258  -1.55431  -1.21391  -1.16163
 Alpha  occ. eigenvalues --   -1.03050  -0.91335  -0.82963  -0.76532  -0.71759
 Alpha  occ. eigenvalues --   -0.67683  -0.66298  -0.65665  -0.62370  -0.60426
 Alpha  occ. eigenvalues --   -0.60324  -0.57081  -0.54111  -0.51867  -0.48441
 Alpha  occ. eigenvalues --   -0.43886  -0.39907
 Alpha virt. eigenvalues --    0.03510   0.04057   0.04352   0.04463   0.05726
 Alpha virt. eigenvalues --    0.06256   0.06338   0.06417   0.06723   0.09467
 Alpha virt. eigenvalues --    0.09974   0.11719   0.13665   0.13867   0.14936

 Mulliken charges:
               1
     1  F   -0.957365
     2  N    0.535436
     3  N    0.535435
     4  C   -0.513052
     5  C   -0.411811
     6  C   -0.513054
     7  B    0.701789
     8  H   -0.011330
     9  H   -0.011330
    10  H    0.063607
    11  H    0.112962
    12  H    0.131608
    13  H    0.160537
    14  H    0.112961
    15  H    0.063605
 Sum of Mulliken charges =  -0.00000

 Dipole moment (field-independent basis, Debye):
    X=             -2.4587    Y=             -0.0000    Z=              0.2962  Tot=              2.4765

 Test job not archived.
 1\1\GINC-SE186\SP\RHF\Aug-CC-pVDZ\C3H8B1F1N2\OHZDE\09-Apr-2025\0\\#t h
 f aug-cc-pvdz iop(5/13=1,5/36=2,99/5=2) pseudo=read geom=check guess=(
 read,tcheck) scf=(maxcycle=1)\\title\\0,1\F,0,-2.410098,0.,-0.097316\N
 ,0,-0.354814,1.224767,0.04096\N,0,-0.354814,-1.224767,0.040961\C,0,1.0
 95244,1.273061,0.193902\C,0,1.724991,0.,-0.384547\C,0,1.095244,-1.2730
 61,0.193901\B,0,-1.05693,0.,-0.002994\H,0,-0.848811,2.101453,0.059316\
 H,0,-0.848811,-2.101453,0.059319\H,0,1.497673,-2.14476,-0.332571\H,0,1
 .382954,-1.378237,1.250715\H,0,2.800967,0.,-0.186656\H,0,1.585456,0.00

 Normal termination of Gaussian 16 at Wed Apr  9 00:34:49 2025.
