 Gaussian 16, Revision C.01,

 ----------------------------------------------------------------------
 #t hf aug-cc-pvdz symm=none int=(grid=ultrafine) guess=(read,tcheck) s
 table=(opt,rrhf)
 ----------------------------------------------------------------------
 -----
 title
 -----
 Symbolic Z-matrix:
 Charge =  0 Multiplicity = 1

 SCF Done:  E(RHF) =  -1988.60080671     A.U. after   13 cycles

 1\1\GINC-SE072\Stability\RHF\Aug-CC-pVDZ\C2Cl4O1\OHZDE\08-Apr-2025\0\\
 #t hf aug-cc-pvdz symm=none int=(grid=ultrafine) guess=(read,tcheck) s
 table=(opt,rrhf)\\title\\0,1\C,0,-0.467071,-0.059855,-0.000001\C,0,0.7
 96895,0.863308,-0.000003\O,0,0.758398,2.039438,0.000029\Cl,0,2.332901,
 -0.039149,0.000013\Cl,0,-1.928145,0.952154,-0.000548\Cl,0,-0.438734,-1
 .078516,-1.470957\Cl,0,-0.439323,-1.077796,1.471479\\Version=ES64L-G16
 RevC.01\HF=-1988.6008067\RMSD=9.748e-09\Dipole=-0.1073244,-0.5097592,-
 0.0000095\Quadrupole=0.602923,-2.3253345,1.7224115,-1.5675339,-0.00025

 Normal termination of Gaussian 16 at Tue Apr  8 22:33:26 2025.
 Gaussian 16:  ES64L-G16RevC.01  3-Jul-2019

 ----------------------------------------------------------------------
 #t hf aug-cc-pvdz iop(5/13=1,5/36=2,99/5=2) pseudo=read geom=check gue
 ss=(read,tcheck) scf=(maxcycle=1)
 ----------------------------------------------------------------------
 -----
 title
 -----
 Structure from the checkpoint file:  "BDE49_expt_1076_mol1.chk"
 Charge =  0 Multiplicity = 1

                         Standard orientation:
 ---------------------------------------------------------------------
 Center     Atomic      Atomic             Coordinates (Angstroms)
 Number     Number       Type             X           Y           Z
 ---------------------------------------------------------------------
      1          6           0       -0.467071   -0.059855   -0.000001
      2          6           0        0.796895    0.863308   -0.000003
      3          8           0        0.758398    2.039438    0.000029
      4         17           0        2.332901   -0.039149    0.000013
      5         17           0       -1.928145    0.952154   -0.000548
      6         17           0       -0.438734   -1.078516   -1.470957
      7         17           0       -0.439323   -1.077796    1.471479
 ---------------------------------------------------------------------

 SCF Done:  E(RHF) =  -1989.04355712     A.U. after    2 cycles

 The electronic state is 1-A.
 Alpha  occ. eigenvalues -- -105.61990-105.61989-105.61383-105.61044 -20.62053
 Alpha  occ. eigenvalues --  -11.48501 -11.46066 -10.66799 -10.66789 -10.66199
 Alpha  occ. eigenvalues --  -10.65895  -7.83748  -7.83743  -7.83298  -7.83296
 Alpha  occ. eigenvalues --   -7.83290  -7.83288  -7.83157  -7.82833  -7.82698
 Alpha  occ. eigenvalues --   -7.82696  -7.82420  -7.82407  -1.57141  -1.24568
 Alpha  occ. eigenvalues --   -1.12681  -1.09400  -1.08614  -0.94541  -0.78886
 Alpha  occ. eigenvalues --   -0.73206  -0.71215  -0.68176  -0.64534  -0.61482
 Alpha  occ. eigenvalues --   -0.54388  -0.53664  -0.52715  -0.51569  -0.50049
 Alpha  occ. eigenvalues --   -0.49130  -0.48451  -0.47693  -0.47006
 Alpha virt. eigenvalues --    0.05621   0.06013   0.06918   0.07741   0.08621
 Alpha virt. eigenvalues --    0.09024   0.09720   0.11454   0.11813   0.12899
 Alpha virt. eigenvalues --    0.14125   0.14899   0.16273   0.16996   0.17093

 Mulliken charges:
               1
     1  C   -0.930367
     2  C    1.122087
     3  O   -0.891940
     4  Cl   0.074485
     5  Cl   0.211724
     6  Cl   0.206993
     7  Cl   0.207019
 Sum of Mulliken charges =  -0.00000

 Dipole moment (field-independent basis, Debye):
    X=             -0.2823    Y=             -1.0973    Z=             -0.0000  Tot=              1.1330

 Test job not archived.
 1\1\GINC-SE072\SP\RHF\Aug-CC-pVDZ\C2Cl4O1\OHZDE\08-Apr-2025\0\\#t hf a
 ug-cc-pvdz iop(5/13=1,5/36=2,99/5=2) pseudo=read geom=check guess=(rea
 d,tcheck) scf=(maxcycle=1)\\title\\0,1\C,0,-0.467071,-0.059855,-0.0000
 01\C,0,0.796895,0.863308,-0.000003\O,0,0.758398,2.039438,0.000029\Cl,0
 ,2.332901,-0.039149,0.000013\Cl,0,-1.928145,0.952154,-0.000548\Cl,0,-0
 .438734,-1.078516,-1.470957\Cl,0,-0.439323,-1.077796,1.471479\\Version
 =ES64L-G16RevC.01\State=1-A\HF=-1989.0435571\RMSD=6.544e-03\Dipole=-0.
 1110788,-0.4317119,-0.0000082\Quadrupole=0.4795524,-2.0450819,1.565529

 Normal termination of Gaussian 16 at Tue Apr  8 22:33:30 2025.
