 Gaussian 16, Revision C.01,

 ----------------------------------------------------------------------
 #t hf aug-cc-pvdz symm=none int=(grid=ultrafine) guess=(read,tcheck) s
 table=(opt,rrhf)
 ----------------------------------------------------------------------
 -----
 title
 -----
 Symbolic Z-matrix:
 Charge =  0 Multiplicity = 1

 SCF Done:  E(RHF) =  -366.163729443     A.U. after   14 cycles
 Normal termination of Gaussian 16 at Wed Apr  9 00:39:53 2025.
 Gaussian 16:  ES64L-G16RevC.01  3-Jul-2019

 ----------------------------------------------------------------------
 #t hf aug-cc-pvdz iop(5/13=1,5/36=2,99/5=2) pseudo=read geom=check gue
 ss=(read,tcheck) scf=(maxcycle=1)
 ----------------------------------------------------------------------
 -----
 title
 -----
 Structure from the checkpoint file:  "BDE49_nonexpt_614_mol1.chk"
 Charge =  0 Multiplicity = 1

                         Standard orientation:
 ---------------------------------------------------------------------
 Center     Atomic      Atomic             Coordinates (Angstroms)
 Number     Number       Type             X           Y           Z
 ---------------------------------------------------------------------
      1          6           0       -0.060329   -0.448588   -0.176660
      2          5           0       -2.641256   -0.415530   -0.071607
      3          7           0       -2.868905    0.872376    0.446951
      4          1           0       -3.800617    1.187683    0.656507
      5          1           0       -2.144977    1.485131    0.785407
      6          6           0        0.207637    0.916325   -0.363708
      7          6           0        1.499194    1.410946   -0.202416
      8          6           0        2.553062    0.562477    0.127498
      9          6           0        2.298602   -0.798476    0.290374
     10          6           0        1.009776   -1.298051    0.145579
     11          1           0        0.818847   -2.356807    0.291484
     12          1           0       -0.588114    1.579733   -0.677880
     13          1           0        1.682996    2.468947   -0.355448
     14          1           0        3.556935    0.952393    0.246827
     15          1           0        3.107487   -1.476741    0.539250
     16          7           0       -1.351568   -0.980352   -0.330874
     17          1           0       -3.582810   -1.110522   -0.309403
     18          1           0       -1.347803   -1.964126   -0.555255
 ---------------------------------------------------------------------

 SCF Done:  E(RHF) =  -366.543485636     A.U. after    2 cycles

 The electronic state is 1-A.
 Alpha  occ. eigenvalues --  -15.49475 -15.48213 -11.28481 -11.24495 -11.24478
 Alpha  occ. eigenvalues --  -11.23545 -11.23428 -11.23258  -7.59285  -1.22267
 Alpha  occ. eigenvalues --   -1.15383  -1.13043  -1.01684  -0.99575  -0.84429
 Alpha  occ. eigenvalues --   -0.83705  -0.76069  -0.73618  -0.71306  -0.68176
 Alpha  occ. eigenvalues --   -0.66214  -0.62060  -0.61492  -0.59722  -0.54849
 Alpha  occ. eigenvalues --   -0.53359  -0.50595  -0.50073  -0.49062  -0.44364
 Alpha  occ. eigenvalues --   -0.34779  -0.31680
 Alpha virt. eigenvalues --    0.03235   0.03683   0.03867   0.04598   0.05056
 Alpha virt. eigenvalues --    0.05632   0.06307   0.06994   0.07465   0.08773
 Alpha virt. eigenvalues --    0.09912   0.10193   0.10733   0.11352   0.11770

 Mulliken charges:
               1
     1  C   -1.537202
     2  B   -0.587896
     3  N    0.287870
     4  H   -0.014558
     5  H   -0.019473
     6  C    0.567509
     7  C    0.192332
     8  C    0.036089
     9  C    0.416073
    10  C    0.441076
    11  H   -0.325339
    12  H   -0.266249
    13  H   -0.252151
    14  H   -0.218583
    15  H   -0.218194
    16  N    1.313923
    17  H    0.249020
    18  H   -0.064244
 Sum of Mulliken charges =  -0.00000

 Dipole moment (field-independent basis, Debye):
    X=             -0.0322    Y=              0.2339    Z=              0.4858  Tot=              0.5402

 Test job not archived.
 1\1\GINC-SE070\SP\RHF\Aug-CC-pVDZ\C6H9B1N2\OHZDE\09-Apr-2025\0\\#t hf
 aug-cc-pvdz iop(5/13=1,5/36=2,99/5=2) pseudo=read geom=check guess=(re
 ad,tcheck) scf=(maxcycle=1)\\title\\0,1\C,0,-0.060329,-0.448588,-0.176
 66\B,0,-2.641256,-0.41553,-0.071607\N,0,-2.868905,0.872376,0.446951\H,
 0,-3.800617,1.187683,0.656507\H,0,-2.144977,1.485131,0.785407\C,0,0.20
 7637,0.916325,-0.363708\C,0,1.499194,1.410946,-0.202416\C,0,2.553062,0
 .562477,0.127498\C,0,2.298602,-0.798476,0.290374\C,0,1.009776,-1.29805
 1,0.145579\H,0,0.818847,-2.356807,0.291484\H,0,-0.588114,1.579733,-0.6

 Normal termination of Gaussian 16 at Wed Apr  9 00:40:01 2025.
