 Gaussian 16, Revision C.01,

 ----------------------------------------------------------------------
 #t hf aug-cc-pvdz symm=none int=(grid=ultrafine) guess=(read,tcheck) s
 table=(opt,rrhf)
 ----------------------------------------------------------------------
 -----
 title
 -----
 Symbolic Z-matrix:
 Charge =  0 Multiplicity = 1

 SCF Done:  E(RHF) =  -705.168815445     A.U. after   16 cycles
 Normal termination of Gaussian 16 at Tue Apr  8 23:36:09 2025.
 Gaussian 16:  ES64L-G16RevC.01  3-Jul-2019

 ----------------------------------------------------------------------
 #t hf aug-cc-pvdz iop(5/13=1,5/36=2,99/5=2) pseudo=read geom=check gue
 ss=(read,tcheck) scf=(maxcycle=1)
 ----------------------------------------------------------------------
 -----
 title
 -----
 Structure from the checkpoint file:  "BDE49_nonexpt_1460_mol1.chk"
 Charge =  0 Multiplicity = 1

                         Standard orientation:
 ---------------------------------------------------------------------
 Center     Atomic      Atomic             Coordinates (Angstroms)
 Number     Number       Type             X           Y           Z
 ---------------------------------------------------------------------
      1          6           0        0.929401   -1.164074   -0.154611
      2          6           0       -0.443018   -1.021368    0.038413
      3          6           0        1.755765   -0.053610   -0.347285
      4          6           0        1.158427    1.212539   -0.347088
      5          6           0       -0.211202    1.361694   -0.159613
      6          6           0       -1.034087    0.245073    0.032815
      7          1           0       -1.067270   -1.896383    0.178569
      8          1           0        1.364592   -2.159180   -0.159696
      9          1           0        1.773762    2.092985   -0.506842
     10          1           0       -0.642972    2.358376   -0.178488
     11         15           0       -2.822782    0.474950    0.407805
     12          7           0       -3.491133   -0.978446   -0.191112
     13          1           0       -4.350040   -1.269649    0.250039
     14          1           0       -3.484329   -1.171947   -1.183756
     15          6           0        3.250794   -0.209989   -0.515920
     16          6           0        4.015755   -0.145718    0.817790
     17          1           0        3.625292    0.572715   -1.183748
     18          1           0        3.462810   -1.165107   -1.007140
     19          1           0        3.848241    0.811106    1.319459
     20          1           0        5.091587   -0.261550    0.657954
     21          1           0        3.685860   -0.937031    1.496147
     22          1           0       -3.058875    1.403255   -0.648798
 ---------------------------------------------------------------------

 SCF Done:  E(RHF) =  -705.597961250     A.U. after    2 cycles

 The electronic state is 1-A.
 Alpha  occ. eigenvalues --  -84.29049 -15.49623 -11.24287 -11.24193 -11.23910
 Alpha  occ. eigenvalues --  -11.23752 -11.23690 -11.23683 -11.23557 -11.22690
 Alpha  occ. eigenvalues --   -6.75735  -4.28673  -4.28460  -4.27476  -1.17115
 Alpha  occ. eigenvalues --   -1.15144  -1.06407  -1.01198  -0.98754  -0.88117
 Alpha  occ. eigenvalues --   -0.83515  -0.82788  -0.78164  -0.70787  -0.67709
 Alpha  occ. eigenvalues --   -0.66115  -0.63311  -0.59977  -0.59580  -0.59251
 Alpha  occ. eigenvalues --   -0.57571  -0.54638  -0.51734  -0.50735  -0.49906
 Alpha  occ. eigenvalues --   -0.48567  -0.47982  -0.43304  -0.37127  -0.34297
 Alpha  occ. eigenvalues --   -0.30047
 Alpha virt. eigenvalues --    0.03277   0.03644   0.03689   0.04455   0.04610
 Alpha virt. eigenvalues --    0.05460   0.06090   0.07025   0.07315   0.07444
 Alpha virt. eigenvalues --    0.07868   0.08642   0.09475   0.10355   0.10869

 Mulliken charges:
               1
     1  C    0.225089
     2  C   -0.257925
     3  C    1.105428
     4  C    0.486512
     5  C   -0.458067
     6  C    0.284729
     7  H   -0.327048
     8  H   -0.349541
     9  H   -0.349450
    10  H   -0.297778
    11  P    0.248990
    12  N    0.099140
    13  H   -0.005167
    14  H   -0.067212
    15  C   -0.804612
    16  C   -0.425880
    17  H    0.077751
    18  H    0.078289
    19  H    0.157366
    20  H    0.114344
    21  H    0.159007
    22  H    0.306035
 Sum of Mulliken charges =  -0.00000

 Dipole moment (field-independent basis, Debye):
    X=             -0.0343    Y=             -0.3033    Z=             -1.1186  Tot=              1.1595

 Test job not archived.
 1\1\GINC-SE166\SP\RHF\Aug-CC-pVDZ\C8H12N1P1\OHZDE\08-Apr-2025\0\\#t hf
  aug-cc-pvdz iop(5/13=1,5/36=2,99/5=2) pseudo=read geom=check guess=(r
 ead,tcheck) scf=(maxcycle=1)\\title\\0,1\C,0,0.929401,-1.164074,-0.154
 611\C,0,-0.443018,-1.021368,0.038413\C,0,1.755765,-0.05361,-0.347285\C
 ,0,1.158427,1.212539,-0.347088\C,0,-0.211202,1.361694,-0.159613\C,0,-1
 .034087,0.245073,0.032815\H,0,-1.06727,-1.896383,0.178569\H,0,1.364592
 ,-2.15918,-0.159696\H,0,1.773762,2.092985,-0.506842\H,0,-0.642972,2.35
 8376,-0.178488\P,0,-2.822782,0.47495,0.407805\N,0,-3.491133,-0.978446,

 Normal termination of Gaussian 16 at Tue Apr  8 23:36:24 2025.
