 Gaussian 16, Revision C.01,

 ----------------------------------------------------------------------
 #t hf aug-cc-pvdz symm=none int=(grid=ultrafine) guess=(read,tcheck) s
 table=(opt,rrhf)
 ----------------------------------------------------------------------
 -----
 title
 -----
 Symbolic Z-matrix:
 Charge =  0 Multiplicity = 1

 SCF Done:  E(RHF) =  -350.103767141     A.U. after   15 cycles
 Normal termination of Gaussian 16 at Wed Apr  9 00:38:56 2025.
 Gaussian 16:  ES64L-G16RevC.01  3-Jul-2019

 ----------------------------------------------------------------------
 #t hf aug-cc-pvdz iop(5/13=1,5/36=2,99/5=2) pseudo=read geom=check gue
 ss=(read,tcheck) scf=(maxcycle=1)
 ----------------------------------------------------------------------
 -----
 title
 -----
 Structure from the checkpoint file:  "BDE49_nonexpt_574_mol1.chk"
 Charge =  0 Multiplicity = 1

                         Standard orientation:
 ---------------------------------------------------------------------
 Center     Atomic      Atomic             Coordinates (Angstroms)
 Number     Number       Type             X           Y           Z
 ---------------------------------------------------------------------
      1          6           0        0.008398   -0.352155    0.175376
      2          6           0       -0.310817    1.009762    0.199394
      3          6           0       -1.628707    1.431940    0.052866
      4          6           0       -2.649988    0.498168   -0.120576
      5          6           0       -2.343039   -0.859259   -0.148601
      6          6           0       -1.021351   -1.278567   -0.004014
      7          5           0        3.538588    0.576304   -0.033180
      8          1           0       -1.860382    2.491115    0.074684
      9          1           0       -3.676299    0.827975   -0.235968
     10          1           0       -3.129500   -1.592623   -0.288158
     11          1           0       -0.787661   -2.338448   -0.031085
     12          1           0        0.480287    1.740060    0.328118
     13          6           0        1.439764   -0.822399    0.367600
     14          7           0        2.409813   -0.109586   -0.460466
     15          1           0        3.777445    0.629180    1.135246
     16          1           0        4.237608    1.097425   -0.846949
     17          1           0        1.488921   -1.897703    0.161576
     18          1           0        1.745616   -0.684275    1.408316
     19          1           0        2.196774   -0.152062   -1.448885
 ---------------------------------------------------------------------

 SCF Done:  E(RHF) =  -350.470188298     A.U. after    2 cycles

 The electronic state is 1-A.
 Alpha  occ. eigenvalues --  -15.49983 -11.27638 -11.24987 -11.24628 -11.24586
 Alpha  occ. eigenvalues --  -11.24441 -11.24386 -11.24193  -7.57677  -1.20615
 Alpha  occ. eigenvalues --   -1.15346  -1.03673  -1.01880  -0.92878  -0.83931
 Alpha  occ. eigenvalues --   -0.81541  -0.76422  -0.71782  -0.67672  -0.65284
 Alpha  occ. eigenvalues --   -0.63054  -0.60391  -0.59581  -0.58939  -0.55612
 Alpha  occ. eigenvalues --   -0.51692  -0.50702  -0.50225  -0.46966  -0.44333
 Alpha  occ. eigenvalues --   -0.34876  -0.34249
 Alpha virt. eigenvalues --    0.03320   0.03476   0.03698   0.04438   0.04645
 Alpha virt. eigenvalues --    0.04730   0.06009   0.06679   0.06883   0.07599
 Alpha virt. eigenvalues --    0.09364   0.09852   0.10361   0.10658   0.11971

 Mulliken charges:
               1
     1  C    1.536446
     2  C   -0.022701
     3  C    0.100152
     4  C    0.011581
     5  C    0.153599
     6  C    0.173309
     7  B   -0.696414
     8  H   -0.236846
     9  H   -0.218169
    10  H   -0.230012
    11  H   -0.299521
    12  H   -0.349853
    13  C   -1.101916
    14  N    0.470860
    15  H    0.194079
    16  H    0.326288
    17  H    0.054702
    18  H    0.062223
    19  H    0.072195
 Sum of Mulliken charges =  -0.00000

 Dipole moment (field-independent basis, Debye):
    X=             -1.2350    Y=             -0.7151    Z=             -0.3656  Tot=              1.4731

 Test job not archived.
 1\1\GINC-SE250\SP\RHF\Aug-CC-pVDZ\C7H10B1N1\OHZDE\09-Apr-2025\0\\#t hf
  aug-cc-pvdz iop(5/13=1,5/36=2,99/5=2) pseudo=read geom=check guess=(r
 ead,tcheck) scf=(maxcycle=1)\\title\\0,1\C,0,0.008398,-0.352155,0.1753
 76\C,0,-0.310817,1.009762,0.199394\C,0,-1.628707,1.43194,0.052866\C,0,
 -2.649988,0.498168,-0.120576\C,0,-2.343039,-0.859259,-0.148601\C,0,-1.
 021351,-1.278567,-0.004014\B,0,3.538588,0.576304,-0.03318\H,0,-1.86038
 2,2.491115,0.074684\H,0,-3.676299,0.827975,-0.235968\H,0,-3.1295,-1.59
 2623,-0.288158\H,0,-0.787661,-2.338448,-0.031085\H,0,0.480287,1.74006,

 Normal termination of Gaussian 16 at Wed Apr  9 00:39:05 2025.
