 Gaussian 16, Revision C.01,

 ----------------------------------------------------------------------
 #t hf aug-cc-pvdz symm=none int=(grid=ultrafine) guess=(read,tcheck) s
 table=(opt,rrhf)
 ----------------------------------------------------------------------
 -----
 title
 -----
 Symbolic Z-matrix:
 Charge =  0 Multiplicity = 1

 SCF Done:  E(RHF) =  -683.496851005     A.U. after   17 cycles
 Normal termination of Gaussian 16 at Wed Apr  9 00:53:38 2025.
 Gaussian 16:  ES64L-G16RevC.01  3-Jul-2019

 ----------------------------------------------------------------------
 #t hf aug-cc-pvdz iop(5/13=1,5/36=2,99/5=2) pseudo=read geom=check gue
 ss=(read,tcheck) scf=(maxcycle=1)
 ----------------------------------------------------------------------
 -----
 title
 -----
 Structure from the checkpoint file:  "BDE49_nonexpt_980_mol1.chk"
 Charge =  0 Multiplicity = 1

                         Standard orientation:
 ---------------------------------------------------------------------
 Center     Atomic      Atomic             Coordinates (Angstroms)
 Number     Number       Type             X           Y           Z
 ---------------------------------------------------------------------
      1         16           0       -1.392006   -0.794334   -0.597754
      2          7           0       -2.095081    0.908416   -0.335091
      3          8           0       -1.710136    1.507931    0.604245
      4          6           0       -0.247829   -0.972748    0.803949
      5          6           0        1.238994   -0.875917    0.436615
      6          1           0       -0.480520   -1.930507    1.273352
      7          6           0        1.687230    0.513679   -0.027447
      8          1           0        1.474779   -1.617471   -0.334792
      9          1           0        1.814660   -1.163886    1.325418
     10          6           0        3.172386    0.565361   -0.395280
     11          1           0        1.477334    1.241715    0.764181
     12          1           0        1.086492    0.816738   -0.891748
     13          1           0        3.803225    0.293693    0.456888
     14          1           0        3.465165    1.567684   -0.718053
     15          1           0        3.402296   -0.126413   -1.211487
     16          1           0       -0.529364   -0.176810    1.504962
 ---------------------------------------------------------------------

 SCF Done:  E(RHF) =  -683.848416260     A.U. after    2 cycles

 The electronic state is 1-A.
 Alpha  occ. eigenvalues --  -93.98116 -20.64633 -15.69332 -11.27865 -11.24546
 Alpha  occ. eigenvalues --  -11.23412 -11.22840  -8.26085  -6.23854  -6.23659
 Alpha  occ. eigenvalues --   -6.23464  -1.64536  -1.12253  -1.06752  -1.00137
 Alpha  occ. eigenvalues --   -0.91969  -0.84817  -0.79598  -0.72647  -0.71410
 Alpha  occ. eigenvalues --   -0.65878  -0.64329  -0.62097  -0.60447  -0.56487
 Alpha  occ. eigenvalues --   -0.54217  -0.50235  -0.49377  -0.48490  -0.46700
 Alpha  occ. eigenvalues --   -0.40341  -0.38270
 Alpha virt. eigenvalues --    0.03366   0.03762   0.04066   0.04735   0.05343
 Alpha virt. eigenvalues --    0.06277   0.06407   0.07154   0.07660   0.09072
 Alpha virt. eigenvalues --    0.09538   0.09957   0.12032   0.12897   0.13831

 Mulliken charges:
               1
     1  S    0.428148
     2  N    0.637367
     3  O   -0.953199
     4  C   -0.508875
     5  C   -0.309341
     6  H    0.154422
     7  C   -0.280695
     8  H    0.111273
     9  H    0.134578
    10  C   -0.504361
    11  H    0.137839
    12  H    0.185973
    13  H    0.168907
    14  H    0.123772
    15  H    0.161529
    16  H    0.312661
 Sum of Mulliken charges =   0.00000

 Dipole moment (field-independent basis, Debye):
    X=              1.9976    Y=             -1.1903    Z=              1.3069  Tot=              2.6674

 Test job not archived.
 1\1\GINC-SE454\SP\RHF\Aug-CC-pVDZ\C4H9N1O1S1\OHZDE\09-Apr-2025\0\\#t h
 f aug-cc-pvdz iop(5/13=1,5/36=2,99/5=2) pseudo=read geom=check guess=(
 read,tcheck) scf=(maxcycle=1)\\title\\0,1\S,0,-1.392006,-0.794334,-0.5
 97754\N,0,-2.095081,0.908416,-0.335091\O,0,-1.710136,1.507931,0.604245
 \C,0,-0.247829,-0.972748,0.803949\C,0,1.238994,-0.875917,0.436615\H,0,
 -0.48052,-1.930507,1.273352\C,0,1.68723,0.513679,-0.027447\H,0,1.47477
 9,-1.617471,-0.334792\H,0,1.81466,-1.163886,1.325418\C,0,3.172386,0.56
 5361,-0.39528\H,0,1.477334,1.241715,0.764181\H,0,1.086492,0.816738,-0.

 Normal termination of Gaussian 16 at Wed Apr  9 00:53:44 2025.
