 Gaussian 16, Revision C.01,

 ----------------------------------------------------------------------
 #t hf aug-cc-pvdz symm=none int=(grid=ultrafine) guess=(read,tcheck) s
 table=(opt,rrhf)
 ----------------------------------------------------------------------
 -----
 title
 -----
 Symbolic Z-matrix:
 Charge =  0 Multiplicity = 1

 SCF Done:  E(RHF) =  -783.633776148     A.U. after   14 cycles
 Normal termination of Gaussian 16 at Tue Apr  8 23:51:49 2025.
 Gaussian 16:  ES64L-G16RevC.01  3-Jul-2019

 ----------------------------------------------------------------------
 #t hf aug-cc-pvdz iop(5/13=1,5/36=2,99/5=2) pseudo=read geom=check gue
 ss=(read,tcheck) scf=(maxcycle=1)
 ----------------------------------------------------------------------
 -----
 title
 -----
 Structure from the checkpoint file:  "BDE49_nonexpt_1882_mol1.chk"
 Charge =  0 Multiplicity = 1

                         Standard orientation:
 ---------------------------------------------------------------------
 Center     Atomic      Atomic             Coordinates (Angstroms)
 Number     Number       Type             X           Y           Z
 ---------------------------------------------------------------------
      1         14           0       -0.695260    1.631580    0.005911
      2          6           0        1.115336    1.448943   -0.497018
      3          6           0       -1.513371   -0.093153   -0.220050
      4          8           0       -0.981972   -1.020104   -0.786060
      5          1           0       -1.368843    2.573927   -0.918058
      6          1           0       -0.858100    2.107327    1.392242
      7          8           0       -2.757798   -0.151505    0.300061
      8          6           0       -3.452232   -1.410447    0.155847
      9          1           0       -4.420156   -1.263728    0.628711
     10          1           0       -2.896881   -2.207554    0.651743
     11          1           0       -3.571036   -1.660240   -0.899392
     12          6           0        1.761220    0.288218    0.218440
     13          8           0        1.569668    0.012374    1.379915
     14          8           0        2.583014   -0.406784   -0.586605
     15          6           0        3.195498   -1.568729    0.004618
     16          1           0        2.428499   -2.276122    0.322215
     17          1           0        3.802838   -1.286033    0.865533
     18          1           0        3.814607   -1.999673   -0.778831
     19          1           0        1.638214    2.365073   -0.199206
     20          1           0        1.222495    1.344054   -1.577222
 ---------------------------------------------------------------------

 SCF Done:  E(RHF) =  -784.159521293     A.U. after    2 cycles

 The electronic state is 1-A.
 Alpha  occ. eigenvalues --  -69.55065 -20.59248 -20.58868 -20.54257 -20.53175
 Alpha  occ. eigenvalues --  -11.39279 -11.37503 -11.29776 -11.29278 -11.24752
 Alpha  occ. eigenvalues --   -6.22132  -3.97509  -3.97476  -3.97459  -1.54165
 Alpha  occ. eigenvalues --   -1.54014  -1.45059  -1.44823  -1.04168  -0.98377
 Alpha  occ. eigenvalues --   -0.95016  -0.82144  -0.78422  -0.75107  -0.70604
 Alpha  occ. eigenvalues --   -0.68455  -0.68091  -0.67210  -0.66832  -0.64975
 Alpha  occ. eigenvalues --   -0.60495  -0.59300  -0.56894  -0.55790  -0.53774
 Alpha  occ. eigenvalues --   -0.52576  -0.51961  -0.49334  -0.48145  -0.45799
 Alpha  occ. eigenvalues --   -0.45122  -0.44246  -0.42113
 Alpha virt. eigenvalues --    0.03360   0.03863   0.04079   0.04492   0.05283
 Alpha virt. eigenvalues --    0.05750   0.06153   0.06570   0.07197   0.08311
 Alpha virt. eigenvalues --    0.08692   0.09110   0.10803   0.10979   0.12103

 Mulliken charges:
               1
     1  Si   1.122313
     2  C   -1.057601
     3  C    1.281476
     4  O   -1.013838
     5  H   -0.186229
     6  H   -0.106568
     7  O   -1.219879
     8  C    0.237985
     9  H   -0.007448
    10  H    0.158681
    11  H    0.154027
    12  C    2.309393
    13  O   -1.281026
    14  O   -1.329045
    15  C    0.206570
    16  H    0.180622
    17  H    0.170046
    18  H    0.001759
    19  H    0.218195
    20  H    0.160567
 Sum of Mulliken charges =  -0.00000

 Dipole moment (field-independent basis, Debye):
    X=             -0.3461    Y=              0.5004    Z=             -0.9336  Tot=              1.1144

 Test job not archived.
 1\1\GINC-SE461\SP\RHF\Aug-CC-pVDZ\C5H10O4Si1\OHZDE\08-Apr-2025\0\\#t h
 f aug-cc-pvdz iop(5/13=1,5/36=2,99/5=2) pseudo=read geom=check guess=(
 read,tcheck) scf=(maxcycle=1)\\title\\0,1\Si,0,-0.69526,1.63158,0.0059
 11\C,0,1.115336,1.448943,-0.497018\C,0,-1.513371,-0.093153,-0.22005\O,
 0,-0.981972,-1.020104,-0.78606\H,0,-1.368843,2.573927,-0.918058\H,0,-0
 .8581,2.107327,1.392242\O,0,-2.757798,-0.151505,0.300061\C,0,-3.452232
 ,-1.410447,0.155847\H,0,-4.420156,-1.263728,0.628711\H,0,-2.896881,-2.
 207554,0.651743\H,0,-3.571036,-1.66024,-0.899392\C,0,1.76122,0.288218,

 Normal termination of Gaussian 16 at Tue Apr  8 23:51:59 2025.
