 Gaussian 16, Revision C.01,

 ----------------------------------------------------------------------
 #t hf aug-cc-pvdz symm=none int=(grid=ultrafine) guess=(read,tcheck) s
 table=(opt,rrhf)
 ----------------------------------------------------------------------
 -----
 title
 -----
 Symbolic Z-matrix:
 Charge =  0 Multiplicity = 1

 SCF Done:  E(RHF) =  -1897.64706413     A.U. after   15 cycles
 Normal termination of Gaussian 16 at Tue Apr  8 23:47:20 2025.
 Gaussian 16:  ES64L-G16RevC.01  3-Jul-2019

 ----------------------------------------------------------------------
 #t hf aug-cc-pvdz iop(5/13=1,5/36=2,99/5=2) pseudo=read geom=check gue
 ss=(read,tcheck) scf=(maxcycle=1)
 ----------------------------------------------------------------------
 -----
 title
 -----
 Structure from the checkpoint file:  "BDE49_nonexpt_1779_mol1.chk"
 Charge =  0 Multiplicity = 1

                         Standard orientation:
 ---------------------------------------------------------------------
 Center     Atomic      Atomic             Coordinates (Angstroms)
 Number     Number       Type             X           Y           Z
 ---------------------------------------------------------------------
      1          6           0        0.008518   -1.209803    0.307816
      2          6           0        1.367449   -1.193626    0.013606
      3          6           0        2.065596    0.000010   -0.137990
      4          6           0        1.367432    1.193636    0.013611
      5          6           0        0.008501    1.209793    0.307820
      6          6           0       -0.684155   -0.000010    0.455492
      7          1           0       -0.496688   -2.161142    0.420551
      8         17           0        2.230013   -2.708175   -0.167934
      9         14           0       -2.512800   -0.000024    0.843424
     10          1           0       -0.496717    2.161125    0.420559
     11         17           0       -3.636699    0.000003   -0.912107
     12         17           0        2.229976    2.708197   -0.167925
     13          1           0        3.122445    0.000017   -0.364829
     14          1           0       -2.872921    1.222484    1.584565
     15          1           0       -2.872909   -1.222562    1.584522
 ---------------------------------------------------------------------

 SCF Done:  E(RHF) =  -1898.13875435     A.U. after    2 cycles

 The electronic state is 1-A.
 Alpha  occ. eigenvalues -- -105.58924-105.58923-105.56341 -69.59384 -11.33564
 Alpha  occ. eigenvalues --  -11.33558 -11.28747 -11.28443 -11.28432 -11.27160
 Alpha  occ. eigenvalues --  -10.63717 -10.63717 -10.61331  -7.80685  -7.80684
 Alpha  occ. eigenvalues --   -7.80280  -7.80279  -7.80262  -7.80262  -7.78220
 Alpha  occ. eigenvalues --   -7.77912  -7.77909  -6.26040  -4.01466  -4.01339
 Alpha  occ. eigenvalues --   -4.01324  -1.21892  -1.14233  -1.09889  -1.05829
 Alpha  occ. eigenvalues --   -1.02914  -1.00433  -0.87627  -0.84347  -0.75912
 Alpha  occ. eigenvalues --   -0.72549  -0.70685  -0.64045  -0.62286  -0.61080
 Alpha  occ. eigenvalues --   -0.59036  -0.55372  -0.54586  -0.54305  -0.52939
 Alpha  occ. eigenvalues --   -0.52923  -0.48924  -0.47814  -0.47764  -0.46317
 Alpha  occ. eigenvalues --   -0.46115  -0.37923  -0.36467
 Alpha virt. eigenvalues --    0.03220   0.04148   0.04188   0.04372   0.05262
 Alpha virt. eigenvalues --    0.05829   0.06798   0.06996   0.08194   0.08961
 Alpha virt. eigenvalues --    0.09290   0.09785   0.10203   0.11214   0.12178

 Mulliken charges:
               1
     1  C    0.409200
     2  C    0.304543
     3  C    0.640392
     4  C    0.304543
     5  C    0.409227
     6  C   -1.054858
     7  H   -0.239760
     8  Cl  -0.320281
     9  Si   1.069863
    10  H   -0.239761
    11  Cl  -0.597524
    12  Cl  -0.320281
    13  H   -0.108552
    14  H   -0.128374
    15  H   -0.128376
 Sum of Mulliken charges =  -0.00000

 Dipole moment (field-independent basis, Debye):
    X=             -0.0026    Y=             -0.0000    Z=              1.5464  Tot=              1.5464

 Test job not archived.
 1\1\GINC-SE366\SP\RHF\Aug-CC-pVDZ\C6H5Cl3Si1\OHZDE\08-Apr-2025\0\\#t h
 f aug-cc-pvdz iop(5/13=1,5/36=2,99/5=2) pseudo=read geom=check guess=(
 read,tcheck) scf=(maxcycle=1)\\title\\0,1\C,0,0.008518,-1.209803,0.307
 816\C,0,1.367449,-1.193626,0.013606\C,0,2.065596,0.00001,-0.13799\C,0,
 1.367432,1.193636,0.013611\C,0,0.008501,1.209793,0.30782\C,0,-0.684155
 ,-0.00001,0.455492\H,0,-0.496688,-2.161142,0.420551\Cl,0,2.230013,-2.7
 08175,-0.167934\Si,0,-2.5128,-0.000024,0.843424\H,0,-0.496717,2.161125
 ,0.420559\Cl,0,-3.636699,0.000003,-0.912107\Cl,0,2.229976,2.708197,-0.

 Normal termination of Gaussian 16 at Tue Apr  8 23:47:28 2025.
