 Gaussian 16, Revision C.01,

 ----------------------------------------------------------------------
 #t hf aug-cc-pvdz symm=none int=(grid=ultrafine) guess=(read,tcheck) s
 table=(opt,rrhf)
 ----------------------------------------------------------------------
 -----
 title
 -----
 Symbolic Z-matrix:
 Charge =  0 Multiplicity = 1

 SCF Done:  E(RHF) =  -312.664035537     A.U. after   14 cycles
 Normal termination of Gaussian 16 at Tue Apr  8 23:19:49 2025.
 Gaussian 16:  ES64L-G16RevC.01  3-Jul-2019

 ----------------------------------------------------------------------
 #t hf aug-cc-pvdz iop(5/13=1,5/36=2,99/5=2) pseudo=read geom=check gue
 ss=(read,tcheck) scf=(maxcycle=1)
 ----------------------------------------------------------------------
 -----
 title
 -----
 Structure from the checkpoint file:  "BDE49_nonexpt_1108_mol1.chk"
 Charge =  0 Multiplicity = 1

                         Standard orientation:
 ---------------------------------------------------------------------
 Center     Atomic      Atomic             Coordinates (Angstroms)
 Number     Number       Type             X           Y           Z
 ---------------------------------------------------------------------
      1          9           0        1.436698   -0.479145    0.120618
      2          8           0        0.587529    0.585004   -0.372471
      3          6           0       -0.604757    0.471902    0.313381
      4          9           0       -1.386733   -0.549077   -0.162706
      5          1           0       -1.090513    1.430856    0.099361
      6          1           0       -0.430862    0.311693    1.378911
 ---------------------------------------------------------------------

 SCF Done:  E(RHF) =  -312.957577692     A.U. after    2 cycles

 The electronic state is 1-A.
 Alpha  occ. eigenvalues --  -26.52175 -26.48240 -20.70313 -11.41391  -1.68474
 Alpha  occ. eigenvalues --   -1.60773  -1.39899  -0.95981  -0.77321  -0.76743
 Alpha  occ. eigenvalues --   -0.75449  -0.67940  -0.66349  -0.63040  -0.58166
 Alpha  occ. eigenvalues --   -0.55488  -0.53184
 Alpha virt. eigenvalues --    0.03346   0.04869   0.08574   0.09387   0.12112
 Alpha virt. eigenvalues --    0.14939   0.16516   0.20486   0.22367   0.23326
 Alpha virt. eigenvalues --    0.23540   0.26220   0.29096   0.29722   0.31020

 Mulliken charges:
               1
     1  F   -0.382831
     2  O   -0.411013
     3  C    1.197789
     4  F   -0.642377
     5  H    0.083972
     6  H    0.154460
 Sum of Mulliken charges =  -0.00000

 Dipole moment (field-independent basis, Debye):
    X=             -1.0777    Y=              1.7719    Z=              1.3364  Tot=              2.4671

 Test job not archived.
 1\1\GINC-SE118\SP\RHF\Aug-CC-pVDZ\C1H2F2O1\OHZDE\08-Apr-2025\0\\#t hf
 aug-cc-pvdz iop(5/13=1,5/36=2,99/5=2) pseudo=read geom=check guess=(re
 ad,tcheck) scf=(maxcycle=1)\\title\\0,1\F,0,1.436698,-0.479145,0.12061
 8\O,0,0.587529,0.585004,-0.372471\C,0,-0.604757,0.471902,0.313381\F,0,
 -1.386733,-0.549076,-0.162706\H,0,-1.090513,1.430856,0.099361\H,0,-0.4
 30862,0.311693,1.378911\\Version=ES64L-G16RevC.01\State=1-A\HF=-312.95
 75777\RMSD=5.729e-03\Dipole=-0.4239913,0.6971063,0.5257628\Quadrupole=
 -1.5925994,0.7212805,0.8713189,-1.7150083,-0.4136305,0.1476099\PG=C01

 Normal termination of Gaussian 16 at Tue Apr  8 23:19:51 2025.
