 Gaussian 16, Revision C.01,

 ----------------------------------------------------------------------
 #t hf aug-cc-pvdz symm=none int=(grid=ultrafine) guess=(read,tcheck) s
 table=(opt,rrhf)
 ----------------------------------------------------------------------
 -----
 title
 -----
 Symbolic Z-matrix:
 Charge =  0 Multiplicity = 1

 SCF Done:  E(RHF) =  -1172.22933196     A.U. after   13 cycles
 Normal termination of Gaussian 16 at Wed Apr  9 00:27:33 2025.
 Gaussian 16:  ES64L-G16RevC.01  3-Jul-2019

 ----------------------------------------------------------------------
 #t hf aug-cc-pvdz iop(5/13=1,5/36=2,99/5=2) pseudo=read geom=check gue
 ss=(read,tcheck) scf=(maxcycle=1)
 ----------------------------------------------------------------------
 -----
 title
 -----
 Structure from the checkpoint file:  "BDE49_nonexpt_283_mol1.chk"
 Charge =  0 Multiplicity = 1

                         Standard orientation:
 ---------------------------------------------------------------------
 Center     Atomic      Atomic             Coordinates (Angstroms)
 Number     Number       Type             X           Y           Z
 ---------------------------------------------------------------------
      1          6           0       -0.256063   -0.158161    0.311908
      2          5           0        1.264878    0.240454   -0.011632
      3          8           0        1.611553    1.253228   -0.842653
      4          8           0        2.218155   -0.511490    0.593634
      5          6           0       -0.512599   -0.814696    1.653275
      6          1           0        0.126381   -1.693650    1.747982
      7          1           0       -1.557517   -1.111000    1.752035
      8          1           0       -0.262546   -0.116097    2.455141
      9         17           0       -1.317466    1.328483    0.155141
     10         17           0       -0.719114   -1.321068   -1.028645
     11          1           0        3.108890   -0.254865    0.330460
     12          1           0        0.856574    1.750524   -1.176847
 ---------------------------------------------------------------------

 SCF Done:  E(RHF) =  -1172.63836903     A.U. after    2 cycles

 The electronic state is 1-A.
 Alpha  occ. eigenvalues -- -105.57835-105.57548 -20.57559 -20.57529 -11.36878
 Alpha  occ. eigenvalues --  -11.25727 -10.62633 -10.62313  -7.79560  -7.79248
 Alpha  occ. eigenvalues --   -7.79203  -7.79189  -7.78870  -7.78867  -7.66963
 Alpha  occ. eigenvalues --   -1.50189  -1.46162  -1.16313  -1.04381  -0.99723
 Alpha  occ. eigenvalues --   -0.84827  -0.77731  -0.74811  -0.67117  -0.63559
 Alpha  occ. eigenvalues --   -0.61661  -0.59171  -0.58062  -0.57537  -0.53744
 Alpha  occ. eigenvalues --   -0.53263  -0.51065  -0.47627  -0.47346  -0.45062
 Alpha  occ. eigenvalues --   -0.44587
 Alpha virt. eigenvalues --    0.03369   0.04528   0.04880   0.05018   0.06589
 Alpha virt. eigenvalues --    0.07123   0.07687   0.09098   0.09918   0.10248
 Alpha virt. eigenvalues --    0.10684   0.13295   0.14608   0.15302   0.16693

 Mulliken charges:
               1
     1  C   -0.930534
     2  B    2.161050
     3  O   -1.282976
     4  O   -1.222184
     5  C   -0.103546
     6  H    0.195303
     7  H    0.168037
     8  H    0.188960
     9  Cl  -0.154076
    10  Cl  -0.076657
    11  H    0.490885
    12  H    0.565737
 Sum of Mulliken charges =   0.00000

 Dipole moment (field-independent basis, Debye):
    X=              1.1952    Y=              0.4032    Z=              1.0532  Tot=              1.6433

 Test job not archived.
 1\1\GINC-SE039\SP\RHF\Aug-CC-pVDZ\C2H5B1Cl2O2\OHZDE\09-Apr-2025\0\\#t
 hf aug-cc-pvdz iop(5/13=1,5/36=2,99/5=2) pseudo=read geom=check guess=
 (read,tcheck) scf=(maxcycle=1)\\title\\0,1\C,0,-0.256063,-0.158161,0.3
 11908\B,0,1.264878,0.240454,-0.011632\O,0,1.611553,1.253228,-0.842653\
 O,0,2.218155,-0.51149,0.593634\C,0,-0.512599,-0.814696,1.653275\H,0,0.
 126381,-1.69365,1.747982\H,0,-1.557517,-1.110999,1.752035\H,0,-0.26254
 6,-0.116097,2.455141\Cl,0,-1.317466,1.328484,0.155141\Cl,0,-0.719114,-
 1.321068,-1.028645\H,0,3.10889,-0.254866,0.33046\H,0,0.856575,1.750524

 Normal termination of Gaussian 16 at Wed Apr  9 00:27:43 2025.
