 Gaussian 16, Revision C.01,

 ----------------------------------------------------------------------
 #t hf aug-cc-pvdz symm=none int=(grid=ultrafine) guess=(read,tcheck) s
 table=(opt,rrhf)
 ----------------------------------------------------------------------
 -----
 title
 -----
 Symbolic Z-matrix:
 Charge =  0 Multiplicity = 1

 SCF Done:  E(RHF) =  -507.322727006     A.U. after   15 cycles
 Normal termination of Gaussian 16 at Wed Apr  9 00:46:52 2025.
 Gaussian 16:  ES64L-G16RevC.01  3-Jul-2019

 ----------------------------------------------------------------------
 #t hf aug-cc-pvdz iop(5/13=1,5/36=2,99/5=2) pseudo=read geom=check gue
 ss=(read,tcheck) scf=(maxcycle=1)
 ----------------------------------------------------------------------
 -----
 title
 -----
 Structure from the checkpoint file:  "BDE49_nonexpt_824_mol1.chk"
 Charge =  0 Multiplicity = 1

                         Standard orientation:
 ---------------------------------------------------------------------
 Center     Atomic      Atomic             Coordinates (Angstroms)
 Number     Number       Type             X           Y           Z
 ---------------------------------------------------------------------
      1          6           0       -2.009710   -0.189210   -0.400935
      2          5           0        1.220718    0.132594    0.044375
      3          6           0        1.112916    1.668711    0.316413
      4          1           0        0.123001    2.088737    0.118208
      5          1           0        1.884173    2.266519   -0.180565
      6          1           0        1.270905    1.796167    1.401008
      7          6           0        2.539740   -0.524303   -0.486188
      8          1           0        3.439852    0.070176   -0.299162
      9          1           0        2.423510   -0.570016   -1.583100
     10          1           0        2.710154   -1.556987   -0.169524
     11          8           0       -2.233501    0.995760   -0.286020
     12         14           0       -0.435930   -1.011080    0.387476
     13          1           0       -0.742025   -1.057839    1.843945
     14          1           0       -0.366339   -2.416205   -0.096220
     15          1           0       -2.733470   -0.825672   -0.968715
 ---------------------------------------------------------------------

 SCF Done:  E(RHF) =  -507.583004736     A.U. after    2 cycles

 The electronic state is 1-A.
 Alpha  occ. eigenvalues --  -69.52171 -20.55458 -11.32981 -11.21682 -11.20679
 Alpha  occ. eigenvalues --   -7.59994  -6.19514  -3.94862  -3.94844  -3.94784
 Alpha  occ. eigenvalues --   -1.47574  -0.98474  -0.93554  -0.85659  -0.74176
 Alpha  occ. eigenvalues --   -0.65507  -0.63006  -0.59102  -0.58033  -0.56754
 Alpha  occ. eigenvalues --   -0.55127  -0.54100  -0.52913  -0.48737  -0.47240
 Alpha  occ. eigenvalues --   -0.41391  -0.37792
 Alpha virt. eigenvalues --    0.03189   0.03429   0.03709   0.04535   0.05462
 Alpha virt. eigenvalues --    0.05994   0.06299   0.06822   0.07377   0.07607
 Alpha virt. eigenvalues --    0.09317   0.09471   0.09850   0.10407   0.11199

 Mulliken charges:
               1
     1  C    0.385341
     2  B    0.422268
     3  C   -0.332980
     4  H    0.007253
     5  H   -0.054844
     6  H    0.109834
     7  C   -0.344135
     8  H   -0.047154
     9  H    0.124274
    10  H   -0.040121
    11  O   -0.939839
    12  Si   0.914189
    13  H   -0.129994
    14  H   -0.108284
    15  H    0.034192
 Sum of Mulliken charges =   0.00000

 Dipole moment (field-independent basis, Debye):
    X=              1.8201    Y=             -1.6554    Z=             -0.3457  Tot=              2.4845

 Test job not archived.
 1\1\GINC-SE102\SP\RHF\Aug-CC-pVDZ\C3H9B1O1Si1\OHZDE\09-Apr-2025\0\\#t
 hf aug-cc-pvdz iop(5/13=1,5/36=2,99/5=2) pseudo=read geom=check guess=
 (read,tcheck) scf=(maxcycle=1)\\title\\0,1\C,0,-2.00971,-0.18921,-0.40
 0935\B,0,1.220718,0.132594,0.044375\C,0,1.112916,1.668711,0.316413\H,0
 ,0.123001,2.088737,0.118208\H,0,1.884173,2.266519,-0.180565\H,0,1.2709
 05,1.796167,1.401008\C,0,2.53974,-0.524303,-0.486188\H,0,3.439852,0.07
 0176,-0.299162\H,0,2.42351,-0.570016,-1.5831\H,0,2.710154,-1.556987,-0
 .169524\O,0,-2.233501,0.99576,-0.28602\Si,0,-0.43593,-1.01108,0.387476

 Normal termination of Gaussian 16 at Wed Apr  9 00:46:57 2025.
