 Gaussian 16, Revision C.01,

 ----------------------------------------------------------------------
 #t hf aug-cc-pvdz symm=none int=(grid=ultrafine) guess=(read,tcheck) s
 table=opt
 ----------------------------------------------------------------------
 -----
 title
 -----
 Symbolic Z-matrix:
 Charge =  0 Multiplicity = 2

 SCF Done:  E(UHF) =  -191.360682828     A.U. after   18 cycles
 Normal termination of Gaussian 16 at Tue Apr  8 22:34:43 2025.
 Gaussian 16:  ES64L-G16RevC.01  3-Jul-2019

 ----------------------------------------------------------------------
 #t hf aug-cc-pvdz iop(5/13=1,5/36=2,99/5=2) pseudo=read geom=check gue
 ss=(read,tcheck) scf=(maxcycle=1)
 ----------------------------------------------------------------------
 -----
 title
 -----
 Structure from the checkpoint file:  "BDE49_expt_1089_mol2.chk"
 Charge =  0 Multiplicity = 2

                         Standard orientation:
 ---------------------------------------------------------------------
 Center     Atomic      Atomic             Coordinates (Angstroms)
 Number     Number       Type             X           Y           Z
 ---------------------------------------------------------------------
      1          6           0        0.951481    0.504213    0.000000
      2          8           0        1.530451   -0.525693   -0.000022
      3          6           0       -0.552336    0.733152    0.000020
      4          6           0       -1.386404   -0.552143   -0.000001
      5          1           0       -0.764930    1.362590   -0.870803
      6          1           0       -0.764911    1.362548    0.870879
      7          1           0       -1.168588   -1.157910   -0.881693
      8          1           0       -2.453056   -0.315059    0.000017
      9          1           0       -1.168567   -1.157952    0.881656
 ---------------------------------------------------------------------

 SCF Done:  E(UHF) =  -191.555380517     A.U. after    2 cycles

 The electronic state is 2-A.
 Alpha  occ. eigenvalues --  -20.58310 -11.34772 -11.27552 -11.24523  -1.52174
 Alpha  occ. eigenvalues --   -1.07895  -0.91807  -0.76738  -0.68654  -0.65228
 Alpha  occ. eigenvalues --   -0.63496  -0.56711  -0.55532  -0.53584  -0.51427
 Alpha  occ. eigenvalues --   -0.36011
 Alpha virt. eigenvalues --    0.03285   0.04379   0.04402   0.05553   0.07528
 Alpha virt. eigenvalues --    0.08870   0.10762   0.11298   0.12218   0.14674
 Alpha virt. eigenvalues --    0.15500   0.15643   0.16166   0.17029   0.17968

  Beta  occ. eigenvalues --  -20.57237 -11.32829 -11.27000 -11.24426  -1.49496
  Beta  occ. eigenvalues --   -1.06112  -0.89703  -0.73566  -0.64749  -0.64029
  Beta  occ. eigenvalues --   -0.57492  -0.55333  -0.54008  -0.51490  -0.48957
  Beta virt. eigenvalues --    0.03175   0.04175   0.04422   0.05245   0.07543
  Beta virt. eigenvalues --    0.08538   0.10827   0.11301   0.11379   0.12324
  Beta virt. eigenvalues --    0.14997   0.16196   0.16416   0.16571   0.17875

 Mulliken charges and spin densities:
               1          2
     1  C    0.686225   0.779615
     2  O   -0.882096   0.149393
     3  C   -0.506127   0.106582
     4  C   -0.283641   0.010174
     5  H    0.253700  -0.023194
     6  H    0.253703  -0.023194
     7  H    0.163618  -0.000452
     8  H    0.151001   0.001529
     9  H    0.163617  -0.000452
 Sum of Mulliken charges =  -0.00000   1.00000

 Dipole moment (field-independent basis, Debye):
    X=             -2.5643    Y=              1.1821    Z=              0.0000  Tot=              2.8237
                          Isotropic Fermi Contact Couplings
        Atom                 a.u.       MegaHertz       Gauss      10(-4) cm-1
     1  C(13)              0.33264     373.95528     133.43654     124.73805
     2  O(17)              0.10046     -60.89804     -21.72993     -20.31340
     3  C(13)              0.11746     132.04762      47.11787      44.04634
     4  C(13)              0.01505      16.91359       6.03519       5.64177
     5  H(1)              -0.00261     -11.68056      -4.16791      -3.89622
     6  H(1)              -0.00261     -11.68065      -4.16795      -3.89625
     7  H(1)              -0.00076      -3.41805      -1.21964      -1.14014
     8  H(1)               0.00211       9.44993       3.37197       3.15216

 Normal termination of Gaussian 16 at Tue Apr  8 22:34:46 2025.
