 Gaussian 16, Revision C.01,

 ----------------------------------------------------------------------
 #t hf aug-cc-pvdz symm=none int=(grid=ultrafine) guess=(read,tcheck) s
 table=(opt,rrhf)
 ----------------------------------------------------------------------
 -----
 title
 -----
 Symbolic Z-matrix:
 Charge =  0 Multiplicity = 1

 SCF Done:  E(RHF) =  -1440.37497190     A.U. after   16 cycles
 Normal termination of Gaussian 16 at Tue Apr  8 23:26:07 2025.
 Gaussian 16:  ES64L-G16RevC.01  3-Jul-2019

 ----------------------------------------------------------------------
 #t hf aug-cc-pvdz iop(5/13=1,5/36=2,99/5=2) pseudo=read geom=check gue
 ss=(read,tcheck) scf=(maxcycle=1)
 ----------------------------------------------------------------------
 -----
 title
 -----
 Structure from the checkpoint file:  "BDE49_nonexpt_1253_mol1.chk"
 Charge =  0 Multiplicity = 1

                         Standard orientation:
 ---------------------------------------------------------------------
 Center     Atomic      Atomic             Coordinates (Angstroms)
 Number     Number       Type             X           Y           Z
 ---------------------------------------------------------------------
      1         17           0        3.398956    0.215534    0.041325
      2         15           0        1.494716    0.102946   -0.899251
      3          6           0        0.511954   -0.197078    0.696783
      4          7           0        0.695892   -1.529486    1.251842
      5          1           0        1.670470   -1.802873    1.202968
      6          1           0        0.413653   -1.560770    2.226851
      7          6           0       -0.985124   -0.011989    0.486225
      8          9           0       -1.670640   -0.197939    1.625576
      9          7           0       -1.363708    1.418894    0.003195
     10          8           0       -2.182814    1.513689   -0.883198
     11          8           0       -0.822685    2.316058    0.617780
     12          7           0       -1.538184   -0.990914   -0.566751
     13          8           0       -2.527677   -1.617296   -0.295338
     14          8           0       -0.890891   -1.020994   -1.602564
     15          1           0        1.614067   -1.261467   -1.236183
     16          1           0        0.808128    0.631590    1.352918
 ---------------------------------------------------------------------

 SCF Done:  E(RHF) =  -1441.10232349     A.U. after    2 cycles

 The electronic state is 1-A.
 Alpha  occ. eigenvalues -- -105.58172 -84.36584 -26.56251 -20.65014 -20.64866
 Alpha  occ. eigenvalues --  -20.64417 -20.63715 -15.84556 -15.84235 -15.54613
 Alpha  occ. eigenvalues --  -11.51237 -11.35043 -10.63019  -7.79924  -7.79578
 Alpha  occ. eigenvalues --   -7.79557  -6.83086  -4.35539  -4.35225  -4.34753
 Alpha  occ. eigenvalues --   -1.74046  -1.72329  -1.69548  -1.57141  -1.56846
 Alpha  occ. eigenvalues --   -1.26291  -1.19229  -1.08704  -1.05691  -1.01481
 Alpha  occ. eigenvalues --   -0.90140  -0.88526  -0.87465  -0.83960  -0.80064
 Alpha  occ. eigenvalues --   -0.79672  -0.78691  -0.78033  -0.75203  -0.72828
 Alpha  occ. eigenvalues --   -0.72189  -0.70724  -0.67217  -0.56917  -0.56242
 Alpha  occ. eigenvalues --   -0.55919  -0.54169  -0.53509  -0.52596  -0.50809
 Alpha  occ. eigenvalues --   -0.50010  -0.49409  -0.48922  -0.47432  -0.39101
 Alpha virt. eigenvalues --    0.01205   0.01916   0.03029   0.04881   0.05292
 Alpha virt. eigenvalues --    0.05649   0.07269   0.08039   0.09033   0.09890
 Alpha virt. eigenvalues --    0.10978   0.12019   0.12850   0.13108   0.13468

 Mulliken charges:
               1
     1  Cl  -0.522960
     2  P    0.162834
     3  C   -1.235176
     4  N    0.438976
     5  H    0.109722
     6  H    0.224154
     7  C    0.774872
     8  F   -1.039783
     9  N    3.005086
    10  O   -1.402748
    11  O   -1.526561
    12  N    2.925698
    13  O   -1.344977
    14  O   -1.469902
    15  H    0.652844
    16  H    0.247922
 Sum of Mulliken charges =  -0.00000

 Dipole moment (field-independent basis, Debye):
    X=              1.5346    Y=             -1.0114    Z=              2.0312  Tot=              2.7393

 Test job not archived.
 1\1\GINC-SE460\SP\RHF\Aug-CC-pVDZ\C2H4Cl1F1N3O4P1\OHZDE\08-Apr-2025\0\
 \#t hf aug-cc-pvdz iop(5/13=1,5/36=2,99/5=2) pseudo=read geom=check gu
 ess=(read,tcheck) scf=(maxcycle=1)\\title\\0,1\Cl,0,3.398956,0.215533,
 0.041325\P,0,1.494716,0.102946,-0.899251\C,0,0.511954,-0.197078,0.6967
 83\N,0,0.695892,-1.529486,1.251842\H,0,1.67047,-1.802873,1.202968\H,0,
 0.413653,-1.56077,2.226851\C,0,-0.985124,-0.011989,0.486225\F,0,-1.670
 64,-0.197939,1.625576\N,0,-1.363708,1.418894,0.003195\O,0,-2.182814,1.
 513689,-0.883198\O,0,-0.822685,2.316058,0.61778\N,0,-1.538184,-0.99091

 Normal termination of Gaussian 16 at Tue Apr  8 23:26:18 2025.
