 Gaussian 16, Revision C.01,

 ----------------------------------------------------------------------
 #t hf aug-cc-pvdz symm=none int=(grid=ultrafine) guess=(read,tcheck) s
 table=(opt,rrhf)
 ----------------------------------------------------------------------
 -----
 title
 -----
 Symbolic Z-matrix:
 Charge =  0 Multiplicity = 1

 SCF Done:  E(RHF) =  -1084.66009994     A.U. after   14 cycles
 Normal termination of Gaussian 16 at Tue Apr  8 23:55:20 2025.
 Gaussian 16:  ES64L-G16RevC.01  3-Jul-2019

 ----------------------------------------------------------------------
 #t hf aug-cc-pvdz iop(5/13=1,5/36=2,99/5=2) pseudo=read geom=check gue
 ss=(read,tcheck) scf=(maxcycle=1)
 ----------------------------------------------------------------------
 -----
 title
 -----
 Structure from the checkpoint file:  "BDE49_nonexpt_1983_mol1.chk"
 Charge =  0 Multiplicity = 1

                         Standard orientation:
 ---------------------------------------------------------------------
 Center     Atomic      Atomic             Coordinates (Angstroms)
 Number     Number       Type             X           Y           Z
 ---------------------------------------------------------------------
      1         14           0        0.355480    0.457678    0.479615
      2          6           0       -1.237313   -0.248412   -0.167093
      3         17           0        1.913003   -0.753762   -0.166680
      4          9           0        0.550927    1.898899   -0.210647
      5          9           0       -1.558123   -1.500735    0.077836
      6          9           0       -2.334348    0.479274   -0.187023
 ---------------------------------------------------------------------

 SCF Done:  E(RHF) =  -1085.06938729     A.U. after    2 cycles

 The electronic state is 1-A.
 Alpha  occ. eigenvalues -- -105.58306 -69.64272 -26.55925 -26.55921 -26.47942
 Alpha  occ. eigenvalues --  -11.50060 -10.63287  -7.80168  -7.79844  -7.79826
 Alpha  occ. eigenvalues --   -6.30495  -4.05675  -4.05609  -4.05417  -1.73652
 Alpha  occ. eigenvalues --   -1.66107  -1.58955  -1.07686  -0.97925  -0.84588
 Alpha  occ. eigenvalues --   -0.82539  -0.78090  -0.75182  -0.69885  -0.67936
 Alpha  occ. eigenvalues --   -0.66851  -0.66555  -0.64042  -0.56871  -0.50749
 Alpha  occ. eigenvalues --   -0.49925  -0.34620
 Alpha virt. eigenvalues --   -0.01532   0.05237   0.05452   0.06017   0.07194
 Alpha virt. eigenvalues --    0.10723   0.11431   0.12051   0.13589   0.14849
 Alpha virt. eigenvalues --    0.15620   0.16448   0.17995   0.21391   0.21497

 Mulliken charges:
               1
     1  Si   1.417653
     2  C    0.959558
     3  Cl  -0.470119
     4  F   -0.750409
     5  F   -0.569467
     6  F   -0.587215
 Sum of Mulliken charges =  -0.00000

 Dipole moment (field-independent basis, Debye):
    X=             -1.0927    Y=             -0.3965    Z=              0.2510  Tot=              1.1892

 Test job not archived.
 1\1\GINC-SE365\SP\RHF\Aug-CC-pVDZ\C1Cl1F3Si1\OHZDE\08-Apr-2025\0\\#t h
 f aug-cc-pvdz iop(5/13=1,5/36=2,99/5=2) pseudo=read geom=check guess=(
 read,tcheck) scf=(maxcycle=1)\\title\\0,1\Si,0,0.35548,0.457678,0.4796
 15\C,0,-1.237313,-0.248412,-0.167093\Cl,0,1.913003,-0.753762,-0.16668\
 F,0,0.550927,1.898899,-0.210647\F,0,-1.558123,-1.500735,0.077836\F,0,-
 2.334348,0.479274,-0.187023\\Version=ES64L-G16RevC.01\State=1-A\HF=-10
 85.0693873\RMSD=2.556e-03\Dipole=-0.4299093,-0.1559763,0.0987512\Quadr
 upole=0.3172366,-1.2637038,0.9464672,0.2579142,1.0963649,1.0417892\PG=

 Normal termination of Gaussian 16 at Tue Apr  8 23:55:22 2025.
