 Gaussian 16, Revision C.01,

 ----------------------------------------------------------------------
 #t hf aug-cc-pvdz symm=none int=(grid=ultrafine) guess=(read,tcheck) s
 table=(opt,rrhf)
 ----------------------------------------------------------------------
 -----
 title
 -----
 Symbolic Z-matrix:
 Charge =  0 Multiplicity = 1

 SCF Done:  E(RHF) =  -434.231130919     A.U. after   18 cycles
 Normal termination of Gaussian 16 at Tue Apr  8 22:52:22 2025.
 Gaussian 16:  ES64L-G16RevC.01  3-Jul-2019

 ----------------------------------------------------------------------
 #t hf aug-cc-pvdz iop(5/13=1,5/36=2,99/5=2) pseudo=read geom=check gue
 ss=(read,tcheck) scf=(maxcycle=1)
 ----------------------------------------------------------------------
 -----
 title
 -----
 Structure from the checkpoint file:  "BDE49_expt_1786_mol1.chk"
 Charge =  0 Multiplicity = 1

                         Standard orientation:
 ---------------------------------------------------------------------
 Center     Atomic      Atomic             Coordinates (Angstroms)
 Number     Number       Type             X           Y           Z
 ---------------------------------------------------------------------
      1          6           0        2.636516    0.271979   -0.168839
      2          6           0        1.750961    1.332223    0.012392
      3          6           0        0.394145    1.091600    0.214821
      4          6           0        2.159869   -1.038730   -0.154694
      5          6           0        0.803780   -1.291048    0.026214
      6          6           0       -0.072454   -0.222442    0.211337
      7          1           0        3.692848    0.464921   -0.314516
      8          1           0        2.116796    2.352619    0.009778
      9          1           0       -0.297990    1.907510    0.380486
     10          1           0        2.844296   -1.867975   -0.292403
     11          1           0        0.409288   -2.299661    0.030589
     12          8           0       -1.402422   -0.517926    0.436191
     13          7           0       -2.317951    0.303768   -0.418127
     14          8           0       -3.419639    0.074766   -0.152996
 ---------------------------------------------------------------------

 SCF Done:  E(RHF) =  -434.658294173     A.U. after    2 cycles

 The electronic state is 1-A.
 Alpha  occ. eigenvalues --  -20.67338 -20.61441 -15.74984 -11.31369 -11.25663
 Alpha  occ. eigenvalues --  -11.25600 -11.25320 -11.25130 -11.24924  -1.70615
 Alpha  occ. eigenvalues --   -1.49849  -1.16250  -1.03773  -1.03014  -0.97851
 Alpha  occ. eigenvalues --   -0.85786  -0.84649  -0.78167  -0.76435  -0.71556
 Alpha  occ. eigenvalues --   -0.70928  -0.66450  -0.64907  -0.61350  -0.60882
 Alpha  occ. eigenvalues --   -0.55839  -0.53772  -0.52525  -0.49200  -0.46385
 Alpha  occ. eigenvalues --   -0.35919  -0.34313
 Alpha virt. eigenvalues --    0.03451   0.03669   0.04159   0.04960   0.05691
 Alpha virt. eigenvalues --    0.06218   0.09421   0.09650   0.10827   0.11024
 Alpha virt. eigenvalues --    0.12044   0.12993   0.13514   0.13680   0.14204

 Mulliken charges:
               1
     1  C    0.068308
     2  C    0.526024
     3  C   -0.264352
     4  C    0.711197
     5  C    0.008400
     6  C    1.228314
     7  H   -0.208105
     8  H   -0.223504
     9  H   -0.211992
    10  H   -0.213110
    11  H   -0.209617
    12  O   -1.731189
    13  N    1.435215
    14  O   -0.915588
 Sum of Mulliken charges =  -0.00000

 Dipole moment (field-independent basis, Debye):
    X=              1.4006    Y=              0.3186    Z=             -0.2472  Tot=              1.4575

 Test job not archived.
 1\1\GINC-SE072\SP\RHF\Aug-CC-pVDZ\C6H5N1O2\OHZDE\08-Apr-2025\0\\#t hf
 aug-cc-pvdz iop(5/13=1,5/36=2,99/5=2) pseudo=read geom=check guess=(re
 ad,tcheck) scf=(maxcycle=1)\\title\\0,1\C,0,2.636516,0.271979,-0.16883
 9\C,0,1.750961,1.332223,0.012392\C,0,0.394145,1.0916,0.214821\C,0,2.15
 9869,-1.03873,-0.154694\C,0,0.80378,-1.291048,0.026214\C,0,-0.072454,-
 0.222442,0.211337\H,0,3.692848,0.464921,-0.314516\H,0,2.116796,2.35261
 9,0.009778\H,0,-0.29799,1.90751,0.380486\H,0,2.844296,-1.867975,-0.292
 403\H,0,0.409288,-2.299661,0.030589\O,0,-1.402422,-0.517926,0.436191\N

 Normal termination of Gaussian 16 at Tue Apr  8 22:52:28 2025.
