 Gaussian 16, Revision C.01,

 ----------------------------------------------------------------------
 #t hf aug-cc-pvdz symm=none int=(grid=ultrafine) guess=(read,tcheck) s
 table=(opt,rrhf)
 ----------------------------------------------------------------------
 -----
 title
 -----
 Symbolic Z-matrix:
 Charge =  0 Multiplicity = 1

 SCF Done:  E(RHF) =  -554.913239672     A.U. after   12 cycles
 Normal termination of Gaussian 16 at Tue Apr  8 23:50:22 2025.
 Gaussian 16:  ES64L-G16RevC.01  3-Jul-2019

 ----------------------------------------------------------------------
 #t hf aug-cc-pvdz iop(5/13=1,5/36=2,99/5=2) pseudo=read geom=check gue
 ss=(read,tcheck) scf=(maxcycle=1)
 ----------------------------------------------------------------------
 -----
 title
 -----
 Structure from the checkpoint file:  "BDE49_nonexpt_1863_mol1.chk"
 Charge =  0 Multiplicity = 1

                         Standard orientation:
 ---------------------------------------------------------------------
 Center     Atomic      Atomic             Coordinates (Angstroms)
 Number     Number       Type             X           Y           Z
 ---------------------------------------------------------------------
      1          6           0        0.389847    0.014464   -0.020391
      2         14           0       -1.531811   -0.019877    0.003859
      3          8           0        0.803860    1.302581   -0.386190
      4          1           0        1.697374    1.219703   -0.750121
      5          8           0        0.875388   -0.938605   -0.929407
      6          1           0        1.497969   -1.489411   -0.436859
      7          8           0        0.944095   -0.350188    1.241109
      8          1           0        0.972138    0.449501    1.778258
      9          1           0       -2.017252    0.976628    0.987404
     10          1           0       -1.960294   -1.371681    0.421369
     11          1           0       -2.070414    0.296456   -1.335825
 ---------------------------------------------------------------------

 SCF Done:  E(RHF) =  -555.212091925     A.U. after    2 cycles

 The electronic state is 1-A.
 Alpha  occ. eigenvalues --  -69.53246 -20.57633 -20.57369 -20.57224 -11.39518
 Alpha  occ. eigenvalues --   -6.20393  -3.95754  -3.95748  -3.95743  -1.55060
 Alpha  occ. eigenvalues --   -1.44952  -1.44210  -0.90795  -0.77299  -0.74268
 Alpha  occ. eigenvalues --   -0.73674  -0.65234  -0.62312  -0.56647  -0.55686
 Alpha  occ. eigenvalues --   -0.51724  -0.49901  -0.48813  -0.47702  -0.42365
 Alpha virt. eigenvalues --    0.03373   0.04483   0.04842   0.05100   0.07143
 Alpha virt. eigenvalues --    0.07359   0.07822   0.09535   0.09819   0.13307
 Alpha virt. eigenvalues --    0.14870   0.15593   0.15935   0.17231   0.19125

 Mulliken charges:
               1
     1  C    2.569747
     2  Si   0.943495
     3  O   -1.193408
     4  H    0.204717
     5  O   -1.225344
     6  H    0.237931
     7  O   -1.282820
     8  H    0.276386
     9  H   -0.179466
    10  H   -0.178060
    11  H   -0.173177
 Sum of Mulliken charges =  -0.00000

 Dipole moment (field-independent basis, Debye):
    X=              1.1958    Y=              0.2544    Z=              0.9089  Tot=              1.5234

 Test job not archived.
 1\1\GINC-SE059\SP\RHF\Aug-CC-pVDZ\C1H6O3Si1\OHZDE\08-Apr-2025\0\\#t hf
  aug-cc-pvdz iop(5/13=1,5/36=2,99/5=2) pseudo=read geom=check guess=(r
 ead,tcheck) scf=(maxcycle=1)\\title\\0,1\C,0,0.389847,0.014464,-0.0203
 91\Si,0,-1.531811,-0.019877,0.003859\O,0,0.80386,1.302581,-0.38619\H,0
 ,1.697374,1.219703,-0.750121\O,0,0.875388,-0.938605,-0.929407\H,0,1.49
 7969,-1.489411,-0.436859\O,0,0.944095,-0.350188,1.241109\H,0,0.972138,
 0.449501,1.778258\H,0,-2.017252,0.976628,0.987404\H,0,-1.960294,-1.371
 681,0.421369\H,0,-2.070414,0.296456,-1.335825\\Version=ES64L-G16RevC.0

 Normal termination of Gaussian 16 at Tue Apr  8 23:50:25 2025.
