 Gaussian 16, Revision C.01,

 ----------------------------------------------------------------------
 #t hf aug-cc-pvdz symm=none int=(grid=ultrafine) guess=(read,tcheck) s
 table=opt
 ----------------------------------------------------------------------
 -----
 title
 -----
 Symbolic Z-matrix:
 Charge =  0 Multiplicity = 2

 SCF Done:  E(UHF) =  -420.329245321     A.U. after   16 cycles

 1\1\GINC-SE404\Stability\UHF\Aug-CC-pVDZ\C5H11O3\OHZDE\08-Apr-2025\0\\
 #t hf aug-cc-pvdz symm=none int=(grid=ultrafine) guess=(read,tcheck) s
 table=opt\\title\\0,2\C,0,-0.257573,-1.240053,-0.796507\C,0,-0.762649,
 -0.001114,-0.013519\C,0,-2.256064,-0.005069,-0.007641\H,0,-2.815156,0.
 921063,0.05753\H,0,-2.810229,-0.934784,0.046422\C,0,-0.264571,1.305223
 ,-0.68361\O,0,1.162782,-1.404597,-0.762982\H,0,-0.612329,-1.180818,-1.
 833682\H,0,-0.676807,-2.14808,-0.354683\H,0,1.527454,-0.591436,-1.1463
 53\C,0,-0.263345,-0.066091,1.466121\O,0,1.155814,1.378569,-0.819341\H,

 Normal termination of Gaussian 16 at Tue Apr  8 22:42:13 2025.
 Gaussian 16:  ES64L-G16RevC.01  3-Jul-2019

 ----------------------------------------------------------------------
 #t hf aug-cc-pvdz iop(5/13=1,5/36=2,99/5=2) pseudo=read geom=check gue
 ss=(read,tcheck) scf=(maxcycle=1)
 ----------------------------------------------------------------------
 -----
 title
 -----
 Structure from the checkpoint file:  "BDE49_expt_1354_mol2.chk"
 Charge =  0 Multiplicity = 2

                         Standard orientation:
 ---------------------------------------------------------------------
 Center     Atomic      Atomic             Coordinates (Angstroms)
 Number     Number       Type             X           Y           Z
 ---------------------------------------------------------------------
      1          6           0       -0.257573   -1.240053   -0.796507
      2          6           0       -0.762649   -0.001114   -0.013519
      3          6           0       -2.256064   -0.005069   -0.007641
      4          1           0       -2.815156    0.921064    0.057530
      5          1           0       -2.810229   -0.934783    0.046422
      6          6           0       -0.264571    1.305223   -0.683610
      7          8           0        1.162782   -1.404597   -0.762982
      8          1           0       -0.612329   -1.180818   -1.833682
      9          1           0       -0.676807   -2.148080   -0.354683
     10          1           0        1.527454   -0.591436   -1.146353
     11          6           0       -0.263345   -0.066091    1.466121
     12          8           0        1.155814    1.378569   -0.819341
     13          1           0       -0.641377    2.167782   -0.116146
     14          1           0       -0.670415    1.373075   -1.695791
     15          1           0        1.509093    1.292130    0.080351
     16          8           0        1.157104    0.034582    1.599290
     17          1           0       -0.627707   -0.993276    1.926662
     18          1           0       -0.681607    0.771668    2.028316
     19          1           0        1.518690   -0.703137    1.082571
 ---------------------------------------------------------------------

 SCF Done:  E(UHF) =  -420.763879626     A.U. after    2 cycles

 The electronic state is 2-A.
 Alpha  occ. eigenvalues --  -20.55311 -20.55232 -20.55180 -11.29696 -11.29612
 Alpha  occ. eigenvalues --  -11.29554 -11.26101 -11.25878  -1.47087  -1.44514
 Alpha  occ. eigenvalues --   -1.44456  -1.11859  -0.93698  -0.93143  -0.93097
 Alpha  occ. eigenvalues --   -0.79408  -0.72174  -0.72009  -0.66390  -0.64407
 Alpha  occ. eigenvalues --   -0.63838  -0.62148  -0.59184  -0.58128  -0.58106
 Alpha  occ. eigenvalues --   -0.57120  -0.53501  -0.52202  -0.50497  -0.46094
 Alpha  occ. eigenvalues --   -0.44347  -0.42434  -0.37392
 Alpha virt. eigenvalues --    0.03020   0.03767   0.04054   0.04592   0.06170
 Alpha virt. eigenvalues --    0.06194   0.06471   0.06608   0.08089   0.09193
 Alpha virt. eigenvalues --    0.09749   0.12546   0.12759   0.13026   0.14164

  Beta  occ. eigenvalues --  -20.55304 -20.55174 -20.55165 -11.29538 -11.29497
  Beta  occ. eigenvalues --  -11.29454 -11.26204 -11.23671  -1.46999  -1.44476
  Beta  occ. eigenvalues --   -1.44315  -1.10118  -0.92998  -0.92513  -0.87523
  Beta  occ. eigenvalues --   -0.78458  -0.72056  -0.71723  -0.66101  -0.63975
  Beta  occ. eigenvalues --   -0.63204  -0.61492  -0.58563  -0.57954  -0.57867
  Beta  occ. eigenvalues --   -0.56579  -0.52886  -0.52058  -0.49703  -0.45980
  Beta  occ. eigenvalues --   -0.42549  -0.42411
  Beta virt. eigenvalues --    0.03140   0.03614   0.03789   0.04604   0.06153
  Beta virt. eigenvalues --    0.06207   0.06480   0.06620   0.07188   0.09196
  Beta virt. eigenvalues --    0.09566   0.09764   0.12634   0.13015   0.13631

 Mulliken charges and spin densities:
               1          2
     1  C    1.107543   0.035266
     2  C   -2.166370  -0.302563
     3  C    0.787499   1.408553
     4  H   -0.132948  -0.093435
     5  H   -0.138732  -0.097808
     6  C    1.108156   0.033685
     7  O   -1.284994   0.002141
     8  H    0.144367  -0.001637
     9  H    0.090588  -0.008076
    10  H    0.467091   0.000650
    11  C    1.146911   0.041661
    12  O   -1.284814   0.001114
    13  H    0.118980  -0.007753
    14  H    0.118912  -0.002329
    15  H    0.468506   0.000458
    16  O   -1.279377   0.015881
    17  H    0.129139  -0.009403
    18  H    0.113435  -0.015440
    19  H    0.486108  -0.000966
 Sum of Mulliken charges =  -0.00000   1.00000

 Dipole moment (field-independent basis, Debye):
    X=             -2.6732    Y=             -0.0420    Z=              0.0525  Tot=              2.6740
                          Isotropic Fermi Contact Couplings
        Atom                 a.u.       MegaHertz       Gauss      10(-4) cm-1
     1  C(13)              0.01997      22.44628       8.00939       7.48727
     2  C(13)             -0.05726     -64.37583     -22.97090     -21.47347
     3  C(13)              0.20883     234.75976      83.76812      78.30743
     4  H(1)              -0.02419    -108.13039     -38.58361     -36.06842
     5  H(1)              -0.02420    -108.18512     -38.60314     -36.08667
     6  C(13)              0.01714      19.27021       6.87609       6.42785
     7  O(17)             -0.00072       0.43907       0.15667       0.14646
     8  H(1)              -0.00071      -3.16058      -1.12777      -1.05426

 Normal termination of Gaussian 16 at Tue Apr  8 22:42:22 2025.
