 Gaussian 16, Revision C.01,

 ----------------------------------------------------------------------
 #t hf aug-cc-pvdz symm=none int=(grid=ultrafine) guess=(read,tcheck) s
 table=(opt,rrhf)
 ----------------------------------------------------------------------
 -----
 title
 -----
 Symbolic Z-matrix:
 Charge =  0 Multiplicity = 1

 SCF Done:  E(RHF) =  -723.453906492     A.U. after   16 cycles
 Normal termination of Gaussian 16 at Tue Apr  8 23:17:51 2025.
 Gaussian 16:  ES64L-G16RevC.01  3-Jul-2019

 ----------------------------------------------------------------------
 #t hf aug-cc-pvdz iop(5/13=1,5/36=2,99/5=2) pseudo=read geom=check gue
 ss=(read,tcheck) scf=(maxcycle=1)
 ----------------------------------------------------------------------
 -----
 title
 -----
 Structure from the checkpoint file:  "BDE49_nonexpt_1049_mol1.chk"
 Charge =  0 Multiplicity = 1

                         Standard orientation:
 ---------------------------------------------------------------------
 Center     Atomic      Atomic             Coordinates (Angstroms)
 Number     Number       Type             X           Y           Z
 ---------------------------------------------------------------------
      1         17           0        1.855321   -0.327648   -0.044003
      2          8           0        0.426508    0.560414    0.615487
      3          8           0       -0.463644    0.886437   -0.371979
      4          8           0       -1.293846   -0.248541   -0.673389
      5          6           0       -2.240720   -0.423286    0.385309
      6          1           0       -2.839198   -1.275253    0.059214
      7          1           0       -2.871360    0.462508    0.492145
      8          1           0       -1.737730   -0.664009    1.323886
 ---------------------------------------------------------------------

 SCF Done:  E(RHF) =  -723.784781411     A.U. after    2 cycles

 The electronic state is 1-A.
 Alpha  occ. eigenvalues -- -105.63196 -20.70865 -20.70768 -20.64421 -11.30917
 Alpha  occ. eigenvalues --  -10.67389  -7.84341  -7.83811  -7.83786  -1.70691
 Alpha  occ. eigenvalues --   -1.48031  -1.22730  -1.02874  -0.94070  -0.73619
 Alpha  occ. eigenvalues --   -0.72644  -0.71924  -0.63363  -0.61875  -0.59859
 Alpha  occ. eigenvalues --   -0.54004  -0.50310  -0.48424  -0.47755  -0.46323
 Alpha virt. eigenvalues --    0.03591   0.03732   0.05329   0.05791   0.09045
 Alpha virt. eigenvalues --    0.12862   0.13357   0.13869   0.14853   0.15188
 Alpha virt. eigenvalues --    0.16702   0.17036   0.18493   0.20732   0.23412

 Mulliken charges:
               1
     1  Cl   0.298442
     2  O   -0.366296
     3  O    0.007438
     4  O   -0.683340
     5  C    0.358768
     6  H    0.063125
     7  H    0.150789
     8  H    0.171074
 Sum of Mulliken charges =  -0.00000

 Dipole moment (field-independent basis, Debye):
    X=             -1.7935    Y=             -0.7413    Z=              1.0579  Tot=              2.2103

 Test job not archived.
 1\1\GINC-SE044\SP\RHF\Aug-CC-pVDZ\C1H3Cl1O3\OHZDE\08-Apr-2025\0\\#t hf
  aug-cc-pvdz iop(5/13=1,5/36=2,99/5=2) pseudo=read geom=check guess=(r
 ead,tcheck) scf=(maxcycle=1)\\title\\0,1\Cl,0,1.855321,-0.327648,-0.04
 4003\O,0,0.426508,0.560414,0.615487\O,0,-0.463644,0.886437,-0.371979\O
 ,0,-1.293846,-0.248541,-0.673389\C,0,-2.24072,-0.423286,0.385309\H,0,-
 2.839198,-1.275253,0.059214\H,0,-2.87136,0.462508,0.492145\H,0,-1.7377
 3,-0.664009,1.323886\\Version=ES64L-G16RevC.01\State=1-A\HF=-723.78478
 14\RMSD=8.068e-03\Dipole=-0.7056067,-0.2916639,0.4161978\Quadrupole=3.

 Normal termination of Gaussian 16 at Tue Apr  8 23:17:53 2025.
