 Gaussian 16, Revision C.01,

 ----------------------------------------------------------------------
 #t hf aug-cc-pvdz symm=none int=(grid=ultrafine) guess=(read,tcheck) s
 table=(opt,rrhf)
 ----------------------------------------------------------------------
 -----
 title
 -----
 Symbolic Z-matrix:
 Charge =  0 Multiplicity = 1

 SCF Done:  E(RHF) =  -398.698098803     A.U. after   10 cycles
 Normal termination of Gaussian 16 at Tue Apr  8 23:13:45 2025.
 Gaussian 16:  ES64L-G16RevC.01  3-Jul-2019

 ----------------------------------------------------------------------
 #t hf aug-cc-pvdz iop(5/13=1,5/36=2,99/5=2) pseudo=read geom=check gue
 ss=(read,tcheck) scf=(maxcycle=1)
 ----------------------------------------------------------------------
 -----
 title
 -----
 Structure from the checkpoint file:  "BDE49_expt_824_mol1.chk"
 Charge =  0 Multiplicity = 1

                         Standard orientation:
 ---------------------------------------------------------------------
 Center     Atomic      Atomic             Coordinates (Angstroms)
 Number     Number       Type             X           Y           Z
 ---------------------------------------------------------------------
      1         16           0        0.000000   -0.000000    0.103135
      2          1           0        0.000000    0.971454   -0.825079
      3          1           0       -0.000000   -0.971454   -0.825079
 ---------------------------------------------------------------------

 SCF Done:  E(RHF) =  -398.760893013     A.U. after    2 cycles

 The electronic state is 1-A1.
 Alpha  occ. eigenvalues --  -93.96504  -8.24586  -6.22457  -6.22343  -6.22087
 Alpha  occ. eigenvalues --   -1.01938  -0.59778  -0.50991  -0.39240
 Alpha virt. eigenvalues --    0.03563   0.05947   0.10926   0.11703   0.12181
 Alpha virt. eigenvalues --    0.18051   0.20499   0.23720   0.27357   0.30969
 Alpha virt. eigenvalues --    0.31547   0.41008   0.46150   0.48036   0.53429

 Mulliken charges:
               1
     1  S   -0.541079
     2  H    0.270539
     3  H    0.270539
 Sum of Mulliken charges =   0.00000

 Dipole moment (field-independent basis, Debye):
    X=             -0.0000    Y=              0.0000    Z=             -1.1877  Tot=              1.1877

 Test job not archived.
 1\1\GINC-SE096\SP\RHF\Aug-CC-pVDZ\H2S1\OHZDE\08-Apr-2025\0\\#t hf aug-
 cc-pvdz iop(5/13=1,5/36=2,99/5=2) pseudo=read geom=check guess=(read,t
 check) scf=(maxcycle=1)\\title\\0,1\S,0,0.,0.,0.103135\H,0,0.,0.971454
 ,-0.825079\H,0,0.,-0.971454,-0.825079\\Version=ES64L-G16RevC.01\State=
 1-A1\HF=-398.760893\RMSD=6.269e-03\Dipole=0.,0.,-0.4672865\Quadrupole=
 -2.0445521,1.5466203,0.4979318,0.,0.,0.\PG=C02V [C2(S1),SGV(H2)]\\@

 Normal termination of Gaussian 16 at Tue Apr  8 23:13:46 2025.
