 Gaussian 16, Revision C.01,

 ----------------------------------------------------------------------
 #t hf aug-cc-pvdz symm=none int=(grid=ultrafine) guess=(read,tcheck) s
 table=(opt,rrhf)
 ----------------------------------------------------------------------
 -----
 title
 -----
 Symbolic Z-matrix:
 Charge =  0 Multiplicity = 1

 SCF Done:  E(RHF) =  -459.586878984     A.U. after   12 cycles
 Normal termination of Gaussian 16 at Tue Apr  8 23:26:05 2025.
 Gaussian 16:  ES64L-G16RevC.01  3-Jul-2019

 ----------------------------------------------------------------------
 #t hf aug-cc-pvdz iop(5/13=1,5/36=2,99/5=2) pseudo=read geom=check gue
 ss=(read,tcheck) scf=(maxcycle=1)
 ----------------------------------------------------------------------
 -----
 title
 -----
 Structure from the checkpoint file:  "BDE49_nonexpt_1277_mol1.chk"
 Charge =  0 Multiplicity = 1

                         Standard orientation:
 ---------------------------------------------------------------------
 Center     Atomic      Atomic             Coordinates (Angstroms)
 Number     Number       Type             X           Y           Z
 ---------------------------------------------------------------------
      1         15           0       -1.413191   -0.118283   -0.000027
      2          6           0        0.423626    0.010701   -0.394823
      3          6           0        1.100157    1.286508    0.118280
      4          1           0        1.064696    1.335147    1.210980
      5          6           0        1.141698   -1.252905    0.105031
      6          1           0        1.114772   -1.314558    1.197896
      7          1           0        2.193348   -1.241482   -0.197794
      8          1           0        0.686879   -2.163539   -0.292928
      9          1           0        0.616377    2.185298   -0.271189
     10          1           0        2.153790    1.314204   -0.182507
     11          1           0        0.461820    0.010184   -1.491213
     12          1           0       -1.770998    1.215486   -0.333129
     13          1           0       -1.315708    0.167692    1.389372
 ---------------------------------------------------------------------

 SCF Done:  E(RHF) =  -459.768001546     A.U. after    2 cycles

 The electronic state is 1-A.
 Alpha  occ. eigenvalues --  -84.26359 -11.24910 -11.23231 -11.23100  -6.73444
 Alpha  occ. eigenvalues --   -4.25999  -4.25802  -4.25268  -1.07497  -0.93791
 Alpha  occ. eigenvalues --   -0.86916  -0.76543  -0.63021  -0.59807  -0.57550
 Alpha  occ. eigenvalues --   -0.54786  -0.50693  -0.49936  -0.47595  -0.43437
 Alpha  occ. eigenvalues --   -0.33600
 Alpha virt. eigenvalues --    0.03773   0.04277   0.04347   0.04722   0.06716
 Alpha virt. eigenvalues --    0.06971   0.07337   0.07531   0.08876   0.10883
 Alpha virt. eigenvalues --    0.12422   0.12709   0.14717   0.15240   0.15720

 Mulliken charges:
               1
     1  P   -0.384304
     2  C   -1.027873
     3  C   -0.210786
     4  H    0.179276
     5  C   -0.199125
     6  H    0.185054
     7  H    0.145174
     8  H    0.119140
     9  H    0.104581
    10  H    0.155869
    11  H    0.179066
    12  H    0.380213
    13  H    0.373715
 Sum of Mulliken charges =  -0.00000

 Dipole moment (field-independent basis, Debye):
    X=              0.9477    Y=              0.3740    Z=             -0.0953  Tot=              1.0232

 Test job not archived.
 1\1\GINC-SE049\SP\RHF\Aug-CC-pVDZ\C3H9P1\OHZDE\08-Apr-2025\0\\#t hf au
 g-cc-pvdz iop(5/13=1,5/36=2,99/5=2) pseudo=read geom=check guess=(read
 ,tcheck) scf=(maxcycle=1)\\title\\0,1\P,0,-1.413191,-0.118284,-0.00002
 7\C,0,0.423626,0.010701,-0.394823\C,0,1.100156,1.286508,0.11828\H,0,1.
 064695,1.335147,1.21098\C,0,1.141699,-1.252905,0.105031\H,0,1.114773,-
 1.314558,1.197896\H,0,2.193349,-1.241481,-0.197794\H,0,0.68688,-2.1635
 39,-0.292928\H,0,0.616376,2.185298,-0.271189\H,0,2.153789,1.314205,-0.
 182507\H,0,0.46182,0.010184,-1.491213\H,0,-1.770999,1.215485,-0.333129

 Normal termination of Gaussian 16 at Tue Apr  8 23:26:09 2025.
