 Gaussian 16, Revision C.01,

 ----------------------------------------------------------------------
 #t hf aug-cc-pvdz symm=none int=(grid=ultrafine) guess=(read,tcheck) s
 table=(opt,rrhf)
 ----------------------------------------------------------------------
 -----
 title
 -----
 Symbolic Z-matrix:
 Charge =  0 Multiplicity = 1

 SCF Done:  E(RHF) =  -820.435527765     A.U. after   17 cycles
 Normal termination of Gaussian 16 at Tue Apr  8 22:49:45 2025.
 Gaussian 16:  ES64L-G16RevC.01  3-Jul-2019

 ----------------------------------------------------------------------
 #t hf aug-cc-pvdz iop(5/13=1,5/36=2,99/5=2) pseudo=read geom=check gue
 ss=(read,tcheck) scf=(maxcycle=1)
 ----------------------------------------------------------------------
 -----
 title
 -----
 Structure from the checkpoint file:  "BDE49_expt_1695_mol1.chk"
 Charge =  0 Multiplicity = 1

                         Standard orientation:
 ---------------------------------------------------------------------
 Center     Atomic      Atomic             Coordinates (Angstroms)
 Number     Number       Type             X           Y           Z
 ---------------------------------------------------------------------
      1          6           0        0.109152    1.205551    0.382487
      2          6           0       -1.253448    1.212871    0.120021
      3          6           0       -1.944173   -0.000001   -0.012331
      4          6           0       -1.253447   -1.212871    0.120025
      5          6           0        0.109153   -1.205547    0.382492
      6          6           0        0.805035    0.000003    0.518174
      7          1           0        0.639856    2.146004    0.480431
      8          1           0       -1.789248    2.148216    0.018340
      9          6           0        2.275048    0.000004    0.805682
     10          1           0        0.639859   -2.145999    0.480439
     11          1           0        2.585295    0.889386    1.349224
     12         17           0        3.267257   -0.000003   -0.735213
     13          1           0        2.585295   -0.889372    1.349233
     14          1           0       -1.789244   -2.148217    0.018348
     15          6           0       -3.350116   -0.000002   -0.277539
     16          7           0       -4.485485   -0.000002   -0.490209
 ---------------------------------------------------------------------

 SCF Done:  E(RHF) =  -820.873980239     A.U. after    2 cycles

 The electronic state is 1-A.
 Alpha  occ. eigenvalues -- -105.56932 -15.52209 -11.33162 -11.30429 -11.29173
 Alpha  occ. eigenvalues --  -11.28994 -11.28703 -11.28699 -11.27798 -11.27795
 Alpha  occ. eigenvalues --  -10.61685  -7.78622  -7.78247  -7.78241  -1.24264
 Alpha  occ. eigenvalues --   -1.20268  -1.12964  -1.05939  -1.05866  -0.95144
 Alpha  occ. eigenvalues --   -0.88171  -0.86428  -0.78764  -0.70997  -0.70206
 Alpha  occ. eigenvalues --   -0.65502  -0.64078  -0.62416  -0.61543  -0.59706
 Alpha  occ. eigenvalues --   -0.57098  -0.55918  -0.54812  -0.50751  -0.50640
 Alpha  occ. eigenvalues --   -0.46123  -0.45850  -0.38339  -0.37525
 Alpha virt. eigenvalues --    0.02611   0.02983   0.03372   0.03897   0.05204
 Alpha virt. eigenvalues --    0.05406   0.07145   0.07395   0.08219   0.08867
 Alpha virt. eigenvalues --    0.09744   0.10087   0.11738   0.12177   0.12795

 Mulliken charges:
               1
     1  C    0.140299
     2  C   -0.033891
     3  C    2.450049
     4  C   -0.033886
     5  C    0.140289
     6  C    1.097385
     7  H   -0.281925
     8  H   -0.299122
     9  C   -0.560844
    10  H   -0.281925
    11  H    0.052880
    12  Cl  -0.079463
    13  H    0.052878
    14  H   -0.299124
    15  C   -3.147593
    16  N    1.083993
 Sum of Mulliken charges =  -0.00000

 Dipole moment (field-independent basis, Debye):
    X=              4.0605    Y=              0.0000    Z=              2.6878  Tot=              4.8695

 Test job not archived.
 1\1\GINC-SE461\SP\RHF\Aug-CC-pVDZ\C8H6Cl1N1\OHZDE\08-Apr-2025\0\\#t hf
  aug-cc-pvdz iop(5/13=1,5/36=2,99/5=2) pseudo=read geom=check guess=(r
 ead,tcheck) scf=(maxcycle=1)\\title\\0,1\C,0,0.109152,1.205551,0.38248
 7\C,0,-1.253448,1.212871,0.120021\C,0,-1.944173,-0.000001,-0.012331\C,
 0,-1.253447,-1.212871,0.120025\C,0,0.109153,-1.205547,0.382492\C,0,0.8
 05035,0.000003,0.518174\H,0,0.639856,2.146004,0.480431\H,0,-1.789248,2
 .148216,0.01834\C,0,2.275048,0.000004,0.805682\H,0,0.639859,-2.145999,
 0.480439\H,0,2.585295,0.889386,1.349224\Cl,0,3.267257,-0.000003,-0.735

 Normal termination of Gaussian 16 at Tue Apr  8 22:49:53 2025.
