 Gaussian 16, Revision C.01,

 ----------------------------------------------------------------------
 #t hf aug-cc-pvdz symm=none int=(grid=ultrafine) guess=(read,tcheck) s
 table=(opt,rrhf)
 ----------------------------------------------------------------------
 -----
 title
 -----
 Symbolic Z-matrix:
 Charge =  0 Multiplicity = 1

 SCF Done:  E(RHF) =  -649.179768031     A.U. after   16 cycles
 Normal termination of Gaussian 16 at Tue Apr  8 23:20:54 2025.
 Gaussian 16:  ES64L-G16RevC.01  3-Jul-2019

 ----------------------------------------------------------------------
 #t hf aug-cc-pvdz iop(5/13=1,5/36=2,99/5=2) pseudo=read geom=check gue
 ss=(read,tcheck) scf=(maxcycle=1)
 ----------------------------------------------------------------------
 -----
 title
 -----
 Structure from the checkpoint file:  "BDE49_nonexpt_1146_mol1.chk"
 Charge =  0 Multiplicity = 1

                         Standard orientation:
 ---------------------------------------------------------------------
 Center     Atomic      Atomic             Coordinates (Angstroms)
 Number     Number       Type             X           Y           Z
 ---------------------------------------------------------------------
      1          9           0       -2.099738   -0.508945    0.000006
      2          8           0       -0.622479   -0.899655    0.000008
      3          6           0        0.155242    0.180299    0.000010
      4         16           0        1.727767   -0.255211   -0.000012
      5          6           0       -0.466069    1.533801    0.000003
      6          1           0       -1.107958    1.643131    0.877868
      7          1           0       -1.107970    1.643117   -0.877855
      8          1           0        0.314099    2.290279   -0.000009
 ---------------------------------------------------------------------

 SCF Done:  E(RHF) =  -649.478974417     A.U. after    2 cycles

 The electronic state is 1-A.
 Alpha  occ. eigenvalues --  -93.94952 -26.53050 -20.74572 -11.42406 -11.28715
 Alpha  occ. eigenvalues --   -8.23248  -6.21085  -6.20795  -6.20645  -1.66857
 Alpha  occ. eigenvalues --   -1.45941  -1.11035  -1.01848  -0.83441  -0.73232
 Alpha  occ. eigenvalues --   -0.71605  -0.69482  -0.63132  -0.62086  -0.59938
 Alpha  occ. eigenvalues --   -0.59326  -0.55006  -0.40413  -0.37934
 Alpha virt. eigenvalues --    0.03174   0.04212   0.04875   0.05989   0.06971
 Alpha virt. eigenvalues --    0.08304   0.09069   0.12032   0.13160   0.13426
 Alpha virt. eigenvalues --    0.14282   0.15801   0.15821   0.16956   0.17532

 Mulliken charges:
               1
     1  F   -0.305615
     2  O   -0.686001
     3  C    0.557503
     4  S    0.081154
     5  C   -0.434366
     6  H    0.307076
     7  H    0.307078
     8  H    0.173171
 Sum of Mulliken charges =  -0.00000

 Dipole moment (field-independent basis, Debye):
    X=             -1.2749    Y=              2.5208    Z=              0.0000  Tot=              2.8249

 Test job not archived.
 1\1\GINC-SE038\SP\RHF\Aug-CC-pVDZ\C2H3F1O1S1\OHZDE\08-Apr-2025\0\\#t h
 f aug-cc-pvdz iop(5/13=1,5/36=2,99/5=2) pseudo=read geom=check guess=(
 read,tcheck) scf=(maxcycle=1)\\title\\0,1\F,0,-2.099738,-0.508946,0.00
 0006\O,0,-0.622479,-0.899655,0.000008\C,0,0.155242,0.180299,0.00001\S,
 0,1.727767,-0.255211,-0.000012\C,0,-0.466069,1.533801,0.000003\H,0,-1.
 107958,1.643131,0.877868\H,0,-1.10797,1.643117,-0.877855\H,0,0.314099,
 2.290279,-0.000009\\Version=ES64L-G16RevC.01\State=1-A\HF=-649.4789744
 \RMSD=8.355e-03\Dipole=-0.5015837,0.9917691,0.0000054\Quadrupole=-2.36

 Normal termination of Gaussian 16 at Tue Apr  8 23:20:57 2025.
