 Gaussian 16, Revision C.01,

 ----------------------------------------------------------------------
 #t hf aug-cc-pvdz symm=none int=(grid=ultrafine) guess=(read,tcheck) s
 table=(opt,rrhf)
 ----------------------------------------------------------------------
 -----
 title
 -----
 Symbolic Z-matrix:
 Charge =  0 Multiplicity = 1

 SCF Done:  E(RHF) =  -459.597290495     A.U. after   11 cycles
 Normal termination of Gaussian 16 at Tue Apr  8 23:29:09 2025.
 Gaussian 16:  ES64L-G16RevC.01  3-Jul-2019

 ----------------------------------------------------------------------
 #t hf aug-cc-pvdz iop(5/13=1,5/36=2,99/5=2) pseudo=read geom=check gue
 ss=(read,tcheck) scf=(maxcycle=1)
 ----------------------------------------------------------------------
 -----
 title
 -----
 Structure from the checkpoint file:  "BDE49_nonexpt_1347_mol1.chk"
 Charge =  0 Multiplicity = 1

                         Standard orientation:
 ---------------------------------------------------------------------
 Center     Atomic      Atomic             Coordinates (Angstroms)
 Number     Number       Type             X           Y           Z
 ---------------------------------------------------------------------
      1         15           0       -0.000039   -0.000061   -0.599778
      2          6           0       -0.003354    1.636067    0.278233
      3          1           0       -0.003171    1.530433    1.368439
      4          1           0       -0.886356    2.207435   -0.019542
      5          1           0        0.877341    2.211004   -0.019507
      6          6           0       -1.415304   -0.820906    0.278367
      7          1           0       -2.353542   -0.345873   -0.019774
      8          1           0       -1.324295   -0.767653    1.368603
      9          1           0       -1.468460   -1.871366   -0.019186
     10          6           0        1.418714   -0.815064    0.278180
     11          1           0        2.354946   -0.336174   -0.020094
     12          1           0        1.476155   -1.865302   -0.019369
     13          1           0        1.327638   -0.762173    1.368424
 ---------------------------------------------------------------------

 SCF Done:  E(RHF) =  -459.780498306     A.U. after    2 cycles

 The electronic state is 1-A.
 Alpha  occ. eigenvalues --  -84.25925 -11.22999 -11.22999 -11.22993  -6.72949
 Alpha  occ. eigenvalues --   -4.25343  -4.25342  -4.24622  -1.02718  -0.93554
 Alpha  occ. eigenvalues --   -0.93552  -0.72024  -0.59996  -0.58302  -0.58301
 Alpha  occ. eigenvalues --   -0.55486  -0.55484  -0.54060  -0.44476  -0.44475
 Alpha  occ. eigenvalues --   -0.30789
 Alpha virt. eigenvalues --    0.03951   0.04175   0.04175   0.05068   0.06615
 Alpha virt. eigenvalues --    0.06615   0.07524   0.07525   0.08661   0.09241
 Alpha virt. eigenvalues --    0.12532   0.12533   0.14712   0.16493   0.16851

 Mulliken charges:
               1
     1  P    1.249456
     2  C   -0.760960
     3  H    0.125719
     4  H    0.109378
     5  H    0.109375
     6  C   -0.761065
     7  H    0.109468
     8  H    0.125678
     9  H    0.109437
    10  C   -0.761066
    11  H    0.109471
    12  H    0.109437
    13  H    0.125672
 Sum of Mulliken charges =   0.00000

 Dipole moment (field-independent basis, Debye):
    X=              0.0001    Y=              0.0000    Z=              1.0829  Tot=              1.0829

 Test job not archived.
 1\1\GINC-SE220\SP\RHF\Aug-CC-pVDZ\C3H9P1\OHZDE\08-Apr-2025\0\\#t hf au
 g-cc-pvdz iop(5/13=1,5/36=2,99/5=2) pseudo=read geom=check guess=(read
 ,tcheck) scf=(maxcycle=1)\\title\\0,1\P,0,-0.000039,-0.000061,-0.59977
 8\C,0,-0.004076,1.636066,0.278233\H,0,-0.003846,1.530432,1.368439\H,0,
 -0.88733,2.207044,-0.019542\H,0,0.876365,2.211391,-0.019507\C,0,-1.414
 942,-0.82153,0.278367\H,0,-2.353389,-0.346911,-0.019774\H,0,-1.323956,
 -0.768237,1.368603\H,0,-1.467634,-1.872014,-0.019186\C,0,1.419073,-0.8
 14438,0.27818\H,0,2.355094,-0.335135,-0.020094\H,0,1.476978,-1.86465,-

 Normal termination of Gaussian 16 at Tue Apr  8 23:29:13 2025.
