 Gaussian 16, Revision C.01,

 ----------------------------------------------------------------------
 #t hf aug-cc-pvdz symm=none int=(grid=ultrafine) guess=(read,tcheck) s
 table=(opt,rrhf)
 ----------------------------------------------------------------------
 -----
 title
 -----
 Symbolic Z-matrix:
 Charge =  0 Multiplicity = 1

 SCF Done:  E(RHF) =  -1025.41429931     A.U. after   14 cycles
 Normal termination of Gaussian 16 at Wed Apr  9 00:17:35 2025.
 Gaussian 16:  ES64L-G16RevC.01  3-Jul-2019

 ----------------------------------------------------------------------
 #t hf aug-cc-pvdz iop(5/13=1,5/36=2,99/5=2) pseudo=read geom=check gue
 ss=(read,tcheck) scf=(maxcycle=1)
 ----------------------------------------------------------------------
 -----
 title
 -----
 Structure from the checkpoint file:  "BDE49_nonexpt_2564_mol1.chk"
 Charge =  0 Multiplicity = 1

                         Standard orientation:
 ---------------------------------------------------------------------
 Center     Atomic      Atomic             Coordinates (Angstroms)
 Number     Number       Type             X           Y           Z
 ---------------------------------------------------------------------
      1         17           0       -1.880366    0.301349   -0.000022
      2         16           0       -0.215369   -0.969367    0.000019
      3          6           0        1.248951    0.101734    0.000011
      4          8           0        2.286174   -0.517595   -0.000013
      5          7           0        1.080269    1.435032    0.000011
      6          1           0        0.164763    1.853638    0.000022
      7          1           0        1.902386    2.018429   -0.000003
 ---------------------------------------------------------------------

 SCF Done:  E(RHF) =  -1025.71559226     A.U. after    2 cycles

 The electronic state is 1-A.
 Alpha  occ. eigenvalues -- -105.60759 -94.03711 -20.55107 -15.56378 -11.42411
 Alpha  occ. eigenvalues --  -10.65447  -8.31471  -7.82378  -7.81961  -7.81902
 Alpha  occ. eigenvalues --   -6.29252  -6.28985  -6.28701  -1.50573  -1.26741
 Alpha  occ. eigenvalues --   -1.13665  -0.99236  -0.86517  -0.79621  -0.70887
 Alpha  occ. eigenvalues --   -0.64127  -0.62922  -0.54749  -0.53449  -0.50821
 Alpha  occ. eigenvalues --   -0.47858  -0.44220  -0.39954
 Alpha virt. eigenvalues --    0.02683   0.03792   0.06204   0.07910   0.10868
 Alpha virt. eigenvalues --    0.11172   0.11778   0.12091   0.12994   0.12995
 Alpha virt. eigenvalues --    0.14649   0.15282   0.15671   0.16677   0.18040

 Mulliken charges:
               1
     1  Cl  -0.314271
     2  S    0.661825
     3  C   -0.154118
     4  O   -0.992669
     5  N    0.607080
     6  H    0.089468
     7  H    0.102686
 Sum of Mulliken charges =  -0.00000

 Dipole moment (field-independent basis, Debye):
    X=             -0.9010    Y=              2.8448    Z=              0.0000  Tot=              2.9840

 Test job not archived.
 1\1\GINC-SE460\SP\RHF\Aug-CC-pVDZ\C1H2Cl1N1O1S1\OHZDE\09-Apr-2025\0\\#
 t hf aug-cc-pvdz iop(5/13=1,5/36=2,99/5=2) pseudo=read geom=check gues
 s=(read,tcheck) scf=(maxcycle=1)\\title\\0,1\Cl,0,-1.880366,0.301349,-
 0.000022\S,0,-0.215369,-0.969367,0.000019\C,0,1.248951,0.101734,0.0000
 11\O,0,2.286174,-0.517595,-0.000013\N,0,1.080269,1.435032,0.000011\H,0
 ,0.164763,1.853638,0.000022\H,0,1.902386,2.018429,-0.000003\\Version=E
 S64L-G16RevC.01\State=1-A\HF=-1025.7155923\RMSD=1.156e-02\Dipole=-0.35
 44769,1.119211,0.0000186\Quadrupole=-3.4580714,4.7915741,-1.3335027,3.

 Normal termination of Gaussian 16 at Wed Apr  9 00:17:37 2025.
