 Gaussian 16, Revision C.01,

 ----------------------------------------------------------------------
 #t hf aug-cc-pvdz symm=none int=(grid=ultrafine) guess=(read,tcheck) s
 table=(opt,rrhf)
 ----------------------------------------------------------------------
 -----
 title
 -----
 Symbolic Z-matrix:
 Charge =  0 Multiplicity = 1

 SCF Done:  E(RHF) =  -386.008981705     A.U. after   15 cycles
 Normal termination of Gaussian 16 at Wed Apr  9 00:39:52 2025.
 Gaussian 16:  ES64L-G16RevC.01  3-Jul-2019

 ----------------------------------------------------------------------
 #t hf aug-cc-pvdz iop(5/13=1,5/36=2,99/5=2) pseudo=read geom=check gue
 ss=(read,tcheck) scf=(maxcycle=1)
 ----------------------------------------------------------------------
 -----
 title
 -----
 Structure from the checkpoint file:  "BDE49_nonexpt_602_mol1.chk"
 Charge =  0 Multiplicity = 1

                         Standard orientation:
 ---------------------------------------------------------------------
 Center     Atomic      Atomic             Coordinates (Angstroms)
 Number     Number       Type             X           Y           Z
 ---------------------------------------------------------------------
      1          6           0        2.564834    0.586323    0.000002
      2          6           0        1.464523    1.441172    0.000000
      3          6           0        0.165010    0.943562   -0.000001
      4          6           0        2.350324   -0.789948    0.000003
      5          6           0        1.056815   -1.299021    0.000002
      6          6           0       -0.053254   -0.441868    0.000001
      7          1           0        3.572232    0.985563    0.000002
      8          1           0        1.614911    2.515348   -0.000001
      9          1           0       -0.679832    1.616326   -0.000002
     10          1           0        3.191990   -1.473759    0.000004
     11          1           0        0.900021   -2.373924    0.000003
     12          5           0       -2.640314   -0.436388   -0.000002
     13          8           0       -2.828380    0.920476   -0.000004
     14          1           0       -3.757957    1.157238   -0.000005
     15          7           0       -1.344261   -1.006170    0.000000
     16          1           0       -3.568420   -1.191122   -0.000002
     17          1           0       -1.324019   -2.015674    0.000001
 ---------------------------------------------------------------------

 SCF Done:  E(RHF) =  -386.403856626     A.U. after    2 cycles

 The electronic state is 1-A.
 Alpha  occ. eigenvalues --  -20.55941 -15.50546 -11.28337 -11.24093 -11.23864
 Alpha  occ. eigenvalues --  -11.23375 -11.22854 -11.22623  -7.62642  -1.46235
 Alpha  occ. eigenvalues --   -1.22502  -1.13042  -1.01264  -0.99538  -0.84684
 Alpha  occ. eigenvalues --   -0.83737  -0.77301  -0.73897  -0.68336  -0.67318
 Alpha  occ. eigenvalues --   -0.64689  -0.61015  -0.60671  -0.58939  -0.57375
 Alpha  occ. eigenvalues --   -0.53022  -0.52287  -0.50206  -0.48496  -0.46645
 Alpha  occ. eigenvalues --   -0.34254  -0.31302
 Alpha virt. eigenvalues --    0.02994   0.03666   0.04044   0.04551   0.04844
 Alpha virt. eigenvalues --    0.05145   0.06852   0.07524   0.09506   0.10123
 Alpha virt. eigenvalues --    0.10703   0.10935   0.11425   0.12096   0.12759

 Mulliken charges:
               1
     1  C    0.027860
     2  C    0.293095
     3  C    0.786834
     4  C    0.417897
     5  C    0.445151
     6  C   -1.661213
     7  H   -0.224618
     8  H   -0.243613
     9  H   -0.237920
    10  H   -0.223852
    11  H   -0.340804
    12  B    0.231434
    13  O   -1.146479
    14  H    0.533691
    15  N    1.451249
    16  H    0.043715
    17  H   -0.152429
 Sum of Mulliken charges =   0.00000

 Dipole moment (field-independent basis, Debye):
    X=             -1.3787    Y=             -0.6731    Z=             -0.0000  Tot=              1.5343

 Test job not archived.
 1\1\GINC-SE096\SP\RHF\Aug-CC-pVDZ\C6H8B1N1O1\OHZDE\09-Apr-2025\0\\#t h
 f aug-cc-pvdz iop(5/13=1,5/36=2,99/5=2) pseudo=read geom=check guess=(
 read,tcheck) scf=(maxcycle=1)\\title\\0,1\C,0,2.564834,0.586323,0.0000
 02\C,0,1.464523,1.441172,0.\C,0,0.16501,0.943562,-0.000001\C,0,2.35032
 4,-0.789948,0.000003\C,0,1.056815,-1.299021,0.000002\C,0,-0.053254,-0.
 441868,0.000001\H,0,3.572232,0.985563,0.000002\H,0,1.614911,2.515348,-
 0.000001\H,0,-0.679832,1.616326,-0.000002\H,0,3.19199,-1.473759,0.0000
 04\H,0,0.900021,-2.373924,0.000003\B,0,-2.640314,-0.436388,-0.000002\O

 Normal termination of Gaussian 16 at Wed Apr  9 00:40:00 2025.
