 Gaussian 16, Revision C.01,

 ----------------------------------------------------------------------
 #t hf aug-cc-pvdz symm=none int=(grid=ultrafine) guess=(read,tcheck) s
 table=(opt,rrhf)
 ----------------------------------------------------------------------
 -----
 title
 -----
 Symbolic Z-matrix:
 Charge =  0 Multiplicity = 1

 SCF Done:  E(RHF) =  -874.315836001     A.U. after   15 cycles
 Normal termination of Gaussian 16 at Tue Apr  8 23:19:05 2025.
 Gaussian 16:  ES64L-G16RevC.01  3-Jul-2019

 ----------------------------------------------------------------------
 #t hf aug-cc-pvdz iop(5/13=1,5/36=2,99/5=2) pseudo=read geom=check gue
 ss=(read,tcheck) scf=(maxcycle=1)
 ----------------------------------------------------------------------
 -----
 title
 -----
 Structure from the checkpoint file:  "BDE49_nonexpt_1070_mol1.chk"
 Charge =  0 Multiplicity = 1

                         Standard orientation:
 ---------------------------------------------------------------------
 Center     Atomic      Atomic             Coordinates (Angstroms)
 Number     Number       Type             X           Y           Z
 ---------------------------------------------------------------------
      1         17           0        2.879045   -0.128749   -0.133852
      2          8           0        1.259470   -0.724341   -0.247858
      3          6           0        0.323085    0.133800    0.264055
      4          8           0        0.489687    1.213348    0.716034
      5          8           0       -0.838174   -0.577214    0.181419
      6          6           0       -2.035471    0.092151   -0.168288
      7          8           0       -2.045309    1.157212   -0.689736
      8          6           0       -3.196358   -0.784568    0.192677
      9          1           0       -3.227087   -0.919109    1.276495
     10          1           0       -3.072288   -1.771450   -0.257158
     11          1           0       -4.117319   -0.321054   -0.153394
 ---------------------------------------------------------------------

 SCF Done:  E(RHF) =  -874.789437066     A.U. after    2 cycles

 The electronic state is 1-A.
 Alpha  occ. eigenvalues -- -105.65224 -20.67741 -20.63957 -20.57654 -20.57529
 Alpha  occ. eigenvalues --  -11.48124 -11.43220 -11.27933 -10.69368  -7.86373
 Alpha  occ. eigenvalues --   -7.85767  -7.85752  -1.62766  -1.55134  -1.50569
 Alpha  occ. eigenvalues --   -1.49448  -1.08693  -1.05259  -0.91208  -0.79886
 Alpha  occ. eigenvalues --   -0.76258  -0.73694  -0.73048  -0.67888  -0.66545
 Alpha  occ. eigenvalues --   -0.64227  -0.61420  -0.60394  -0.58511  -0.54891
 Alpha  occ. eigenvalues --   -0.50660  -0.50125  -0.49814  -0.48048  -0.46964
 Alpha virt. eigenvalues --    0.03001   0.04505   0.04966   0.05205   0.07187
 Alpha virt. eigenvalues --    0.08996   0.10227   0.11269   0.12152   0.12787
 Alpha virt. eigenvalues --    0.13468   0.13902   0.14311   0.14701   0.15079

 Mulliken charges:
               1
     1  Cl   0.380357
     2  O   -1.087028
     3  C    2.234750
     4  O   -0.882405
     5  O   -1.286177
     6  C    1.620944
     7  O   -1.086872
     8  C   -0.583445
     9  H    0.250117
    10  H    0.243219
    11  H    0.196540
 Sum of Mulliken charges =  -0.00000

 Dipole moment (field-independent basis, Debye):
    X=             -1.7797    Y=             -2.9553    Z=              0.4616  Tot=              3.4805

 Test job not archived.
 1\1\GINC-SE038\SP\RHF\Aug-CC-pVDZ\C3H3Cl1O4\OHZDE\08-Apr-2025\0\\#t hf
  aug-cc-pvdz iop(5/13=1,5/36=2,99/5=2) pseudo=read geom=check guess=(r
 ead,tcheck) scf=(maxcycle=1)\\title\\0,1\Cl,0,2.879045,-0.128749,-0.13
 3852\O,0,1.25947,-0.724341,-0.247858\C,0,0.323085,0.1338,0.264055\O,0,
 0.489687,1.213348,0.716034\O,0,-0.838174,-0.577214,0.181419\C,0,-2.035
 471,0.092151,-0.168288\O,0,-2.045309,1.157212,-0.689736\C,0,-3.196358,
 -0.784568,0.192677\H,0,-3.227087,-0.919109,1.276495\H,0,-3.072288,-1.7
 7145,-0.257158\H,0,-4.117319,-0.321054,-0.153394\\Version=ES64L-G16Rev

 Normal termination of Gaussian 16 at Tue Apr  8 23:19:10 2025.
