 Gaussian 16, Revision C.01,

 ----------------------------------------------------------------------
 #t hf aug-cc-pvdz symm=none int=(grid=ultrafine) guess=(read,tcheck) s
 table=(opt,rrhf)
 ----------------------------------------------------------------------
 -----
 title
 -----
 Symbolic Z-matrix:
 Charge =  0 Multiplicity = 1

 SCF Done:  E(RHF) =  -1221.81061305     A.U. after   17 cycles
 Normal termination of Gaussian 16 at Tue Apr  8 23:27:24 2025.
 Gaussian 16:  ES64L-G16RevC.01  3-Jul-2019

 ----------------------------------------------------------------------
 #t hf aug-cc-pvdz iop(5/13=1,5/36=2,99/5=2) pseudo=read geom=check gue
 ss=(read,tcheck) scf=(maxcycle=1)
 ----------------------------------------------------------------------
 -----
 title
 -----
 Structure from the checkpoint file:  "BDE49_nonexpt_1234_mol1.chk"
 Charge =  0 Multiplicity = 1

                         Standard orientation:
 ---------------------------------------------------------------------
 Center     Atomic      Atomic             Coordinates (Angstroms)
 Number     Number       Type             X           Y           Z
 ---------------------------------------------------------------------
      1          6           0       -1.508339    2.025055   -1.165005
      2          1           0       -2.466259    2.505607   -1.370929
      3          1           0       -0.989820    1.881907   -2.118103
      4          1           0       -0.902595    2.710094   -0.567125
      5         17           0        2.015741   -1.624258   -0.850044
      6          8           0        1.147896    2.144416    0.954735
      7         15           0        1.008264    0.238144   -0.864087
      8          6           0        2.772116    0.482705    1.547707
      9          1           0        3.015163    1.167133    2.360973
     10          1           0        3.653289    0.303655    0.925796
     11          1           0        2.467602   -0.488376    1.946960
     12          6           0       -0.666864   -0.202591   -0.209361
     13          6           0        1.662497    1.077166    0.721265
     14          6           0       -1.717069    0.713401   -0.443747
     15          6           0       -0.919812   -1.397840    0.472700
     16          1           0       -0.116628   -2.105392    0.634301
     17          6           0       -3.236924   -0.802439    0.711177
     18          1           0       -4.238139   -1.027482    1.061119
     19          6           0       -2.991022    0.386062    0.031448
     20          1           0       -3.805732    1.080725   -0.143874
     21          6           0       -2.197239   -1.700021    0.931985
     22          1           0       -2.375658   -2.631972    1.456032
 ---------------------------------------------------------------------

 SCF Done:  E(RHF) =  -1222.36275917     A.U. after    2 cycles

 The electronic state is 1-A.
 Alpha  occ. eigenvalues -- -105.56962 -84.33990 -20.56048 -11.36297 -11.26744
 Alpha  occ. eigenvalues --  -11.26449 -11.25758 -11.25664 -11.25536 -11.24859
 Alpha  occ. eigenvalues --  -11.24703 -11.23641 -10.61811  -7.78716  -7.78377
 Alpha  occ. eigenvalues --   -7.78363  -6.80618  -4.33392  -4.33004  -4.32520
 Alpha  occ. eigenvalues --   -1.49551  -1.17143  -1.08340  -1.05892  -1.02812
 Alpha  occ. eigenvalues --   -1.02314  -0.94631  -0.88938  -0.83234  -0.81117
 Alpha  occ. eigenvalues --   -0.74080  -0.70276  -0.66841  -0.65347  -0.64366
 Alpha  occ. eigenvalues --   -0.62986  -0.62093  -0.59595  -0.58815  -0.57487
 Alpha  occ. eigenvalues --   -0.55759  -0.55089  -0.52427  -0.51456  -0.51000
 Alpha  occ. eigenvalues --   -0.49809  -0.49074  -0.48230  -0.40828  -0.37720
 Alpha  occ. eigenvalues --   -0.34779  -0.32942
 Alpha virt. eigenvalues --    0.03201   0.03515   0.03870   0.04485   0.05225
 Alpha virt. eigenvalues --    0.05388   0.06225   0.06990   0.07045   0.07859
 Alpha virt. eigenvalues --    0.08221   0.08930   0.09842   0.10000   0.10641

 Mulliken charges:
               1
     1  C   -0.959850
     2  H   -0.023735
     3  H    0.391849
     4  H    0.293930
     5  Cl  -0.526190
     6  O   -1.335141
     7  P    1.006421
     8  C   -0.636512
     9  H    0.121317
    10  H    0.283567
    11  H    0.259505
    12  C    0.656464
    13  C    0.825065
    14  C   -0.055285
    15  C   -0.145820
    16  H   -0.279040
    17  C    0.014285
    18  H   -0.227668
    19  C    0.836042
    20  H   -0.301000
    21  C    0.043088
    22  H   -0.241291
 Sum of Mulliken charges =  -0.00000

 Dipole moment (field-independent basis, Debye):
    X=             -0.7467    Y=             -0.5692    Z=              0.5825  Tot=              1.1049

 Test job not archived.
 1\1\GINC-SE423\SP\RHF\Aug-CC-pVDZ\C9H10Cl1O1P1\OHZDE\08-Apr-2025\0\\#t
  hf aug-cc-pvdz iop(5/13=1,5/36=2,99/5=2) pseudo=read geom=check guess
 =(read,tcheck) scf=(maxcycle=1)\\title\\0,1\C,0,-1.508339,2.025055,-1.
 165005\H,0,-2.466259,2.505607,-1.370929\H,0,-0.98982,1.881907,-2.11810
 3\H,0,-0.902595,2.710094,-0.567125\Cl,0,2.015741,-1.624258,-0.850044\O
 ,0,1.147896,2.144416,0.954735\P,0,1.008264,0.238144,-0.864087\C,0,2.77
 2116,0.482705,1.547707\H,0,3.015163,1.167132,2.360973\H,0,3.653289,0.3
 03654,0.925796\H,0,2.467602,-0.488376,1.94696\C,0,-0.666864,-0.202591,

 Normal termination of Gaussian 16 at Tue Apr  8 23:27:42 2025.
