 Gaussian 16, Revision C.01,

 ----------------------------------------------------------------------
 #t hf aug-cc-pvdz symm=none int=(grid=ultrafine) guess=(read,tcheck) s
 table=(opt,rrhf)
 ----------------------------------------------------------------------
 -----
 title
 -----
 Symbolic Z-matrix:
 Charge =  0 Multiplicity = 1

 SCF Done:  E(RHF) =  -857.268240269     A.U. after   13 cycles
 Normal termination of Gaussian 16 at Tue Apr  8 23:42:17 2025.
 Gaussian 16:  ES64L-G16RevC.01  3-Jul-2019

 ----------------------------------------------------------------------
 #t hf aug-cc-pvdz iop(5/13=1,5/36=2,99/5=2) pseudo=read geom=check gue
 ss=(read,tcheck) scf=(maxcycle=1)
 ----------------------------------------------------------------------
 -----
 title
 -----
 Structure from the checkpoint file:  "BDE49_nonexpt_1680_mol1.chk"
 Charge =  0 Multiplicity = 1

                         Standard orientation:
 ---------------------------------------------------------------------
 Center     Atomic      Atomic             Coordinates (Angstroms)
 Number     Number       Type             X           Y           Z
 ---------------------------------------------------------------------
      1         14           0        1.815056   -0.040707    0.002008
      2         15           0       -0.452455   -0.023005    0.123522
      3          8           0       -1.059354   -0.482112    1.385648
      4          8           0       -0.969851   -0.877056   -1.158158
      5          1           0       -1.400449   -1.692077   -0.869958
      6          8           0       -0.765747    1.489716   -0.325121
      7          1           0       -1.688978    1.746699   -0.193874
      8          1           0        2.229473   -1.440894    0.229309
      9          1           0        2.341839    0.837157    1.065958
     10          1           0        2.253771    0.419696   -1.331322
 ---------------------------------------------------------------------

 SCF Done:  E(RHF) =  -857.570531714     A.U. after    2 cycles

 The electronic state is 1-A.
 Alpha  occ. eigenvalues --  -84.42274 -69.55780 -20.59606 -20.59182 -20.50517
 Alpha  occ. eigenvalues --   -6.87672  -6.22954  -4.41700  -4.41007  -4.39938
 Alpha  occ. eigenvalues --   -3.98330  -3.98274  -3.98270  -1.53006  -1.47269
 Alpha  occ. eigenvalues --   -1.38594  -0.87699  -0.76320  -0.73090  -0.67051
 Alpha  occ. eigenvalues --   -0.63150  -0.60525  -0.54894  -0.54505  -0.51908
 Alpha  occ. eigenvalues --   -0.51380  -0.48871  -0.45616  -0.41849
 Alpha virt. eigenvalues --    0.03229   0.04236   0.04623   0.06232   0.06628
 Alpha virt. eigenvalues --    0.07060   0.08788   0.09034   0.10608   0.11605
 Alpha virt. eigenvalues --    0.12390   0.14858   0.15770   0.16384   0.16974

 Mulliken charges:
               1
     1  Si   0.924712
     2  P    2.910750
     3  O   -1.466688
     4  O   -1.277055
     5  H    0.331887
     6  O   -1.255392
     7  H    0.335161
     8  H   -0.190816
     9  H   -0.167092
    10  H   -0.145467
 Sum of Mulliken charges =  -0.00000

 Dipole moment (field-independent basis, Debye):
    X=              0.5644    Y=              0.1660    Z=             -1.8971  Tot=              1.9862

 Test job not archived.
 1\1\GINC-SE341\SP\RHF\Aug-CC-pVDZ\H5O3P1Si1\OHZDE\08-Apr-2025\0\\#t hf
  aug-cc-pvdz iop(5/13=1,5/36=2,99/5=2) pseudo=read geom=check guess=(r
 ead,tcheck) scf=(maxcycle=1)\\title\\0,1\Si,0,1.815056,-0.040706,0.002
 008\P,0,-0.452455,-0.023005,0.123522\O,0,-1.059354,-0.482112,1.385648\
 O,0,-0.969851,-0.877056,-1.158158\H,0,-1.400449,-1.692077,-0.869958\O,
 0,-0.765747,1.489716,-0.325121\H,0,-1.688978,1.746699,-0.193874\H,0,2.
 229473,-1.440893,0.229309\H,0,2.341839,0.837158,1.065958\H,0,2.253771,
 0.419697,-1.331322\\Version=ES64L-G16RevC.01\State=1-A\HF=-857.5705317

 Normal termination of Gaussian 16 at Tue Apr  8 23:42:20 2025.
