 Gaussian 16, Revision C.01,

 ----------------------------------------------------------------------
 #t hf aug-cc-pvdz symm=none int=(grid=ultrafine) guess=(read,tcheck) s
 table=(opt,rrhf)
 ----------------------------------------------------------------------
 -----
 title
 -----
 Symbolic Z-matrix:
 Charge =  0 Multiplicity = 1

 SCF Done:  E(RHF) =  -636.409491840     A.U. after   11 cycles

 1\1\GINC-SE128\Stability\RHF\Aug-CC-pVDZ\H7N1Si2\OHZDE\09-Apr-2025\0\\
 #t hf aug-cc-pvdz symm=none int=(grid=ultrafine) guess=(read,tcheck) s
 table=(opt,rrhf)\\title\\0,1\Si,0,1.549972,-0.186716,0.015683\Si,0,-0.
 675293,0.591496,-0.024984\H,0,1.864736,-0.849814,1.304379\H,0,2.491573
 ,0.944671,-0.176425\H,0,1.78195,-1.167046,-1.076661\N,0,-1.747564,-0.7
 63544,0.060884\H,0,-0.840635,1.471947,-1.218677\H,0,-0.946552,1.433802
 ,1.165488\H,0,-1.64178,-1.535964,-0.581107\H,0,-2.72185,-0.619707,0.28
 7026\\Version=ES64L-G16RevC.01\HF=-636.4094918\RMSD=4.737e-09\Dipole=-

 Normal termination of Gaussian 16 at Wed Apr  9 00:11:02 2025.
 Gaussian 16:  ES64L-G16RevC.01  3-Jul-2019

 ----------------------------------------------------------------------
 #t hf aug-cc-pvdz iop(5/13=1,5/36=2,99/5=2) pseudo=read geom=check gue
 ss=(read,tcheck) scf=(maxcycle=1)
 ----------------------------------------------------------------------
 -----
 title
 -----
 Structure from the checkpoint file:  "BDE49_nonexpt_2374_mol1.chk"
 Charge =  0 Multiplicity = 1

                         Standard orientation:
 ---------------------------------------------------------------------
 Center     Atomic      Atomic             Coordinates (Angstroms)
 Number     Number       Type             X           Y           Z
 ---------------------------------------------------------------------
      1         14           0        1.549972   -0.186716    0.015683
      2         14           0       -0.675293    0.591496   -0.024984
      3          1           0        1.864736   -0.849814    1.304379
      4          1           0        2.491573    0.944670   -0.176425
      5          1           0        1.781950   -1.167046   -1.076661
      6          7           0       -1.747564   -0.763544    0.060884
      7          1           0       -0.840635    1.471947   -1.218677
      8          1           0       -0.946552    1.433802    1.165488
      9          1           0       -1.641780   -1.535964   -0.581107
     10          1           0       -2.721850   -0.619706    0.287026
 ---------------------------------------------------------------------

 SCF Done:  E(RHF) =  -636.540032096     A.U. after    2 cycles

 The electronic state is 1-A.
 Alpha  occ. eigenvalues --  -69.53955 -69.52041 -15.48322  -6.20813  -6.19282
 Alpha  occ. eigenvalues --   -3.96202  -3.96168  -3.96115  -3.94635  -3.94630
 Alpha  occ. eigenvalues --   -3.94615  -1.14323  -0.77790  -0.71098  -0.69170
 Alpha  occ. eigenvalues --   -0.58227  -0.51482  -0.48599  -0.48179  -0.44482
 Alpha  occ. eigenvalues --   -0.39948
 Alpha virt. eigenvalues --    0.03214   0.04199   0.05036   0.06022   0.06727
 Alpha virt. eigenvalues --    0.07081   0.07655   0.07871   0.08759   0.09600
 Alpha virt. eigenvalues --    0.10027   0.10795   0.11398   0.13847   0.14997

 Mulliken charges:
               1
     1  Si   0.334160
     2  Si   0.489668
     3  H   -0.137709
     4  H   -0.142891
     5  H   -0.157963
     6  N   -0.106279
     7  H   -0.137325
     8  H   -0.107320
     9  H    0.001873
    10  H   -0.036214
 Sum of Mulliken charges =  -0.00000

 Dipole moment (field-independent basis, Debye):
    X=             -1.0055    Y=             -0.2960    Z=             -0.6044  Tot=              1.2100

 Test job not archived.
 1\1\GINC-SE128\SP\RHF\Aug-CC-pVDZ\H7N1Si2\OHZDE\09-Apr-2025\0\\#t hf a
 ug-cc-pvdz iop(5/13=1,5/36=2,99/5=2) pseudo=read geom=check guess=(rea
 d,tcheck) scf=(maxcycle=1)\\title\\0,1\Si,0,1.549972,-0.186716,0.01568
 3\Si,0,-0.675293,0.591496,-0.024984\H,0,1.864736,-0.849814,1.304379\H,
 0,2.491573,0.944671,-0.176425\H,0,1.78195,-1.167046,-1.076661\N,0,-1.7
 47564,-0.763544,0.060884\H,0,-0.840635,1.471947,-1.218677\H,0,-0.94655
 2,1.433802,1.165488\H,0,-1.64178,-1.535964,-0.581107\H,0,-2.72185,-0.6
 19707,0.287026\\Version=ES64L-G16RevC.01\State=1-A\HF=-636.5400321\RMS

 Normal termination of Gaussian 16 at Wed Apr  9 00:11:05 2025.
