 Gaussian 16, Revision C.01,

 ----------------------------------------------------------------------
 #t hf aug-cc-pvdz symm=none int=(grid=ultrafine) guess=(read,tcheck) s
 table=(opt,rrhf)
 ----------------------------------------------------------------------
 -----
 title
 -----
 Symbolic Z-matrix:
 Charge =  0 Multiplicity = 1

 SCF Done:  E(RHF) =  -845.087840452     A.U. after   12 cycles
 Normal termination of Gaussian 16 at Wed Apr  9 00:07:50 2025.
 Gaussian 16:  ES64L-G16RevC.01  3-Jul-2019

 ----------------------------------------------------------------------
 #t hf aug-cc-pvdz iop(5/13=1,5/36=2,99/5=2) pseudo=read geom=check gue
 ss=(read,tcheck) scf=(maxcycle=1)
 ----------------------------------------------------------------------
 -----
 title
 -----
 Structure from the checkpoint file:  "BDE49_nonexpt_2276_mol1.chk"
 Charge =  0 Multiplicity = 1

                         Standard orientation:
 ---------------------------------------------------------------------
 Center     Atomic      Atomic             Coordinates (Angstroms)
 Number     Number       Type             X           Y           Z
 ---------------------------------------------------------------------
      1         14           0       -1.448229   -0.712584    0.220828
      2          6           0       -0.024332    0.153600   -0.684082
      3         14           0        1.723600   -0.476264   -0.393135
      4          8           0        2.105669    0.308817    1.022621
      5          1           0        3.012434    0.341517    1.333053
      6          8           0       -0.104821    1.562996   -0.288656
      7          1           0       -0.237645    0.126819   -1.758803
      8          1           0        0.473454    1.670690    0.478705
      9          8           0       -2.752466    0.295715    0.125040
     10          1           0       -2.508014    1.227196    0.084190
     11          1           0        2.669901   -0.081004   -1.464694
     12          1           0        1.763346   -1.951205   -0.242206
     13          1           0       -1.053831   -0.955543    1.630743
     14          1           0       -1.815904   -1.996421   -0.416241
 ---------------------------------------------------------------------

 SCF Done:  E(RHF) =  -845.423521201     A.U. after    2 cycles

 The electronic state is 1-A.
 Alpha  occ. eigenvalues --  -69.56948 -69.55186 -20.56612 -20.56054 -20.53637
 Alpha  occ. eigenvalues --  -11.26745  -6.23617  -6.21858  -3.99110  -3.98955
 Alpha  occ. eigenvalues --   -3.98919  -3.97337  -3.97218  -3.97166  -1.45707
 Alpha  occ. eigenvalues --   -1.44110  -1.42147  -0.93469  -0.78447  -0.74933
 Alpha  occ. eigenvalues --   -0.67266  -0.66374  -0.64824  -0.60144  -0.57058
 Alpha  occ. eigenvalues --   -0.56164  -0.54332  -0.53378  -0.51690  -0.48003
 Alpha  occ. eigenvalues --   -0.46303  -0.44832  -0.40165
 Alpha virt. eigenvalues --    0.02619   0.03748   0.04419   0.04812   0.06408
 Alpha virt. eigenvalues --    0.06516   0.06778   0.07668   0.08049   0.09305
 Alpha virt. eigenvalues --    0.10000   0.10492   0.10912   0.11471   0.12634

 Mulliken charges:
               1
     1  Si   1.600966
     2  C    0.169652
     3  Si   1.591049
     4  O   -1.384897
     5  H    0.425068
     6  O   -1.210499
     7  H   -0.068794
     8  H    0.418131
     9  O   -1.451879
    10  H    0.520681
    11  H   -0.172475
    12  H   -0.135769
    13  H   -0.135824
    14  H   -0.165411
 Sum of Mulliken charges =   0.00000

 Dipole moment (field-independent basis, Debye):
    X=              3.4792    Y=             -0.3738    Z=              0.1520  Tot=              3.5025

 Test job not archived.
 1\1\GINC-SE072\SP\RHF\Aug-CC-pVDZ\C1H8O3Si2\OHZDE\09-Apr-2025\0\\#t hf
  aug-cc-pvdz iop(5/13=1,5/36=2,99/5=2) pseudo=read geom=check guess=(r
 ead,tcheck) scf=(maxcycle=1)\\title\\0,1\Si,0,-1.448229,-0.712584,0.22
 0828\C,0,-0.024332,0.1536,-0.684082\Si,0,1.7236,-0.476264,-0.393135\O,
 0,2.105669,0.308817,1.022621\H,0,3.012434,0.341517,1.333053\O,0,-0.104
 821,1.562996,-0.288656\H,0,-0.237645,0.126819,-1.758803\H,0,0.473454,1
 .67069,0.478705\O,0,-2.752466,0.295715,0.12504\H,0,-2.508014,1.227196,
 0.08419\H,0,2.669901,-0.081004,-1.464694\H,0,1.763346,-1.951205,-0.242

 Normal termination of Gaussian 16 at Wed Apr  9 00:07:54 2025.
