 Gaussian 16, Revision C.01,

 ----------------------------------------------------------------------
 #t hf aug-cc-pvdz symm=none int=(grid=ultrafine) guess=(read,tcheck) s
 table=(opt,rrhf)
 ----------------------------------------------------------------------
 -----
 title
 -----
 Symbolic Z-matrix:
 Charge =  0 Multiplicity = 1

 SCF Done:  E(RHF) =  -1232.80279736     A.U. after   13 cycles
 Normal termination of Gaussian 16 at Tue Apr  8 22:59:38 2025.
 Gaussian 16:  ES64L-G16RevC.01  3-Jul-2019

 ----------------------------------------------------------------------
 #t hf aug-cc-pvdz iop(5/13=1,5/36=2,99/5=2) pseudo=read geom=check gue
 ss=(read,tcheck) scf=(maxcycle=1)
 ----------------------------------------------------------------------
 -----
 title
 -----
 Structure from the checkpoint file:  "BDE49_expt_1964_mol1.chk"
 Charge =  0 Multiplicity = 1

                         Standard orientation:
 ---------------------------------------------------------------------
 Center     Atomic      Atomic             Coordinates (Angstroms)
 Number     Number       Type             X           Y           Z
 ---------------------------------------------------------------------
      1         16           0       -1.311048   -0.384382   -0.550352
      2         16           0        0.437485   -0.794687    0.493212
      3         16           0        1.912911    0.578819   -0.123861
      4          1           0        2.349261   -0.092786   -1.207372
      5          6           0       -2.053996    0.988638    0.399954
      6          1           0       -3.027509    1.177482   -0.058552
      7          1           0       -1.437780    1.883594    0.320104
      8          1           0       -2.189559    0.703881    1.442110
 ---------------------------------------------------------------------

 SCF Done:  E(RHF) =  -1233.03085240     A.U. after    2 cycles

 The electronic state is 1-A.
 Alpha  occ. eigenvalues --  -94.00519 -93.98688 -93.98140 -11.27860  -8.28271
 Alpha  occ. eigenvalues --   -8.26644  -8.26102  -6.26025  -6.25815  -6.25554
 Alpha  occ. eigenvalues --   -6.24460  -6.24291  -6.24046  -6.23904  -6.23689
 Alpha  occ. eigenvalues --   -6.23465  -1.12721  -1.04867  -0.94305  -0.82771
 Alpha  occ. eigenvalues --   -0.61621  -0.61171  -0.59214  -0.53226  -0.50798
 Alpha  occ. eigenvalues --   -0.48635  -0.38730  -0.38530  -0.36944
 Alpha virt. eigenvalues --    0.03652   0.04227   0.05188   0.05675   0.06577
 Alpha virt. eigenvalues --    0.08047   0.10177   0.11690   0.11950   0.12301
 Alpha virt. eigenvalues --    0.13858   0.14242   0.15366   0.16048   0.16280

 Mulliken charges:
               1
     1  S    0.137500
     2  S   -0.081124
     3  S   -0.364603
     4  H    0.418348
     5  C   -0.712642
     6  H    0.180095
     7  H    0.205552
     8  H    0.216873
 Sum of Mulliken charges =  -0.00000

 Dipole moment (field-independent basis, Debye):
    X=             -0.7607    Y=              1.0863    Z=             -0.2035  Tot=              1.3417

 Test job not archived.
 1\1\GINC-SE163\SP\RHF\Aug-CC-pVDZ\C1H4S3\OHZDE\08-Apr-2025\0\\#t hf au
 g-cc-pvdz iop(5/13=1,5/36=2,99/5=2) pseudo=read geom=check guess=(read
 ,tcheck) scf=(maxcycle=1)\\title\\0,1\S,0,-1.311048,-0.384382,-0.55035
 2\S,0,0.437485,-0.794687,0.493212\S,0,1.912911,0.578819,-0.123861\H,0,
 2.349261,-0.092786,-1.207372\C,0,-2.053996,0.988638,0.399954\H,0,-3.02
 7509,1.177482,-0.058552\H,0,-1.43778,1.883594,0.320104\H,0,-2.189559,0
 .703881,1.44211\\Version=ES64L-G16RevC.01\State=1-A\HF=-1233.0308524\R
 MSD=4.130e-03\Dipole=-0.2992772,0.4273787,-0.0800688\Quadrupole=2.5541

 Normal termination of Gaussian 16 at Tue Apr  8 22:59:41 2025.
