 Gaussian 16, Revision C.01,

 ----------------------------------------------------------------------
 #t hf aug-cc-pvdz symm=none int=(grid=ultrafine) guess=(read,tcheck) s
 table=opt
 ----------------------------------------------------------------------
 -----
 title
 -----
 Symbolic Z-matrix:
 Charge =  0 Multiplicity = 2

 SCF Done:  E(UHF) =  -192.527587721     A.U. after   16 cycles
 Normal termination of Gaussian 16 at Tue Apr  8 22:32:27 2025.
 Gaussian 16:  ES64L-G16RevC.01  3-Jul-2019

 ----------------------------------------------------------------------
 #t hf aug-cc-pvdz iop(5/13=1,5/36=2,99/5=2) pseudo=read geom=check gue
 ss=(read,tcheck) scf=(maxcycle=1)
 ----------------------------------------------------------------------
 -----
 title
 -----
 Structure from the checkpoint file:  "BDE49_expt_1066_mol2.chk"
 Charge =  0 Multiplicity = 2

                         Standard orientation:
 ---------------------------------------------------------------------
 Center     Atomic      Atomic             Coordinates (Angstroms)
 Number     Number       Type             X           Y           Z
 ---------------------------------------------------------------------
      1          6           0        0.008761    0.026952   -0.226503
      2          8           0       -0.041024    1.379416    0.059460
      3          1           0       -0.943066    1.690668   -0.067417
      4          6           0       -1.232750   -0.763974    0.033051
      5          1           0       -1.145311   -1.774867   -0.371361
      6          1           0       -2.111666   -0.299583   -0.430902
      7          1           0       -1.448329   -0.856475    1.112878
      8          6           0        1.360191   -0.547332    0.025694
      9          1           0        1.575665   -0.637199    1.104768
     10          1           0        2.134800    0.092451   -0.404816
     11          1           0        1.448893   -1.544197   -0.412286
 ---------------------------------------------------------------------

 SCF Done:  E(UHF) =  -192.732027574     A.U. after    2 cycles

 The electronic state is 2-A.
 Alpha  occ. eigenvalues --  -20.56262 -11.28311 -11.23652 -11.22479  -1.47379
 Alpha  occ. eigenvalues --   -1.05325  -0.95375  -0.79866  -0.68582  -0.64254
 Alpha  occ. eigenvalues --   -0.62799  -0.55671  -0.54492  -0.53990  -0.52501
 Alpha  occ. eigenvalues --   -0.49781  -0.31170
 Alpha virt. eigenvalues --    0.03493   0.04396   0.04756   0.05165   0.07030
 Alpha virt. eigenvalues --    0.07239   0.07946   0.10187   0.13052   0.14904
 Alpha virt. eigenvalues --    0.15326   0.15808   0.16423   0.16796   0.17382

  Beta  occ. eigenvalues --  -20.55813 -11.25736 -11.23883 -11.22735  -1.45819
  Beta  occ. eigenvalues --   -1.02408  -0.95243  -0.77183  -0.66494  -0.61922
  Beta  occ. eigenvalues --   -0.58663  -0.54592  -0.54149  -0.52928  -0.50197
  Beta  occ. eigenvalues --   -0.48207
  Beta virt. eigenvalues --    0.03449   0.04379   0.04755   0.05125   0.07038
  Beta virt. eigenvalues --    0.07258   0.07952   0.09926   0.13129   0.14365
  Beta virt. eigenvalues --    0.14963   0.15429   0.16004   0.16667   0.17380

 Mulliken charges and spin densities:
               1          2
     1  C    0.866447   1.287604
     2  O   -1.416128   0.050619
     3  H    0.365083  -0.009190
     4  C   -0.504988  -0.205707
     5  H    0.169333  -0.002822
     6  H    0.083459   0.004269
     7  H    0.248525   0.053928
     8  C   -0.383518  -0.232271
     9  H    0.246193   0.050911
    10  H    0.151869   0.002447
    11  H    0.173725   0.000212
 Sum of Mulliken charges =  -0.00000   1.00000

 Dipole moment (field-independent basis, Debye):
    X=             -1.3372    Y=             -0.8185    Z=             -0.0470  Tot=              1.5685
                          Isotropic Fermi Contact Couplings
        Atom                 a.u.       MegaHertz       Gauss      10(-4) cm-1
     1  C(13)              0.29861     335.69394     119.78395     111.97545
     2  O(17)              0.03981     -24.12992      -8.61015      -8.04887
     3  H(1)              -0.00139      -6.23511      -2.22484      -2.07981
     4  C(13)             -0.03406     -38.28567     -13.66128     -12.77073
     5  H(1)               0.00287      12.80693       4.56983       4.27193
     6  H(1)               0.00694      31.03690      11.07474      10.35279
     7  H(1)               0.02144      95.83628      34.19677      31.96754
     8  C(13)             -0.04038     -45.39965     -16.19972     -15.14369

 Normal termination of Gaussian 16 at Tue Apr  8 22:32:30 2025.
