 Gaussian 16, Revision C.01,

 ----------------------------------------------------------------------
 #t hf aug-cc-pvdz symm=none int=(grid=ultrafine) guess=(read,tcheck) s
 table=opt
 ----------------------------------------------------------------------
 -----
 title
 -----
 Symbolic Z-matrix:
 Charge =  0 Multiplicity = 2

 SCF Done:  E(UHF) =  -661.757281571     A.U. after   40 cycles
 Normal termination of Gaussian 16 at Wed Apr  9 00:23:10 2025.
 Gaussian 16:  ES64L-G16RevC.01  3-Jul-2019

 ----------------------------------------------------------------------
 #t hf aug-cc-pvdz iop(5/13=1,5/36=2,99/5=2) pseudo=read geom=check gue
 ss=(read,tcheck) scf=(maxcycle=1)
 ----------------------------------------------------------------------
 -----
 title
 -----
 Structure from the checkpoint file:  "BDE49_nonexpt_2677_mol2.chk"
 Charge =  0 Multiplicity = 2

                         Standard orientation:
 ---------------------------------------------------------------------
 Center     Atomic      Atomic             Coordinates (Angstroms)
 Number     Number       Type             X           Y           Z
 ---------------------------------------------------------------------
      1         16           0       -1.512776   -0.000095    0.035670
      2          6           0        0.334998   -0.000003   -0.021581
      3          8           0        0.801590   -1.098369   -0.729385
      4          1           0        0.602754   -1.880611   -0.201695
      5          8           0        0.799890    0.000024    1.299161
      6          1           0        1.767287    0.000041    1.238509
      7          8           0        0.801275    1.098524   -0.729340
      8          1           0        0.602339    1.880674   -0.201547
 ---------------------------------------------------------------------

 SCF Done:  E(UHF) =  -662.070831753     A.U. after    2 cycles

 The electronic state is 2-A.
 Alpha  occ. eigenvalues --  -93.98286 -20.59509 -20.58653 -20.58651 -11.45465
 Alpha  occ. eigenvalues --   -8.26426  -6.25606  -6.23815  -6.23489  -1.57728
 Alpha  occ. eigenvalues --   -1.46943  -1.46751  -1.05499  -0.88250  -0.79834
 Alpha  occ. eigenvalues --   -0.70540  -0.68365  -0.64905  -0.63762  -0.55401
 Alpha  occ. eigenvalues --   -0.53684  -0.49806  -0.47736  -0.45447  -0.40143
 Alpha virt. eigenvalues --    0.03293   0.04580   0.05709   0.07449   0.10149
 Alpha virt. eigenvalues --    0.12177   0.12404   0.13343   0.14651   0.16115
 Alpha virt. eigenvalues --    0.18993   0.19293   0.20614   0.22169   0.23556

  Beta  occ. eigenvalues --  -93.97366 -20.59449 -20.58615 -20.58613 -11.45611
  Beta  occ. eigenvalues --   -8.25370  -6.23263  -6.22938  -6.21535  -1.57642
  Beta  occ. eigenvalues --   -1.46799  -1.46660  -0.99180  -0.86337  -0.78580
  Beta  occ. eigenvalues --   -0.70489  -0.67472  -0.63858  -0.63699  -0.55153
  Beta  occ. eigenvalues --   -0.53430  -0.49641  -0.45461  -0.37903
  Beta virt. eigenvalues --   -0.00400   0.03335   0.04593   0.05755   0.07598
  Beta virt. eigenvalues --    0.10556   0.12453   0.13512   0.14187   0.14785
  Beta virt. eigenvalues --    0.16242   0.19039   0.19606   0.21032   0.22475

 Mulliken charges and spin densities:
               1          2
     1  S    0.425896   1.081682
     2  C    2.215877  -0.081419
     3  O   -1.138842   0.004600
     4  H    0.274614  -0.000009
     5  O   -1.089483  -0.008094
     6  H    0.176143  -0.001353
     7  O   -1.138826   0.004610
     8  H    0.274621  -0.000017
 Sum of Mulliken charges =  -0.00000   1.00000

 Dipole moment (field-independent basis, Debye):
    X=              1.0898    Y=             -0.0002    Z=              1.5161  Tot=              1.8672
                          Isotropic Fermi Contact Couplings
        Atom                 a.u.       MegaHertz       Gauss      10(-4) cm-1
     1  S(33)              0.18807      64.59680      23.04974      21.54717
     2  C(13)             -0.02783     -31.28369     -11.16280     -10.43511
     3  O(17)              0.00566      -3.43386      -1.22529      -1.14541
     4  H(1)              -0.00020      -0.89861      -0.32064      -0.29974
     5  O(17)              0.02428     -14.71936      -5.25224      -4.90985
     6  H(1)               0.00173       7.72448       2.75629       2.57661
     7  O(17)              0.00569      -3.44665      -1.22985      -1.14968
     8  H(1)              -0.00020      -0.90129      -0.32160      -0.30064

 Normal termination of Gaussian 16 at Wed Apr  9 00:23:13 2025.
