 Gaussian 16, Revision C.01,

 ----------------------------------------------------------------------
 #t hf aug-cc-pvdz symm=none int=(grid=ultrafine) guess=(read,tcheck) s
 table=opt
 ----------------------------------------------------------------------
 -----
 title
 -----
 Symbolic Z-matrix:
 Charge =  0 Multiplicity = 2

 SCF Done:  E(UHF) =  -624.756511368     A.U. after   19 cycles
 Normal termination of Gaussian 16 at Tue Apr  8 23:17:54 2025.
 Gaussian 16:  ES64L-G16RevC.01  3-Jul-2019

 ----------------------------------------------------------------------
 #t hf aug-cc-pvdz iop(5/13=1,5/36=2,99/5=2) pseudo=read geom=check gue
 ss=(read,tcheck) scf=(maxcycle=1)
 ----------------------------------------------------------------------
 -----
 title
 -----
 Structure from the checkpoint file:  "BDE49_nonexpt_1062_mol2.chk"
 Charge =  0 Multiplicity = 2

                         Standard orientation:
 ---------------------------------------------------------------------
 Center     Atomic      Atomic             Coordinates (Angstroms)
 Number     Number       Type             X           Y           Z
 ---------------------------------------------------------------------
      1          8           0       -0.134139    1.444204   -0.000142
      2          6           0        0.088140    0.257901    0.000490
      3         16           0        1.747546   -0.318133   -0.000285
      4          8           0       -0.821210   -0.715806    0.000289
      5          6           0       -2.205070   -0.283217    0.000066
      6          1           0       -2.786114   -1.201391   -0.000066
      7          1           0       -2.414981    0.308147   -0.891324
      8          1           0       -2.415272    0.308082    0.891431
 ---------------------------------------------------------------------

 SCF Done:  E(UHF) =  -625.032015539     A.U. after    2 cycles

 The electronic state is 2-A.
 Alpha  occ. eigenvalues --  -94.00614 -20.61666 -20.55453 -11.43128 -11.31586
 Alpha  occ. eigenvalues --   -8.28786  -6.27967  -6.26164  -6.25848  -1.56892
 Alpha  occ. eigenvalues --   -1.47647  -1.09429  -0.98119  -0.80370  -0.70988
 Alpha  occ. eigenvalues --   -0.69688  -0.69492  -0.59947  -0.58468  -0.54707
 Alpha  occ. eigenvalues --   -0.49728  -0.48057  -0.44883  -0.42127
 Alpha virt. eigenvalues --    0.03382   0.05361   0.05649   0.06282   0.08871
 Alpha virt. eigenvalues --    0.11190   0.11766   0.13411   0.13657   0.13838
 Alpha virt. eigenvalues --    0.14111   0.15514   0.17452   0.17541   0.18598

  Beta  occ. eigenvalues --  -93.99684 -20.61643 -20.55263 -11.43243 -11.31575
  Beta  occ. eigenvalues --   -8.27715  -6.25667  -6.25271  -6.23830  -1.56761
  Beta  occ. eigenvalues --   -1.47258  -1.04276  -0.95405  -0.79688  -0.69844
  Beta  occ. eigenvalues --   -0.69495  -0.68253  -0.59041  -0.58342  -0.54294
  Beta  occ. eigenvalues --   -0.47953  -0.44927  -0.39846
  Beta virt. eigenvalues --   -0.01576   0.03388   0.05422   0.05653   0.06469
  Beta virt. eigenvalues --    0.08992   0.11788   0.12723   0.13751   0.13823
  Beta virt. eigenvalues --    0.13988   0.14135   0.15577   0.17548   0.17602

 Mulliken charges and spin densities:
               1          2
     1  O   -0.947630   0.020933
     2  C    0.940768  -0.082841
     3  S    0.451384   1.090508
     4  O   -1.027397  -0.023283
     5  C    0.228271  -0.004969
     6  H    0.016192   0.000462
     7  H    0.169199  -0.000404
     8  H    0.169212  -0.000406
 Sum of Mulliken charges =  -0.00000   1.00000

 Dipole moment (field-independent basis, Debye):
    X=             -1.6946    Y=             -1.6557    Z=              0.0006  Tot=              2.3692
                          Isotropic Fermi Contact Couplings
        Atom                 a.u.       MegaHertz       Gauss      10(-4) cm-1
     1  O(17)              0.02170     -13.15533      -4.69415      -4.38814
     2  C(13)             -0.02125     -23.88959      -8.52440      -7.96871
     3  S(33)              0.21440      73.64142      26.27709      24.56413
     4  O(17)              0.01200      -7.27479      -2.59583      -2.42661
     5  C(13)              0.00260       2.91887       1.04152       0.97363
     6  H(1)               0.00004       0.18367       0.06554       0.06127
     7  H(1)              -0.00007      -0.32199      -0.11489      -0.10740
     8  H(1)              -0.00007      -0.32151      -0.11472      -0.10724

 Normal termination of Gaussian 16 at Tue Apr  8 23:17:56 2025.
