 Gaussian 16, Revision C.01,

 ----------------------------------------------------------------------
 #t hf aug-cc-pvdz symm=none int=(grid=ultrafine) guess=(read,tcheck) s
 table=(opt,rrhf)
 ----------------------------------------------------------------------
 -----
 title
 -----
 Symbolic Z-matrix:
 Charge =  0 Multiplicity = 1

 SCF Done:  E(RHF) =  -592.932683528     A.U. after   13 cycles
 Normal termination of Gaussian 16 at Wed Apr  9 00:08:06 2025.
 Gaussian 16:  ES64L-G16RevC.01  3-Jul-2019

 ----------------------------------------------------------------------
 #t hf aug-cc-pvdz iop(5/13=1,5/36=2,99/5=2) pseudo=read geom=check gue
 ss=(read,tcheck) scf=(maxcycle=1)
 ----------------------------------------------------------------------
 -----
 title
 -----
 Structure from the checkpoint file:  "BDE49_nonexpt_2279_mol1.chk"
 Charge =  0 Multiplicity = 1

                         Standard orientation:
 ---------------------------------------------------------------------
 Center     Atomic      Atomic             Coordinates (Angstroms)
 Number     Number       Type             X           Y           Z
 ---------------------------------------------------------------------
      1         14           0        0.380411   -0.017652   -0.000001
      2          8           0        0.146957    1.612682   -0.000230
      3          8           0        1.288492   -0.518914    1.272039
      4          1           0        0.928608    2.170681   -0.000292
      5          6           0       -1.324427   -0.739501    0.000113
      6          6           0       -2.444168   -0.010459    0.000024
      7          1           0       -1.415584   -1.825592    0.000260
      8          1           0       -2.409352    1.074415   -0.000131
      9          1           0       -3.432315   -0.463797    0.000089
     10          1           0        0.911529   -0.402122    2.146544
     11          8           0        1.288476   -0.519271   -1.271912
     12          1           0        0.911529   -0.402668   -2.146449
 ---------------------------------------------------------------------

 SCF Done:  E(RHF) =  -593.271045552     A.U. after    2 cycles

 The electronic state is 1-A.
 Alpha  occ. eigenvalues --  -69.59282 -20.54785 -20.54512 -20.54510 -11.25558
 Alpha  occ. eigenvalues --  -11.22814  -6.25361  -4.00890  -4.00837  -4.00695
 Alpha  occ. eigenvalues --   -1.45978  -1.42689  -1.42202  -1.04228  -0.81490
 Alpha  occ. eigenvalues --   -0.76616  -0.72672  -0.66121  -0.63735  -0.61351
 Alpha  occ. eigenvalues --   -0.59543  -0.57552  -0.54519  -0.51924  -0.50549
 Alpha  occ. eigenvalues --   -0.48166  -0.45963  -0.39248
 Alpha virt. eigenvalues --    0.03196   0.04185   0.04757   0.04857   0.06393
 Alpha virt. eigenvalues --    0.06952   0.07779   0.07974   0.09872   0.10650
 Alpha virt. eigenvalues --    0.12391   0.13490   0.14829   0.16160   0.16924

 Mulliken charges:
               1
     1  Si   3.809106
     2  O   -1.561496
     3  O   -1.516173
     4  H    0.397587
     5  C   -0.037529
     6  C    0.016513
     7  H   -0.224363
     8  H   -0.082903
     9  H   -0.061089
    10  H    0.388262
    11  O   -1.516175
    12  H    0.388259
 Sum of Mulliken charges =   0.00000

 Dipole moment (field-independent basis, Debye):
    X=             -1.5092    Y=              0.9338    Z=             -0.0001  Tot=              1.7747

 Test job not archived.
 1\1\GINC-SE365\SP\RHF\Aug-CC-pVDZ\C2H6O3Si1\OHZDE\09-Apr-2025\0\\#t hf
  aug-cc-pvdz iop(5/13=1,5/36=2,99/5=2) pseudo=read geom=check guess=(r
 ead,tcheck) scf=(maxcycle=1)\\title\\0,1\Si,0,0.380411,-0.017652,-0.00
 0001\O,0,0.146957,1.612682,-0.00023\O,0,1.288492,-0.518914,1.272039\H,
 0,0.928608,2.170681,-0.000292\C,0,-1.324427,-0.739501,0.000113\C,0,-2.
 444168,-0.010459,0.000024\H,0,-1.415584,-1.825592,0.00026\H,0,-2.40935
 2,1.074415,-0.000131\H,0,-3.432315,-0.463797,0.000089\H,0,0.911529,-0.
 402122,2.146544\O,0,1.288476,-0.519271,-1.271912\H,0,0.911529,-0.40266

 Normal termination of Gaussian 16 at Wed Apr  9 00:08:10 2025.
