 Gaussian 16, Revision C.01,

 ----------------------------------------------------------------------
 #t hf aug-cc-pvdz symm=none int=(grid=ultrafine) guess=(read,tcheck) s
 table=opt
 ----------------------------------------------------------------------
 -----
 title
 -----
 Symbolic Z-matrix:
 Charge =  0 Multiplicity = 2

 SCF Done:  E(UHF) =  -369.659869125     A.U. after   16 cycles
 Normal termination of Gaussian 16 at Wed Apr  9 00:17:18 2025.
 Gaussian 16:  ES64L-G16RevC.01  3-Jul-2019

 ----------------------------------------------------------------------
 #t hf aug-cc-pvdz iop(5/13=1,5/36=2,99/5=2) pseudo=read geom=check gue
 ss=(read,tcheck) scf=(maxcycle=1)
 ----------------------------------------------------------------------
 -----
 title
 -----
 Structure from the checkpoint file:  "BDE49_nonexpt_252_mol2.chk"
 Charge =  0 Multiplicity = 2

                         Standard orientation:
 ---------------------------------------------------------------------
 Center     Atomic      Atomic             Coordinates (Angstroms)
 Number     Number       Type             X           Y           Z
 ---------------------------------------------------------------------
      1          5           0        1.375627    1.116574    0.000000
      2          8           0        0.841688    0.812993    1.202003
      3          8           0        0.841688    0.812993   -1.202003
      4          6           0       -0.611433   -0.743345   -0.000000
      5          6           0       -0.425633    0.094955   -1.265215
      6          6           0       -0.425633    0.094955    1.265215
      7          6           0       -0.425633   -0.722585    2.545071
      8          1           0        0.367019   -1.474607    2.517314
      9          1           0       -1.385440   -1.229817    2.678910
     10          1           0       -0.251691   -0.073762    3.405516
     11          1           0       -1.212940    0.856234    1.316997
     12          1           0        0.115680   -1.564335   -0.000000
     13          1           0       -1.610911   -1.190885   -0.000000
     14          6           0       -0.425633   -0.722585   -2.545071
     15          1           0       -1.212940    0.856234   -1.316997
     16          1           0        0.367019   -1.474607   -2.517314
     17          1           0       -0.251691   -0.073762   -3.405516
     18          1           0       -1.385440   -1.229817   -2.678910
 ---------------------------------------------------------------------

 SCF Done:  E(UHF) =  -370.039591515     A.U. after    2 cycles

 The electronic state is 2-A'.
 Alpha  occ. eigenvalues --  -20.54924 -20.54921 -11.30746 -11.30736 -11.24834
 Alpha  occ. eigenvalues --  -11.23535 -11.23528  -7.64884  -1.48563  -1.44318
 Alpha  occ. eigenvalues --   -1.09661  -1.03097  -0.95519  -0.84475  -0.83227
 Alpha  occ. eigenvalues --   -0.73147  -0.68784  -0.68093  -0.65619  -0.60747
 Alpha  occ. eigenvalues --   -0.56755  -0.56719  -0.56267  -0.55298  -0.54738
 Alpha  occ. eigenvalues --   -0.52946  -0.52915  -0.47514  -0.45758  -0.44246
 Alpha  occ. eigenvalues --   -0.33686
 Alpha virt. eigenvalues --    0.03019   0.03352   0.03639   0.04304   0.05658
 Alpha virt. eigenvalues --    0.05837   0.05998   0.06644   0.07220   0.08734
 Alpha virt. eigenvalues --    0.08771   0.09392   0.09452   0.12167   0.13698

  Beta  occ. eigenvalues --  -20.54815 -20.54813 -11.30605 -11.30594 -11.24857
  Beta  occ. eigenvalues --  -11.23544 -11.23537  -7.62740  -1.48037  -1.43943
  Beta  occ. eigenvalues --   -1.09318  -1.02837  -0.95510  -0.84030  -0.82197
  Beta  occ. eigenvalues --   -0.72340  -0.68137  -0.67642  -0.65620  -0.59938
  Beta  occ. eigenvalues --   -0.56644  -0.56596  -0.56139  -0.54924  -0.54665
  Beta  occ. eigenvalues --   -0.52912  -0.51925  -0.47315  -0.45568  -0.44717
  Beta virt. eigenvalues --    0.03050   0.03365   0.03644   0.04046   0.05522
  Beta virt. eigenvalues --    0.05840   0.06013   0.06308   0.07394   0.08742
  Beta virt. eigenvalues --    0.08763   0.09433   0.09496   0.10071   0.13160

 Mulliken charges and spin densities:
               1          2
     1  B    0.211118   1.144367
     2  O   -1.081043  -0.128359
     3  O   -1.081043  -0.128359
     4  C   -0.546650  -0.077828
     5  C    0.793580   0.105993
     6  C    0.793580   0.105993
     7  C   -0.331776  -0.010401
     8  H    0.207505   0.000644
     9  H    0.199810   0.000684
    10  H    0.153996   0.000194
    11  H    0.075597  -0.001474
    12  H    0.167530  -0.005481
    13  H    0.132661   0.004377
    14  C   -0.331776  -0.010401
    15  H    0.075597  -0.001474
    16  H    0.207505   0.000644
    17  H    0.153996   0.000194
    18  H    0.199810   0.000684
 Sum of Mulliken charges =  -0.00000   1.00000

 Dipole moment (field-independent basis, Debye):
    X=             -3.2020    Y=             -1.9761    Z=              0.0000  Tot=              3.7627
                          Isotropic Fermi Contact Couplings
        Atom                 a.u.       MegaHertz       Gauss      10(-4) cm-1
     1  B(11)              0.44489     638.14110     227.70461     212.86096
     2  O(17)              0.13927     -84.42209     -30.12390     -28.16018
     3  O(17)              0.13927     -84.42209     -30.12390     -28.16018
     4  C(13)             -0.00458      -5.14524      -1.83595      -1.71627
     5  C(13)              0.02448      27.52509       9.82164       9.18138
     6  C(13)              0.02448      27.52509       9.82164       9.18138
     7  C(13)             -0.00167      -1.87199      -0.66797      -0.62443
     8  H(1)               0.00012       0.54755       0.19538       0.18264

 Normal termination of Gaussian 16 at Wed Apr  9 00:17:25 2025.
