 Gaussian 16, Revision C.01,

 ----------------------------------------------------------------------
 #t hf aug-cc-pvdz symm=none int=(grid=ultrafine) guess=(read,tcheck) s
 table=(opt,rrhf)
 ----------------------------------------------------------------------
 -----
 title
 -----
 Symbolic Z-matrix:
 Charge =  0 Multiplicity = 1

 SCF Done:  E(RHF) =  -918.376779821     A.U. after   14 cycles
 Normal termination of Gaussian 16 at Wed Apr  9 00:16:26 2025.
 Gaussian 16:  ES64L-G16RevC.01  3-Jul-2019

 ----------------------------------------------------------------------
 #t hf aug-cc-pvdz iop(5/13=1,5/36=2,99/5=2) pseudo=read geom=check gue
 ss=(read,tcheck) scf=(maxcycle=1)
 ----------------------------------------------------------------------
 -----
 title
 -----
 Structure from the checkpoint file:  "BDE49_nonexpt_2508_mol1.chk"
 Charge =  0 Multiplicity = 1

                         Standard orientation:
 ---------------------------------------------------------------------
 Center     Atomic      Atomic             Coordinates (Angstroms)
 Number     Number       Type             X           Y           Z
 ---------------------------------------------------------------------
      1         14           0        1.575401   -2.142341    0.000000
      2         16           0       -0.539737   -1.700903    0.000000
      3          6           0       -0.472589    0.103951    0.000000
      4          6           0       -0.477205    0.804899    1.209229
      5          6           0       -0.477205    2.197928    1.205363
      6          6           0       -0.477205    0.804899   -1.209229
      7          6           0       -0.477205    2.197928   -1.205363
      8          6           0       -0.476154    2.896857   -0.000000
      9          1           0       -0.478029    3.980822   -0.000000
     10          1           0       -0.480875    2.735812    2.146728
     11          1           0       -0.484964    0.258430    2.144371
     12          1           0       -0.484964    0.258430   -2.144371
     13          1           0       -0.480875    2.735812   -2.146728
     14          1           0        1.666161   -3.618926    0.000000
     15          1           0        2.234554   -1.590961    1.204767
     16          1           0        2.234554   -1.590961   -1.204767
 ---------------------------------------------------------------------

 SCF Done:  E(RHF) =  -918.709571036     A.U. after    2 cycles

 The electronic state is 1-A'.
 Alpha  occ. eigenvalues --  -93.94436 -69.55689 -11.28314 -11.25462 -11.25459
 Alpha  occ. eigenvalues --  -11.25340 -11.25254 -11.25238  -8.22683  -6.22530
 Alpha  occ. eigenvalues --   -6.20474  -6.20347  -6.20149  -3.97943  -3.97857
 Alpha  occ. eigenvalues --   -3.97824  -1.17070  -1.06495  -1.02775  -0.96531
 Alpha  occ. eigenvalues --   -0.84697  -0.82380  -0.74208  -0.71019  -0.65582
 Alpha  occ. eigenvalues --   -0.64472  -0.61025  -0.57976  -0.53872  -0.51891
 Alpha  occ. eigenvalues --   -0.51410  -0.50682  -0.48337  -0.45529  -0.37400
 Alpha  occ. eigenvalues --   -0.35579  -0.34576
 Alpha virt. eigenvalues --    0.03274   0.03641   0.03691   0.04612   0.05340
 Alpha virt. eigenvalues --    0.05429   0.07110   0.07714   0.07887   0.08401
 Alpha virt. eigenvalues --    0.09430   0.09668   0.10036   0.10766   0.12630

 Mulliken charges:
               1
     1  Si   1.082294
     2  S   -0.358478
     3  C    0.556672
     4  C   -0.269766
     5  C    0.448395
     6  C   -0.269766
     7  C    0.448395
     8  C   -0.020421
     9  H   -0.204698
    10  H   -0.214115
    11  H   -0.222212
    12  H   -0.222212
    13  H   -0.214115
    14  H   -0.194392
    15  H   -0.172790
    16  H   -0.172790
 Sum of Mulliken charges =  -0.00000

 Dipole moment (field-independent basis, Debye):
    X=              0.9611    Y=              1.4993    Z=              0.0000  Tot=              1.7809

 Test job not archived.
 1\1\GINC-SE150\SP\RHF\Aug-CC-pVDZ\C6H8S1Si1\OHZDE\09-Apr-2025\0\\#t hf
  aug-cc-pvdz iop(5/13=1,5/36=2,99/5=2) pseudo=read geom=check guess=(r
 ead,tcheck) scf=(maxcycle=1)\\title\\0,1\Si,0,-1.575401,-2.142341,0.\S
 ,0,0.539737,-1.700903,0.\C,0,0.472589,0.103951,0.\C,0,0.477205,0.80489
 9,-1.209229\C,0,0.477205,2.197928,-1.205363\C,0,0.477205,0.804899,1.20
 9229\C,0,0.477205,2.197928,1.205363\C,0,0.476154,2.896857,0.\H,0,0.478
 029,3.980822,0.\H,0,0.480875,2.735812,-2.146728\H,0,0.484964,0.25843,-
 2.144371\H,0,0.484964,0.25843,2.144371\H,0,0.480875,2.735812,2.146728\

 Normal termination of Gaussian 16 at Wed Apr  9 00:16:32 2025.
