 Gaussian 16, Revision C.01,

 ----------------------------------------------------------------------
 #t hf aug-cc-pvdz symm=none int=(grid=ultrafine) guess=(read,tcheck) s
 table=(opt,rrhf)
 ----------------------------------------------------------------------
 -----
 title
 -----
 Symbolic Z-matrix:
 Charge =  0 Multiplicity = 1

 SCF Done:  E(RHF) =  -805.627855806     A.U. after   14 cycles
 Normal termination of Gaussian 16 at Wed Apr  9 00:53:03 2025.
 Gaussian 16:  ES64L-G16RevC.01  3-Jul-2019

 ----------------------------------------------------------------------
 #t hf aug-cc-pvdz iop(5/13=1,5/36=2,99/5=2) pseudo=read geom=check gue
 ss=(read,tcheck) scf=(maxcycle=1)
 ----------------------------------------------------------------------
 -----
 title
 -----
 Structure from the checkpoint file:  "BDE49_nonexpt_984_mol1.chk"
 Charge =  0 Multiplicity = 1

                         Standard orientation:
 ---------------------------------------------------------------------
 Center     Atomic      Atomic             Coordinates (Angstroms)
 Number     Number       Type             X           Y           Z
 ---------------------------------------------------------------------
      1          7           0        1.509765    0.158502   -0.000109
      2         16           0        0.000000   -0.959577   -0.000026
      3          7           0       -1.509765    0.158502    0.000111
      4          8           0        2.504311   -0.526223    0.000340
      5          8           0        1.393249    1.347111   -0.000455
      6          8           0       -2.504311   -0.526223   -0.000290
      7          8           0       -1.393249    1.347111    0.000456
 ---------------------------------------------------------------------

 SCF Done:  E(RHF) =  -806.061798670     A.U. after    2 cycles

 The electronic state is 1-A.
 Alpha  occ. eigenvalues --  -94.11629 -20.65385 -20.65379 -20.64849 -20.64848
 Alpha  occ. eigenvalues --  -15.85951 -15.85950  -8.38980  -6.36670  -6.36457
 Alpha  occ. eigenvalues --   -6.36121  -1.74032  -1.73941  -1.58664  -1.58381
 Alpha  occ. eigenvalues --   -1.17558  -1.02362  -0.92519  -0.85709  -0.81164
 Alpha  occ. eigenvalues --   -0.80604  -0.79916  -0.79852  -0.76383  -0.56618
 Alpha  occ. eigenvalues --   -0.54088  -0.51291  -0.51163  -0.50474  -0.50028
 Alpha  occ. eigenvalues --   -0.48856
 Alpha virt. eigenvalues --    0.01009   0.01142   0.02279   0.03318   0.07558
 Alpha virt. eigenvalues --    0.08398   0.09908   0.10433   0.13522   0.14835
 Alpha virt. eigenvalues --    0.16419   0.16640   0.16754   0.17008   0.22252

 Mulliken charges:
               1
     1  N    1.783445
     2  S    0.747582
     3  N    1.783445
     4  O   -1.109818
     5  O   -1.047417
     6  O   -1.109818
     7  O   -1.047417
 Sum of Mulliken charges =  -0.00000

 Dipole moment (field-independent basis, Debye):
    X=             -0.0000    Y=             -1.6699    Z=             -0.0001  Tot=              1.6699

 Test job not archived.
 1\1\GINC-SE344\SP\RHF\Aug-CC-pVDZ\N2O4S1\OHZDE\09-Apr-2025\0\\#t hf au
 g-cc-pvdz iop(5/13=1,5/36=2,99/5=2) pseudo=read geom=check guess=(read
 ,tcheck) scf=(maxcycle=1)\\title\\0,1\N,0,-1.509765,-0.158502,-0.00010
 9\S,0,0.,0.959577,-0.000026\N,0,1.509765,-0.158502,0.000111\O,0,-2.504
 311,0.526223,0.00034\O,0,-1.393249,-1.347111,-0.000455\O,0,2.504311,0.
 526223,-0.00029\O,0,1.393249,-1.347111,0.000456\\Version=ES64L-G16RevC
 .01\State=1-A\HF=-806.0617987\RMSD=1.561e-02\Dipole=0.,0.6570064,-0.00
 00287\Quadrupole=-3.9818823,1.367232,2.6146503,0.,0.0008643,-0.0000734

 Normal termination of Gaussian 16 at Wed Apr  9 00:53:06 2025.
