 Gaussian 16, Revision C.01,

 ----------------------------------------------------------------------
 #t hf aug-cc-pvdz symm=none int=(grid=ultrafine) guess=(read,tcheck) s
 table=(opt,rrhf)
 ----------------------------------------------------------------------
 -----
 title
 -----
 Symbolic Z-matrix:
 Charge =  0 Multiplicity = 1

 SCF Done:  E(RHF) =  -749.710812852     A.U. after   12 cycles
 Normal termination of Gaussian 16 at Tue Apr  8 23:40:30 2025.
 Gaussian 16:  ES64L-G16RevC.01  3-Jul-2019

 ----------------------------------------------------------------------
 #t hf aug-cc-pvdz iop(5/13=1,5/36=2,99/5=2) pseudo=read geom=check gue
 ss=(read,tcheck) scf=(maxcycle=1)
 ----------------------------------------------------------------------
 -----
 title
 -----
 Structure from the checkpoint file:  "BDE49_nonexpt_1636_mol1.chk"
 Charge =  0 Multiplicity = 1

                         Standard orientation:
 ---------------------------------------------------------------------
 Center     Atomic      Atomic             Coordinates (Angstroms)
 Number     Number       Type             X           Y           Z
 ---------------------------------------------------------------------
      1         15           0        1.249540   -1.436037   -0.236891
      2         14           0        0.183615    0.491080    0.393494
      3          6           0       -1.536617    0.537982   -0.387650
      4          6           0       -2.498141   -0.576866    0.059268
      5          1           0       -1.419908    0.519875   -1.477845
      6          1           0       -1.969215    1.518091   -0.149589
      7          1           0       -2.128239   -1.566272   -0.224132
      8          1           0       -3.485780   -0.457458   -0.395394
      9          6           0        1.222894    1.948840   -0.190284
     10          1           0        2.210592    1.945549    0.278590
     11          1           0        0.735644    2.894570    0.066004
     12          1           0        1.364582    1.925624   -1.274518
     13          1           0       -2.634316   -0.576652    1.144631
     14          1           0        0.519276   -2.281588    0.639109
     15          1           0        2.323956   -1.268349    0.676643
     16          1           0        0.040880    0.552308    1.872952
 ---------------------------------------------------------------------

 SCF Done:  E(RHF) =  -749.928536226     A.U. after    2 cycles

 The electronic state is 1-A.
 Alpha  occ. eigenvalues --  -84.25553 -69.52766 -11.23272 -11.22264 -11.21972
 Alpha  occ. eigenvalues --   -6.72819  -6.19753  -4.25251  -4.25091  -4.24502
 Alpha  occ. eigenvalues --   -3.95092  -3.95045  -3.95032  -1.02812  -0.95585
 Alpha  occ. eigenvalues --   -0.85902  -0.84289  -0.66880  -0.61485  -0.57914
 Alpha  occ. eigenvalues --   -0.56859  -0.56706  -0.52376  -0.50536  -0.50001
 Alpha  occ. eigenvalues --   -0.46675  -0.43747  -0.40787  -0.33534
 Alpha virt. eigenvalues --    0.03520   0.03889   0.04165   0.04437   0.06139
 Alpha virt. eigenvalues --    0.06277   0.06645   0.06775   0.08571   0.09375
 Alpha virt. eigenvalues --    0.09487   0.10316   0.10680   0.10997   0.11710

 Mulliken charges:
               1
     1  P   -1.241164
     2  Si   1.633990
     3  C   -0.383272
     4  C   -0.547003
     5  H    0.100629
     6  H    0.044089
     7  H    0.135409
     8  H    0.107076
     9  C   -0.596669
    10  H   -0.010947
    11  H    0.001219
    12  H    0.103966
    13  H    0.135710
    14  H    0.347495
    15  H    0.349937
    16  H   -0.180464
 Sum of Mulliken charges =   0.00000

 Dipole moment (field-independent basis, Debye):
    X=             -0.4920    Y=              0.8053    Z=             -0.0130  Tot=              0.9438

 Test job not archived.
 1\1\GINC-SE345\SP\RHF\Aug-CC-pVDZ\C3H11P1Si1\OHZDE\08-Apr-2025\0\\#t h
 f aug-cc-pvdz iop(5/13=1,5/36=2,99/5=2) pseudo=read geom=check guess=(
 read,tcheck) scf=(maxcycle=1)\\title\\0,1\P,0,1.24954,-1.436037,-0.236
 891\Si,0,0.183615,0.49108,0.393494\C,0,-1.536617,0.537982,-0.38765\C,0
 ,-2.498141,-0.576866,0.059268\H,0,-1.419908,0.519875,-1.477845\H,0,-1.
 969215,1.518091,-0.149589\H,0,-2.128239,-1.566272,-0.224132\H,0,-3.485
 78,-0.457457,-0.395394\C,0,1.222894,1.94884,-0.190284\H,0,2.210592,1.9
 45549,0.27859\H,0,0.735644,2.89457,0.066004\H,0,1.364582,1.925624,-1.2

 Normal termination of Gaussian 16 at Tue Apr  8 23:40:35 2025.
