 Gaussian 16, Revision C.01,

 ----------------------------------------------------------------------
 #t hf aug-cc-pvdz symm=none int=(grid=ultrafine) guess=(read,tcheck) s
 table=(opt,rrhf)
 ----------------------------------------------------------------------
 -----
 title
 -----
 Symbolic Z-matrix:
 Charge =  0 Multiplicity = 1

 SCF Done:  E(RHF) =  -844.973989942     A.U. after   12 cycles
 Normal termination of Gaussian 16 at Wed Apr  9 00:15:15 2025.
 Gaussian 16:  ES64L-G16RevC.01  3-Jul-2019

 ----------------------------------------------------------------------
 #t hf aug-cc-pvdz iop(5/13=1,5/36=2,99/5=2) pseudo=read geom=check gue
 ss=(read,tcheck) scf=(maxcycle=1)
 ----------------------------------------------------------------------
 -----
 title
 -----
 Structure from the checkpoint file:  "BDE49_nonexpt_2475_mol1.chk"
 Charge =  0 Multiplicity = 1

                         Standard orientation:
 ---------------------------------------------------------------------
 Center     Atomic      Atomic             Coordinates (Angstroms)
 Number     Number       Type             X           Y           Z
 ---------------------------------------------------------------------
      1         14           0        0.530187    0.941816   -0.000066
      2          6           0       -1.057058   -0.108879   -0.000017
      3          6           0       -2.251099    0.871892   -0.000208
      4          1           0       -2.252454    1.515286    0.884967
      5          1           0       -3.193895    0.311859   -0.000182
      6          1           0       -2.252362    1.515053   -0.885553
      7          6           0       -1.120690   -0.992741   -1.262363
      8          1           0       -2.059778   -1.559016   -1.275475
      9          1           0       -0.300259   -1.714471   -1.299783
     10          1           0       -1.082643   -0.396550   -2.178981
     11          6           0       -1.120829   -0.992417    1.262548
     12          1           0       -1.082901   -0.395988    2.179016
     13          1           0       -0.300388   -1.714122    1.300255
     14          1           0       -2.059910   -1.558702    1.275693
     15         16           0        2.259502   -0.380807    0.000074
     16          1           0        3.161718    0.616571    0.000285
     17          1           0        0.573123    1.810308    1.201395
     18          1           0        0.573146    1.810128   -1.201656
 ---------------------------------------------------------------------

 SCF Done:  E(RHF) =  -845.246669932     A.U. after    2 cycles

 The electronic state is 1-A.
 Alpha  occ. eigenvalues --  -93.94086 -69.54860 -11.24061 -11.23474 -11.23143
 Alpha  occ. eigenvalues --  -11.23126  -8.22347  -6.21751  -6.20174  -6.20060
 Alpha  occ. eigenvalues --   -6.19842  -3.97127  -3.97015  -3.97009  -1.09395
 Alpha  occ. eigenvalues --   -0.99965  -0.93955  -0.93824  -0.78910  -0.70152
 Alpha  occ. eigenvalues --   -0.61590  -0.61213  -0.60829  -0.56083  -0.55429
 Alpha  occ. eigenvalues --   -0.54233  -0.52841  -0.49868  -0.48488  -0.48021
 Alpha  occ. eigenvalues --   -0.44627  -0.41580  -0.37614
 Alpha virt. eigenvalues --    0.03447   0.03887   0.04123   0.04188   0.05969
 Alpha virt. eigenvalues --    0.06187   0.06415   0.06757   0.06947   0.08711
 Alpha virt. eigenvalues --    0.09716   0.09990   0.10031   0.11306   0.11882

 Mulliken charges:
               1
     1  Si   0.813996
     2  C   -1.802512
     3  C    0.041270
     4  H    0.157779
     5  H    0.205786
     6  H    0.157778
     7  C    0.042370
     8  H    0.203293
     9  H    0.149894
    10  H    0.156617
    11  C    0.042373
    12  H    0.156612
    13  H    0.149908
    14  H    0.203285
    15  S   -0.915931
    16  H    0.229176
    17  H    0.004159
    18  H    0.004147
 Sum of Mulliken charges =  -0.00000

 Dipole moment (field-independent basis, Debye):
    X=             -1.1246    Y=              0.8427    Z=              0.0001  Tot=              1.4053

 Test job not archived.
 1\1\GINC-SE106\SP\RHF\Aug-CC-pVDZ\C4H12S1Si1\OHZDE\09-Apr-2025\0\\#t h
 f aug-cc-pvdz iop(5/13=1,5/36=2,99/5=2) pseudo=read geom=check guess=(
 read,tcheck) scf=(maxcycle=1)\\title\\0,1\Si,0,0.530187,0.941816,-0.00
 0066\C,0,-1.057058,-0.108879,-0.000017\C,0,-2.251099,0.871892,-0.00020
 8\H,0,-2.252454,1.515286,0.884967\H,0,-3.193895,0.311859,-0.000182\H,0
 ,-2.252362,1.515053,-0.885553\C,0,-1.12069,-0.992741,-1.262363\H,0,-2.
 059778,-1.559016,-1.275475\H,0,-0.300259,-1.714471,-1.299783\H,0,-1.08
 2643,-0.39655,-2.178981\C,0,-1.120829,-0.992417,1.262548\H,0,-1.082901

 Normal termination of Gaussian 16 at Wed Apr  9 00:15:22 2025.
