 Gaussian 16, Revision C.01,

 ----------------------------------------------------------------------
 #t hf aug-cc-pvdz symm=none int=(grid=ultrafine) guess=(read,tcheck) s
 table=(opt,rrhf)
 ----------------------------------------------------------------------
 -----
 title
 -----
 Symbolic Z-matrix:
 Charge =  0 Multiplicity = 1

 SCF Done:  E(RHF) =  -369.343574516     A.U. after   10 cycles

 1\1\GINC-SE073\Stability\RHF\Aug-CC-pVDZ\C2H8Si1\OHZDE\08-Apr-2025\0\\
 #t hf aug-cc-pvdz symm=none int=(grid=ultrafine) guess=(read,tcheck) s
 table=(opt,rrhf)\\title\\0,1\Si,0,0.,0.547311,-0.000001\C,0,-1.555794,
 -0.510552,0.000001\H,0,-2.454428,0.112442,-0.000001\H,0,-1.594088,-1.1
 53366,0.884345\H,0,-1.594088,-1.153368,-0.884341\C,0,1.555794,-0.51055
 2,0.\H,0,0.,1.426424,1.19803\H,0,0.,1.426421,-1.198034\H,0,1.594089,-1
 .153365,0.884345\H,0,2.454428,0.112442,-0.000002\H,0,1.594087,-1.15336
 9,-0.884341\\Version=ES64L-G16RevC.01\HF=-369.3435745\RMSD=7.424e-09\D

 Normal termination of Gaussian 16 at Tue Apr  8 22:44:29 2025.
 Gaussian 16:  ES64L-G16RevC.01  3-Jul-2019

 ----------------------------------------------------------------------
 #t hf aug-cc-pvdz iop(5/13=1,5/36=2,99/5=2) pseudo=read geom=check gue
 ss=(read,tcheck) scf=(maxcycle=1)
 ----------------------------------------------------------------------
 -----
 title
 -----
 Structure from the checkpoint file:  "BDE49_expt_1537_mol1.chk"
 Charge =  0 Multiplicity = 1

                         Standard orientation:
 ---------------------------------------------------------------------
 Center     Atomic      Atomic             Coordinates (Angstroms)
 Number     Number       Type             X           Y           Z
 ---------------------------------------------------------------------
      1         14           0        0.000000    0.547311   -0.000001
      2          6           0       -1.555794   -0.510552    0.000001
      3          1           0       -2.454428    0.112442   -0.000001
      4          1           0       -1.594088   -1.153366    0.884345
      5          1           0       -1.594088   -1.153368   -0.884341
      6          6           0        1.555794   -0.510552    0.000000
      7          1           0        0.000000    1.426424    1.198030
      8          1           0        0.000000    1.426421   -1.198034
      9          1           0        1.594089   -1.153365    0.884345
     10          1           0        2.454428    0.112442   -0.000002
     11          1           0        1.594087   -1.153369   -0.884341
 ---------------------------------------------------------------------

 SCF Done:  E(RHF) =  -369.472205422     A.U. after    2 cycles

 The electronic state is 1-A.
 Alpha  occ. eigenvalues --  -69.51621 -11.21493 -11.21491  -6.18667  -3.94030
 Alpha  occ. eigenvalues --   -3.94027  -3.94018  -0.96579  -0.93126  -0.69029
 Alpha  occ. eigenvalues --   -0.57749  -0.57216  -0.55202  -0.55110  -0.45984
 Alpha  occ. eigenvalues --   -0.45562  -0.45020
 Alpha virt. eigenvalues --    0.03635   0.04179   0.04506   0.04531   0.07023
 Alpha virt. eigenvalues --    0.07089   0.07740   0.08458   0.08650   0.09928
 Alpha virt. eigenvalues --    0.12388   0.14714   0.15769   0.16492   0.16634

 Mulliken charges:
               1
     1  Si   1.583560
     2  C   -0.606472
     3  H   -0.042885
     4  H    0.064608
     5  H    0.064607
     6  C   -0.606472
     7  H   -0.271639
     8  H   -0.271639
     9  H    0.064609
    10  H   -0.042885
    11  H    0.064607
 Sum of Mulliken charges =   0.00000

 Dipole moment (field-independent basis, Debye):
    X=             -0.0000    Y=             -0.7025    Z=             -0.0000  Tot=              0.7025

 Test job not archived.
 1\1\GINC-SE073\SP\RHF\Aug-CC-pVDZ\C2H8Si1\OHZDE\08-Apr-2025\0\\#t hf a
 ug-cc-pvdz iop(5/13=1,5/36=2,99/5=2) pseudo=read geom=check guess=(rea
 d,tcheck) scf=(maxcycle=1)\\title\\0,1\Si,0,0.,0.547311,-0.000001\C,0,
 -1.555794,-0.510552,0.000001\H,0,-2.454428,0.112442,-0.000001\H,0,-1.5
 94088,-1.153366,0.884345\H,0,-1.594088,-1.153368,-0.884341\C,0,1.55579
 4,-0.510552,0.\H,0,0.,1.426424,1.19803\H,0,0.,1.426421,-1.198034\H,0,1
 .594089,-1.153365,0.884345\H,0,2.454428,0.112442,-0.000002\H,0,1.59408
 7,-1.153369,-0.884341\\Version=ES64L-G16RevC.01\State=1-A\HF=-369.4722

 Normal termination of Gaussian 16 at Tue Apr  8 22:44:31 2025.
