 Gaussian 16, Revision C.01,

 ----------------------------------------------------------------------
 #t hf aug-cc-pvdz symm=none int=(grid=ultrafine) guess=(read,tcheck) s
 table=(opt,rrhf)
 ----------------------------------------------------------------------
 -----
 title
 -----
 Symbolic Z-matrix:
 Charge =  0 Multiplicity = 1

 SCF Done:  E(RHF) =  -1144.48342373     A.U. after   13 cycles

 1\1\GINC-SE083\Stability\RHF\Aug-CC-pVDZ\C2Cl2O2\OHZDE\08-Apr-2025\0\\
 #t hf aug-cc-pvdz symm=none int=(grid=ultrafine) guess=(read,tcheck) s
 table=(opt,rrhf)\\title\\0,1\C,0,-0.558179,-0.544434,0.000334\C,0,0.55
 8166,0.544419,0.000377\O,0,-0.365259,-1.706819,0.000731\O,0,0.365262,1
 .70681,0.000758\Cl,0,-2.176973,0.184037,-0.000406\Cl,0,2.176977,-0.184
 027,-0.000545\\Version=ES64L-G16RevC.01\HF=-1144.4834237\RMSD=2.948e-0
 9\Dipole=-0.000038,-0.0000069,-0.0002173\Quadrupole=1.8831075,-4.22442
 34,2.3413159,-1.1687343,-0.0000368,0.0000174\PG=Unknown\\@

 Normal termination of Gaussian 16 at Tue Apr  8 22:35:43 2025.
 Gaussian 16:  ES64L-G16RevC.01  3-Jul-2019

 ----------------------------------------------------------------------
 #t hf aug-cc-pvdz iop(5/13=1,5/36=2,99/5=2) pseudo=read geom=check gue
 ss=(read,tcheck) scf=(maxcycle=1)
 ----------------------------------------------------------------------
 -----
 title
 -----
 Structure from the checkpoint file:  "BDE49_expt_1103_mol1.chk"
 Charge =  0 Multiplicity = 1

                         Standard orientation:
 ---------------------------------------------------------------------
 Center     Atomic      Atomic             Coordinates (Angstroms)
 Number     Number       Type             X           Y           Z
 ---------------------------------------------------------------------
      1          6           0        0.558179    0.544434    0.000334
      2          6           0       -0.558166   -0.544419    0.000377
      3          8           0        0.365259    1.706819    0.000731
      4          8           0       -0.365262   -1.706810    0.000758
      5         17           0        2.176973   -0.184037   -0.000406
      6         17           0       -2.176977    0.184027   -0.000545
 ---------------------------------------------------------------------

 SCF Done:  E(RHF) =  -1144.84519029     A.U. after    2 cycles

 The electronic state is 1-A.
 Alpha  occ. eigenvalues -- -105.61607-105.61607 -20.63302 -20.63298 -11.46537
 Alpha  occ. eigenvalues --  -11.46516 -10.66442 -10.66441  -7.83385  -7.83377
 Alpha  occ. eigenvalues --   -7.82975  -7.82973  -7.82945  -7.82944  -1.58402
 Alpha  occ. eigenvalues --   -1.57484  -1.14400  -1.12980  -0.95702  -0.79240
 Alpha  occ. eigenvalues --   -0.75587  -0.73020  -0.68207  -0.67317  -0.60657
 Alpha  occ. eigenvalues --   -0.56038  -0.52007  -0.51016  -0.50127  -0.50039
 Alpha  occ. eigenvalues --   -0.46872
 Alpha virt. eigenvalues --    0.01433   0.06172   0.06814   0.08586   0.10125
 Alpha virt. eigenvalues --    0.10159   0.10844   0.12086   0.12376   0.13119
 Alpha virt. eigenvalues --    0.14167   0.16708   0.16948   0.17622   0.18070

 Mulliken charges:
               1
     1  C    0.878074
     2  C    0.878083
     3  O   -0.931261
     4  O   -0.931271
     5  Cl   0.053192
     6  Cl   0.053183
 Sum of Mulliken charges =  -0.00000

 Dipole moment (field-independent basis, Debye):
    X=              0.0001    Y=              0.0000    Z=             -0.0004  Tot=              0.0004

 Test job not archived.
 1\1\GINC-SE083\SP\RHF\Aug-CC-pVDZ\C2Cl2O2\OHZDE\08-Apr-2025\0\\#t hf a
 ug-cc-pvdz iop(5/13=1,5/36=2,99/5=2) pseudo=read geom=check guess=(rea
 d,tcheck) scf=(maxcycle=1)\\title\\0,1\C,0,-0.558179,-0.544434,0.00033
 4\C,0,0.558166,0.544419,0.000377\O,0,-0.365259,-1.706819,0.000731\O,0,
 0.365262,1.70681,0.000758\Cl,0,-2.176973,0.184037,-0.000406\Cl,0,2.176
 977,-0.184027,-0.000545\\Version=ES64L-G16RevC.01\State=1-A\HF=-1144.8
 451903\RMSD=1.111e-02\Dipole=-0.000037,-0.0000067,-0.0001655\Quadrupol
 e=1.6572813,-3.7651359,2.1078546,-1.0801948,-0.0000388,0.0000192\PG=C0

 Normal termination of Gaussian 16 at Tue Apr  8 22:35:48 2025.
