 Gaussian 16, Revision C.01,

 ----------------------------------------------------------------------
 #t hf aug-cc-pvdz symm=none int=(grid=ultrafine) guess=(read,tcheck) s
 table=(opt,rrhf)
 ----------------------------------------------------------------------
 -----
 title
 -----
 Symbolic Z-matrix:
 Charge =  0 Multiplicity = 1

 SCF Done:  E(RHF) =  -551.332389207     A.U. after   14 cycles
 Normal termination of Gaussian 16 at Tue Apr  8 23:13:10 2025.
 Gaussian 16:  ES64L-G16RevC.01  3-Jul-2019

 ----------------------------------------------------------------------
 #t hf aug-cc-pvdz iop(5/13=1,5/36=2,99/5=2) pseudo=read geom=check gue
 ss=(read,tcheck) scf=(maxcycle=1)
 ----------------------------------------------------------------------
 -----
 title
 -----
 Structure from the checkpoint file:  "BDE49_expt_819_mol1.chk"
 Charge =  0 Multiplicity = 1

                         Standard orientation:
 ---------------------------------------------------------------------
 Center     Atomic      Atomic             Coordinates (Angstroms)
 Number     Number       Type             X           Y           Z
 ---------------------------------------------------------------------
      1         15           0        2.504628   -0.172565   -0.080014
      2          1           0        2.894163   -1.324945    0.650366
      3          6           0        0.707769   -0.151484    0.467869
      4          1           0        2.318125   -0.896010   -1.287733
      5          6           0       -0.111225    0.877235   -0.319356
      6          1           0        0.711851    0.114544    1.530488
      7          1           0        0.261407   -1.143785    0.381492
      8          6           0       -1.574401    0.994688    0.161018
      9          1           0       -0.110093    0.623665   -1.383944
     10          1           0        0.345827    1.867556   -0.230560
     11          6           0       -2.334742   -0.242176   -0.010251
     12          1           0       -2.087407    1.788965   -0.389651
     13          1           0       -1.604129    1.271821    1.219897
     14          7           0       -2.917653   -1.226132   -0.155118
 ---------------------------------------------------------------------

 SCF Done:  E(RHF) =  -551.596287137     A.U. after    2 cycles

 The electronic state is 1-A.
 Alpha  occ. eigenvalues --  -84.27862 -15.51371 -11.29693 -11.28337 -11.27081
 Alpha  occ. eigenvalues --  -11.25828  -6.74921  -4.27515  -4.27276  -4.26592
 Alpha  occ. eigenvalues --   -1.23578  -1.11327  -1.00771  -0.88565  -0.80509
 Alpha  occ. eigenvalues --   -0.72006  -0.65729  -0.63892  -0.60966  -0.59964
 Alpha  occ. eigenvalues --   -0.54904  -0.52876  -0.50544  -0.49412  -0.48796
 Alpha  occ. eigenvalues --   -0.45990  -0.35035
 Alpha virt. eigenvalues --    0.02947   0.03608   0.03977   0.04908   0.05824
 Alpha virt. eigenvalues --    0.06061   0.07051   0.08597   0.08929   0.10110
 Alpha virt. eigenvalues --    0.10821   0.12008   0.13071   0.13464   0.14046

 Mulliken charges:
               1
     1  P   -0.393430
     2  H    0.410336
     3  C   -0.577929
     4  H    0.398337
     5  C   -0.363548
     6  H    0.139866
     7  H    0.173759
     8  C   -0.061453
     9  H    0.162040
    10  H    0.157890
    11  C   -1.376341
    12  H    0.232910
    13  H    0.244850
    14  N    0.852714
 Sum of Mulliken charges =   0.00000

 Dipole moment (field-independent basis, Debye):
    X=              2.0230    Y=              3.4672    Z=              0.6839  Tot=              4.0721

 Test job not archived.
 1\1\GINC-SE361\SP\RHF\Aug-CC-pVDZ\C4H8N1P1\OHZDE\08-Apr-2025\0\\#t hf
 aug-cc-pvdz iop(5/13=1,5/36=2,99/5=2) pseudo=read geom=check guess=(re
 ad,tcheck) scf=(maxcycle=1)\\title\\0,1\P,0,2.504628,-0.172565,-0.0800
 14\H,0,2.894163,-1.324945,0.650366\C,0,0.707769,-0.151484,0.467869\H,0
 ,2.318125,-0.89601,-1.287733\C,0,-0.111225,0.877235,-0.319356\H,0,0.71
 1851,0.114544,1.530488\H,0,0.261407,-1.143785,0.381492\C,0,-1.574401,0
 .994688,0.161018\H,0,-0.110093,0.623665,-1.383944\H,0,0.345827,1.86755
 6,-0.23056\C,0,-2.334742,-0.242176,-0.010251\H,0,-2.087407,1.788965,-0

 Normal termination of Gaussian 16 at Tue Apr  8 23:13:14 2025.
