 Gaussian 16, Revision C.01,

 ----------------------------------------------------------------------
 #t hf aug-cc-pvdz symm=none int=(grid=ultrafine) guess=(read,tcheck) s
 table=opt
 ----------------------------------------------------------------------
 -----
 title
 -----
 Symbolic Z-matrix:
 Charge =  0 Multiplicity = 2

 SCF Done:  E(UHF) =  -1706.49181461     A.U. after   16 cycles
 Normal termination of Gaussian 16 at Tue Apr  8 23:49:26 2025.
 Gaussian 16:  ES64L-G16RevC.01  3-Jul-2019

 ----------------------------------------------------------------------
 #t hf aug-cc-pvdz iop(5/13=1,5/36=2,99/5=2) pseudo=read geom=check gue
 ss=(read,tcheck) scf=(maxcycle=1)
 ----------------------------------------------------------------------
 -----
 title
 -----
 Structure from the checkpoint file:  "BDE49_nonexpt_1821_mol2.chk"
 Charge =  0 Multiplicity = 2

                         Standard orientation:
 ---------------------------------------------------------------------
 Center     Atomic      Atomic             Coordinates (Angstroms)
 Number     Number       Type             X           Y           Z
 ---------------------------------------------------------------------
      1          6           0        0.674699    0.025335   -0.460068
      2         14           0       -0.780140   -0.919219    0.336296
      3         17           0        0.800461    1.714490    0.160637
      4         17           0        2.169250   -0.922877   -0.090138
      5         17           0       -2.564588    0.000800   -0.200721
      6          1           0        0.613021    0.099303   -1.541785
      7          1           0       -0.626347   -0.853282    1.807796
 ---------------------------------------------------------------------

 SCF Done:  E(UHF) =  -1706.78818229     A.U. after    2 cycles

 The electronic state is 2-A.
 Alpha  occ. eigenvalues -- -105.59323-105.58970-105.57740 -69.61608 -11.38016
 Alpha  occ. eigenvalues --  -10.64096 -10.63741 -10.62723  -7.81029  -7.80743
 Alpha  occ. eigenvalues --   -7.80644  -7.80630  -7.80284  -7.80262  -7.79666
 Alpha  occ. eigenvalues --   -7.79330  -7.79262  -6.28263  -4.04044  -4.03310
 Alpha  occ. eigenvalues --   -4.03156  -1.16642  -1.07427  -1.05910  -0.89389
 Alpha  occ. eigenvalues --   -0.75584  -0.65195  -0.60783  -0.59557  -0.55751
 Alpha  occ. eigenvalues --   -0.51722  -0.49692  -0.49227  -0.48180  -0.46567
 Alpha  occ. eigenvalues --   -0.44832  -0.37298
 Alpha virt. eigenvalues --    0.03622   0.04545   0.05154   0.06171   0.07206
 Alpha virt. eigenvalues --    0.07809   0.09329   0.11391   0.12378   0.13133
 Alpha virt. eigenvalues --    0.13626   0.14152   0.15409   0.15826   0.16023

  Beta  occ. eigenvalues -- -105.59326-105.58916-105.57644 -69.61015 -11.37891
  Beta  occ. eigenvalues --  -10.64098 -10.63683 -10.62618  -7.81044  -7.80643
  Beta  occ. eigenvalues --   -7.80629  -7.80577  -7.80231  -7.80203  -7.79481
  Beta  occ. eigenvalues --   -7.79209  -7.79083  -6.27323  -4.02930  -4.02777
  Beta  occ. eigenvalues --   -4.01915  -1.16335  -1.06610  -1.05630  -0.88659
  Beta  occ. eigenvalues --   -0.72670  -0.64308  -0.60320  -0.58627  -0.54342
  Beta  occ. eigenvalues --   -0.50067  -0.49297  -0.48855  -0.47980  -0.46422
  Beta  occ. eigenvalues --   -0.44022
  Beta virt. eigenvalues --    0.00138   0.04075   0.04794   0.05413   0.06625
  Beta virt. eigenvalues --    0.07747   0.07936   0.09440   0.11976   0.12705
  Beta virt. eigenvalues --    0.13863   0.14605   0.14899   0.15812   0.16516

 Mulliken charges and spin densities:
               1          2
     1  C   -0.880504   0.021195
     2  Si   1.330688   0.841459
     3  Cl  -0.037730   0.026128
     4  Cl  -0.029565  -0.009536
     5  Cl  -0.555379   0.039385
     6  H    0.305829  -0.000151
     7  H   -0.133338   0.081520
 Sum of Mulliken charges =  -0.00000   1.00000

 Dipole moment (field-independent basis, Debye):
    X=             -0.1263    Y=             -1.1304    Z=             -0.4475  Tot=              1.2223
                          Isotropic Fermi Contact Couplings
        Atom                 a.u.       MegaHertz       Gauss      10(-4) cm-1
     1  C(13)              0.04412      49.60174      17.69914      16.54536
     2  Si(29)             0.79591    -707.34655    -252.39884    -235.94541
     3  Cl(35)             0.02361      10.35154       3.69369       3.45290
     4  Cl(35)            -0.00068      -0.29598      -0.10561      -0.09873
     5  Cl(35)             0.05741      25.17042       8.98143       8.39595
     6  H(1)              -0.00068      -3.04915      -1.08801      -1.01709
     7  H(1)               0.01774      79.27755      28.28820      26.44415
 --------------------------------------------------------

 Normal termination of Gaussian 16 at Tue Apr  8 23:49:30 2025.
