 Gaussian 16, Revision C.01,

 ----------------------------------------------------------------------
 #t hf aug-cc-pvdz symm=none int=(grid=ultrafine) guess=(read,tcheck) s
 table=(opt,rrhf)
 ----------------------------------------------------------------------
 -----
 title
 -----
 Symbolic Z-matrix:
 Charge =  0 Multiplicity = 1

 SCF Done:  E(RHF) =  -632.926110839     A.U. after   12 cycles

 1\1\GINC-SE332\Stability\RHF\Aug-CC-pVDZ\C6H14S1\OHZDE\08-Apr-2025\0\\
 #t hf aug-cc-pvdz symm=none int=(grid=ultrafine) guess=(read,tcheck) s
 table=(opt,rrhf)\\title\\0,1\S,0,3.609168,-0.26209,-0.085375\C,0,2.009
 596,0.637859,0.041341\H,0,3.488257,-0.966848,1.053134\C,0,0.77045,-0.2
 55246,-0.007943\H,0,2.025175,1.321457,-0.811782\H,0,2.022638,1.250814,
 0.94499\C,0,-0.537407,0.547442,0.026881\H,0,0.793344,-0.95209,0.838197
 \H,0,0.808139,-0.869393,-0.913482\C,0,-1.790162,-0.335508,-0.013343\H,
 0,-0.558188,1.243367,-0.82149\H,0,-0.561368,1.168347,0.931515\C,0,-3.1

 Normal termination of Gaussian 16 at Tue Apr  8 22:46:17 2025.
 Gaussian 16:  ES64L-G16RevC.01  3-Jul-2019

 ----------------------------------------------------------------------
 #t hf aug-cc-pvdz iop(5/13=1,5/36=2,99/5=2) pseudo=read geom=check gue
 ss=(read,tcheck) scf=(maxcycle=1)
 ----------------------------------------------------------------------
 -----
 title
 -----
 Structure from the checkpoint file:  "BDE49_expt_1556_mol1.chk"
 Charge =  0 Multiplicity = 1

                         Standard orientation:
 ---------------------------------------------------------------------
 Center     Atomic      Atomic             Coordinates (Angstroms)
 Number     Number       Type             X           Y           Z
 ---------------------------------------------------------------------
      1         16           0        3.609168   -0.262090   -0.085375
      2          6           0        2.009596    0.637859    0.041341
      3          1           0        3.488257   -0.966848    1.053134
      4          6           0        0.770450   -0.255246   -0.007943
      5          1           0        2.025175    1.321457   -0.811782
      6          1           0        2.022638    1.250814    0.944990
      7          6           0       -0.537407    0.547442    0.026881
      8          1           0        0.793344   -0.952090    0.838197
      9          1           0        0.808139   -0.869393   -0.913482
     10          6           0       -1.790162   -0.335508   -0.013343
     11          1           0       -0.558188    1.243367   -0.821490
     12          1           0       -0.561368    1.168347    0.931515
     13          6           0       -3.101055    0.458744    0.016749
     14          1           0       -1.770238   -1.031414    0.835231
     15          1           0       -1.765485   -0.957830   -0.916984
     16          6           0       -4.347345   -0.430173   -0.023590
     17          1           0       -3.120791    1.153811   -0.831330
     18          1           0       -3.125154    1.080680    0.919766
     19          1           0       -4.369555   -1.039104   -0.932731
     20          1           0       -5.263731    0.165778   -0.001069
     21          1           0       -4.374184   -1.112851    0.831463
 ---------------------------------------------------------------------

 SCF Done:  E(RHF) =  -633.251452391     A.U. after    2 cycles

 The electronic state is 1-A.
 Alpha  occ. eigenvalues --  -93.94442 -11.27016 -11.23697 -11.23263 -11.22948
 Alpha  occ. eigenvalues --  -11.22900 -11.22436  -8.22497  -6.20351  -6.20203
 Alpha  occ. eigenvalues --   -6.19982  -1.10602  -1.06719  -1.00905  -0.93766
 Alpha  occ. eigenvalues --   -0.85934  -0.80898  -0.79642  -0.67057  -0.63553
 Alpha  occ. eigenvalues --   -0.60532  -0.58912  -0.58248  -0.56013  -0.53782
 Alpha  occ. eigenvalues --   -0.52097  -0.49987  -0.48894  -0.48337  -0.47579
 Alpha  occ. eigenvalues --   -0.47127  -0.44134  -0.36055
 Alpha virt. eigenvalues --    0.03254   0.03392   0.03583   0.04138   0.05256
 Alpha virt. eigenvalues --    0.05731   0.05923   0.06497   0.07655   0.08456
 Alpha virt. eigenvalues --    0.08720   0.09582   0.10228   0.10558   0.11998

 Mulliken charges:
               1
     1  S    0.099283
     2  C   -0.743383
     3  H    0.298027
     4  C   -0.216051
     5  H    0.194297
     6  H    0.146760
     7  C   -0.250904
     8  H    0.139865
     9  H    0.166793
    10  C   -0.302819
    11  H    0.104816
    12  H    0.099710
    13  C   -0.207945
    14  H    0.104547
    15  H    0.104813
    16  C   -0.416755
    17  H    0.118849
    18  H    0.119271
    19  H    0.163239
    20  H    0.115275
    21  H    0.162310
 Sum of Mulliken charges =  -0.00000

 Dipole moment (field-independent basis, Debye):
    X=             -1.8523    Y=              0.3621    Z=              0.7610  Tot=              2.0350

 Test job not archived.
 1\1\GINC-SE332\SP\RHF\Aug-CC-pVDZ\C6H14S1\OHZDE\08-Apr-2025\0\\#t hf a
 ug-cc-pvdz iop(5/13=1,5/36=2,99/5=2) pseudo=read geom=check guess=(rea
 d,tcheck) scf=(maxcycle=1)\\title\\0,1\S,0,3.609168,-0.26209,-0.085375
 \C,0,2.009596,0.637859,0.041341\H,0,3.488257,-0.966848,1.053134\C,0,0.
 77045,-0.255246,-0.007943\H,0,2.025175,1.321457,-0.811782\H,0,2.022638
 ,1.250814,0.94499\C,0,-0.537407,0.547442,0.026881\H,0,0.793344,-0.9520
 9,0.838197\H,0,0.808139,-0.869393,-0.913482\C,0,-1.790162,-0.335508,-0
 .013343\H,0,-0.558188,1.243367,-0.82149\H,0,-0.561368,1.168347,0.93151

 Normal termination of Gaussian 16 at Tue Apr  8 22:46:25 2025.
