 Gaussian 16, Revision C.01,

 ----------------------------------------------------------------------
 #t hf aug-cc-pvdz symm=none int=(grid=ultrafine) guess=(read,tcheck) s
 table=(opt,rrhf)
 ----------------------------------------------------------------------
 -----
 title
 -----
 Symbolic Z-matrix:
 Charge =  0 Multiplicity = 1

 SCF Done:  E(RHF) =  -254.378030731     A.U. after   12 cycles
 Normal termination of Gaussian 16 at Wed Apr  9 00:39:54 2025.
 Gaussian 16:  ES64L-G16RevC.01  3-Jul-2019

 ----------------------------------------------------------------------
 #t hf aug-cc-pvdz iop(5/13=1,5/36=2,99/5=2) pseudo=read geom=check gue
 ss=(read,tcheck) scf=(maxcycle=1)
 ----------------------------------------------------------------------
 -----
 title
 -----
 Structure from the checkpoint file:  "BDE49_nonexpt_642_mol1.chk"
 Charge =  0 Multiplicity = 1

                         Standard orientation:
 ---------------------------------------------------------------------
 Center     Atomic      Atomic             Coordinates (Angstroms)
 Number     Number       Type             X           Y           Z
 ---------------------------------------------------------------------
      1          5           0       -0.631956    0.027185    0.000065
      2          6           0        0.727980   -0.796267    0.000022
      3          6           0        2.023111    0.031039   -0.000005
      4          1           0        2.088933    0.673545    0.884586
      5          1           0        2.088893    0.673553   -0.884594
      6          1           0        2.913716   -0.602468   -0.000028
      7          8           0       -0.684072    1.391777   -0.000017
      8          1           0        0.184700    1.799804   -0.000038
      9          8           0       -1.852035   -0.592329   -0.000026
     10          1           0       -1.783427   -1.549537   -0.000050
     11          1           0        0.724618   -1.467518   -0.869838
     12          1           0        0.724656   -1.467521    0.869877
 ---------------------------------------------------------------------

 SCF Done:  E(RHF) =  -254.643580552     A.U. after    2 cycles

 The electronic state is 1-A.
 Alpha  occ. eigenvalues --  -20.54879 -20.54789 -11.23956 -11.22090  -7.63057
 Alpha  occ. eigenvalues --   -1.47111  -1.43251  -1.03433  -0.86411  -0.78394
 Alpha  occ. eigenvalues --   -0.65954  -0.65027  -0.62369  -0.59428  -0.55556
 Alpha  occ. eigenvalues --   -0.55456  -0.51698  -0.50409  -0.48135  -0.45476
 Alpha virt. eigenvalues --    0.03223   0.03627   0.04115   0.04569   0.06993
 Alpha virt. eigenvalues --    0.07128   0.07363   0.08046   0.08556   0.10467
 Alpha virt. eigenvalues --    0.11669   0.13782   0.15002   0.15372   0.16928

 Mulliken charges:
               1
     1  B    1.956384
     2  C   -0.259578
     3  C   -0.491079
     4  H    0.131913
     5  H    0.131911
     6  H    0.065280
     7  O   -1.293334
     8  H    0.578633
     9  O   -1.445597
    10  H    0.480845
    11  H    0.072293
    12  H    0.072328
 Sum of Mulliken charges =   0.00000

 Dipole moment (field-independent basis, Debye):
    X=              2.5948    Y=             -1.5833    Z=              0.0001  Tot=              3.0398

 Test job not archived.
 1\1\GINC-SE073\SP\RHF\Aug-CC-pVDZ\C2H7B1O2\OHZDE\09-Apr-2025\0\\#t hf
 aug-cc-pvdz iop(5/13=1,5/36=2,99/5=2) pseudo=read geom=check guess=(re
 ad,tcheck) scf=(maxcycle=1)\\title\\0,1\B,0,-0.631956,0.027185,0.00006
 5\C,0,0.72798,-0.796267,0.000022\C,0,2.023111,0.031039,-0.000005\H,0,2
 .088933,0.673545,0.884586\H,0,2.088893,0.673553,-0.884594\H,0,2.913716
 ,-0.602468,-0.000028\O,0,-0.684072,1.391777,-0.000017\H,0,0.1847,1.799
 804,-0.000038\O,0,-1.852035,-0.592329,-0.000026\H,0,-1.783427,-1.54953
 7,-0.00005\H,0,0.724618,-1.467518,-0.869838\H,0,0.724656,-1.467521,0.8

 Normal termination of Gaussian 16 at Wed Apr  9 00:39:58 2025.
