 Gaussian 16, Revision C.01,

 ----------------------------------------------------------------------
 #t hf aug-cc-pvdz symm=none int=(grid=ultrafine) guess=(read,tcheck) s
 table=(opt,rrhf)
 ----------------------------------------------------------------------
 -----
 title
 -----
 Symbolic Z-matrix:
 Charge =  0 Multiplicity = 1

 SCF Done:  E(RHF) =  -517.613151283     A.U. after   12 cycles
 Normal termination of Gaussian 16 at Wed Apr  9 00:43:52 2025.
 Gaussian 16:  ES64L-G16RevC.01  3-Jul-2019

 ----------------------------------------------------------------------
 #t hf aug-cc-pvdz iop(5/13=1,5/36=2,99/5=2) pseudo=read geom=check gue
 ss=(read,tcheck) scf=(maxcycle=1)
 ----------------------------------------------------------------------
 -----
 title
 -----
 Structure from the checkpoint file:  "BDE49_nonexpt_748_mol1.chk"
 Charge =  0 Multiplicity = 1

                         Standard orientation:
 ---------------------------------------------------------------------
 Center     Atomic      Atomic             Coordinates (Angstroms)
 Number     Number       Type             X           Y           Z
 ---------------------------------------------------------------------
      1         15           0        1.415948   -0.000000   -0.119949
      2          5           0       -0.545805    0.000000    0.013132
      3          8           0       -1.270573   -1.152979    0.003672
      4          8           0       -1.270573    1.152979    0.003672
      5          1           0       -0.739270    1.951340    0.021619
      6          1           0       -0.739270   -1.951340    0.021618
      7          1           0        1.648754   -1.040552    0.815789
      8          1           0        1.648754    1.040554    0.815787
 ---------------------------------------------------------------------

 SCF Done:  E(RHF) =  -517.833580643     A.U. after    2 cycles

 The electronic state is 1-A.
 Alpha  occ. eigenvalues --  -84.26871 -20.56609 -20.56609  -7.66553  -6.74215
 Alpha  occ. eigenvalues --   -4.26617  -4.26596  -4.25897  -1.48946  -1.45088
 Alpha  occ. eigenvalues --   -0.87795  -0.80443  -0.68130  -0.62736  -0.60043
 Alpha  occ. eigenvalues --   -0.57923  -0.51058  -0.49931  -0.44720  -0.35340
 Alpha virt. eigenvalues --    0.03168   0.04569   0.05426   0.05700   0.07349
 Alpha virt. eigenvalues --    0.07661   0.09781   0.10036   0.10286   0.10674
 Alpha virt. eigenvalues --    0.13650   0.16172   0.17884   0.18810   0.20484

 Mulliken charges:
               1
     1  P   -1.189314
     2  B    1.716561
     3  O   -1.128397
     4  O   -1.128396
     5  H    0.578003
     6  H    0.578003
     7  H    0.286770
     8  H    0.286770
 Sum of Mulliken charges =  -0.00000

 Dipole moment (field-independent basis, Debye):
    X=              1.9481    Y=             -0.0000    Z=              0.4537  Tot=              2.0003

 Test job not archived.
 1\1\GINC-SE332\SP\RHF\Aug-CC-pVDZ\B1H4O2P1\OHZDE\09-Apr-2025\0\\#t hf
 aug-cc-pvdz iop(5/13=1,5/36=2,99/5=2) pseudo=read geom=check guess=(re
 ad,tcheck) scf=(maxcycle=1)\\title\\0,1\P,0,1.415948,0.,-0.119949\B,0,
 -0.545805,0.,0.013132\O,0,-1.270573,-1.152979,0.003672\O,0,-1.270573,1
 .152979,0.003672\H,0,-0.73927,1.95134,0.021619\H,0,-0.73927,-1.95134,0
 .021618\H,0,1.648754,-1.040552,0.815789\H,0,1.648754,1.040554,0.815787
 \\Version=ES64L-G16RevC.01\State=1-A\HF=-517.8335806\RMSD=2.458e-02\Di
 pole=0.7664574,0.,0.178502\Quadrupole=-5.3210472,5.943745,-0.6226978,0

 Normal termination of Gaussian 16 at Wed Apr  9 00:43:54 2025.
