 Gaussian 16, Revision C.01,

 ----------------------------------------------------------------------
 #t hf aug-cc-pvdz symm=none int=(grid=ultrafine) guess=(read,tcheck) s
 table=(opt,rrhf)
 ----------------------------------------------------------------------
 -----
 title
 -----
 Symbolic Z-matrix:
 Charge =  0 Multiplicity = 1

 SCF Done:  E(RHF) =  -1707.18021360     A.U. after   12 cycles
 Normal termination of Gaussian 16 at Tue Apr  8 23:49:25 2025.
 Gaussian 16:  ES64L-G16RevC.01  3-Jul-2019

 ----------------------------------------------------------------------
 #t hf aug-cc-pvdz iop(5/13=1,5/36=2,99/5=2) pseudo=read geom=check gue
 ss=(read,tcheck) scf=(maxcycle=1)
 ----------------------------------------------------------------------
 -----
 title
 -----
 Structure from the checkpoint file:  "BDE49_nonexpt_1851_mol1.chk"
 Charge =  0 Multiplicity = 1

                         Standard orientation:
 ---------------------------------------------------------------------
 Center     Atomic      Atomic             Coordinates (Angstroms)
 Number     Number       Type             X           Y           Z
 ---------------------------------------------------------------------
      1          6           0        0.974849   -0.944230   -0.497167
      2         14           0       -0.407660   -0.070389    0.419837
      3         17           0       -2.174217   -1.026492   -0.083411
      4         17           0       -0.508067    1.903979   -0.156751
      5          1           0       -0.240994   -0.128896    1.875366
      6         17           0        2.577965   -0.313998    0.069449
      7          1           0        0.917160   -0.784149   -1.573273
      8          1           0        0.955395   -2.015450   -0.294695
 ---------------------------------------------------------------------

 SCF Done:  E(RHF) =  -1707.48642750     A.U. after    2 cycles

 The electronic state is 1-A.
 Alpha  occ. eigenvalues -- -105.58000-105.57905-105.57802 -69.63993 -11.31762
 Alpha  occ. eigenvalues --  -10.63018 -10.62831 -10.62646  -7.79901  -7.79720
 Alpha  occ. eigenvalues --   -7.79591  -7.79587  -7.79582  -7.79395  -7.79392
 Alpha  occ. eigenvalues --   -7.79210  -7.79198  -6.30225  -4.05648  -4.05538
 Alpha  occ. eigenvalues --   -4.05419  -1.12106  -1.08779  -1.05847  -0.92480
 Alpha  occ. eigenvalues --   -0.74010  -0.65572  -0.60572  -0.57969  -0.56875
 Alpha  occ. eigenvalues --   -0.55839  -0.50370  -0.49489  -0.48328  -0.47881
 Alpha  occ. eigenvalues --   -0.46465  -0.44369
 Alpha virt. eigenvalues --    0.03579   0.04661   0.05100   0.05513   0.07095
 Alpha virt. eigenvalues --    0.08100   0.09136   0.10819   0.11704   0.13027
 Alpha virt. eigenvalues --    0.13915   0.14317   0.14927   0.15850   0.15951

 Mulliken charges:
               1
     1  C   -0.781125
     2  Si   1.754553
     3  Cl  -0.547449
     4  Cl  -0.541586
     5  H   -0.118118
     6  Cl  -0.148393
     7  H    0.209470
     8  H    0.172648
 Sum of Mulliken charges =   0.00000

 Dipole moment (field-independent basis, Debye):
    X=             -0.0840    Y=             -1.4313    Z=             -0.1157  Tot=              1.4385

 Test job not archived.
 1\1\GINC-SE361\SP\RHF\Aug-CC-pVDZ\C1H3Cl3Si1\OHZDE\08-Apr-2025\0\\#t h
 f aug-cc-pvdz iop(5/13=1,5/36=2,99/5=2) pseudo=read geom=check guess=(
 read,tcheck) scf=(maxcycle=1)\\title\\0,1\C,0,0.974849,-0.94423,-0.497
 167\Si,0,-0.40766,-0.070389,0.419837\Cl,0,-2.174217,-1.026492,-0.08341
 1\Cl,0,-0.508067,1.903979,-0.156751\H,0,-0.240994,-0.128896,1.875366\C
 l,0,2.577965,-0.313998,0.069449\H,0,0.91716,-0.784149,-1.573273\H,0,0.
 955395,-2.01545,-0.294695\\Version=ES64L-G16RevC.01\State=1-A\HF=-1707
 .4864275\RMSD=4.311e-03\Dipole=-0.0330484,-0.5631364,-0.0455065\Quadru

 Normal termination of Gaussian 16 at Tue Apr  8 23:49:28 2025.
