 Gaussian 16, Revision C.01,

 ----------------------------------------------------------------------
 #t hf aug-cc-pvdz symm=none int=(grid=ultrafine) guess=(read,tcheck) s
 table=(opt,rrhf)
 ----------------------------------------------------------------------
 -----
 title
 -----
 Symbolic Z-matrix:
 Charge =  0 Multiplicity = 1

 SCF Done:  E(RHF) =  -532.579666463     A.U. after   14 cycles

 1\1\GINC-SE097\Stability\RHF\Aug-CC-pVDZ\C6H10O4\OHZDE\08-Apr-2025\0\\
 #t hf aug-cc-pvdz symm=none int=(grid=ultrafine) guess=(read,tcheck) s
 table=(opt,rrhf)\\title\\0,1\C,0,-1.250194,0.372925,-0.043265\O,0,-1.9
 78428,0.844436,-0.876666\O,0,-1.46403,-0.813417,0.55903\C,0,-2.631246,
 -1.536227,0.125066\C,0,0.012095,1.032622,0.506613\C,0,1.191827,0.06654
 9,0.486192\O,0,1.896553,-0.188858,1.426971\O,0,1.374378,-0.439254,-0.7
 51211\C,0,2.476495,-1.35381,-0.897091\H,0,-2.640615,-2.451577,0.712075
 \H,0,-2.563715,-1.761787,-0.940144\H,0,-3.532881,-0.950647,0.309957\H,

 Normal termination of Gaussian 16 at Tue Apr  8 23:04:18 2025.
 Gaussian 16:  ES64L-G16RevC.01  3-Jul-2019

 ----------------------------------------------------------------------
 #t hf aug-cc-pvdz iop(5/13=1,5/36=2,99/5=2) pseudo=read geom=check gue
 ss=(read,tcheck) scf=(maxcycle=1)
 ----------------------------------------------------------------------
 -----
 title
 -----
 Structure from the checkpoint file:  "BDE49_expt_274_mol1.chk"
 Charge =  0 Multiplicity = 1

                         Standard orientation:
 ---------------------------------------------------------------------
 Center     Atomic      Atomic             Coordinates (Angstroms)
 Number     Number       Type             X           Y           Z
 ---------------------------------------------------------------------
      1          6           0       -1.250194    0.372925   -0.043265
      2          8           0       -1.978428    0.844436   -0.876666
      3          8           0       -1.464030   -0.813417    0.559030
      4          6           0       -2.631246   -1.536227    0.125066
      5          6           0        0.012095    1.032622    0.506613
      6          6           0        1.191827    0.066549    0.486192
      7          8           0        1.896553   -0.188858    1.426971
      8          8           0        1.374378   -0.439254   -0.751211
      9          6           0        2.476495   -1.353810   -0.897091
     10          1           0       -2.640615   -2.451577    0.712075
     11          1           0       -2.563715   -1.761787   -0.940144
     12          1           0       -3.532881   -0.950647    0.309957
     13          1           0        2.469618   -1.652783   -1.942677
     14          1           0        2.339503   -2.219383   -0.247412
     15          1           0        3.416376   -0.861782   -0.642995
     16          6           0        0.336592    2.330845   -0.243169
     17          1           0       -0.168102    1.239575    1.564683
     18          1           0        0.534699    2.127215   -1.295694
     19          1           0        1.212255    2.812830    0.196599
     20          1           0       -0.508332    3.017652   -0.185455
 ---------------------------------------------------------------------

 SCF Done:  E(RHF) =  -533.114780802     A.U. after    2 cycles

 The electronic state is 1-A.
 Alpha  occ. eigenvalues --  -20.59769 -20.59729 -20.54426 -20.54294 -11.39859
 Alpha  occ. eigenvalues --  -11.39804 -11.30230 -11.30192 -11.27804 -11.24389
 Alpha  occ. eigenvalues --   -1.55435  -1.54724  -1.46018  -1.45875  -1.10680
 Alpha  occ. eigenvalues --   -0.98809  -0.98070  -0.90267  -0.81653  -0.77902
 Alpha  occ. eigenvalues --   -0.74394  -0.70910  -0.69312  -0.68186  -0.66867
 Alpha  occ. eigenvalues --   -0.66273  -0.61590  -0.60535  -0.58018  -0.55844
 Alpha  occ. eigenvalues --   -0.55488  -0.54804  -0.53108  -0.52922  -0.52231
 Alpha  occ. eigenvalues --   -0.46491  -0.46272  -0.46049  -0.43528
 Alpha virt. eigenvalues --    0.03345   0.03750   0.03960   0.04655   0.05440
 Alpha virt. eigenvalues --    0.05741   0.06339   0.06638   0.07563   0.08147
 Alpha virt. eigenvalues --    0.10108   0.11353   0.12135   0.13240   0.13961

 Mulliken charges:
               1
     1  C    2.473463
     2  O   -1.261537
     3  O   -1.390424
     4  C    0.240911
     5  C   -1.117294
     6  C    2.204653
     7  O   -1.321842
     8  O   -1.360741
     9  C    0.238135
    10  H    0.019915
    11  H    0.179903
    12  H    0.155905
    13  H    0.013201
    14  H    0.161433
    15  H    0.156258
    16  C   -0.177217
    17  H    0.228594
    18  H    0.243189
    19  H    0.163560
    20  H    0.149934
 Sum of Mulliken charges =  -0.00000

 Dipole moment (field-independent basis, Debye):
    X=             -0.0498    Y=             -1.1958    Z=             -0.7238  Tot=              1.3987

 Test job not archived.
 1\1\GINC-SE097\SP\RHF\Aug-CC-pVDZ\C6H10O4\OHZDE\08-Apr-2025\0\\#t hf a
 ug-cc-pvdz iop(5/13=1,5/36=2,99/5=2) pseudo=read geom=check guess=(rea
 d,tcheck) scf=(maxcycle=1)\\title\\0,1\C,0,-1.250194,0.372925,-0.04326
 5\O,0,-1.978428,0.844436,-0.876666\O,0,-1.46403,-0.813417,0.55903\C,0,
 -2.631246,-1.536227,0.125066\C,0,0.012095,1.032622,0.506613\C,0,1.1918
 27,0.066549,0.486192\O,0,1.896553,-0.188858,1.426971\O,0,1.374378,-0.4
 39254,-0.751211\C,0,2.476495,-1.35381,-0.897091\H,0,-2.640615,-2.45157
 7,0.712075\H,0,-2.563715,-1.761787,-0.940144\H,0,-3.532881,-0.950647,0

 Normal termination of Gaussian 16 at Tue Apr  8 23:04:29 2025.
