 Gaussian 16, Revision C.01,

 ----------------------------------------------------------------------
 #t hf aug-cc-pvdz symm=none int=(grid=ultrafine) guess=(read,tcheck) s
 table=(opt,rrhf)
 ----------------------------------------------------------------------
 -----
 title
 -----
 Symbolic Z-matrix:
 Charge =  0 Multiplicity = 1

 SCF Done:  E(RHF) =  -826.620827670     A.U. after   12 cycles
 Normal termination of Gaussian 16 at Tue Apr  8 23:42:05 2025.
 Gaussian 16:  ES64L-G16RevC.01  3-Jul-2019

 ----------------------------------------------------------------------
 #t hf aug-cc-pvdz iop(5/13=1,5/36=2,99/5=2) pseudo=read geom=check gue
 ss=(read,tcheck) scf=(maxcycle=1)
 ----------------------------------------------------------------------
 -----
 title
 -----
 Structure from the checkpoint file:  "BDE49_nonexpt_1657_mol1.chk"
 Charge =  0 Multiplicity = 1

                         Standard orientation:
 ---------------------------------------------------------------------
 Center     Atomic      Atomic             Coordinates (Angstroms)
 Number     Number       Type             X           Y           Z
 ---------------------------------------------------------------------
      1         14           0       -0.661256    0.017516    0.846847
      2          6           0        0.468428   -1.484378    0.646990
      3          6           0        1.458831   -1.302426   -0.526245
      4          6           0        2.292886   -0.011408   -0.443230
      5          6           0        1.474294    1.287767   -0.549249
      6          6           0        0.486577    1.502108    0.619463
      7         15           0       -2.397849   -0.111150   -0.639540
      8          1           0       -0.110852   -2.404789    0.524195
      9          1           0        1.032058   -1.599914    1.581957
     10          1           0        0.910913   -1.309295   -1.477039
     11          1           0        2.136821   -2.162173   -0.565663
     12          1           0        3.039594   -0.023019   -1.244278
     13          1           0        2.856673   -0.006758    0.499313
     14          1           0        0.925067    1.283773   -1.499190
     15          1           0        2.162166    2.138785   -0.604489
     16          1           0        1.050528    1.624848    1.554018
     17          1           0       -0.081669    2.426951    0.480600
     18          1           0       -1.633960    0.250194   -1.781125
     19          1           0       -2.843888    1.216941   -0.404578
     20          1           0       -1.304219    0.036505    2.187147
 ---------------------------------------------------------------------

 SCF Done:  E(RHF) =  -826.919207688     A.U. after    2 cycles

 The electronic state is 1-A.
 Alpha  occ. eigenvalues --  -84.25575 -69.52354 -11.23542 -11.23533 -11.23052
 Alpha  occ. eigenvalues --  -11.21890 -11.21764  -6.72826  -6.19410  -4.25246
 Alpha  occ. eigenvalues --   -4.25081  -4.24577  -3.94737  -3.94703  -3.94674
 Alpha  occ. eigenvalues --   -1.09241  -1.00622  -0.94241  -0.85311  -0.83235
 Alpha  occ. eigenvalues --   -0.78379  -0.67749  -0.63712  -0.60764  -0.60417
 Alpha  occ. eigenvalues --   -0.56310  -0.54748  -0.51379  -0.50947  -0.49462
 Alpha  occ. eigenvalues --   -0.48779  -0.47283  -0.43779  -0.42391  -0.40091
 Alpha  occ. eigenvalues --   -0.33452
 Alpha virt. eigenvalues --    0.03373   0.03651   0.03702   0.04000   0.05767
 Alpha virt. eigenvalues --    0.05836   0.06054   0.06357   0.06633   0.08716
 Alpha virt. eigenvalues --    0.08797   0.09129   0.09586   0.10293   0.10535

 Mulliken charges:
               1
     1  Si   1.531777
     2  C   -0.406222
     3  C   -0.314136
     4  C   -0.272922
     5  C   -0.338266
     6  C   -0.385703
     7  P   -1.247514
     8  H    0.039712
     9  H    0.054019
    10  H    0.163588
    11  H    0.103732
    12  H    0.109201
    13  H    0.173481
    14  H    0.145895
    15  H    0.104729
    16  H    0.025626
    17  H    0.043850
    18  H    0.379521
    19  H    0.364805
    20  H   -0.275174
 Sum of Mulliken charges =  -0.00000

 Dipole moment (field-independent basis, Debye):
    X=              1.2828    Y=              0.3304    Z=             -0.0264  Tot=              1.3249

 Test job not archived.
 1\1\GINC-SE331\SP\RHF\Aug-CC-pVDZ\C5H13P1Si1\OHZDE\08-Apr-2025\0\\#t h
 f aug-cc-pvdz iop(5/13=1,5/36=2,99/5=2) pseudo=read geom=check guess=(
 read,tcheck) scf=(maxcycle=1)\\title\\0,1\Si,0,-0.661256,0.017516,0.84
 6847\C,0,0.468428,-1.484378,0.64699\C,0,1.458831,-1.302426,-0.526245\C
 ,0,2.292886,-0.011408,-0.44323\C,0,1.474294,1.287767,-0.549249\C,0,0.4
 86577,1.502108,0.619463\P,0,-2.397849,-0.11115,-0.63954\H,0,-0.110852,
 -2.404789,0.524195\H,0,1.032058,-1.599914,1.581957\H,0,0.910913,-1.309
 295,-1.477039\H,0,2.136821,-2.162173,-0.565663\H,0,3.039594,-0.023019,

 Normal termination of Gaussian 16 at Tue Apr  8 23:42:15 2025.
