 Gaussian 16, Revision C.01,

 ----------------------------------------------------------------------
 #t hf aug-cc-pvdz symm=none int=(grid=ultrafine) guess=(read,tcheck) s
 table=(opt,rrhf)
 ----------------------------------------------------------------------
 -----
 title
 -----
 Symbolic Z-matrix:
 Charge =  0 Multiplicity = 1

 SCF Done:  E(RHF) =  -1283.99325188     A.U. after   14 cycles
 Normal termination of Gaussian 16 at Tue Apr  8 23:16:49 2025.
 Gaussian 16:  ES64L-G16RevC.01  3-Jul-2019

 ----------------------------------------------------------------------
 #t hf aug-cc-pvdz iop(5/13=1,5/36=2,99/5=2) pseudo=read geom=check gue
 ss=(read,tcheck) scf=(maxcycle=1)
 ----------------------------------------------------------------------
 -----
 title
 -----
 Structure from the checkpoint file:  "BDE49_nonexpt_1026_mol1.chk"
 Charge =  0 Multiplicity = 1

                         Standard orientation:
 ---------------------------------------------------------------------
 Center     Atomic      Atomic             Coordinates (Angstroms)
 Number     Number       Type             X           Y           Z
 ---------------------------------------------------------------------
      1         17           0        1.942223   -0.526771    0.107138
      2          8           0        0.908707    0.682260   -0.561947
      3         14           0       -0.564311    0.899645    0.196525
      4         17           0       -1.816969   -0.719968   -0.070010
      5          1           0       -0.394248    1.085927    1.643395
      6          1           0       -1.104376    2.055526   -0.530350
 ---------------------------------------------------------------------

 SCF Done:  E(RHF) =  -1284.24898590     A.U. after    2 cycles

 The electronic state is 1-A.
 Alpha  occ. eigenvalues -- -105.64080-105.57217 -69.62788 -20.62928 -10.68246
 Alpha  occ. eigenvalues --  -10.62269  -7.85235  -7.84679  -7.84655  -7.79151
 Alpha  occ. eigenvalues --   -7.78839  -7.78827  -6.29036  -4.04514  -4.04392
 Alpha  occ. eigenvalues --   -4.04279  -1.47950  -1.07092  -1.04017  -0.76786
 Alpha  occ. eigenvalues --   -0.64007  -0.63349  -0.63012  -0.54331  -0.54100
 Alpha  occ. eigenvalues --   -0.49156  -0.47810  -0.46925  -0.46033
 Alpha virt. eigenvalues --    0.04329   0.04579   0.05352   0.05524   0.06323
 Alpha virt. eigenvalues --    0.09394   0.10640   0.13227   0.14313   0.15007
 Alpha virt. eigenvalues --    0.15731   0.15998   0.16539   0.17685   0.18881

 Mulliken charges:
               1
     1  Cl   0.352965
     2  O   -1.264732
     3  Si   1.779642
     4  Cl  -0.521692
     5  H   -0.168364
     6  H   -0.177819
 Sum of Mulliken charges =  -0.00000

 Dipole moment (field-independent basis, Debye):
    X=             -0.1878    Y=              1.1986    Z=              0.8669  Tot=              1.4911

 Test job not archived.
 1\1\GINC-SE184\SP\RHF\Aug-CC-pVDZ\Cl2H2O1Si1\OHZDE\08-Apr-2025\0\\#t h
 f aug-cc-pvdz iop(5/13=1,5/36=2,99/5=2) pseudo=read geom=check guess=(
 read,tcheck) scf=(maxcycle=1)\\title\\0,1\Cl,0,1.942223,-0.526771,0.10
 7138\O,0,0.908707,0.68226,-0.561947\Si,0,-0.564311,0.899645,0.196525\C
 l,0,-1.816969,-0.719968,-0.07001\H,0,-0.394248,1.085927,1.643395\H,0,-
 1.104376,2.055526,-0.53035\\Version=ES64L-G16RevC.01\State=1-A\HF=-128
 4.2489859\RMSD=3.796e-03\Dipole=-0.0738745,0.4715678,0.3410834\Quadrup
 ole=-1.0641905,1.3455166,-0.2813261,-2.1638055,0.5230089,0.3951985\PG=

 Normal termination of Gaussian 16 at Tue Apr  8 23:16:51 2025.
