 Gaussian 16, Revision C.01,

 ----------------------------------------------------------------------
 #t hf aug-cc-pvdz symm=none int=(grid=ultrafine) guess=(read,tcheck) s
 table=opt
 ----------------------------------------------------------------------
 -----
 title
 -----
 Symbolic Z-matrix:
 Charge =  0 Multiplicity = 2

 SCF Done:  E(UHF) =  -430.573996270     A.U. after   18 cycles
 Normal termination of Gaussian 16 at Wed Apr  9 00:35:05 2025.
 Gaussian 16:  ES64L-G16RevC.01  3-Jul-2019

 ----------------------------------------------------------------------
 #t hf aug-cc-pvdz iop(5/13=1,5/36=2,99/5=2) pseudo=read geom=check gue
 ss=(read,tcheck) scf=(maxcycle=1)
 ----------------------------------------------------------------------
 -----
 title
 -----
 Structure from the checkpoint file:  "BDE49_nonexpt_416_mol2.chk"
 Charge =  0 Multiplicity = 2

                         Standard orientation:
 ---------------------------------------------------------------------
 Center     Atomic      Atomic             Coordinates (Angstroms)
 Number     Number       Type             X           Y           Z
 ---------------------------------------------------------------------
      1          9           0       -2.522473   -0.252330   -0.589770
      2          5           0       -1.350613   -0.824431   -0.446261
      3          6           0       -0.126700   -0.039973    0.255784
      4          8           0        0.304679    0.789099   -0.822850
      5          8           0        0.908593   -0.878400    0.725651
      6          6           0        1.309767    1.759191   -0.522630
      7          1           0        1.679645    2.118755   -1.482730
      8          1           0        2.134366    1.313868    0.041507
      9          1           0        0.900421    2.605690    0.038879
     10          6           0        1.481254   -1.752410   -0.243473
     11          1           0        2.192147   -2.380371    0.292944
     12          1           0        2.001616   -1.196770   -1.029400
     13          1           0        0.712913   -2.382423   -0.707634
     14          6           0       -0.611673    0.741517    1.478197
     15          1           0       -1.353204    1.485813    1.183836
     16          1           0        0.228527    1.234454    1.971170
     17          1           0       -1.063167    0.058568    2.200996
 ---------------------------------------------------------------------

 SCF Done:  E(UHF) =  -431.002334214     A.U. after    2 cycles

 The electronic state is 2-A.
 Alpha  occ. eigenvalues --  -26.48461 -20.55591 -20.55193 -11.33801 -11.28604
 Alpha  occ. eigenvalues --  -11.28158 -11.23506  -7.68363  -1.61720  -1.49930
 Alpha  occ. eigenvalues --   -1.43491  -1.03966  -0.95414  -0.92725  -0.82934
 Alpha  occ. eigenvalues --   -0.77477  -0.71833  -0.69886  -0.67427  -0.66719
 Alpha  occ. eigenvalues --   -0.66137  -0.62141  -0.60528  -0.59113  -0.56713
 Alpha  occ. eigenvalues --   -0.54186  -0.53191  -0.52609  -0.46874  -0.44439
 Alpha  occ. eigenvalues --   -0.43781  -0.34821
 Alpha virt. eigenvalues --    0.03547   0.03795   0.04005   0.04242   0.05846
 Alpha virt. eigenvalues --    0.06212   0.06238   0.06625   0.07326   0.09393
 Alpha virt. eigenvalues --    0.09692   0.09874   0.10069   0.11336   0.13609

  Beta  occ. eigenvalues --  -26.48144 -20.55602 -20.55234 -11.33429 -11.28596
  Beta  occ. eigenvalues --  -11.28110 -11.23491  -7.66476  -1.60837  -1.49872
  Beta  occ. eigenvalues --   -1.43522  -1.03463  -0.95223  -0.92570  -0.81608
  Beta  occ. eigenvalues --   -0.76514  -0.70252  -0.69387  -0.66768  -0.66222
  Beta  occ. eigenvalues --   -0.65035  -0.61902  -0.60470  -0.58875  -0.56573
  Beta  occ. eigenvalues --   -0.54043  -0.52665  -0.51951  -0.45529  -0.44030
  Beta  occ. eigenvalues --   -0.42973
  Beta virt. eigenvalues --    0.03329   0.03823   0.03890   0.04108   0.05967
  Beta virt. eigenvalues --    0.06134   0.06293   0.06637   0.07328   0.08351
  Beta virt. eigenvalues --    0.09500   0.09827   0.10133   0.11929   0.12794

 Mulliken charges and spin densities:
               1          2
     1  F   -0.598162  -0.045107
     2  B    0.462827   1.038036
     3  C    2.102659   0.025936
     4  O   -1.596351   0.026015
     5  O   -1.527200  -0.001184
     6  C    0.218453   0.005557
     7  H   -0.011002  -0.000370
     8  H    0.186710  -0.000969
     9  H    0.142112   0.000843
    10  C    0.130262   0.005771
    11  H   -0.015143  -0.001309
    12  H    0.193782  -0.001281
    13  H    0.179662  -0.023884
    14  C   -0.337326  -0.026839
    15  H    0.188630  -0.000917
    16  H    0.171763   0.001197
    17  H    0.108325  -0.001496
 Sum of Mulliken charges =  -0.00000   1.00000

 Dipole moment (field-independent basis, Debye):
    X=              1.2516    Y=              0.5613    Z=              0.4082  Tot=              1.4311
                          Isotropic Fermi Contact Couplings
        Atom                 a.u.       MegaHertz       Gauss      10(-4) cm-1
     1  F(19)              0.07120     299.56402     106.89189      99.92380
     2  B(11)              0.32943     472.52409     168.60835     157.61707
     3  C(13)              0.06792      76.35160      27.24415      25.46815
     4  O(17)             -0.00107       0.64786       0.23117       0.21610
     5  O(17)             -0.00037       0.22475       0.08020       0.07497
     6  C(13)              0.00186       2.08819       0.74512       0.69655
     7  H(1)               0.00017       0.75536       0.26953       0.25196
     8  H(1)              -0.00005      -0.23964      -0.08551      -0.07994

 Normal termination of Gaussian 16 at Wed Apr  9 00:35:13 2025.
