 Gaussian 16, Revision C.01,

 ----------------------------------------------------------------------
 #t hf aug-cc-pvdz symm=none int=(grid=ultrafine) guess=(read,tcheck) s
 table=(opt,rrhf)
 ----------------------------------------------------------------------
 -----
 title
 -----
 Symbolic Z-matrix:
 Charge =  0 Multiplicity = 1

 SCF Done:  E(RHF) =  -1073.15298856     A.U. after   20 cycles
 Normal termination of Gaussian 16 at Tue Apr  8 23:19:19 2025.
 Gaussian 16:  ES64L-G16RevC.01  3-Jul-2019

 ----------------------------------------------------------------------
 #t hf aug-cc-pvdz iop(5/13=1,5/36=2,99/5=2) pseudo=read geom=check gue
 ss=(read,tcheck) scf=(maxcycle=1)
 ----------------------------------------------------------------------
 -----
 title
 -----
 Structure from the checkpoint file:  "BDE49_nonexpt_1004_mol1.chk"
 Charge =  0 Multiplicity = 1

                         Standard orientation:
 ---------------------------------------------------------------------
 Center     Atomic      Atomic             Coordinates (Angstroms)
 Number     Number       Type             X           Y           Z
 ---------------------------------------------------------------------
      1          6           0        2.506464   -0.036336    0.011830
      2          6           0        2.001796    1.259898   -0.003518
      3          6           0        0.626151    1.434919   -0.028838
      4          6           0        1.682764   -1.155170    0.002992
      5          6           0        0.306563   -0.966939   -0.021940
      6          6           0       -0.229142    0.324941   -0.038104
      7          1           0        2.684330    2.097963    0.004157
      8          1           0        0.192754    2.426486   -0.041739
      9          1           0        2.123240   -2.141915    0.016823
     10          1           0       -0.347912   -1.829356   -0.025521
     11          6           0       -1.703977    0.599539   -0.067080
     12         16           0       -2.782021   -0.871335   -0.144197
     13          7           0       -4.449888    0.169076    0.187847
     14          8           0       -5.410382   -0.465634    0.158780
     15          8           0       -2.157133    1.712458   -0.051845
     16          7           0        3.977605   -0.232463    0.038664
     17          8           0        4.678263    0.768804    0.045272
     18          8           0        4.392025   -1.382279    0.052270
 ---------------------------------------------------------------------

 SCF Done:  E(RHF) =  -1073.85425161     A.U. after    2 cycles

 The electronic state is 1-A.
 Alpha  occ. eigenvalues --  -94.00147 -20.70481 -20.60489 -20.60464 -20.57748
 Alpha  occ. eigenvalues --  -15.80741 -15.74990 -11.40864 -11.33925 -11.30488
 Alpha  occ. eigenvalues --  -11.29913 -11.29843 -11.29684 -11.29255  -8.28211
 Alpha  occ. eigenvalues --   -6.25932  -6.25816  -6.25589  -1.72074  -1.68490
 Alpha  occ. eigenvalues --   -1.52227  -1.52049  -1.22611  -1.13916  -1.09558
 Alpha  occ. eigenvalues --   -1.07378  -1.02361  -0.96993  -0.89813  -0.88574
 Alpha  occ. eigenvalues --   -0.82289  -0.81709  -0.77002  -0.76411  -0.76008
 Alpha  occ. eigenvalues --   -0.75242  -0.71520  -0.70983  -0.69984  -0.67894
 Alpha  occ. eigenvalues --   -0.65513  -0.62353  -0.61819  -0.60883  -0.55795
 Alpha  occ. eigenvalues --   -0.55197  -0.51222  -0.50208  -0.46417  -0.44153
 Alpha  occ. eigenvalues --   -0.42042  -0.41438  -0.40369  -0.39382
 Alpha virt. eigenvalues --   -0.00700   0.02588   0.02987   0.03290   0.03819
 Alpha virt. eigenvalues --    0.05111   0.06321   0.06968   0.07280   0.07593
 Alpha virt. eigenvalues --    0.08666   0.08792   0.09596   0.11099   0.11308

 Mulliken charges:
               1
     1  C   -0.351303
     2  C    0.508892
     3  C    0.019632
     4  C   -0.274893
     5  C    0.626800
     6  C    1.869725
     7  H   -0.205779
     8  H   -0.346012
     9  H   -0.211557
    10  H   -0.191533
    11  C   -0.260185
    12  S    0.227075
    13  N    0.807901
    14  O   -0.904662
    15  O   -1.362225
    16  N    2.992466
    17  O   -1.476039
    18  O   -1.468301
 Sum of Mulliken charges =   0.00000

 Dipole moment (field-independent basis, Debye):
    X=             -2.6200    Y=             -1.1327    Z=             -0.0482  Tot=              2.8548

 Test job not archived.
 1\1\GINC-SE058\SP\RHF\Aug-CC-pVDZ\C7H4N2O4S1\OHZDE\08-Apr-2025\0\\#t h
 f aug-cc-pvdz iop(5/13=1,5/36=2,99/5=2) pseudo=read geom=check guess=(
 read,tcheck) scf=(maxcycle=1)\\title\\0,1\C,0,-2.506464,-0.036336,-0.0
 1183\C,0,-2.001796,1.259898,0.003518\C,0,-0.626151,1.434919,0.028838\C
 ,0,-1.682764,-1.15517,-0.002992\C,0,-0.306563,-0.966939,0.02194\C,0,0.
 229142,0.324941,0.038104\H,0,-2.68433,2.097963,-0.004157\H,0,-0.192754
 ,2.426486,0.041739\H,0,-2.12324,-2.141915,-0.016823\H,0,0.347912,-1.82
 9356,0.025521\C,0,1.703977,0.599539,0.06708\S,0,2.782021,-0.871335,0.1

 Normal termination of Gaussian 16 at Tue Apr  8 23:19:33 2025.
