 Gaussian 16, Revision C.01,

 ----------------------------------------------------------------------
 #t hf aug-cc-pvdz symm=none int=(grid=ultrafine) guess=(read,tcheck) s
 table=(opt,rrhf)
 ----------------------------------------------------------------------
 -----
 title
 -----
 Symbolic Z-matrix:
 Charge =  0 Multiplicity = 1

 SCF Done:  E(RHF) =  -538.165095239     A.U. after   12 cycles

 1\1\GINC-SE159\Stability\RHF\Aug-CC-pVDZ\C2H5Cl1\OHZDE\08-Apr-2025\0\\
 #t hf aug-cc-pvdz symm=none int=(grid=ultrafine) guess=(read,tcheck) s
 table=(opt,rrhf)\\title\\0,1\C,0,0.,0.821956,0.\C,0,-1.509911,0.681526
 ,0.\Cl,0,0.823861,-0.803603,0.\H,0,0.36545,1.335886,0.887486\H,0,0.365
 45,1.335886,-0.887486\H,0,-1.855885,0.145579,0.885635\H,0,-1.855885,0.
 145579,-0.885635\H,0,-1.965297,1.677422,0.\\Version=ES64L-G16RevC.01\H
 F=-538.1650952\RMSD=2.749e-09\Dipole=-0.5149551,0.8300051,0.\Quadrupol
 e=-0.5027299,0.4446083,0.0581216,0.3195242,0.,0.\PG=Unknown\\@

 Normal termination of Gaussian 16 at Tue Apr  8 22:29:37 2025.
 Gaussian 16:  ES64L-G16RevC.01  3-Jul-2019

 ----------------------------------------------------------------------
 #t hf aug-cc-pvdz iop(5/13=1,5/36=2,99/5=2) pseudo=read geom=check gue
 ss=(read,tcheck) scf=(maxcycle=1)
 ----------------------------------------------------------------------
 -----
 title
 -----
 Structure from the checkpoint file:  "BDE49_expt_1019_mol1.chk"
 Charge =  0 Multiplicity = 1

                         Standard orientation:
 ---------------------------------------------------------------------
 Center     Atomic      Atomic             Coordinates (Angstroms)
 Number     Number       Type             X           Y           Z
 ---------------------------------------------------------------------
      1          6           0       -0.000000    0.821956    0.000000
      2          6           0       -1.509911    0.681526    0.000000
      3         17           0        0.823861   -0.803603    0.000000
      4          1           0        0.365450    1.335886    0.887486
      5          1           0        0.365450    1.335886   -0.887486
      6          1           0       -1.855885    0.145579    0.885635
      7          1           0       -1.855885    0.145579   -0.885635
      8          1           0       -1.965297    1.677422    0.000000
 ---------------------------------------------------------------------

 SCF Done:  E(RHF) =  -538.331864026     A.U. after    2 cycles

 The electronic state is 1-A'.
 Alpha  occ. eigenvalues -- -105.54998 -11.30789 -11.24683 -10.59804  -7.76736
 Alpha  occ. eigenvalues --   -7.76374  -7.76368  -1.10885  -0.98585  -0.84443
 Alpha  occ. eigenvalues --   -0.65821  -0.61767  -0.57259  -0.53752  -0.51282
 Alpha  occ. eigenvalues --   -0.44101  -0.43965
 Alpha virt. eigenvalues --    0.03447   0.04470   0.04653   0.05694   0.07557
 Alpha virt. eigenvalues --    0.09453   0.12230   0.13117   0.14581   0.15111
 Alpha virt. eigenvalues --    0.15893   0.17656   0.18092   0.19050   0.19120

 Mulliken charges:
               1
     1  C   -0.616921
     2  C   -0.277401
     3  Cl  -0.106043
     4  H    0.231149
     5  H    0.231149
     6  H    0.176466
     7  H    0.176466
     8  H    0.185134
 Sum of Mulliken charges =  -0.00000

 Dipole moment (field-independent basis, Debye):
    X=             -1.3034    Y=              2.1104    Z=             -0.0000  Tot=              2.4804

 Test job not archived.
 1\1\GINC-SE159\SP\RHF\Aug-CC-pVDZ\C2H5Cl1\OHZDE\08-Apr-2025\0\\#t hf a
 ug-cc-pvdz iop(5/13=1,5/36=2,99/5=2) pseudo=read geom=check guess=(rea
 d,tcheck) scf=(maxcycle=1)\\title\\0,1\C,0,0.,0.821956,0.\C,0,-1.50991
 1,0.681526,0.\Cl,0,0.823861,-0.803603,0.\H,0,0.36545,1.335886,0.887486
 \H,0,0.36545,1.335886,-0.887486\H,0,-1.855885,0.145579,0.885635\H,0,-1
 .855885,0.145579,-0.885635\H,0,-1.965297,1.677422,0.\\Version=ES64L-G1
 6RevC.01\State=1-A'\HF=-538.331864\RMSD=6.740e-03\Dipole=-0.5127869,0.
 8302809,0.\Quadrupole=-0.4836219,0.4515196,0.0321023,0.3040003,0.,0.\P

 Normal termination of Gaussian 16 at Tue Apr  8 22:29:41 2025.
