 Gaussian 16, Revision C.01,

 ----------------------------------------------------------------------
 #t hf aug-cc-pvdz symm=none int=(grid=ultrafine) guess=(read,tcheck) s
 table=(opt,rrhf)
 ----------------------------------------------------------------------
 -----
 title
 -----
 Symbolic Z-matrix:
 Charge =  0 Multiplicity = 1

 SCF Done:  E(RHF) =  -721.183322636     A.U. after   16 cycles
 Normal termination of Gaussian 16 at Wed Apr  9 00:30:55 2025.
 Gaussian 16:  ES64L-G16RevC.01  3-Jul-2019

 ----------------------------------------------------------------------
 #t hf aug-cc-pvdz iop(5/13=1,5/36=2,99/5=2) pseudo=read geom=check gue
 ss=(read,tcheck) scf=(maxcycle=1)
 ----------------------------------------------------------------------
 -----
 title
 -----
 Structure from the checkpoint file:  "BDE49_nonexpt_343_mol1.chk"
 Charge =  0 Multiplicity = 1

                         Standard orientation:
 ---------------------------------------------------------------------
 Center     Atomic      Atomic             Coordinates (Angstroms)
 Number     Number       Type             X           Y           Z
 ---------------------------------------------------------------------
      1          6           0        0.063515    0.098927    0.408462
      2          7           0        0.993240   -1.100660    0.064980
      3          5           0       -1.519800   -0.209080    0.167297
      4          7           0        0.540386    1.212480   -0.580178
      5          9           0        0.372697    0.496357    1.637916
      6          8           0        1.366963    1.987249   -0.165874
      7          8           0       -2.329204    0.547278    0.933824
      8          8           0        0.744009   -1.675417   -0.988083
      9          8           0       -1.959189   -1.134704   -0.699284
     10          8           0        1.867291   -1.364006    0.849803
     11          8           0        0.015098    1.184536   -1.677553
     12          1           0       -1.246376   -1.544983   -1.210862
     13          1           0       -3.265121    0.387383    0.766080
 ---------------------------------------------------------------------

 SCF Done:  E(RHF) =  -721.863118397     A.U. after    2 cycles

 The electronic state is 1-A.
 Alpha  occ. eigenvalues --  -26.55146 -20.65573 -20.64420 -20.64165 -20.63842
 Alpha  occ. eigenvalues --  -20.60855 -20.60198 -15.84577 -15.83964 -11.48794
 Alpha  occ. eigenvalues --   -7.71649  -1.73922  -1.72225  -1.68813  -1.57174
 Alpha  occ. eigenvalues --   -1.56581  -1.53168  -1.49531  -1.18699  -1.04617
 Alpha  occ. eigenvalues --   -0.92647  -0.88068  -0.86827  -0.83594  -0.81144
 Alpha  occ. eigenvalues --   -0.79670  -0.79158  -0.78426  -0.77252  -0.74289
 Alpha  occ. eigenvalues --   -0.70772  -0.67591  -0.62203  -0.61183  -0.60191
 Alpha  occ. eigenvalues --   -0.54869  -0.54416  -0.53849  -0.52815  -0.52035
 Alpha  occ. eigenvalues --   -0.50492  -0.48893
 Alpha virt. eigenvalues --    0.00004   0.02765   0.02949   0.04658   0.04919
 Alpha virt. eigenvalues --    0.05611   0.07550   0.08737   0.10734   0.11106
 Alpha virt. eigenvalues --    0.12546   0.13648   0.14218   0.15732   0.16333

 Mulliken charges:
               1
     1  C    0.737012
     2  N    2.505621
     3  B    1.719141
     4  N    2.674478
     5  F   -0.855612
     6  O   -1.346258
     7  O   -1.165510
     8  O   -1.431030
     9  O   -1.419927
    10  O   -1.256040
    11  O   -1.417689
    12  H    0.728609
    13  H    0.527203
 Sum of Mulliken charges =   0.00000

 Dipole moment (field-independent basis, Debye):
    X=             -3.0101    Y=             -0.9564    Z=              0.6611  Tot=              3.2269

 Test job not archived.
 1\1\GINC-SE044\SP\RHF\Aug-CC-pVDZ\C1H2B1F1N2O6\OHZDE\09-Apr-2025\0\\#t
  hf aug-cc-pvdz iop(5/13=1,5/36=2,99/5=2) pseudo=read geom=check guess
 =(read,tcheck) scf=(maxcycle=1)\\title\\0,1\C,0,0.063515,0.098927,0.40
 8462\N,0,0.99324,-1.10066,0.06498\B,0,-1.5198,-0.20908,0.167297\N,0,0.
 540386,1.21248,-0.580178\F,0,0.372697,0.496357,1.637916\O,0,1.366963,1
 .987249,-0.165874\O,0,-2.329204,0.547278,0.933824\O,0,0.744009,-1.6754
 17,-0.988083\O,0,-1.959189,-1.134704,-0.699284\O,0,1.867291,-1.364006,
 0.849803\O,0,0.015098,1.184536,-1.677553\H,0,-1.246376,-1.544983,-1.21

 Normal termination of Gaussian 16 at Wed Apr  9 00:31:02 2025.
