 Gaussian 16, Revision C.01,

 ----------------------------------------------------------------------
 #t hf aug-cc-pvdz symm=none int=(grid=ultrafine) guess=(read,tcheck) s
 table=(opt,rrhf)
 ----------------------------------------------------------------------
 -----
 title
 -----
 Symbolic Z-matrix:
 Charge =  0 Multiplicity = 1

 SCF Done:  E(RHF) =  -986.268524206     A.U. after   15 cycles
 Normal termination of Gaussian 16 at Tue Apr  8 22:46:39 2025.
 Gaussian 16:  ES64L-G16RevC.01  3-Jul-2019

 ----------------------------------------------------------------------
 #t hf aug-cc-pvdz iop(5/13=1,5/36=2,99/5=2) pseudo=read geom=check gue
 ss=(read,tcheck) scf=(maxcycle=1)
 ----------------------------------------------------------------------
 -----
 title
 -----
 Structure from the checkpoint file:  "BDE49_expt_1534_mol1.chk"
 Charge =  0 Multiplicity = 1

                         Standard orientation:
 ---------------------------------------------------------------------
 Center     Atomic      Atomic             Coordinates (Angstroms)
 Number     Number       Type             X           Y           Z
 ---------------------------------------------------------------------
      1          6           0       -0.644708   -0.037587    0.432491
      2          6           0        0.892916   -0.003296    0.671461
      3          7           0        1.742342    0.138464   -0.627965
      4          8           0        2.671184   -0.615141   -0.753847
      5          8           0        1.392781    1.054915   -1.343970
      6          9           0        1.247559   -1.120787    1.293798
      7          7           0       -1.053002   -1.318224   -0.319909
      8          7           0       -1.193244    1.181821   -0.387024
      9          8           0       -0.266436   -1.680948   -1.171161
     10          8           0       -2.103669   -1.811128    0.003945
     11          8           0       -1.183851    2.219771    0.228068
     12          8           0       -1.600772    0.952202   -1.499553
     13          9           0        1.196894    1.052062    1.426552
     14          9           0       -1.248433   -0.011996    1.614398
 ---------------------------------------------------------------------

 SCF Done:  E(RHF) =  -987.177446655     A.U. after    2 cycles

 The electronic state is 1-A.
 Alpha  occ. eigenvalues --  -26.59808 -26.59063 -26.58853 -20.67072 -20.66543
 Alpha  occ. eigenvalues --  -20.66372 -20.66266 -20.66194 -20.65440 -15.87161
 Alpha  occ. eigenvalues --  -15.86986 -15.85957 -11.59029 -11.55729  -1.78233
 Alpha  occ. eigenvalues --   -1.76427  -1.74771  -1.73760  -1.72879  -1.69864
 Alpha  occ. eigenvalues --   -1.59661  -1.59414  -1.58685  -1.24332  -1.14944
 Alpha  occ. eigenvalues --   -1.08006  -1.02229  -0.93469  -0.90518  -0.90381
 Alpha  occ. eigenvalues --   -0.89937  -0.87353  -0.86355  -0.81999  -0.81645
 Alpha  occ. eigenvalues --   -0.81243  -0.80580  -0.80009  -0.79741  -0.76385
 Alpha  occ. eigenvalues --   -0.75379  -0.74294  -0.73552  -0.70802  -0.69133
 Alpha  occ. eigenvalues --   -0.57697  -0.57048  -0.56108  -0.55800  -0.54530
 Alpha  occ. eigenvalues --   -0.54344  -0.52464  -0.50918  -0.50346
 Alpha virt. eigenvalues --   -0.00989   0.00128   0.01042   0.06037   0.07212
 Alpha virt. eigenvalues --    0.08360   0.08683   0.10578   0.11152   0.11565
 Alpha virt. eigenvalues --    0.12885   0.13271   0.15129   0.15453   0.16260

 Mulliken charges:
               1
     1  C    0.563502
     2  C    1.955347
     3  N    2.783457
     4  O   -1.358530
     5  O   -1.523299
     6  F   -0.813556
     7  N    3.010600
     8  N    2.760444
     9  O   -1.490191
    10  O   -1.392515
    11  O   -1.405344
    12  O   -1.339981
    13  F   -0.822788
    14  F   -0.927147
 Sum of Mulliken charges =  -0.00000

 Dipole moment (field-independent basis, Debye):
    X=              0.1183    Y=             -0.2657    Z=              2.4637  Tot=              2.4808

 Test job not archived.
 1\1\GINC-SE080\SP\RHF\Aug-CC-pVDZ\C2F3N3O6\OHZDE\08-Apr-2025\0\\#t hf
 aug-cc-pvdz iop(5/13=1,5/36=2,99/5=2) pseudo=read geom=check guess=(re
 ad,tcheck) scf=(maxcycle=1)\\title\\0,1\C,0,-0.644708,-0.037587,0.4324
 91\C,0,0.892916,-0.003296,0.671461\N,0,1.742342,0.138463,-0.627965\O,0
 ,2.671184,-0.615142,-0.753847\O,0,1.392781,1.054915,-1.34397\F,0,1.247
 559,-1.120787,1.293798\N,0,-1.053002,-1.318224,-0.319909\N,0,-1.193244
 ,1.181821,-0.387024\O,0,-0.266436,-1.680948,-1.171161\O,0,-2.10367,-1.
 811128,0.003945\O,0,-1.18385,2.219771,0.228068\O,0,-1.600772,0.952202,

 Normal termination of Gaussian 16 at Tue Apr  8 22:46:49 2025.
