 Gaussian 16, Revision C.01,

 ----------------------------------------------------------------------
 #t hf aug-cc-pvdz symm=none int=(grid=ultrafine) guess=(read,tcheck) s
 table=(opt,rrhf)
 ----------------------------------------------------------------------
 -----
 title
 -----
 Symbolic Z-matrix:
 Charge =  0 Multiplicity = 1

 SCF Done:  E(RHF) =  -333.164970528     A.U. after   13 cycles
 Normal termination of Gaussian 16 at Wed Apr  9 00:33:46 2025.
 Gaussian 16:  ES64L-G16RevC.01  3-Jul-2019

 ----------------------------------------------------------------------
 #t hf aug-cc-pvdz iop(5/13=1,5/36=2,99/5=2) pseudo=read geom=check gue
 ss=(read,tcheck) scf=(maxcycle=1)
 ----------------------------------------------------------------------
 -----
 title
 -----
 Structure from the checkpoint file:  "BDE49_nonexpt_424_mol1.chk"
 Charge =  0 Multiplicity = 1

                         Standard orientation:
 ---------------------------------------------------------------------
 Center     Atomic      Atomic             Coordinates (Angstroms)
 Number     Number       Type             X           Y           Z
 ---------------------------------------------------------------------
      1          9           0        1.118897    1.141295   -0.059868
      2          5           0        0.461180   -0.000002    0.040041
      3          9           0        1.118935   -1.141279   -0.059884
      4          7           0       -0.928852   -0.000021    0.442008
      5          7           0       -1.884042    0.000022   -0.347511
      6          1           0       -2.756129   -0.000142    0.216084
 ---------------------------------------------------------------------

 SCF Done:  E(RHF) =  -333.472081235     A.U. after    2 cycles

 The electronic state is 1-A.
 Alpha  occ. eigenvalues --  -26.49604 -26.49604 -15.60785 -15.57646  -7.75358
 Alpha  occ. eigenvalues --   -1.64779  -1.61092  -1.38433  -1.01785  -0.82306
 Alpha  occ. eigenvalues --   -0.78431  -0.76717  -0.73299  -0.69433  -0.65811
 Alpha  occ. eigenvalues --   -0.65024  -0.64554  -0.58587  -0.45601
 Alpha virt. eigenvalues --    0.03398   0.03816   0.05557   0.05830   0.06308
 Alpha virt. eigenvalues --    0.07793   0.13596   0.14801   0.17233   0.17955
 Alpha virt. eigenvalues --    0.18067   0.18498   0.20758   0.23623   0.23879

 Mulliken charges:
               1
     1  F   -0.658112
     2  B    1.152266
     3  F   -0.658113
     4  N   -0.014854
     5  N    0.033468
     6  H    0.145345
 Sum of Mulliken charges =  -0.00000

 Dipole moment (field-independent basis, Debye):
    X=             -1.3891    Y=             -0.0002    Z=              0.4415  Tot=              1.4575

 Test job not archived.
 1\1\GINC-SE249\SP\RHF\Aug-CC-pVDZ\B1F2H1N2\OHZDE\09-Apr-2025\0\\#t hf
 aug-cc-pvdz iop(5/13=1,5/36=2,99/5=2) pseudo=read geom=check guess=(re
 ad,tcheck) scf=(maxcycle=1)\\title\\0,1\F,0,1.118897,1.141295,-0.05986
 8\B,0,0.46118,-0.000002,0.040041\F,0,1.118935,-1.141279,-0.059884\N,0,
 -0.928852,-0.000021,0.442008\N,0,-1.884042,0.000022,-0.347511\H,0,-2.7
 56129,-0.000142,0.216084\\Version=ES64L-G16RevC.01\State=1-A\HF=-333.4
 720812\RMSD=3.378e-02\Dipole=-0.5464967,-0.0000784,0.1737035\Quadrupol
 e=2.6463705,-1.8278583,-0.8185122,0.0004572,-0.9358698,0.0001286\PG=C0

 Normal termination of Gaussian 16 at Wed Apr  9 00:33:48 2025.
