 Gaussian 16, Revision C.01,

 ----------------------------------------------------------------------
 #t hf aug-cc-pvdz symm=none int=(grid=ultrafine) guess=(read,tcheck) s
 table=opt
 ----------------------------------------------------------------------
 -----
 title
 -----
 Symbolic Z-matrix:
 Charge =  0 Multiplicity = 2

 SCF Done:  E(UHF) =  -1270.04878656     a.u. after    6 cycles
 Normal termination of Gaussian 16 at Wed Apr  9 00:19:02 2025.
 Gaussian 16:  ES64L-G16RevC.01  3-Jul-2019

 ----------------------------------------------------------------------
 #t hf aug-cc-pvdz iop(5/13=1,5/36=2,99/5=2) pseudo=read geom=check gue
 ss=(read,tcheck) scf=(maxcycle=1)
 ----------------------------------------------------------------------
 -----
 title
 -----
 Structure from the checkpoint file:  "BDE49_nonexpt_2576_mol2.chk"
 Charge =  0 Multiplicity = 2

                         Standard orientation:
 ---------------------------------------------------------------------
 Center     Atomic      Atomic             Coordinates (Angstroms)
 Number     Number       Type             X           Y           Z
 ---------------------------------------------------------------------
      1         16           0       -1.874925   -0.784215    0.000008
      2          6           0       -0.353699   -0.058377   -0.000011
      3         16           0       -0.502458    1.615611    0.000000
      4         16           0        1.100278   -0.998351   -0.000005
      5          6           0        2.415190    0.261273    0.000001
      6          1           0        3.348689   -0.302828    0.000004
      7          1           0        2.358013    0.878361    0.895456
      8          1           0        2.358019    0.878362   -0.895453
 ---------------------------------------------------------------------

 SCF Done:  E(UHF) =  -1270.29871210     A.U. after    2 cycles

 The electronic state is 2-A.
 Alpha  occ. eigenvalues --  -94.00920 -94.00258 -93.93895 -11.39204 -11.29348
 Alpha  occ. eigenvalues --   -8.29114  -8.28421  -8.22050  -6.28145  -6.26523
 Alpha  occ. eigenvalues --   -6.26258  -6.26234  -6.26031  -6.25856  -6.19991
 Alpha  occ. eigenvalues --   -6.19640  -6.19525  -1.19819  -1.09217  -0.99752
 Alpha  occ. eigenvalues --   -0.93935  -0.72919  -0.64446  -0.62679  -0.59884
 Alpha  occ. eigenvalues --   -0.56597  -0.52952  -0.49680  -0.46055  -0.39916
 Alpha  occ. eigenvalues --   -0.36024  -0.35853
 Alpha virt. eigenvalues --    0.03177   0.03232   0.05250   0.05878   0.05959
 Alpha virt. eigenvalues --    0.08067   0.08755   0.10836   0.11165   0.12338
 Alpha virt. eigenvalues --    0.13455   0.13557   0.14727   0.15990   0.16361

  Beta  occ. eigenvalues --  -94.00265 -94.00033 -93.93700 -11.39296 -11.29333
  Beta  occ. eigenvalues --   -8.28429  -8.28092  -8.21823  -6.26248  -6.26062
  Beta  occ. eigenvalues --   -6.26044  -6.25884  -6.25623  -6.24276  -6.19682
  Beta  occ. eigenvalues --   -6.19408  -6.19010  -1.18247  -1.07436  -0.95739
  Beta  occ. eigenvalues --   -0.92737  -0.71276  -0.63012  -0.62683  -0.58025
  Beta  occ. eigenvalues --   -0.55579  -0.52447  -0.48284  -0.38985  -0.34927
  Beta  occ. eigenvalues --   -0.34832
  Beta virt. eigenvalues --   -0.02135   0.03100   0.03224   0.05348   0.05880
  Beta virt. eigenvalues --    0.06218   0.08173   0.09003   0.10964   0.11875
  Beta virt. eigenvalues --    0.12517   0.13481   0.13872   0.14863   0.16030

 Mulliken charges and spin densities:
               1          2
     1  S    0.507175   0.958184
     2  C   -1.095078  -0.099771
     3  S    0.106675   0.128211
     4  S    0.600405   0.007490
     5  C   -0.753656   0.005280
     6  H    0.135902   0.002301
     7  H    0.249290  -0.000847
     8  H    0.249287  -0.000847
 Sum of Mulliken charges =   0.00000   1.00000

 Dipole moment (field-independent basis, Debye):
    X=              2.5028    Y=             -1.3404    Z=              0.0000  Tot=              2.8391
                          Isotropic Fermi Contact Couplings
        Atom                 a.u.       MegaHertz       Gauss      10(-4) cm-1
     1  S(33)              0.22979      78.92648      28.16293      26.32704
     2  C(13)             -0.01903     -21.39599      -7.63462      -7.13693
     3  S(33)              0.07630      26.20619       9.35102       8.74144
     4  S(33)             -0.00487      -1.67428      -0.59743      -0.55848
     5  C(13)              0.00448       5.03453       1.79645       1.67934
     6  H(1)               0.00072       3.21473       1.14710       1.07232
     7  H(1)              -0.00012      -0.52296      -0.18660      -0.17444
     8  H(1)              -0.00012      -0.52289      -0.18658      -0.17442

 Normal termination of Gaussian 16 at Wed Apr  9 00:19:05 2025.
