 Gaussian 16, Revision C.01,

 ----------------------------------------------------------------------
 #t hf aug-cc-pvdz symm=none int=(grid=ultrafine) guess=(read,tcheck) s
 table=(opt,rrhf)
 ----------------------------------------------------------------------
 -----
 title
 -----
 Symbolic Z-matrix:
 Charge =  0 Multiplicity = 1

 SCF Done:  E(RHF) =  -809.195084098     A.U. after   13 cycles
 Normal termination of Gaussian 16 at Tue Apr  8 23:22:56 2025.
 Gaussian 16:  ES64L-G16RevC.01  3-Jul-2019

 ----------------------------------------------------------------------
 #t hf aug-cc-pvdz iop(5/13=1,5/36=2,99/5=2) pseudo=read geom=check gue
 ss=(read,tcheck) scf=(maxcycle=1)
 ----------------------------------------------------------------------
 -----
 title
 -----
 Structure from the checkpoint file:  "BDE49_nonexpt_1232_mol1.chk"
 Charge =  0 Multiplicity = 1

                         Standard orientation:
 ---------------------------------------------------------------------
 Center     Atomic      Atomic             Coordinates (Angstroms)
 Number     Number       Type             X           Y           Z
 ---------------------------------------------------------------------
      1         16           0        1.883925   -0.082150    0.019608
      2          8           0        0.371601   -0.220475   -0.775873
      3          6           0       -0.741373   -0.004500   -0.014655
      4          9           0       -1.791555   -0.176326   -0.814056
      5          9           0       -0.781902    1.241794    0.486500
      6          9           0       -0.838695   -0.858110    1.013851
      7          1           0        2.042002    1.238981   -0.195483
 ---------------------------------------------------------------------

 SCF Done:  E(RHF) =  -809.630514367     A.U. after    2 cycles

 The electronic state is 1-A.
 Alpha  occ. eigenvalues --  -94.04656 -26.52171 -26.52142 -26.52057 -20.63954
 Alpha  occ. eigenvalues --  -11.58414  -8.32074  -6.29931  -6.29679  -6.29414
 Alpha  occ. eigenvalues --   -1.74617  -1.63528  -1.63157  -1.53833  -1.05445
 Alpha  occ. eigenvalues --   -0.94290  -0.84165  -0.83957  -0.82142  -0.71303
 Alpha  occ. eigenvalues --   -0.70883  -0.66289  -0.65541  -0.64856  -0.63480
 Alpha  occ. eigenvalues --   -0.62356  -0.58976  -0.51213  -0.42230
 Alpha virt. eigenvalues --    0.03439   0.05539   0.08708   0.09222   0.10216
 Alpha virt. eigenvalues --    0.11535   0.12131   0.15098   0.15685   0.17106
 Alpha virt. eigenvalues --    0.20191   0.21677   0.25695   0.26308   0.26618

 Mulliken charges:
               1
     1  S    0.234508
     2  O   -1.332994
     3  C    2.758211
     4  F   -0.667672
     5  F   -0.679114
     6  F   -0.658939
     7  H    0.346000
 Sum of Mulliken charges =  -0.00000

 Dipole moment (field-independent basis, Debye):
    X=              1.7631    Y=              1.0094    Z=              0.1742  Tot=              2.0390

 Test job not archived.
 1\1\GINC-SE253\SP\RHF\Aug-CC-pVDZ\C1H1F3O1S1\OHZDE\08-Apr-2025\0\\#t h
 f aug-cc-pvdz iop(5/13=1,5/36=2,99/5=2) pseudo=read geom=check guess=(
 read,tcheck) scf=(maxcycle=1)\\title\\0,1\S,0,1.883925,-0.082151,0.019
 608\O,0,0.371601,-0.220475,-0.775873\C,0,-0.741373,-0.0045,-0.014655\F
 ,0,-1.791555,-0.176326,-0.814056\F,0,-0.781902,1.241794,0.4865\F,0,-0.
 838695,-0.85811,1.013851\H,0,2.042002,1.23898,-0.195483\\Version=ES64L
 -G16RevC.01\State=1-A\HF=-809.6305144\RMSD=4.317e-03\Dipole=0.6936485,
 0.3971248,0.0685357\Quadrupole=1.7494337,0.4460228,-2.1954565,1.956671

 Normal termination of Gaussian 16 at Tue Apr  8 23:22:58 2025.
