 Gaussian 16, Revision C.01,

 ----------------------------------------------------------------------
 #t hf aug-cc-pvdz symm=none int=(grid=ultrafine) guess=(read,tcheck) s
 table=(opt,rrhf)
 ----------------------------------------------------------------------
 -----
 title
 -----
 Symbolic Z-matrix:
 Charge =  0 Multiplicity = 1

 SCF Done:  E(RHF) =  -762.702104503     A.U. after   15 cycles
 Normal termination of Gaussian 16 at Tue Apr  8 23:18:59 2025.
 Gaussian 16:  ES64L-G16RevC.01  3-Jul-2019

 ----------------------------------------------------------------------
 #t hf aug-cc-pvdz iop(5/13=1,5/36=2,99/5=2) pseudo=read geom=check gue
 ss=(read,tcheck) scf=(maxcycle=1)
 ----------------------------------------------------------------------
 -----
 title
 -----
 Structure from the checkpoint file:  "BDE49_nonexpt_1076_mol1.chk"
 Charge =  0 Multiplicity = 1

                         Standard orientation:
 ---------------------------------------------------------------------
 Center     Atomic      Atomic             Coordinates (Angstroms)
 Number     Number       Type             X           Y           Z
 ---------------------------------------------------------------------
      1         17           0        1.688279   -0.581485   -0.245562
      2          8           0        0.529537   -0.062447    0.947566
      3          6           0       -0.536384    0.719314    0.380928
      4          8           0       -1.288749    0.006501   -0.531219
      5          8           0       -0.117262    1.878153   -0.209061
      6          6           0       -1.882281   -1.193946   -0.029879
      7          1           0       -1.120878   -1.921747    0.258253
      8          1           0       -2.488199   -1.592877   -0.841072
      9          1           0       -2.525393   -0.978071    0.831174
     10          1           0        0.038809    1.686752   -1.143032
     11          1           0       -1.081300    0.961331    1.304653
 ---------------------------------------------------------------------

 SCF Done:  E(RHF) =  -763.079018662     A.U. after    2 cycles

 The electronic state is 1-A.
 Alpha  occ. eigenvalues -- -105.62078 -20.63245 -20.58060 -20.58005 -11.42158
 Alpha  occ. eigenvalues --  -11.30256 -10.66302  -7.83283  -7.82762  -7.82733
 Alpha  occ. eigenvalues --   -1.56573  -1.46481  -1.46256  -1.04522  -0.97653
 Alpha  occ. eigenvalues --   -0.88364  -0.75726  -0.72918  -0.71717  -0.65343
 Alpha  occ. eigenvalues --   -0.62724  -0.58907  -0.56295  -0.56128  -0.52310
 Alpha  occ. eigenvalues --   -0.50388  -0.47397  -0.46275  -0.44732
 Alpha virt. eigenvalues --    0.03587   0.04441   0.04918   0.05817   0.06770
 Alpha virt. eigenvalues --    0.06999   0.10273   0.11137   0.12507   0.14424
 Alpha virt. eigenvalues --    0.14617   0.15875   0.16402   0.17001   0.17662

 Mulliken charges:
               1
     1  Cl   0.228529
     2  O   -1.173833
     3  C    2.495081
     4  O   -1.286232
     5  O   -1.168703
     6  C    0.144429
     7  H    0.192773
     8  H   -0.003668
     9  H    0.172588
    10  H    0.294756
    11  H    0.104280
 Sum of Mulliken charges =  -0.00000

 Dipole moment (field-independent basis, Debye):
    X=             -1.8267    Y=             -1.1279    Z=             -0.3840  Tot=              2.1809

 Test job not archived.
 1\1\GINC-SE126\SP\RHF\Aug-CC-pVDZ\C2H5Cl1O3\OHZDE\08-Apr-2025\0\\#t hf
  aug-cc-pvdz iop(5/13=1,5/36=2,99/5=2) pseudo=read geom=check guess=(r
 ead,tcheck) scf=(maxcycle=1)\\title\\0,1\Cl,0,1.688279,-0.581485,-0.24
 5562\O,0,0.529537,-0.062447,0.947566\C,0,-0.536384,0.719314,0.380928\O
 ,0,-1.288749,0.006501,-0.531219\O,0,-0.117262,1.878153,-0.209061\C,0,-
 1.882281,-1.193947,-0.029879\H,0,-1.120877,-1.921747,0.258253\H,0,-2.4
 88199,-1.592878,-0.841072\H,0,-2.525393,-0.978072,0.831174\H,0,0.03880
 9,1.686752,-1.143032\H,0,-1.0813,0.961331,1.304653\\Version=ES64L-G16R

 Normal termination of Gaussian 16 at Tue Apr  8 23:19:03 2025.
