 Gaussian 16, Revision C.01,

 ----------------------------------------------------------------------
 #t hf aug-cc-pvdz symm=none int=(grid=ultrafine) guess=(read,tcheck) s
 table=(opt,rrhf)
 ----------------------------------------------------------------------
 -----
 title
 -----
 Symbolic Z-matrix:
 Charge =  0 Multiplicity = 1

 SCF Done:  E(RHF) =  -518.948116267     A.U. after   13 cycles
 Normal termination of Gaussian 16 at Tue Apr  8 23:51:30 2025.
 Gaussian 16:  ES64L-G16RevC.01  3-Jul-2019

 ----------------------------------------------------------------------
 #t hf aug-cc-pvdz iop(5/13=1,5/36=2,99/5=2) pseudo=read geom=check gue
 ss=(read,tcheck) scf=(maxcycle=1)
 ----------------------------------------------------------------------
 -----
 title
 -----
 Structure from the checkpoint file:  "BDE49_nonexpt_1889_mol1.chk"
 Charge =  0 Multiplicity = 1

                         Standard orientation:
 ---------------------------------------------------------------------
 Center     Atomic      Atomic             Coordinates (Angstroms)
 Number     Number       Type             X           Y           Z
 ---------------------------------------------------------------------
      1          6           0        0.567446    0.722512    0.000001
      2         14           0        2.203788   -0.241363   -0.000001
      3          8           0       -0.468813   -0.233035   -0.000002
      4          1           0        3.297057    0.759003    0.000006
      5          1           0        2.310436   -1.087336   -1.208581
      6          1           0        2.310433   -1.087348    1.208571
      7          8           0       -1.731026    0.533243   -0.000004
      8          6           0       -2.751198   -0.443348    0.000005
      9          1           0       -3.681388    0.129244    0.000002
     10          1           0       -2.703165   -1.070452    0.896722
     11          1           0       -2.703168   -1.070464   -0.896705
     12          1           0        0.508993    1.364898   -0.889146
     13          1           0        0.508992    1.364893    0.889152
 ---------------------------------------------------------------------

 SCF Done:  E(RHF) =  -519.216608417     A.U. after    2 cycles

 The electronic state is 1-A.
 Alpha  occ. eigenvalues --  -69.53171 -20.61022 -20.60690 -11.28773 -11.27915
 Alpha  occ. eigenvalues --   -6.20308  -3.95686  -3.95669  -3.95660  -1.57185
 Alpha  occ. eigenvalues --   -1.31420  -0.92757  -0.91639  -0.73822  -0.68448
 Alpha  occ. eigenvalues --   -0.67919  -0.64155  -0.61600  -0.56632  -0.51578
 Alpha  occ. eigenvalues --   -0.50860  -0.49082  -0.48107  -0.44838  -0.41446
 Alpha virt. eigenvalues --    0.03739   0.04156   0.04640   0.04660   0.05754
 Alpha virt. eigenvalues --    0.06649   0.07180   0.08651   0.08825   0.09429
 Alpha virt. eigenvalues --    0.10488   0.11590   0.14486   0.15407   0.15610

 Mulliken charges:
               1
     1  C    0.218544
     2  Si   0.952235
     3  O   -0.759517
     4  H   -0.160264
     5  H   -0.209382
     6  H   -0.209382
     7  O   -0.680861
     8  C    0.426018
     9  H    0.017065
    10  H    0.132914
    11  H    0.132916
    12  H    0.069855
    13  H    0.069857
 Sum of Mulliken charges =   0.00000

 Dipole moment (field-independent basis, Debye):
    X=             -0.3718    Y=              0.0382    Z=              0.0000  Tot=              0.3738

 Test job not archived.
 1\1\GINC-SE094\SP\RHF\Aug-CC-pVDZ\C2H8O2Si1\OHZDE\08-Apr-2025\0\\#t hf
  aug-cc-pvdz iop(5/13=1,5/36=2,99/5=2) pseudo=read geom=check guess=(r
 ead,tcheck) scf=(maxcycle=1)\\title\\0,1\C,0,0.567446,0.722512,0.00000
 1\Si,0,2.203788,-0.241363,-0.000001\O,0,-0.468813,-0.233035,-0.000002\
 H,0,3.297057,0.759003,0.000006\H,0,2.310436,-1.087336,-1.208581\H,0,2.
 310433,-1.087348,1.208571\O,0,-1.731026,0.533243,-0.000004\C,0,-2.7511
 98,-0.443348,0.000005\H,0,-3.681388,0.129244,0.000002\H,0,-2.703165,-1
 .070452,0.896722\H,0,-2.703168,-1.070464,-0.896705\H,0,0.508993,1.3648

 Normal termination of Gaussian 16 at Tue Apr  8 23:51:34 2025.
