 Gaussian 16, Revision C.01,

 ----------------------------------------------------------------------
 #t hf aug-cc-pvdz symm=none int=(grid=ultrafine) guess=(read,tcheck) s
 table=(opt,rrhf)
 ----------------------------------------------------------------------
 -----
 title
 -----
 Symbolic Z-matrix:
 Charge =  0 Multiplicity = 1

 SCF Done:  E(RHF) =  -884.918910777     A.U. after   13 cycles
 Normal termination of Gaussian 16 at Wed Apr  9 00:11:25 2025.
 Gaussian 16:  ES64L-G16RevC.01  3-Jul-2019

 ----------------------------------------------------------------------
 #t hf aug-cc-pvdz iop(5/13=1,5/36=2,99/5=2) pseudo=read geom=check gue
 ss=(read,tcheck) scf=(maxcycle=1)
 ----------------------------------------------------------------------
 -----
 title
 -----
 Structure from the checkpoint file:  "BDE49_nonexpt_2344_mol1.chk"
 Charge =  0 Multiplicity = 1

                         Standard orientation:
 ---------------------------------------------------------------------
 Center     Atomic      Atomic             Coordinates (Angstroms)
 Number     Number       Type             X           Y           Z
 ---------------------------------------------------------------------
      1         14           0        0.866843    1.226570   -0.805200
      2         14           0       -0.866844    1.226570    0.805199
      3          6           0       -2.271710   -0.892924   -0.433362
      4          8           0       -1.617060   -1.273651   -1.379117
      5          6           0       -1.695935   -0.495848    0.888116
      6          1           0       -0.885729   -1.175943    1.168747
      7          1           0       -2.462847   -0.484095    1.667004
      8          1           0       -1.879816    2.251446    0.443251
      9          1           0       -0.351581    1.549552    2.156013
     10          1           0       -3.373938   -0.791109   -0.531460
     11          6           0        1.695935   -0.495848   -0.888116
     12          1           0        1.879815    2.251447   -0.443252
     13          1           0        0.351580    1.549550   -2.156013
     14          6           0        2.271711   -0.892923    0.433362
     15          1           0        0.885729   -1.175944   -1.168745
     16          1           0        2.462847   -0.484096   -1.667004
     17          8           0        1.617060   -1.273649    1.379119
     18          1           0        3.373940   -0.791114    0.531458
 ---------------------------------------------------------------------

 SCF Done:  E(RHF) =  -885.294241553     A.U. after    2 cycles

 The electronic state is 1-A.
 Alpha  occ. eigenvalues --  -69.53839 -69.53839 -20.54759 -20.54759 -11.35143
 Alpha  occ. eigenvalues --  -11.35142 -11.23972 -11.23970  -6.20914  -6.20904
 Alpha  occ. eigenvalues --   -3.96269  -3.96257  -3.96252  -3.96245  -3.96236
 Alpha  occ. eigenvalues --   -3.96183  -1.47960  -1.47790  -1.02577  -1.02281
 Alpha  occ. eigenvalues --   -0.82417  -0.80593  -0.75419  -0.69451  -0.68634
 Alpha  occ. eigenvalues --   -0.67409  -0.64414  -0.62630  -0.57889  -0.56667
 Alpha  occ. eigenvalues --   -0.55781  -0.55229  -0.50201  -0.48236  -0.46573
 Alpha  occ. eigenvalues --   -0.45168  -0.42485  -0.41444  -0.41018
 Alpha virt. eigenvalues --    0.03172   0.03506   0.04058   0.04277   0.05312
 Alpha virt. eigenvalues --    0.05573   0.06362   0.07462   0.07872   0.08315
 Alpha virt. eigenvalues --    0.08804   0.09143   0.09273   0.10269   0.10366

 Mulliken charges:
               1
     1  Si   0.598492
     2  Si   0.598492
     3  C    1.038784
     4  O   -1.170073
     5  C   -0.599337
     6  H    0.171661
     7  H    0.006230
     8  H   -0.082096
     9  H   -0.080728
    10  H    0.117065
    11  C   -0.599338
    12  H   -0.082096
    13  H   -0.080726
    14  C    1.038783
    15  H    0.171663
    16  H    0.006230
    17  O   -1.170074
    18  H    0.117066
 Sum of Mulliken charges =  -0.00000

 Dipole moment (field-independent basis, Debye):
    X=              0.0000    Y=              1.3461    Z=             -0.0000  Tot=              1.3461

 Test job not archived.
 1\1\GINC-SE016\SP\RHF\Aug-CC-pVDZ\C4H10O2Si2\OHZDE\09-Apr-2025\0\\#t h
 f aug-cc-pvdz iop(5/13=1,5/36=2,99/5=2) pseudo=read geom=check guess=(
 read,tcheck) scf=(maxcycle=1)\\title\\0,1\Si,0,-0.866843,1.22657,0.805
 2\Si,0,0.866844,1.22657,-0.805199\C,0,2.27171,-0.892924,0.433362\O,0,1
 .61706,-1.273651,1.379117\C,0,1.695935,-0.495848,-0.888116\H,0,0.88572
 9,-1.175943,-1.168747\H,0,2.462847,-0.484095,-1.667004\H,0,1.879816,2.
 251446,-0.443251\H,0,0.351581,1.549552,-2.156013\H,0,3.373938,-0.79110
 9,0.53146\C,0,-1.695935,-0.495848,0.888116\H,0,-1.879815,2.251447,0.44

 Normal termination of Gaussian 16 at Wed Apr  9 00:11:34 2025.
