 Gaussian 16, Revision C.01,

 ----------------------------------------------------------------------
 #t hf aug-cc-pvdz symm=none int=(grid=ultrafine) guess=(read,tcheck) s
 table=(opt,rrhf)
 ----------------------------------------------------------------------
 -----
 title
 -----
 Symbolic Z-matrix:
 Charge =  0 Multiplicity = 1

 SCF Done:  E(RHF) =  -1332.46914678     A.U. after   14 cycles
 Normal termination of Gaussian 16 at Tue Apr  8 23:23:59 2025.
 Gaussian 16:  ES64L-G16RevC.01  3-Jul-2019

 ----------------------------------------------------------------------
 #t hf aug-cc-pvdz iop(5/13=1,5/36=2,99/5=2) pseudo=read geom=check gue
 ss=(read,tcheck) scf=(maxcycle=1)
 ----------------------------------------------------------------------
 -----
 title
 -----
 Structure from the checkpoint file:  "BDE49_nonexpt_1223_mol1.chk"
 Charge =  0 Multiplicity = 1

                         Standard orientation:
 ---------------------------------------------------------------------
 Center     Atomic      Atomic             Coordinates (Angstroms)
 Number     Number       Type             X           Y           Z
 ---------------------------------------------------------------------
      1          6           0        2.873208   -0.235176   -0.055024
      2          8           0        1.647672   -0.071763   -0.681355
      3          9           0        3.400439    0.932894    0.306581
      4          9           0        3.666990   -0.812304   -0.947757
      5          9           0        2.778947   -1.019171    1.016263
      6          6           0        0.633614    0.512345    0.025022
      7          8           0       -0.401888    0.551785   -0.860985
      8          8           0        0.665957    0.902168    1.141993
      9         16           0       -1.875243    1.194006   -0.294228
     10          6           0       -2.686657   -0.401962    0.058832
     11          9           0       -3.882798   -0.083813    0.577612
     12          9           0       -2.873150   -1.147005   -1.032793
     13          9           0       -2.002766   -1.138697    0.939809
 ---------------------------------------------------------------------

 SCF Done:  E(RHF) =  -1333.38280026     A.U. after    2 cycles

 The electronic state is 1-A.
 Alpha  occ. eigenvalues --  -94.07703 -26.54689 -26.54144 -26.54007 -26.53950
 Alpha  occ. eigenvalues --  -26.53877 -26.53844 -20.67341 -20.67060 -20.59597
 Alpha  occ. eigenvalues --  -11.60992 -11.57702 -11.50637  -8.35190  -6.32977
 Alpha  occ. eigenvalues --   -6.32749  -6.32440  -1.77028  -1.75408  -1.65555
 Alpha  occ. eigenvalues --   -1.65476  -1.65312  -1.64861  -1.64559  -1.55370
 Alpha  occ. eigenvalues --   -1.52999  -1.12075  -1.02390  -0.95895  -0.91685
 Alpha  occ. eigenvalues --   -0.86671  -0.86305  -0.84924  -0.84669  -0.83013
 Alpha  occ. eigenvalues --   -0.79794  -0.77001  -0.74701  -0.72679  -0.72019
 Alpha  occ. eigenvalues --   -0.71674  -0.71009  -0.70611  -0.67511  -0.67207
 Alpha  occ. eigenvalues --   -0.66911  -0.66796  -0.65371  -0.65112  -0.63273
 Alpha  occ. eigenvalues --   -0.62379  -0.60698  -0.54998  -0.51975  -0.51552
 Alpha  occ. eigenvalues --   -0.44701
 Alpha virt. eigenvalues --    0.04737   0.05919   0.07574   0.07873   0.08890
 Alpha virt. eigenvalues --    0.09069   0.09808   0.10877   0.11188   0.12103
 Alpha virt. eigenvalues --    0.12814   0.14423   0.14548   0.15510   0.17114

 Mulliken charges:
               1
     1  C    2.848710
     2  O   -1.307635
     3  F   -0.685246
     4  F   -0.670225
     5  F   -0.679312
     6  C    2.031912
     7  O   -1.235424
     8  O   -0.851558
     9  S    0.815317
    10  C    1.804650
    11  F   -0.651075
    12  F   -0.687469
    13  F   -0.732644
 Sum of Mulliken charges =  -0.00000

 Dipole moment (field-independent basis, Debye):
    X=             -0.8674    Y=              0.5818    Z=             -0.9277  Tot=              1.3969

 Test job not archived.
 1\1\GINC-SE179\SP\RHF\Aug-CC-pVDZ\C3F6O3S1\OHZDE\08-Apr-2025\0\\#t hf
 aug-cc-pvdz iop(5/13=1,5/36=2,99/5=2) pseudo=read geom=check guess=(re
 ad,tcheck) scf=(maxcycle=1)\\title\\0,1\C,0,-2.873208,0.235176,-0.0550
 24\O,0,-1.647672,0.071763,-0.681355\F,0,-3.400439,-0.932894,0.306581\F
 ,0,-3.66699,0.812304,-0.947757\F,0,-2.778947,1.019171,1.016263\C,0,-0.
 633614,-0.512345,0.025022\O,0,0.401888,-0.551785,-0.860985\O,0,-0.6659
 57,-0.902168,1.141993\S,0,1.875243,-1.194006,-0.294228\C,0,2.686657,0.
 401962,0.058832\F,0,3.882798,0.083813,0.577612\F,0,2.87315,1.147005,-1

 Normal termination of Gaussian 16 at Tue Apr  8 23:24:06 2025.
