 Gaussian 16, Revision C.01,

 ----------------------------------------------------------------------
 #t hf aug-cc-pvdz symm=none int=(grid=ultrafine) guess=(read,tcheck) s
 table=opt
 ----------------------------------------------------------------------
 -----
 title
 -----
 Symbolic Z-matrix:
 Charge =  0 Multiplicity = 2

 SCF Done:  E(UHF) =  -484.652180958     A.U. after   15 cycles
 Normal termination of Gaussian 16 at Wed Apr  9 00:46:45 2025.
 Gaussian 16:  ES64L-G16RevC.01  3-Jul-2019

 ----------------------------------------------------------------------
 #t hf aug-cc-pvdz iop(5/13=1,5/36=2,99/5=2) pseudo=read geom=check gue
 ss=(read,tcheck) scf=(maxcycle=1)
 ----------------------------------------------------------------------
 -----
 title
 -----
 Structure from the checkpoint file:  "BDE49_nonexpt_806_mol2.chk"
 Charge =  0 Multiplicity = 2

                         Standard orientation:
 ---------------------------------------------------------------------
 Center     Atomic      Atomic             Coordinates (Angstroms)
 Number     Number       Type             X           Y           Z
 ---------------------------------------------------------------------
      1          6           0       -0.381092    0.000001    0.766932
      2          6           0        0.568057    1.204863    0.571831
      3          6           0        0.568057   -1.204862    0.571832
      4          6           0        1.520070   -0.778413   -0.570049
      5          1           0        0.050897   -2.144539    0.359313
      6          1           0        1.137456   -1.358868    1.495651
      7          6           0        1.520073    0.778411   -0.570048
      8          1           0        1.156368   -1.156353   -1.529097
      9          1           0        2.521290   -1.191503   -0.429120
     10          1           0        2.521293    1.191498   -0.429116
     11          1           0        1.156374    1.156353   -1.529098
     12          1           0        1.137455    1.358871    1.495650
     13          1           0        0.050898    2.144539    0.359309
     14         14           0       -1.875619   -0.000000   -0.412273
     15          1           0       -0.816666    0.000002    1.775008
     16          1           0       -2.713843    1.213963   -0.209829
     17          1           0       -2.713844   -1.213962   -0.209827
 ---------------------------------------------------------------------

 SCF Done:  E(UHF) =  -484.897902237     A.U. after    2 cycles

 The electronic state is 2-A.
 Alpha  occ. eigenvalues --  -69.52653 -11.23148 -11.23125 -11.22703 -11.22636
 Alpha  occ. eigenvalues --  -11.22627  -6.19798  -3.95760  -3.94855  -3.94824
 Alpha  occ. eigenvalues --   -1.12069  -0.96414  -0.96335  -0.79739  -0.77860
 Alpha  occ. eigenvalues --   -0.70743  -0.66390  -0.64373  -0.58566  -0.55589
 Alpha  occ. eigenvalues --   -0.49893  -0.49394  -0.49046  -0.48175  -0.46900
 Alpha  occ. eigenvalues --   -0.45743  -0.42629  -0.32247
 Alpha virt. eigenvalues --    0.03560   0.03761   0.04075   0.04175   0.06004
 Alpha virt. eigenvalues --    0.06268   0.06289   0.06371   0.06666   0.09390
 Alpha virt. eigenvalues --    0.09728   0.09909   0.10118   0.11676   0.13330

  Beta  occ. eigenvalues --  -69.52107 -11.23153 -11.23129 -11.22636 -11.22631
  Beta  occ. eigenvalues --  -11.22621  -6.18976  -3.94481  -3.94456  -3.93609
  Beta  occ. eigenvalues --   -1.11969  -0.96412  -0.96064  -0.78715  -0.77835
  Beta  occ. eigenvalues --   -0.68106  -0.66096  -0.63309  -0.58511  -0.55210
  Beta  occ. eigenvalues --   -0.49426  -0.49020  -0.48867  -0.48147  -0.46693
  Beta  occ. eigenvalues --   -0.45496  -0.41655
  Beta virt. eigenvalues --    0.02961   0.03604   0.03933   0.04191   0.04894
  Beta virt. eigenvalues --    0.06116   0.06314   0.06408   0.06411   0.07885
  Beta virt. eigenvalues --    0.09477   0.09776   0.10237   0.10547   0.12027

 Mulliken charges and spin densities:
               1          2
     1  C   -0.396058  -0.052412
     2  C   -0.173020   0.027091
     3  C   -0.173022   0.027091
     4  C   -0.230088  -0.005093
     5  H    0.095947  -0.002479
     6  H    0.123458  -0.000245
     7  C   -0.230092  -0.005093
     8  H    0.119863  -0.001584
     9  H    0.114830  -0.000672
    10  H    0.114828  -0.000672
    11  H    0.119868  -0.001585
    12  H    0.123458  -0.000245
    13  H    0.095945  -0.002479
    14  Si   0.291485   1.017641
    15  H    0.182664  -0.013782
    16  H   -0.090034   0.007259
    17  H   -0.090034   0.007259
 Sum of Mulliken charges =  -0.00000   1.00000

 Dipole moment (field-independent basis, Debye):
    X=              0.8539    Y=             -0.0000    Z=              0.6074  Tot=              1.0479
                          Isotropic Fermi Contact Couplings
        Atom                 a.u.       MegaHertz       Gauss      10(-4) cm-1
     1  C(13)              0.00877       9.85760       3.51744       3.28814
     2  C(13)             -0.00036      -0.39931      -0.14249      -0.13320
     3  C(13)             -0.00036      -0.39931      -0.14248      -0.13320
     4  C(13)              0.00007       0.08389       0.02994       0.02798
     5  H(1)              -0.00003      -0.13337      -0.04759      -0.04449
     6  H(1)              -0.00028      -1.26707      -0.45212      -0.42265
     7  C(13)              0.00007       0.08388       0.02993       0.02798
     8  H(1)               0.00014       0.60928       0.21740       0.20323

 Normal termination of Gaussian 16 at Wed Apr  9 00:46:52 2025.
