 Gaussian 16, Revision C.01,

 ----------------------------------------------------------------------
 #t hf aug-cc-pvdz symm=none int=(grid=ultrafine) guess=(read,tcheck) s
 table=(opt,rrhf)
 ----------------------------------------------------------------------
 -----
 title
 -----
 Symbolic Z-matrix:
 Charge =  0 Multiplicity = 1

 SCF Done:  E(RHF) =  -408.649489349     A.U. after   16 cycles

 1\1\GINC-SE457\Stability\RHF\Aug-CC-pVDZ\C10H9B1\OHZDE\09-Apr-2025\0\\
 #t hf aug-cc-pvdz symm=none int=(grid=ultrafine) guess=(read,tcheck) s
 table=(opt,rrhf)\\title\\0,1\C,0,1.056471,1.432059,0.\C,0,2.372979,1.0
 33425,0.\C,0,2.712081,-0.337155,0.\C,0,1.718969,-1.284459,0.\C,0,0.351
 934,-0.903186,0.\C,0,0.,0.485545,0.\H,0,0.814705,2.486223,0.\H,0,3.160
 618,1.778737,0.\H,0,3.754232,-0.635574,0.\H,0,1.965026,-2.34127,0.\C,0
 ,-1.395816,0.865729,0.\C,0,-2.349509,-0.152353,0.\C,0,-0.678045,-1.879
 088,0.\C,0,-2.003365,-1.516202,0.\H,0,-0.397241,-2.927768,0.\H,0,-2.77

 Normal termination of Gaussian 16 at Wed Apr  9 00:23:49 2025.
 Gaussian 16:  ES64L-G16RevC.01  3-Jul-2019

 ----------------------------------------------------------------------
 #t hf aug-cc-pvdz iop(5/13=1,5/36=2,99/5=2) pseudo=read geom=check gue
 ss=(read,tcheck) scf=(maxcycle=1)
 ----------------------------------------------------------------------
 -----
 title
 -----
 Structure from the checkpoint file:  "BDE49_nonexpt_264_mol1.chk"
 Charge =  0 Multiplicity = 1

                         Standard orientation:
 ---------------------------------------------------------------------
 Center     Atomic      Atomic             Coordinates (Angstroms)
 Number     Number       Type             X           Y           Z
 ---------------------------------------------------------------------
      1          6           0        1.056471    1.432059    0.000000
      2          6           0        2.372979    1.033425    0.000000
      3          6           0        2.712081   -0.337155    0.000000
      4          6           0        1.718969   -1.284459    0.000000
      5          6           0        0.351934   -0.903186    0.000000
      6          6           0        0.000000    0.485545    0.000000
      7          1           0        0.814705    2.486223    0.000000
      8          1           0        3.160618    1.778737    0.000000
      9          1           0        3.754232   -0.635574    0.000000
     10          1           0        1.965026   -2.341270    0.000000
     11          6           0       -1.395816    0.865729    0.000000
     12          6           0       -2.349509   -0.152353    0.000000
     13          6           0       -0.678045   -1.879088    0.000000
     14          6           0       -2.003365   -1.516202    0.000000
     15          1           0       -0.397241   -2.927768    0.000000
     16          1           0       -2.779244   -2.273239    0.000000
     17          1           0       -3.398570    0.122689    0.000000
     18          5           0       -1.910050    2.312512    0.000000
     19          1           0       -1.194338    3.264654    0.000000
     20          1           0       -3.089130    2.497084    0.000000
 ---------------------------------------------------------------------

 SCF Done:  E(RHF) =  -409.067878374     A.U. after    2 cycles

 The electronic state is 1-A'.
 Alpha  occ. eigenvalues --  -11.26240 -11.25970 -11.25911 -11.25315 -11.24962
 Alpha  occ. eigenvalues --  -11.24823 -11.24722 -11.24599 -11.24228 -11.22412
 Alpha  occ. eigenvalues --   -7.59169  -1.18132  -1.11633  -1.05498  -1.01506
 Alpha  occ. eigenvalues --   -0.98834  -0.86848  -0.85009  -0.83181  -0.73023
 Alpha  occ. eigenvalues --   -0.71955  -0.70024  -0.67819  -0.63671  -0.61382
 Alpha  occ. eigenvalues --   -0.60382  -0.58309  -0.56479  -0.54469  -0.52941
 Alpha  occ. eigenvalues --   -0.50737  -0.47723  -0.46689  -0.46158  -0.39997
 Alpha  occ. eigenvalues --   -0.33353  -0.30590
 Alpha virt. eigenvalues --    0.03037   0.03074   0.03168   0.03578   0.04325
 Alpha virt. eigenvalues --    0.04479   0.05160   0.06457   0.06806   0.07710
 Alpha virt. eigenvalues --    0.09046   0.09437   0.09824   0.10287   0.10625

 Mulliken charges:
               1
     1  C    0.223374
     2  C   -0.136799
     3  C   -0.104622
     4  C    0.361620
     5  C    1.042703
     6  C    1.049593
     7  H   -0.387985
     8  H   -0.256865
     9  H   -0.234695
    10  H   -0.309363
    11  C   -0.453919
    12  C    0.437814
    13  C    0.346822
    14  C   -0.295983
    15  H   -0.318878
    16  H   -0.232521
    17  H   -0.305342
    18  B   -0.831960
    19  H    0.175099
    20  H    0.231906
 Sum of Mulliken charges =   0.00000

 Dipole moment (field-independent basis, Debye):
    X=              0.5119    Y=             -1.4094    Z=              0.0000  Tot=              1.4994

 Test job not archived.
 1\1\GINC-SE457\SP\RHF\Aug-CC-pVDZ\C10H9B1\OHZDE\09-Apr-2025\0\\#t hf a
 ug-cc-pvdz iop(5/13=1,5/36=2,99/5=2) pseudo=read geom=check guess=(rea
 d,tcheck) scf=(maxcycle=1)\\title\\0,1\C,0,1.056471,1.432059,0.\C,0,2.
 372979,1.033425,0.\C,0,2.712081,-0.337155,0.\C,0,1.718969,-1.284459,0.
 \C,0,0.351934,-0.903186,0.\C,0,0.,0.485545,0.\H,0,0.814705,2.486223,0.
 \H,0,3.160618,1.778737,0.\H,0,3.754232,-0.635574,0.\H,0,1.965026,-2.34
 127,0.\C,0,-1.395816,0.865729,0.\C,0,-2.349509,-0.152353,0.\C,0,-0.678
 045,-1.879088,0.\C,0,-2.003365,-1.516202,0.\H,0,-0.397241,-2.927768,0.

 Normal termination of Gaussian 16 at Wed Apr  9 00:24:01 2025.
