 Gaussian 16, Revision C.01,

 ----------------------------------------------------------------------
 #t hf aug-cc-pvdz symm=none int=(grid=ultrafine) guess=(read,tcheck) s
 table=(opt,rrhf)
 ----------------------------------------------------------------------
 -----
 title
 -----
 Symbolic Z-matrix:
 Charge =  0 Multiplicity = 1

 SCF Done:  E(RHF) =  -1394.35951354     A.U. after   13 cycles
 Normal termination of Gaussian 16 at Tue Apr  8 23:40:58 2025.
 Gaussian 16:  ES64L-G16RevC.01  3-Jul-2019

 ----------------------------------------------------------------------
 #t hf aug-cc-pvdz iop(5/13=1,5/36=2,99/5=2) pseudo=read geom=check gue
 ss=(read,tcheck) scf=(maxcycle=1)
 ----------------------------------------------------------------------
 -----
 title
 -----
 Structure from the checkpoint file:  "BDE49_nonexpt_1637_mol1.chk"
 Charge =  0 Multiplicity = 1

                         Standard orientation:
 ---------------------------------------------------------------------
 Center     Atomic      Atomic             Coordinates (Angstroms)
 Number     Number       Type             X           Y           Z
 ---------------------------------------------------------------------
      1         14           0       -0.878984    0.424324    0.001681
      2         15           0        1.327706   -0.131222    0.142949
      3          8           0        1.791777   -0.665899    1.435410
      4          6           0       -1.254529    1.308057   -1.595888
      5          1           0       -0.962038    0.700046   -2.454381
      6          1           0       -0.706317    2.253103   -1.640951
      7          6           0       -1.365822    1.360979    1.536175
      8         17           0       -1.869445   -1.423281   -0.010927
      9          1           0       -0.843897    2.321918    1.571606
     10          1           0       -1.103446    0.794849    2.432153
     11          1           0       -2.442659    1.550479    1.544115
     12          1           0       -2.324998    1.519226   -1.670150
     13          8           0        1.667986   -1.102458   -1.113291
     14          1           0        1.668787   -2.029901   -0.844112
     15          8           0        1.996200    1.248080   -0.358137
     16          1           0        2.959717    1.261838   -0.273883
 ---------------------------------------------------------------------

 SCF Done:  E(RHF) =  -1394.82645393     A.U. after    2 cycles

 The electronic state is 1-A.
 Alpha  occ. eigenvalues -- -105.56132 -84.41903 -69.58969 -20.59633 -20.59049
 Alpha  occ. eigenvalues --  -20.50291 -11.24010 -11.23823 -10.61087  -7.77975
 Alpha  occ. eigenvalues --   -7.77687  -7.77679  -6.87307  -6.25658  -4.41361
 Alpha  occ. eigenvalues --   -4.40654  -4.39656  -4.01031  -4.00900  -4.00845
 Alpha  occ. eigenvalues --   -1.52926  -1.47033  -1.38386  -1.06196  -0.98500
 Alpha  occ. eigenvalues --   -0.95895  -0.86608  -0.73691  -0.70173  -0.66448
 Alpha  occ. eigenvalues --   -0.63162  -0.60708  -0.59842  -0.58304  -0.58167
 Alpha  occ. eigenvalues --   -0.57654  -0.55334  -0.54397  -0.51932  -0.50994
 Alpha  occ. eigenvalues --   -0.49509  -0.47402  -0.45525  -0.45260  -0.40564
 Alpha virt. eigenvalues --    0.03062   0.03743   0.04324   0.04736   0.05938
 Alpha virt. eigenvalues --    0.06477   0.07001   0.07500   0.07782   0.10023
 Alpha virt. eigenvalues --    0.10865   0.11400   0.11924   0.12512   0.13243

 Mulliken charges:
               1
     1  Si   1.903018
     2  P    3.265780
     3  O   -1.558309
     4  C   -0.641010
     5  H   -0.002462
     6  H    0.135903
     7  C   -0.610897
     8  Cl  -0.680255
     9  H    0.098962
    10  H    0.020862
    11  H    0.031068
    12  H    0.019902
    13  O   -1.344325
    14  H    0.334625
    15  O   -1.296466
    16  H    0.323602
 Sum of Mulliken charges =  -0.00000

 Dipole moment (field-independent basis, Debye):
    X=             -0.3957    Y=              2.3532    Z=             -2.0281  Tot=              3.1317

 Test job not archived.
 1\1\GINC-SE335\SP\RHF\Aug-CC-pVDZ\C2H8Cl1O3P1Si1\OHZDE\08-Apr-2025\0\\
 #t hf aug-cc-pvdz iop(5/13=1,5/36=2,99/5=2) pseudo=read geom=check gue
 ss=(read,tcheck) scf=(maxcycle=1)\\title\\0,1\Si,0,-0.878984,0.424324,
 0.001681\P,0,1.327706,-0.131222,0.142949\O,0,1.791777,-0.665899,1.4354
 1\C,0,-1.254529,1.308057,-1.595888\H,0,-0.962038,0.700046,-2.454381\H,
 0,-0.706316,2.253103,-1.640951\C,0,-1.365822,1.36098,1.536175\Cl,0,-1.
 869445,-1.42328,-0.010927\H,0,-0.843896,2.321918,1.571606\H,0,-1.10344
 6,0.794849,2.432153\H,0,-2.442659,1.55048,1.544115\H,0,-2.324998,1.519

 Normal termination of Gaussian 16 at Tue Apr  8 23:41:05 2025.
