 Gaussian 16, Revision C.01,

 ----------------------------------------------------------------------
 #t hf aug-cc-pvdz symm=none int=(grid=ultrafine) guess=(read,tcheck) s
 table=(opt,rrhf)
 ----------------------------------------------------------------------
 -----
 title
 -----
 Symbolic Z-matrix:
 Charge =  0 Multiplicity = 1

 SCF Done:  E(RHF) =  -810.511146792     A.U. after   13 cycles
 Normal termination of Gaussian 16 at Wed Apr  9 00:32:53 2025.
 Gaussian 16:  ES64L-G16RevC.01  3-Jul-2019

 ----------------------------------------------------------------------
 #t hf aug-cc-pvdz iop(5/13=1,5/36=2,99/5=2) pseudo=read geom=check gue
 ss=(read,tcheck) scf=(maxcycle=1)
 ----------------------------------------------------------------------
 -----
 title
 -----
 Structure from the checkpoint file:  "BDE49_nonexpt_404_mol1.chk"
 Charge =  0 Multiplicity = 1

                         Standard orientation:
 ---------------------------------------------------------------------
 Center     Atomic      Atomic             Coordinates (Angstroms)
 Number     Number       Type             X           Y           Z
 ---------------------------------------------------------------------
      1          9           0        1.679295    1.317415   -0.000114
      2          9           0        2.021864   -0.938771   -0.000149
      3          5           0        1.214852    0.087415    0.000174
      4         16           0       -0.658956   -0.224582    0.000053
      5          8           0       -0.980365   -0.863348    1.265990
      6          6           0       -1.408310    1.407946    0.000006
      7          8           0       -0.980227   -0.863365   -1.265911
      8          1           0       -1.111040    1.942323    0.901529
      9          1           0       -2.484834    1.229839   -0.000054
     10          1           0       -1.110939    1.942316   -0.901487
 ---------------------------------------------------------------------

 SCF Done:  E(RHF) =  -810.966158782     A.U. after    2 cycles

 The electronic state is 1-A.
 Alpha  occ. eigenvalues --  -94.19966 -26.53877 -26.53064 -20.55062 -20.55060
 Alpha  occ. eigenvalues --  -11.30306  -8.45507  -7.79744  -6.43607  -6.43373
 Alpha  occ. eigenvalues --   -6.43319  -1.68741  -1.65039  -1.56500  -1.44865
 Alpha  occ. eigenvalues --   -1.08138  -0.92752  -0.84860  -0.80220  -0.77411
 Alpha  occ. eigenvalues --   -0.74774  -0.69261  -0.68640  -0.68486  -0.67506
 Alpha  occ. eigenvalues --   -0.67394  -0.62170  -0.61663  -0.51112  -0.49853
 Alpha  occ. eigenvalues --   -0.47610  -0.44235
 Alpha virt. eigenvalues --    0.02807   0.04100   0.04160   0.05376   0.06661
 Alpha virt. eigenvalues --    0.06679   0.08168   0.08896   0.11901   0.12367
 Alpha virt. eigenvalues --    0.14319   0.15059   0.16060   0.16507   0.17359

 Mulliken charges:
               1
     1  F   -0.549213
     2  F   -0.700538
     3  B    1.666944
     4  S    2.745743
     5  O   -1.489760
     6  C   -0.818440
     7  O   -1.489778
     8  H    0.197827
     9  H    0.239394
    10  H    0.197823
 Sum of Mulliken charges =  -0.00000

 Dipole moment (field-independent basis, Debye):
    X=              0.7562    Y=              4.3133    Z=              0.0008  Tot=              4.3791

 Test job not archived.
 1\1\GINC-SE071\SP\RHF\Aug-CC-pVDZ\C1H3B1F2O2S1\OHZDE\09-Apr-2025\0\\#t
  hf aug-cc-pvdz iop(5/13=1,5/36=2,99/5=2) pseudo=read geom=check guess
 =(read,tcheck) scf=(maxcycle=1)\\title\\0,1\F,0,1.679295,1.317415,-0.0
 00114\F,0,2.021864,-0.938771,-0.000149\B,0,1.214852,0.087415,0.000174\
 S,0,-0.658956,-0.224582,0.000053\O,0,-0.980365,-0.863348,1.26599\C,0,-
 1.40831,1.407946,0.000006\O,0,-0.980227,-0.863365,-1.265911\H,0,-1.111
 04,1.942323,0.901529\H,0,-2.484834,1.229839,-0.000054\H,0,-1.110939,1.
 942316,-0.901487\\Version=ES64L-G16RevC.01\State=1-A\HF=-810.9661588\R

 Normal termination of Gaussian 16 at Wed Apr  9 00:32:57 2025.
