 Gaussian 16, Revision C.01,

 ----------------------------------------------------------------------
 #t hf aug-cc-pvdz symm=none int=(grid=ultrafine) guess=(read,tcheck) s
 table=(opt,rrhf)
 ----------------------------------------------------------------------
 -----
 title
 -----
 Symbolic Z-matrix:
 Charge =  0 Multiplicity = 1

 SCF Done:  E(RHF) =  -1103.84996666     A.U. after   17 cycles
 Normal termination of Gaussian 16 at Tue Apr  8 23:00:54 2025.
 Gaussian 16:  ES64L-G16RevC.01  3-Jul-2019

 ----------------------------------------------------------------------
 #t hf aug-cc-pvdz iop(5/13=1,5/36=2,99/5=2) pseudo=read geom=check gue
 ss=(read,tcheck) scf=(maxcycle=1)
 ----------------------------------------------------------------------
 -----
 title
 -----
 Structure from the checkpoint file:  "BDE49_expt_1895_mol1.chk"
 Charge =  0 Multiplicity = 1

                         Standard orientation:
 ---------------------------------------------------------------------
 Center     Atomic      Atomic             Coordinates (Angstroms)
 Number     Number       Type             X           Y           Z
 ---------------------------------------------------------------------
      1          6           0       -3.304343    0.346102   -0.107294
      2          8           0       -2.877008    1.211164   -0.808270
      3          8           0       -2.566717   -0.299421    0.870594
      4          8           0       -1.224920    0.210890    0.930480
      5          6           0       -0.406931   -0.423151    0.002297
      6          8           0       -0.752864   -1.332083   -0.685266
      7          6           0       -4.681449   -0.262661   -0.122492
      8          1           0       -5.389917    0.489237   -0.466757
      9          1           0       -4.967089   -0.642783    0.857624
     10          1           0       -4.677770   -1.095670   -0.830072
     11          6           0        0.915989    0.266763    0.032725
     12          6           0        0.945657    1.668196    0.055108
     13          6           0        2.151705    2.355302    0.006952
     14          6           0        3.348063    1.644942   -0.049791
     15          6           0        3.339213    0.253457   -0.062158
     16          6           0        2.129482   -0.433423   -0.027329
     17          1           0        2.156325    3.438372    0.012728
     18          1           0        4.264011   -0.307245   -0.097634
     19          1           0        0.005968    2.203580    0.089308
     20          1           0        4.295420    2.170304   -0.084129
     21         17           0        2.180047   -2.180786   -0.018205
 ---------------------------------------------------------------------

 SCF Done:  E(RHF) =  -1104.55782734     A.U. after    2 cycles

 The electronic state is 1-A.
 Alpha  occ. eigenvalues -- -105.58005 -20.66911 -20.66843 -20.56063 -20.55981
 Alpha  occ. eigenvalues --  -11.41788 -11.41476 -11.33537 -11.28727 -11.27736
 Alpha  occ. eigenvalues --  -11.27659 -11.27060 -11.26956 -11.26609 -10.62811
 Alpha  occ. eigenvalues --   -7.79783  -7.79369  -7.79354  -1.66243  -1.51917
 Alpha  occ. eigenvalues --   -1.49801  -1.36867  -1.20357  -1.11181  -1.06957
 Alpha  occ. eigenvalues --   -1.03686  -1.00693  -0.91380  -0.86670  -0.83447
 Alpha  occ. eigenvalues --   -0.79445  -0.76357  -0.72704  -0.71668  -0.70659
 Alpha  occ. eigenvalues --   -0.68907  -0.67151  -0.64881  -0.64228  -0.62760
 Alpha  occ. eigenvalues --   -0.61681  -0.59418  -0.57913  -0.56837  -0.56027
 Alpha  occ. eigenvalues --   -0.55632  -0.53878  -0.50323  -0.49874  -0.48832
 Alpha  occ. eigenvalues --   -0.48026  -0.46379  -0.45394  -0.37860  -0.36077
 Alpha virt. eigenvalues --    0.02940   0.03588   0.03804   0.05051   0.05564
 Alpha virt. eigenvalues --    0.05790   0.06073   0.07051   0.08183   0.08634
 Alpha virt. eigenvalues --    0.09577   0.10150   0.10839   0.11990   0.12114

 Mulliken charges:
               1
     1  C    1.834430
     2  O   -1.195253
     3  O   -0.792506
     4  O   -0.812315
     5  C    1.390874
     6  O   -1.213310
     7  C   -0.626829
     8  H    0.219921
     9  H    0.219414
    10  H    0.286712
    11  C    2.395278
    12  C   -0.292642
    13  C   -0.176139
    14  C    0.076994
    15  C    0.481830
    16  C   -0.534525
    17  H   -0.219615
    18  H   -0.176722
    19  H   -0.342519
    20  H   -0.207572
    21  Cl  -0.315508
 Sum of Mulliken charges =  -0.00000

 Dipole moment (field-independent basis, Debye):
    X=              0.0936    Y=              2.0517    Z=              1.0515  Tot=              2.3073

 Test job not archived.
 1\1\GINC-SE045\SP\RHF\Aug-CC-pVDZ\C9H7Cl1O4\OHZDE\08-Apr-2025\0\\#t hf
  aug-cc-pvdz iop(5/13=1,5/36=2,99/5=2) pseudo=read geom=check guess=(r
 ead,tcheck) scf=(maxcycle=1)\\title\\0,1\C,0,-3.304343,0.346102,-0.107
 294\O,0,-2.877008,1.211164,-0.80827\O,0,-2.566717,-0.299421,0.870594\O
 ,0,-1.22492,0.21089,0.93048\C,0,-0.406931,-0.423151,0.002297\O,0,-0.75
 2864,-1.332083,-0.685266\C,0,-4.681449,-0.262661,-0.122492\H,0,-5.3899
 17,0.489237,-0.466757\H,0,-4.967089,-0.642783,0.857624\H,0,-4.67777,-1
 .09567,-0.830072\C,0,0.915989,0.266763,0.032725\C,0,0.945657,1.668196,

 Normal termination of Gaussian 16 at Tue Apr  8 23:01:13 2025.
