 Gaussian 16, Revision C.01,

 ----------------------------------------------------------------------
 #t hf aug-cc-pvdz symm=none int=(grid=ultrafine) guess=(read,tcheck) s
 table=(opt,rrhf)
 ----------------------------------------------------------------------
 -----
 title
 -----
 Symbolic Z-matrix:
 Charge =  0 Multiplicity = 1

 SCF Done:  E(RHF) =  -605.433779090     A.U. after   14 cycles
 Normal termination of Gaussian 16 at Tue Apr  8 22:32:40 2025.
 Gaussian 16:  ES64L-G16RevC.01  3-Jul-2019

 ----------------------------------------------------------------------
 #t hf aug-cc-pvdz iop(5/13=1,5/36=2,99/5=2) pseudo=read geom=check gue
 ss=(read,tcheck) scf=(maxcycle=1)
 ----------------------------------------------------------------------
 -----
 title
 -----
 Structure from the checkpoint file:  "BDE49_expt_1044_mol1.chk"
 Charge =  0 Multiplicity = 1

                         Standard orientation:
 ---------------------------------------------------------------------
 Center     Atomic      Atomic             Coordinates (Angstroms)
 Number     Number       Type             X           Y           Z
 ---------------------------------------------------------------------
      1          6           0        0.552469   -0.000003    0.556176
      2          6           0        1.223184   -1.203347    0.321936
      3          6           0        2.539468   -1.204590   -0.131702
      4          6           0        3.201074    0.000003   -0.359407
      5          6           0        2.539463    1.204593   -0.131699
      6          6           0        1.223180    1.203344    0.321939
      7          1           0        0.712289    2.144222    0.495915
      8          1           0        4.226780    0.000005   -0.710257
      9          1           0        3.048120    2.145997   -0.305824
     10          1           0        0.712297   -2.144227    0.495910
     11          1           0        3.048128   -2.145992   -0.305828
     12          6           0       -1.899231    0.000000   -0.086470
     13          9           0       -3.158459   -0.000005    0.409770
     14          9           0       -1.785241   -1.087027   -0.878902
     15          9           0       -1.785243    1.087037   -0.878888
     16          6           0       -0.880713   -0.000006    1.037123
     17          1           0       -1.090239   -0.881262    1.647431
     18          1           0       -1.090240    0.881242    1.647442
 ---------------------------------------------------------------------

 SCF Done:  E(RHF) =  -606.020848247     A.U. after    2 cycles

 The electronic state is 1-A.
 Alpha  occ. eigenvalues --  -26.49869 -26.49845 -26.49841 -11.51357 -11.27674
 Alpha  occ. eigenvalues --  -11.26382 -11.25321 -11.25305 -11.25247 -11.25177
 Alpha  occ. eigenvalues --  -11.25147  -1.70465  -1.60432  -1.60379  -1.17249
 Alpha  occ. eigenvalues --   -1.09241  -1.02741  -1.00492  -0.90993  -0.84898
 Alpha  occ. eigenvalues --   -0.83532  -0.80308  -0.80086  -0.76623  -0.71750
 Alpha  occ. eigenvalues --   -0.68636  -0.68061  -0.66187  -0.65236  -0.63014
 Alpha  occ. eigenvalues --   -0.62981  -0.61244  -0.60892  -0.59505  -0.57725
 Alpha  occ. eigenvalues --   -0.57217  -0.51629  -0.51376  -0.51211  -0.35561
 Alpha  occ. eigenvalues --   -0.35349
 Alpha virt. eigenvalues --    0.03230   0.03516   0.03608   0.04891   0.05084
 Alpha virt. eigenvalues --    0.07114   0.08252   0.08343   0.09288   0.09723
 Alpha virt. eigenvalues --    0.10294   0.10745   0.11725   0.13076   0.13909

 Mulliken charges:
               1
     1  C    1.437347
     2  C    0.027934
     3  C    0.144969
     4  C    0.042072
     5  C    0.144972
     6  C    0.027935
     7  H   -0.315198
     8  H   -0.214196
     9  H   -0.224567
    10  H   -0.315199
    11  H   -0.224567
    12  C    2.670842
    13  F   -0.765333
    14  F   -0.823070
    15  F   -0.823070
    16  C   -1.036940
    17  H    0.123034
    18  H    0.123034
 Sum of Mulliken charges =  -0.00000

 Dipole moment (field-independent basis, Debye):
    X=              1.9711    Y=             -0.0000    Z=              1.4604  Tot=              2.4531

 Test job not archived.
 1\1\GINC-SE453\SP\RHF\Aug-CC-pVDZ\C8H7F3\OHZDE\08-Apr-2025\0\\#t hf au
 g-cc-pvdz iop(5/13=1,5/36=2,99/5=2) pseudo=read geom=check guess=(read
 ,tcheck) scf=(maxcycle=1)\\title\\0,1\C,0,0.552469,-0.000003,0.556176\
 C,0,1.223184,-1.203347,0.321936\C,0,2.539468,-1.20459,-0.131702\C,0,3.
 201074,0.000003,-0.359407\C,0,2.539463,1.204593,-0.131699\C,0,1.22318,
 1.203344,0.321939\H,0,0.712289,2.144222,0.495915\H,0,4.22678,0.000005,
 -0.710257\H,0,3.04812,2.145997,-0.305824\H,0,0.712297,-2.144227,0.4959
 1\H,0,3.048128,-2.145992,-0.305828\C,0,-1.899231,0.,-0.08647\F,0,-3.15

 Normal termination of Gaussian 16 at Tue Apr  8 22:32:49 2025.
