 Gaussian 16, Revision C.01,

 ----------------------------------------------------------------------
 #t hf aug-cc-pvdz symm=none int=(grid=ultrafine) guess=(read,tcheck) s
 table=(opt,rrhf)
 ----------------------------------------------------------------------
 -----
 title
 -----
 Symbolic Z-matrix:
 Charge =  0 Multiplicity = 1

 SCF Done:  E(RHF) =  -540.363267689     A.U. after   12 cycles
 Normal termination of Gaussian 16 at Wed Apr  9 00:02:24 2025.
 Gaussian 16:  ES64L-G16RevC.01  3-Jul-2019

 ----------------------------------------------------------------------
 #t hf aug-cc-pvdz iop(5/13=1,5/36=2,99/5=2) pseudo=read geom=check gue
 ss=(read,tcheck) scf=(maxcycle=1)
 ----------------------------------------------------------------------
 -----
 title
 -----
 Structure from the checkpoint file:  "BDE49_nonexpt_2128_mol1.chk"
 Charge =  0 Multiplicity = 1

                         Standard orientation:
 ---------------------------------------------------------------------
 Center     Atomic      Atomic             Coordinates (Angstroms)
 Number     Number       Type             X           Y           Z
 ---------------------------------------------------------------------
      1         14           0        0.294352   -1.205542    0.000000
      2          6           0       -0.415735   -0.315156    1.497370
      3          6           0       -0.415735    1.217894    1.295320
      4          6           0       -1.112508    1.673742   -0.000000
      5          6           0       -0.415735    1.217894   -1.295320
      6          6           0       -0.415735   -0.315156   -1.497370
      7          7           0        2.017246   -1.004061   -0.000000
      8          1           0        2.545628   -1.243083    0.828003
      9          1           0        2.545628   -1.243083   -0.828003
     10          1           0        0.125024   -0.581213    2.413107
     11          1           0       -1.445211   -0.667928    1.643443
     12          1           0        0.618009    1.582449    1.285258
     13          1           0       -0.902963    1.701202    2.149952
     14          1           0       -1.172307    2.767576   -0.000000
     15          1           0       -2.149885    1.311851    0.000000
     16          1           0        0.618009    1.582449   -1.285258
     17          1           0       -0.902963    1.701202   -2.149952
     18          1           0       -1.445211   -0.667928   -1.643443
     19          1           0        0.125024   -0.581213   -2.413107
     20          1           0       -0.147742   -2.631573    0.000000
 ---------------------------------------------------------------------

 SCF Done:  E(RHF) =  -540.672808198     A.U. after    2 cycles

 The electronic state is 1-A'.
 Alpha  occ. eigenvalues --  -69.51584 -15.46849 -11.22447 -11.22446 -11.22123
 Alpha  occ. eigenvalues --  -11.20564 -11.20558  -6.18493  -3.93878  -3.93829
 Alpha  occ. eigenvalues --   -3.93799  -1.13187  -1.07940  -0.99665  -0.92753
 Alpha  occ. eigenvalues --   -0.82309  -0.77641  -0.70397  -0.67986  -0.63211
 Alpha  occ. eigenvalues --   -0.60667  -0.59478  -0.57796  -0.53729  -0.52593
 Alpha  occ. eigenvalues --   -0.49969  -0.49440  -0.48208  -0.46350  -0.44835
 Alpha  occ. eigenvalues --   -0.40710  -0.40057
 Alpha virt. eigenvalues --    0.03106   0.03941   0.03959   0.04100   0.05606
 Alpha virt. eigenvalues --    0.05790   0.06092   0.06176   0.06812   0.08901
 Alpha virt. eigenvalues --    0.08902   0.09004   0.09414   0.10147   0.10588

 Mulliken charges:
               1
     1  Si   0.941413
     2  C   -0.473338
     3  C   -0.386623
     4  C   -0.174477
     5  C   -0.386623
     6  C   -0.473338
     7  N    0.121295
     8  H   -0.027489
     9  H   -0.027489
    10  H    0.113209
    11  H    0.034949
    12  H    0.190788
    13  H    0.090105
    14  H    0.116844
    15  H    0.170659
    16  H    0.190788
    17  H    0.090105
    18  H    0.034949
    19  H    0.113209
    20  H   -0.258936
 Sum of Mulliken charges =  -0.00000

 Dipole moment (field-independent basis, Debye):
    X=              0.4238    Y=             -0.2182    Z=             -0.0000  Tot=              0.4767

 Test job not archived.
 1\1\GINC-SE094\SP\RHF\Aug-CC-pVDZ\C5H13N1Si1\OHZDE\09-Apr-2025\0\\#t h
 f aug-cc-pvdz iop(5/13=1,5/36=2,99/5=2) pseudo=read geom=check guess=(
 read,tcheck) scf=(maxcycle=1)\\title\\0,1\Si,0,-0.294352,1.205542,0.\C
 ,0,0.415735,0.315156,1.49737\C,0,0.415735,-1.217894,1.29532\C,0,1.1125
 08,-1.673742,0.\C,0,0.415735,-1.217894,-1.29532\C,0,0.415735,0.315156,
 -1.49737\N,0,-2.017246,1.004061,0.\H,0,-2.545628,1.243083,0.828003\H,0
 ,-2.545628,1.243083,-0.828003\H,0,-0.125024,0.581213,2.413107\H,0,1.44
 5211,0.667928,1.643443\H,0,-0.618009,-1.582449,1.285258\H,0,0.902963,-

 Normal termination of Gaussian 16 at Wed Apr  9 00:02:30 2025.
