 Gaussian 16, Revision C.01,

 ----------------------------------------------------------------------
 #t hf aug-cc-pvdz symm=none int=(grid=ultrafine) guess=(read,tcheck) s
 table=(opt,rrhf)
 ----------------------------------------------------------------------
 -----
 title
 -----
 Symbolic Z-matrix:
 Charge =  0 Multiplicity = 1

 SCF Done:  E(RHF) =  -1171.02749767     A.U. after   13 cycles
 Normal termination of Gaussian 16 at Tue Apr  8 23:51:27 2025.
 Gaussian 16:  ES64L-G16RevC.01  3-Jul-2019

 ----------------------------------------------------------------------
 #t hf aug-cc-pvdz iop(5/13=1,5/36=2,99/5=2) pseudo=read geom=check gue
 ss=(read,tcheck) scf=(maxcycle=1)
 ----------------------------------------------------------------------
 -----
 title
 -----
 Structure from the checkpoint file:  "BDE49_nonexpt_188_mol1.chk"
 Charge =  0 Multiplicity = 1

                         Standard orientation:
 ---------------------------------------------------------------------
 Center     Atomic      Atomic             Coordinates (Angstroms)
 Number     Number       Type             X           Y           Z
 ---------------------------------------------------------------------
      1         17           0        1.561880   -1.520351   -0.121082
      2         17           0        1.561796    1.520392   -0.121080
      3          5           0        0.707629   -0.000003    0.014762
      4          6           0       -0.843368   -0.000048    0.351833
      5          8           0       -1.239010   -0.000008    1.493984
      6          8           0       -1.636333   -0.000028   -0.731354
      7          6           0       -3.060216   -0.000014   -0.479381
      8          1           0       -3.526980   -0.000002   -1.460932
      9          1           0       -3.344691    0.889364    0.084069
     10          1           0       -3.344711   -0.889396    0.084056
 ---------------------------------------------------------------------

 SCF Done:  E(RHF) =  -1171.42557029     A.U. after    2 cycles

 The electronic state is 1-A.
 Alpha  occ. eigenvalues -- -105.59559-105.59559 -20.60964 -20.55646 -11.39462
 Alpha  occ. eigenvalues --  -11.31023 -10.64583 -10.64554  -7.81478  -7.81458
 Alpha  occ. eigenvalues --   -7.81173  -7.81168  -7.81129  -7.81118  -7.74217
 Alpha  occ. eigenvalues --   -1.55848  -1.46742  -1.13043  -1.07852  -1.00079
 Alpha  occ. eigenvalues --   -0.84561  -0.76567  -0.69523  -0.68675  -0.67274
 Alpha  occ. eigenvalues --   -0.61200  -0.60784  -0.55896  -0.54983  -0.54503
 Alpha  occ. eigenvalues --   -0.51414  -0.49512  -0.48332  -0.46981  -0.44213
 Alpha virt. eigenvalues --    0.03427   0.04769   0.04879   0.05140   0.06335
 Alpha virt. eigenvalues --    0.06563   0.07082   0.07194   0.11954   0.12412
 Alpha virt. eigenvalues --    0.12615   0.13041   0.14437   0.14720   0.15470

 Mulliken charges:
               1
     1  Cl  -0.296343
     2  Cl  -0.296337
     3  B    0.555217
     4  C    1.600584
     5  O   -1.045590
     6  O   -1.133795
     7  C    0.298988
     8  H    0.008365
     9  H    0.154454
    10  H    0.154456
 Sum of Mulliken charges =  -0.00000

 Dipole moment (field-independent basis, Debye):
    X=             -1.3296    Y=             -0.0000    Z=             -1.7135  Tot=              2.1688

 Test job not archived.
 1\1\GINC-SE097\SP\RHF\Aug-CC-pVDZ\C2H3B1Cl2O2\OHZDE\08-Apr-2025\0\\#t
 hf aug-cc-pvdz iop(5/13=1,5/36=2,99/5=2) pseudo=read geom=check guess=
 (read,tcheck) scf=(maxcycle=1)\\title\\0,1\Cl,0,-1.56188,1.520351,-0.1
 21082\Cl,0,-1.561796,-1.520392,-0.12108\B,0,-0.707629,0.000003,0.01476
 2\C,0,0.843368,0.000048,0.351833\O,0,1.23901,0.000008,1.493984\O,0,1.6
 36333,0.000028,-0.731354\C,0,3.060216,0.000014,-0.479381\H,0,3.52698,0
 .000001,-1.460932\H,0,3.344691,-0.889365,0.084069\H,0,3.344711,0.88939
 5,0.084056\\Version=ES64L-G16RevC.01\State=1-A\HF=-1171.4255703\RMSD=6

 Normal termination of Gaussian 16 at Tue Apr  8 23:51:32 2025.
