 Gaussian 16, Revision C.01,

 ----------------------------------------------------------------------
 #t hf aug-cc-pvdz symm=none int=(grid=ultrafine) guess=(read,tcheck) s
 table=(opt,rrhf)
 ----------------------------------------------------------------------
 -----
 title
 -----
 Symbolic Z-matrix:
 Charge =  0 Multiplicity = 1

 SCF Done:  E(RHF) =  -640.030182902     A.U. after   14 cycles
 Normal termination of Gaussian 16 at Tue Apr  8 23:37:13 2025.
 Gaussian 16:  ES64L-G16RevC.01  3-Jul-2019

 ----------------------------------------------------------------------
 #t hf aug-cc-pvdz iop(5/13=1,5/36=2,99/5=2) pseudo=read geom=check gue
 ss=(read,tcheck) scf=(maxcycle=1)
 ----------------------------------------------------------------------
 -----
 title
 -----
 Structure from the checkpoint file:  "BDE49_nonexpt_1534_mol1.chk"
 Charge =  0 Multiplicity = 1

                         Standard orientation:
 ---------------------------------------------------------------------
 Center     Atomic      Atomic             Coordinates (Angstroms)
 Number     Number       Type             X           Y           Z
 ---------------------------------------------------------------------
      1          7           0       -0.133475    0.419696    0.000137
      2         15           0       -1.778772   -0.159741   -0.000000
      3          7           0        0.956185   -0.456698    0.000335
      4          8           0        0.705974   -1.651729   -0.000253
      5          8           0        2.067114    0.054363   -0.000236
      6          6           0        0.206636    1.845301    0.000053
      7          1           0       -0.729595    2.400688   -0.000127
      8          1           0        0.787142    2.105880   -0.886483
      9          1           0        0.786899    2.106038    0.886701
     10          1           0       -1.673296   -1.125085    1.030813
     11          1           0       -1.673064   -1.125275   -1.030612
 ---------------------------------------------------------------------

 SCF Done:  E(RHF) =  -640.367751594     A.U. after    2 cycles

 The electronic state is 1-A.
 Alpha  occ. eigenvalues --  -84.32850 -20.58985 -20.58906 -15.82370 -15.58836
 Alpha  occ. eigenvalues --  -11.29634  -6.79572  -4.32723  -4.31624  -4.31485
 Alpha  occ. eigenvalues --   -1.68353  -1.51894  -1.29744  -1.03795  -0.96069
 Alpha  occ. eigenvalues --   -0.83928  -0.78475  -0.78319  -0.75664  -0.64181
 Alpha  occ. eigenvalues --   -0.63594  -0.58836  -0.55286  -0.51977  -0.49494
 Alpha  occ. eigenvalues --   -0.46008  -0.45254  -0.38805
 Alpha virt. eigenvalues --    0.03249   0.04550   0.05290   0.05416   0.06516
 Alpha virt. eigenvalues --    0.06762   0.07297   0.08881   0.09330   0.13610
 Alpha virt. eigenvalues --    0.13847   0.14869   0.15718   0.16184   0.16502

 Mulliken charges:
               1
     1  N   -0.043819
     2  P   -0.337102
     3  N    2.207373
     4  O   -1.272792
     5  O   -1.302522
     6  C   -0.314461
     7  H    0.079322
     8  H    0.182986
     9  H    0.182979
    10  H    0.308977
    11  H    0.309059
 Sum of Mulliken charges =   0.00000

 Dipole moment (field-independent basis, Debye):
    X=             -2.8902    Y=              2.1922    Z=              0.0006  Tot=              3.6275

 Test job not archived.
 1\1\GINC-SE127\SP\RHF\Aug-CC-pVDZ\C1H5N2O2P1\OHZDE\08-Apr-2025\0\\#t h
 f aug-cc-pvdz iop(5/13=1,5/36=2,99/5=2) pseudo=read geom=check guess=(
 read,tcheck) scf=(maxcycle=1)\\title\\0,1\N,0,-0.133475,0.419696,0.000
 137\P,0,-1.778772,-0.159741,0.\N,0,0.956185,-0.456698,0.000335\O,0,0.7
 05974,-1.651729,-0.000253\O,0,2.067114,0.054363,-0.000236\C,0,0.206636
 ,1.845301,0.000053\H,0,-0.729595,2.400688,-0.000127\H,0,0.787142,2.105
 88,-0.886483\H,0,0.786899,2.106038,0.886701\H,0,-1.673296,-1.125085,1.
 030813\H,0,-1.673064,-1.125275,-1.030612\\Version=ES64L-G16RevC.01\Sta

 Normal termination of Gaussian 16 at Tue Apr  8 23:37:17 2025.
