 Gaussian 16, Revision C.01,

 ----------------------------------------------------------------------
 #t hf aug-cc-pvdz symm=none int=(grid=ultrafine) guess=(read,tcheck) s
 table=(opt,rrhf)
 ----------------------------------------------------------------------
 -----
 title
 -----
 Symbolic Z-matrix:
 Charge =  0 Multiplicity = 1

 SCF Done:  E(RHF) =  -1178.57916302     A.U. after   13 cycles
 Normal termination of Gaussian 16 at Tue Apr  8 23:30:33 2025.
 Gaussian 16:  ES64L-G16RevC.01  3-Jul-2019

 ----------------------------------------------------------------------
 #t hf aug-cc-pvdz iop(5/13=1,5/36=2,99/5=2) pseudo=read geom=check gue
 ss=(read,tcheck) scf=(maxcycle=1)
 ----------------------------------------------------------------------
 -----
 title
 -----
 Structure from the checkpoint file:  "BDE49_nonexpt_1351_mol1.chk"
 Charge =  0 Multiplicity = 1

                         Standard orientation:
 ---------------------------------------------------------------------
 Center     Atomic      Atomic             Coordinates (Angstroms)
 Number     Number       Type             X           Y           Z
 ---------------------------------------------------------------------
      1          9           0       -1.530133   -1.511993   -0.636519
      2          7           0       -0.330801    1.028122    0.523238
      3          7           0       -2.325146    1.343316   -0.990599
      4         15           0       -2.339311   -0.821920    0.614105
      5          6           0       -1.794290    0.950648    0.290629
      6          9           0        1.530134   -1.511993    0.636519
      7          7           0        0.330801    1.028121   -0.523239
      8          7           0        2.325144    1.343317    0.990599
      9         15           0        2.339312   -0.821919   -0.614105
     10          6           0        1.794289    0.950648   -0.290629
     11          1           0        2.157303    2.331299    1.155588
     12          1           0        1.836980    0.837509    1.723562
     13          1           0       -1.836982    0.837509   -1.723561
     14          1           0       -2.157305    2.331298   -1.155587
     15          1           0        1.361763   -1.074176   -1.614262
     16          1           0        2.257623    1.538155   -1.089769
     17          1           0       -1.361761   -1.074176    1.614262
     18          1           0       -2.257624    1.538154    1.089770
 ---------------------------------------------------------------------

 SCF Done:  E(RHF) =  -1179.14952944     A.U. after    2 cycles

 The electronic state is 1-A.
 Alpha  occ. eigenvalues --  -84.34544 -84.34543 -26.45874 -26.45874 -15.58045
 Alpha  occ. eigenvalues --  -15.57463 -15.50735 -15.50704 -11.31511 -11.31508
 Alpha  occ. eigenvalues --   -6.80888  -6.80883  -4.33611  -4.33597  -4.33164
 Alpha  occ. eigenvalues --   -4.33131  -4.32408  -4.32400  -1.56892  -1.56776
 Alpha  occ. eigenvalues --   -1.38792  -1.21589  -1.20353  -1.05642  -0.97295
 Alpha  occ. eigenvalues --   -0.87695  -0.82965  -0.79150  -0.74524  -0.73741
 Alpha  occ. eigenvalues --   -0.72548  -0.69866  -0.66683  -0.65220  -0.64238
 Alpha  occ. eigenvalues --   -0.63910  -0.63394  -0.63034  -0.60423  -0.59135
 Alpha  occ. eigenvalues --   -0.57093  -0.50903  -0.50259  -0.46861  -0.45778
 Alpha  occ. eigenvalues --   -0.42995  -0.37867  -0.35006
 Alpha virt. eigenvalues --    0.03156   0.04091   0.04351   0.04761   0.04875
 Alpha virt. eigenvalues --    0.05825   0.06076   0.06570   0.07724   0.09077
 Alpha virt. eigenvalues --    0.09311   0.09621   0.11210   0.11432   0.11873

 Mulliken charges:
               1
     1  F   -0.824406
     2  N    0.102746
     3  N    0.583884
     4  P    1.085383
     5  C   -1.455247
     6  F   -0.824406
     7  N    0.102750
     8  N    0.583885
     9  P    1.085383
    10  C   -1.455249
    11  H    0.174516
    12  H    0.125650
    13  H    0.125649
    14  H    0.174516
    15  H    0.224532
    16  H   -0.017059
    17  H    0.224532
    18  H   -0.017059
 Sum of Mulliken charges =  -0.00000

 Dipole moment (field-independent basis, Debye):
    X=             -0.0000    Y=              2.4104    Z=             -0.0000  Tot=              2.4104

 Test job not archived.
 1\1\GINC-SE253\SP\RHF\Aug-CC-pVDZ\C2H8F2N4P2\OHZDE\08-Apr-2025\0\\#t h
 f aug-cc-pvdz iop(5/13=1,5/36=2,99/5=2) pseudo=read geom=check guess=(
 read,tcheck) scf=(maxcycle=1)\\title\\0,1\F,0,-1.530133,-1.511993,-0.6
 36519\N,0,-0.330801,1.028122,0.523238\N,0,-2.325146,1.343316,-0.990599
 \P,0,-2.339311,-0.82192,0.614105\C,0,-1.79429,0.950648,0.290629\F,0,1.
 530134,-1.511993,0.636519\N,0,0.330801,1.028121,-0.523239\N,0,2.325144
 ,1.343317,0.990599\P,0,2.339312,-0.821919,-0.614105\C,0,1.794289,0.950
 648,-0.290629\H,0,2.157303,2.331299,1.155588\H,0,1.83698,0.837509,1.72

 Normal termination of Gaussian 16 at Tue Apr  8 23:30:43 2025.
