 Gaussian 16, Revision C.01,

 ----------------------------------------------------------------------
 #t hf aug-cc-pvdz symm=none int=(grid=ultrafine) guess=(read,tcheck) s
 table=opt
 ----------------------------------------------------------------------
 -----
 title
 -----
 Symbolic Z-matrix:
 Charge =  0 Multiplicity = 2

 SCF Done:  E(UHF) =  -655.775418023     A.U. after   19 cycles
 Normal termination of Gaussian 16 at Wed Apr  9 00:19:56 2025.
 Gaussian 16:  ES64L-G16RevC.01  3-Jul-2019

 ----------------------------------------------------------------------
 #t hf aug-cc-pvdz iop(5/13=1,5/36=2,99/5=2) pseudo=read geom=check gue
 ss=(read,tcheck) scf=(maxcycle=1)
 ----------------------------------------------------------------------
 -----
 title
 -----
 Structure from the checkpoint file:  "BDE49_nonexpt_259_mol2.chk"
 Charge =  0 Multiplicity = 2

                         Standard orientation:
 ---------------------------------------------------------------------
 Center     Atomic      Atomic             Coordinates (Angstroms)
 Number     Number       Type             X           Y           Z
 ---------------------------------------------------------------------
      1         17           0        2.769455   -0.000001    0.010402
      2          7           0       -0.190730   -0.000022   -0.037034
      3          6           0       -2.262542    1.302576    0.020834
      4          6           0       -1.526362    0.000000   -0.082618
      5          6           0       -2.262572   -1.302559    0.020835
      6          5           0        1.063089   -0.000001   -0.000788
      7          1           0       -1.677084    2.118386   -0.408591
      8          1           0       -2.472776    1.567436    1.069223
      9          1           0       -3.226196    1.253019   -0.494616
     10          1           0       -1.677137   -2.118381   -0.408599
     11          1           0       -3.226230   -1.252977   -0.494607
     12          1           0       -2.472802   -1.567419    1.069224
 ---------------------------------------------------------------------

 SCF Done:  E(UHF) =  -656.052716214     A.U. after    2 cycles

 The electronic state is 2-A.
 Alpha  occ. eigenvalues -- -105.59991 -15.48833 -11.27197 -11.22908 -11.22900
 Alpha  occ. eigenvalues --  -10.64931  -7.81806  -7.81564  -7.81518  -7.66195
 Alpha  occ. eigenvalues --   -1.20044  -1.10267  -1.03184  -0.94746  -0.86240
 Alpha  occ. eigenvalues --   -0.67328  -0.64331  -0.63051  -0.61740  -0.55556
 Alpha  occ. eigenvalues --   -0.54969  -0.54766  -0.53381  -0.51679  -0.47881
 Alpha  occ. eigenvalues --   -0.42368  -0.28125
 Alpha virt. eigenvalues --    0.03388   0.04537   0.04716   0.05089   0.05881
 Alpha virt. eigenvalues --    0.06078   0.06687   0.06914   0.07969   0.09795
 Alpha virt. eigenvalues --    0.13112   0.13736   0.14737   0.15076   0.15480

  Beta  occ. eigenvalues -- -105.59983 -15.50169 -11.24781 -11.23233 -11.23225
  Beta  occ. eigenvalues --  -10.64922  -7.81919  -7.81498  -7.81430  -7.65412
  Beta  occ. eigenvalues --   -1.20408  -1.10050  -1.01681  -0.94823  -0.84527
  Beta  occ. eigenvalues --   -0.65218  -0.63763  -0.61701  -0.58793  -0.55333
  Beta  occ. eigenvalues --   -0.54117  -0.53685  -0.53207  -0.51426  -0.48664
  Beta  occ. eigenvalues --   -0.43916
  Beta virt. eigenvalues --    0.03450   0.04548   0.04710   0.04965   0.05894
  Beta virt. eigenvalues --    0.06088   0.06695   0.06933   0.08079   0.09799
  Beta virt. eigenvalues --    0.10992   0.13204   0.14045   0.14985   0.15192

 Mulliken charges and spin densities:
               1          2
     1  Cl  -0.236409  -0.000919
     2  N    1.208586  -0.338641
     3  C   -0.345851  -0.239618
     4  C   -1.141502   1.266424
     5  C   -0.345856  -0.239619
     6  B   -0.161361   0.437849
     7  H    0.113276   0.006727
     8  H    0.237048   0.040533
     9  H    0.160872   0.010002
    10  H    0.113280   0.006728
    11  H    0.160872   0.010002
    12  H    0.237046   0.040532
 Sum of Mulliken charges =  -0.00000   1.00000

 Dipole moment (field-independent basis, Debye):
    X=             -0.1883    Y=              0.0001    Z=              0.0860  Tot=              0.2070
                          Isotropic Fermi Contact Couplings
        Atom                 a.u.       MegaHertz       Gauss      10(-4) cm-1
     1  Cl(35)             0.00683       2.99639       1.06918       0.99949
     2  N(14)             -0.22082     -71.34898     -25.45909     -23.79946
     3  C(13)             -0.05732     -64.43480     -22.99194     -21.49314
     4  C(13)              0.22350     251.26137      89.65630      83.81177
     5  C(13)             -0.05732     -64.43482     -22.99195     -21.49314
     6  B(11)              0.05396      77.39441      27.61625      25.81600
     7  H(1)               0.00569      25.44282       9.07863       8.48681
     8  H(1)               0.02093      93.54566      33.37942      31.20347

 1\1\GINC-SE455\SP\UHF\Aug-CC-pVDZ\C3H6B1Cl1N1(2)\OHZDE\09-Apr-2025\0\\
 #t hf aug-cc-pvdz iop(5/13=1,5/36=2,99/5=2) pseudo=read geom=check gue
 ss=(read,tcheck) scf=(maxcycle=1)\\title\\0,2\Cl,0,2.769455,-0.000001,
 0.010402\N,0,-0.19073,-0.000022,-0.037034\C,0,-2.262542,1.302576,0.020
 834\C,0,-1.526362,0.,-0.082618\C,0,-2.262572,-1.302559,0.020835\B,0,1.
 063089,-0.000001,-0.000788\H,0,-1.677084,2.118386,-0.408591\H,0,-2.472
 776,1.567436,1.069223\H,0,-3.226196,1.253019,-0.494616\H,0,-1.677137,-
 2.118381,-0.408599\H,0,-3.22623,-1.252977,-0.494607\H,0,-2.472802,-1.5

 Normal termination of Gaussian 16 at Wed Apr  9 00:20:01 2025.
