 Gaussian 16, Revision C.01,

 ----------------------------------------------------------------------
 #t hf aug-cc-pvdz symm=none int=(grid=ultrafine) guess=(read,tcheck) s
 table=(opt,rrhf)
 ----------------------------------------------------------------------
 -----
 title
 -----
 Symbolic Z-matrix:
 Charge =  0 Multiplicity = 1

 SCF Done:  E(RHF) =  -249.522251084     A.U. after   11 cycles
 Normal termination of Gaussian 16 at Wed Apr  9 00:54:19 2025.
 Gaussian 16:  ES64L-G16RevC.01  3-Jul-2019

 ----------------------------------------------------------------------
 #t hf aug-cc-pvdz iop(5/13=1,5/36=2,99/5=2) pseudo=read geom=check gue
 ss=(read,tcheck) scf=(maxcycle=1)
 ----------------------------------------------------------------------
 -----
 title
 -----
 Structure from the checkpoint file:  "BDE49_nonexpt_9_mol1.chk"
 Charge =  0 Multiplicity = 1

                         Standard orientation:
 ---------------------------------------------------------------------
 Center     Atomic      Atomic             Coordinates (Angstroms)
 Number     Number       Type             X           Y           Z
 ---------------------------------------------------------------------
      1          5           0        1.671965   -0.000716    0.000044
      2          5           0       -0.010620   -0.000057    0.000134
      3          9           0       -0.716139    1.127722   -0.000085
      4          9           0       -0.717008   -1.127291   -0.000016
      5          1           0        2.295744   -0.000021   -1.015269
      6          1           0        2.295849   -0.000003    1.015292
 ---------------------------------------------------------------------

 SCF Done:  E(RHF) =  -249.752537222     A.U. after    2 cycles

 The electronic state is 1-A.
 Alpha  occ. eigenvalues --  -26.47890 -26.47889  -7.70964  -7.61752  -1.62942
 Alpha  occ. eigenvalues --   -1.58839  -0.81722  -0.76027  -0.73865  -0.69156
 Alpha  occ. eigenvalues --   -0.67251  -0.63201  -0.62342  -0.51886  -0.48330
 Alpha virt. eigenvalues --    0.02340   0.03870   0.04395   0.04800   0.07433
 Alpha virt. eigenvalues --    0.07559   0.07674   0.09507   0.12077   0.12825
 Alpha virt. eigenvalues --    0.14483   0.14795   0.21432   0.23237   0.25184

 Mulliken charges:
               1
     1  B   -0.834225
     2  B    1.614028
     3  F   -0.625850
     4  F   -0.625781
     5  H    0.235917
     6  H    0.235911
 Sum of Mulliken charges =  -0.00000

 Dipole moment (field-independent basis, Debye):
    X=              1.3667    Y=             -0.0017    Z=              0.0005  Tot=              1.3667

 Test job not archived.
 1\1\GINC-SE150\SP\RHF\Aug-CC-pVDZ\B2F2H2\OHZDE\09-Apr-2025\0\\#t hf au
 g-cc-pvdz iop(5/13=1,5/36=2,99/5=2) pseudo=read geom=check guess=(read
 ,tcheck) scf=(maxcycle=1)\\title\\0,1\B,0,1.671965,-0.000717,0.000044\
 B,0,-0.01062,-0.000057,0.000134\F,0,-0.716138,1.127723,-0.000085\F,0,-
 0.717009,-1.12729,-0.000016\H,0,2.295744,-0.000023,-1.015269\H,0,2.295
 849,-0.000005,1.015292\\Version=ES64L-G16RevC.01\State=1-A\HF=-249.752
 5372\RMSD=1.639e-02\Dipole=0.5376869,-0.000671,0.0001967\Quadrupole=-0
 .6450627,-0.4175295,1.0625922,-0.0025679,-0.0003568,0.0000773\PG=C01 [

 Normal termination of Gaussian 16 at Wed Apr  9 00:54:21 2025.
