 Gaussian 16, Revision C.01,

 ----------------------------------------------------------------------
 #t hf aug-cc-pvdz symm=none int=(grid=ultrafine) guess=(read,tcheck) s
 table=opt
 ----------------------------------------------------------------------
 -----
 title
 -----
 Symbolic Z-matrix:
 Charge =  0 Multiplicity = 2

 SCF Done:  E(UHF) =  -181.922189272     A.U. after   15 cycles

 1\1\GINC-SE162\Stability\UHF\Aug-CC-pVDZ\C4H10B1\OHZDE\09-Apr-2025\0\\
 #t hf aug-cc-pvdz symm=none int=(grid=ultrafine) guess=(read,tcheck) s
 table=opt\\title\\0,2\H,0,-1.428665,1.839893,1.025784\B,0,-1.52938,1.2
 78464,-0.022302\C,0,-1.412364,-0.23467,-0.307409\C,0,-0.253266,-0.9865
 86,0.394211\H,0,-2.373599,-0.616504,0.087246\C,0,1.124964,-0.619298,-0
 .174459\H,0,-0.405606,-2.06626,0.287493\H,0,-0.274869,-0.770283,1.4684
 78\C,0,1.496001,0.855378,-0.005043\H,0,1.154892,-0.882963,-1.238601\H,
 0,1.884302,-1.239285,0.314781\H,0,0.782516,1.518384,-0.515756\H,0,2.47

 Normal termination of Gaussian 16 at Wed Apr  9 00:36:12 2025.
 Gaussian 16:  ES64L-G16RevC.01  3-Jul-2019

 ----------------------------------------------------------------------
 #t hf aug-cc-pvdz iop(5/13=1,5/36=2,99/5=2) pseudo=read geom=check gue
 ss=(read,tcheck) scf=(maxcycle=1)
 ----------------------------------------------------------------------
 -----
 title
 -----
 Structure from the checkpoint file:  "BDE49_nonexpt_471_mol2.chk"
 Charge =  0 Multiplicity = 2

                         Standard orientation:
 ---------------------------------------------------------------------
 Center     Atomic      Atomic             Coordinates (Angstroms)
 Number     Number       Type             X           Y           Z
 ---------------------------------------------------------------------
      1          1           0       -1.428664    1.839894    1.025784
      2          5           0       -1.529380    1.278465   -0.022302
      3          6           0       -1.412364   -0.234669   -0.307409
      4          6           0       -0.253266   -0.986586    0.394211
      5          1           0       -2.373599   -0.616503    0.087246
      6          6           0        1.124964   -0.619298   -0.174459
      7          1           0       -0.405607   -2.066260    0.287493
      8          1           0       -0.274869   -0.770283    1.468478
      9          6           0        1.496001    0.855378   -0.005043
     10          1           0        1.154892   -0.882963   -1.238601
     11          1           0        1.884302   -1.239286    0.314781
     12          1           0        0.782517    1.518384   -0.515756
     13          1           0        2.477745    1.070991   -0.435066
     14          1           0        1.520768    1.143227    1.049842
     15          1           0       -1.422595   -0.478468   -1.376491
 ---------------------------------------------------------------------

 SCF Done:  E(UHF) =  -182.122995779     A.U. after    2 cycles

 The electronic state is 2-A.
 Alpha  occ. eigenvalues --  -11.23466 -11.23117 -11.22953 -11.21507  -7.61109
 Alpha  occ. eigenvalues --   -1.08076  -0.98641  -0.89115  -0.78985  -0.67934
 Alpha  occ. eigenvalues --   -0.63789  -0.61129  -0.58686  -0.54109  -0.53518
 Alpha  occ. eigenvalues --   -0.50790  -0.47962  -0.47572  -0.46524  -0.31948
 Alpha virt. eigenvalues --    0.03389   0.03627   0.03727   0.03822   0.05726
 Alpha virt. eigenvalues --    0.06083   0.06500   0.06830   0.07241   0.08834
 Alpha virt. eigenvalues --    0.09852   0.10382   0.11053   0.11762   0.14225

  Beta  occ. eigenvalues --  -11.23359 -11.23125 -11.22946 -11.21524  -7.59350
  Beta  occ. eigenvalues --   -1.07868  -0.98330  -0.88658  -0.78693  -0.65391
  Beta  occ. eigenvalues --   -0.63691  -0.60176  -0.57479  -0.53974  -0.52837
  Beta  occ. eigenvalues --   -0.50127  -0.47598  -0.47394  -0.45856
  Beta virt. eigenvalues --    0.03235   0.03581   0.03660   0.03769   0.05982
  Beta virt. eigenvalues --    0.06062   0.06470   0.06727   0.07282   0.09086
  Beta virt. eigenvalues --    0.09764   0.10356   0.10703   0.11999   0.12786

 Mulliken charges and spin densities:
               1          2
     1  H    0.532708  -0.022727
     2  B   -0.647169   1.065383
     3  C   -0.131972  -0.063621
     4  C   -0.396840   0.026925
     5  H    0.188364  -0.014840
     6  C   -0.347740  -0.001155
     7  H    0.135458   0.003667
     8  H    0.130859  -0.000121
     9  C   -0.298608   0.005124
    10  H    0.147687  -0.001215
    11  H    0.133702  -0.000343
    12  H    0.182154  -0.005972
    13  H    0.071973  -0.001029
    14  H    0.175878  -0.001044
    15  H    0.123547   0.010966
 Sum of Mulliken charges =  -0.00000   1.00000

 Dipole moment (field-independent basis, Debye):
    X=              0.4993    Y=             -1.1294    Z=              0.3237  Tot=              1.2766
                          Isotropic Fermi Contact Couplings
        Atom                 a.u.       MegaHertz       Gauss      10(-4) cm-1
     1  H(1)               0.00611      27.29212       9.73851       9.10367
     2  B(11)              0.24629     353.26412     126.05342     117.83623
     3  C(13)              0.00556       6.24622       2.22881       2.08352
     4  C(13)              0.02529      28.43015      10.14458       9.48328
     5  H(1)              -0.00021      -0.93450      -0.33345      -0.31172
     6  C(13)             -0.00147      -1.65191      -0.58944      -0.55102
     7  H(1)               0.00140       6.26101       2.23408       2.08845
     8  H(1)              -0.00050      -2.22277      -0.79314      -0.74144

 Normal termination of Gaussian 16 at Wed Apr  9 00:36:16 2025.
