 Gaussian 16, Revision C.01,

 ----------------------------------------------------------------------
 #t hf aug-cc-pvdz symm=none int=(grid=ultrafine) guess=(read,tcheck) s
 table=(opt,rrhf)
 ----------------------------------------------------------------------
 -----
 title
 -----
 Symbolic Z-matrix:
 Charge =  0 Multiplicity = 1

 SCF Done:  E(RHF) =  -412.530494631     A.U. after   15 cycles
 Normal termination of Gaussian 16 at Tue Apr  8 23:03:57 2025.
 Gaussian 16:  ES64L-G16RevC.01  3-Jul-2019

 ----------------------------------------------------------------------
 #t hf aug-cc-pvdz iop(5/13=1,5/36=2,99/5=2) pseudo=read geom=check gue
 ss=(read,tcheck) scf=(maxcycle=1)
 ----------------------------------------------------------------------
 -----
 title
 -----
 Structure from the checkpoint file:  "BDE49_expt_375_mol1.chk"
 Charge =  0 Multiplicity = 1

                         Standard orientation:
 ---------------------------------------------------------------------
 Center     Atomic      Atomic             Coordinates (Angstroms)
 Number     Number       Type             X           Y           Z
 ---------------------------------------------------------------------
      1          7           0       -1.173060    0.986967    0.000001
      2          6           0       -1.224213   -0.406741   -0.000021
      3          7           0        0.032154   -0.987541    0.000002
      4          6           0        1.293003   -0.349684    0.000030
      5          6           0        1.203139    1.106674    0.000000
      6          6           0       -0.002325    1.706405    0.000002
      7          1           0        2.122733    1.671159   -0.000010
      8          1           0       -0.119900    2.782687    0.000001
      9          8           0        2.313410   -1.005132   -0.000012
     10          8           0       -2.264421   -1.024539    0.000001
     11          1           0       -2.070329    1.447124    0.000005
     12          1           0        0.044303   -1.999511    0.000002
 ---------------------------------------------------------------------

 SCF Done:  E(RHF) =  -412.937280920     A.U. after    2 cycles

 The electronic state is 1-A.
 Alpha  occ. eigenvalues --  -20.53747 -20.53304 -15.58309 -15.56701 -11.42567
 Alpha  occ. eigenvalues --  -11.38927 -11.34723 -11.26357  -1.50190  -1.48037
 Alpha  occ. eigenvalues --   -1.32769  -1.25271  -1.09799  -0.95770  -0.93368
 Alpha  occ. eigenvalues --   -0.83732  -0.79459  -0.74229  -0.69584  -0.69160
 Alpha  occ. eigenvalues --   -0.66631  -0.62736  -0.61552  -0.58922  -0.54487
 Alpha  occ. eigenvalues --   -0.48442  -0.45386  -0.44817  -0.38273
 Alpha virt. eigenvalues --    0.01919   0.03898   0.04993   0.05500   0.06716
 Alpha virt. eigenvalues --    0.08801   0.09355   0.09618   0.10924   0.11258
 Alpha virt. eigenvalues --    0.12163   0.12686   0.13474   0.14475   0.14795

 Mulliken charges:
               1
     1  N    0.507405
     2  C    0.379800
     3  N    0.547923
     4  C    0.631573
     5  C    0.661173
     6  C   -0.247057
     7  H   -0.174752
     8  H   -0.222139
     9  O   -1.344094
    10  O   -1.213521
    11  H    0.226604
    12  H    0.247086
 Sum of Mulliken charges =  -0.00000

 Dipole moment (field-independent basis, Debye):
    X=             -1.1347    Y=              4.5150    Z=              0.0000  Tot=              4.6554

 Test job not archived.
 1\1\GINC-SE071\SP\RHF\Aug-CC-pVDZ\C4H4N2O2\OHZDE\08-Apr-2025\0\\#t hf
 aug-cc-pvdz iop(5/13=1,5/36=2,99/5=2) pseudo=read geom=check guess=(re
 ad,tcheck) scf=(maxcycle=1)\\title\\0,1\N,0,1.17306,0.986967,-0.000001
 \C,0,1.224213,-0.406741,0.000021\N,0,-0.032154,-0.987541,-0.000002\C,0
 ,-1.293003,-0.349684,-0.00003\C,0,-1.203139,1.106674,0.\C,0,0.002325,1
 .706405,-0.000002\H,0,-2.122733,1.671159,0.00001\H,0,0.1199,2.782687,-
 0.000001\O,0,-2.31341,-1.005132,0.000012\O,0,2.264421,-1.024539,-0.000
 001\H,0,2.070329,1.447124,-0.000005\H,0,-0.044303,-1.999511,-0.000002\

 Normal termination of Gaussian 16 at Tue Apr  8 23:04:02 2025.
