 Gaussian 16, Revision C.01,

 ----------------------------------------------------------------------
 #t hf aug-cc-pvdz symm=none int=(grid=ultrafine) guess=(read,tcheck) s
 table=(opt,rrhf)
 ----------------------------------------------------------------------
 -----
 title
 -----
 Symbolic Z-matrix:
 Charge =  0 Multiplicity = 1

 SCF Done:  E(RHF) =  -382.475927401     A.U. after   15 cycles
 Normal termination of Gaussian 16 at Tue Apr  8 22:43:27 2025.
 Gaussian 16:  ES64L-G16RevC.01  3-Jul-2019

 ----------------------------------------------------------------------
 #t hf aug-cc-pvdz iop(5/13=1,5/36=2,99/5=2) pseudo=read geom=check gue
 ss=(read,tcheck) scf=(maxcycle=1)
 ----------------------------------------------------------------------
 -----
 title
 -----
 Structure from the checkpoint file:  "BDE49_expt_1429_mol1.chk"
 Charge =  0 Multiplicity = 1

                         Standard orientation:
 ---------------------------------------------------------------------
 Center     Atomic      Atomic             Coordinates (Angstroms)
 Number     Number       Type             X           Y           Z
 ---------------------------------------------------------------------
      1          6           0        3.570108    0.147020   -0.115791
      2          6           0        2.325262    0.188820    0.342036
      3          8           0        1.356557   -0.656845   -0.132417
      4          6           0        0.037033   -0.269823   -0.062444
      5          6           0       -0.906303   -1.294644    0.023115
      6          6           0       -0.369718    1.063521   -0.117231
      7          6           0       -1.730531    1.364121   -0.064741
      8          6           0       -2.678874    0.349821    0.027280
      9          6           0       -2.259349   -0.980676    0.064657
     10          1           0       -0.559068   -2.319994    0.056905
     11          1           0       -2.989619   -1.779092    0.132270
     12          1           0        0.362255    1.854390   -0.223817
     13          1           0       -2.045568    2.400620   -0.108632
     14          1           0       -3.734614    0.590836    0.063441
     15          1           0        4.329469    0.773073    0.331697
     16          1           0        3.850971   -0.518435   -0.922113
     17          1           0        2.007943    0.844409    1.148298
 ---------------------------------------------------------------------

 SCF Done:  E(RHF) =  -382.868105398     A.U. after    2 cycles

 The electronic state is 1-A.
 Alpha  occ. eigenvalues --  -20.58811 -11.31386 -11.30900 -11.25306 -11.25192
 Alpha  occ. eigenvalues --  -11.24670 -11.24330 -11.24193 -11.23238  -1.51913
 Alpha  occ. eigenvalues --   -1.15929  -1.05750  -1.02645  -1.00002  -0.86488
 Alpha  occ. eigenvalues --   -0.84327  -0.79390  -0.74793  -0.69105  -0.67457
 Alpha  occ. eigenvalues --   -0.65062  -0.63288  -0.60911  -0.58716  -0.57506
 Alpha  occ. eigenvalues --   -0.54027  -0.53205  -0.50667  -0.49872  -0.37795
 Alpha  occ. eigenvalues --   -0.35511  -0.32373
 Alpha virt. eigenvalues --    0.03450   0.03618   0.03980   0.04825   0.04863
 Alpha virt. eigenvalues --    0.05521   0.06792   0.07485   0.09703   0.10307
 Alpha virt. eigenvalues --    0.10973   0.11495   0.12032   0.12318   0.13184

 Mulliken charges:
               1
     1  C   -0.208448
     2  C    1.159354
     3  O   -1.943587
     4  C    1.738466
     5  C   -0.119224
     6  C   -0.307120
     7  C    0.479774
     8  C    0.003828
     9  C    0.652175
    10  H   -0.250690
    11  H   -0.208992
    12  H   -0.291535
    13  H   -0.217775
    14  H   -0.217663
    15  H   -0.069531
    16  H   -0.120198
    17  H   -0.078833
 Sum of Mulliken charges =  -0.00000

 Dipole moment (field-independent basis, Debye):
    X=             -0.5160    Y=              0.8441    Z=              0.4603  Tot=              1.0912

 Test job not archived.
 1\1\GINC-SE041\SP\RHF\Aug-CC-pVDZ\C8H8O1\OHZDE\08-Apr-2025\0\\#t hf au
 g-cc-pvdz iop(5/13=1,5/36=2,99/5=2) pseudo=read geom=check guess=(read
 ,tcheck) scf=(maxcycle=1)\\title\\0,1\C,0,3.570108,0.14702,-0.115791\C
 ,0,2.325262,0.18882,0.342036\O,0,1.356557,-0.656845,-0.132417\C,0,0.03
 7033,-0.269823,-0.062444\C,0,-0.906303,-1.294644,0.023115\C,0,-0.36971
 8,1.063521,-0.117231\C,0,-1.730531,1.364121,-0.064741\C,0,-2.678874,0.
 349821,0.02728\C,0,-2.259349,-0.980676,0.064657\H,0,-0.559068,-2.31999
 4,0.056905\H,0,-2.989619,-1.779092,0.13227\H,0,0.362255,1.85439,-0.223

 Normal termination of Gaussian 16 at Tue Apr  8 22:43:37 2025.
