 Gaussian 16, Revision C.01,

 ----------------------------------------------------------------------
 #t hf aug-cc-pvdz symm=none int=(grid=ultrafine) guess=(read,tcheck) s
 table=(opt,rrhf)
 ----------------------------------------------------------------------
 -----
 title
 -----
 Symbolic Z-matrix:
 Charge =  0 Multiplicity = 1

 SCF Done:  E(RHF) =  -593.569188022     A.U. after   16 cycles
 Normal termination of Gaussian 16 at Wed Apr  9 00:42:59 2025.
 Gaussian 16:  ES64L-G16RevC.01  3-Jul-2019

 ----------------------------------------------------------------------
 #t hf aug-cc-pvdz iop(5/13=1,5/36=2,99/5=2) pseudo=read geom=check gue
 ss=(read,tcheck) scf=(maxcycle=1)
 ----------------------------------------------------------------------
 -----
 title
 -----
 Structure from the checkpoint file:  "BDE49_nonexpt_660_mol1.chk"
 Charge =  0 Multiplicity = 1

                         Standard orientation:
 ---------------------------------------------------------------------
 Center     Atomic      Atomic             Coordinates (Angstroms)
 Number     Number       Type             X           Y           Z
 ---------------------------------------------------------------------
      1          6           0       -3.633863    0.498672    0.000014
      2          6           0       -2.665425    1.501532   -0.000005
      3          6           0       -1.315186    1.167500   -0.000019
      4          6           0       -3.253770   -0.843838    0.000019
      5          6           0       -1.906845   -1.183282    0.000005
      6          6           0       -0.931805   -0.178616   -0.000015
      7          1           0       -4.685503    0.762784    0.000025
      8          1           0       -2.962899    2.543706   -0.000009
      9          1           0       -0.554370    1.936426   -0.000034
     10          1           0       -4.007866   -1.622255    0.000034
     11          1           0       -1.588616   -2.218177    0.000008
     12          6           0        0.495914   -0.585380   -0.000032
     13          8           0        1.347857    0.461229   -0.000014
     14          5           0        2.755466    0.327369    0.000005
     15          8           0        3.417483    1.511733    0.000030
     16          8           0        0.862694   -1.745528    0.000000
     17          1           0        4.370262    1.379622    0.000043
     18          8           0        3.393435   -0.863580    0.000000
     19          1           0        2.745793   -1.589314   -0.000026
 ---------------------------------------------------------------------

 SCF Done:  E(RHF) =  -594.158492360     A.U. after    2 cycles

 The electronic state is 1-A.
 Alpha  occ. eigenvalues --  -20.59238 -20.56271 -20.55467 -20.55260 -11.41628
 Alpha  occ. eigenvalues --  -11.26857 -11.26773 -11.26680 -11.26585 -11.25860
 Alpha  occ. eigenvalues --  -11.25838  -7.68613  -1.56087  -1.48714  -1.46124
 Alpha  occ. eigenvalues --   -1.44711  -1.17777  -1.05879  -1.03748  -0.92408
 Alpha  occ. eigenvalues --   -0.86066  -0.83603  -0.77653  -0.75454  -0.71966
 Alpha  occ. eigenvalues --   -0.70872  -0.68906  -0.65948  -0.65867  -0.64789
 Alpha  occ. eigenvalues --   -0.62174  -0.61633  -0.57239  -0.56958  -0.54534
 Alpha  occ. eigenvalues --   -0.53242  -0.52638  -0.52117  -0.49909  -0.48753
 Alpha  occ. eigenvalues --   -0.46372  -0.36870  -0.36352
 Alpha virt. eigenvalues --    0.02908   0.03573   0.03903   0.04642   0.05169
 Alpha virt. eigenvalues --    0.05441   0.05841   0.06588   0.07652   0.08415
 Alpha virt. eigenvalues --    0.09346   0.09743   0.10371   0.10647   0.11981

 Mulliken charges:
               1
     1  C   -0.009402
     2  C    0.312373
     3  C   -0.040476
     4  C    0.253312
     5  C   -0.114181
     6  C    1.563403
     7  H   -0.212162
     8  H   -0.229601
     9  H   -0.302974
    10  H   -0.221427
    11  H   -0.334500
    12  C    2.240429
    13  O   -2.405015
    14  B    2.011092
    15  O   -0.991494
    16  O   -1.429228
    17  H    0.487762
    18  O   -1.474410
    19  H    0.896497
 Sum of Mulliken charges =  -0.00000

 Dipole moment (field-independent basis, Debye):
    X=             -2.1497    Y=              0.8568    Z=             -0.0001  Tot=              2.3141

 Test job not archived.
 1\1\GINC-SE084\SP\RHF\Aug-CC-pVDZ\C7H7B1O4\OHZDE\09-Apr-2025\0\\#t hf
 aug-cc-pvdz iop(5/13=1,5/36=2,99/5=2) pseudo=read geom=check guess=(re
 ad,tcheck) scf=(maxcycle=1)\\title\\0,1\C,0,-3.633863,0.498672,0.00001
 4\C,0,-2.665425,1.501532,-0.000005\C,0,-1.315186,1.1675,-0.000019\C,0,
 -3.25377,-0.843838,0.000019\C,0,-1.906845,-1.183282,0.000005\C,0,-0.93
 1805,-0.178616,-0.000015\H,0,-4.685503,0.762784,0.000025\H,0,-2.962899
 ,2.543706,-0.000009\H,0,-0.55437,1.936426,-0.000034\H,0,-4.007866,-1.6
 22255,0.000034\H,0,-1.588616,-2.218177,0.000008\C,0,0.495914,-0.58538,

 Normal termination of Gaussian 16 at Wed Apr  9 00:43:13 2025.
