 Gaussian 16, Revision C.01,

 ----------------------------------------------------------------------
 #t hf aug-cc-pvdz symm=none int=(grid=ultrafine) guess=(read,tcheck) s
 table=(opt,rrhf)
 ----------------------------------------------------------------------
 -----
 title
 -----
 Symbolic Z-matrix:
 Charge =  0 Multiplicity = 1

 SCF Done:  E(RHF) =  -682.082783337     A.U. after   15 cycles
 Normal termination of Gaussian 16 at Tue Apr  8 23:39:10 2025.
 Gaussian 16:  ES64L-G16RevC.01  3-Jul-2019

 ----------------------------------------------------------------------
 #t hf aug-cc-pvdz iop(5/13=1,5/36=2,99/5=2) pseudo=read geom=check gue
 ss=(read,tcheck) scf=(maxcycle=1)
 ----------------------------------------------------------------------
 -----
 title
 -----
 Structure from the checkpoint file:  "BDE49_nonexpt_1579_mol1.chk"
 Charge =  0 Multiplicity = 1

                         Standard orientation:
 ---------------------------------------------------------------------
 Center     Atomic      Atomic             Coordinates (Angstroms)
 Number     Number       Type             X           Y           Z
 ---------------------------------------------------------------------
      1          6           0        0.407648    0.371117    0.359318
      2          7           0       -1.930719   -0.058987    0.749960
      3         15           0       -2.931278   -0.305541   -0.628553
      4          6           0        1.361670    1.293315   -0.094500
      5          6           0        2.639308    0.869687   -0.440824
      6          6           0        2.988598   -0.477147   -0.352255
      7          6           0        2.037401   -1.393338    0.091671
      8          6           0        0.756669   -0.981652    0.448333
      9          1           0        0.020258   -1.693613    0.796394
     10          1           0        1.098826    2.344322   -0.169670
     11          1           0        3.363895    1.597896   -0.788557
     12          1           0        3.983705   -0.805939   -0.627131
     13          1           0        2.292269   -2.445140    0.164576
     14          7           0       -0.852824    0.841057    0.773637
     15          1           0       -1.085508    1.748636    0.382222
     16          1           0       -1.921891   -0.674217   -1.552288
     17          1           0       -3.029252    1.023843   -1.148447
     18          1           0       -2.416104   -0.079045    1.635554
 ---------------------------------------------------------------------

 SCF Done:  E(RHF) =  -682.481685299     A.U. after    2 cycles

 The electronic state is 1-A.
 Alpha  occ. eigenvalues --  -84.30101 -15.54305 -15.53255 -11.28233 -11.24388
 Alpha  occ. eigenvalues --  -11.24235 -11.23511 -11.22958 -11.22909  -6.76842
 Alpha  occ. eigenvalues --   -4.29726  -4.28963  -4.28603  -1.30218  -1.15602
 Alpha  occ. eigenvalues --   -1.09325  -1.01497  -0.98518  -0.87106  -0.84349
 Alpha  occ. eigenvalues --   -0.82231  -0.74343  -0.73472  -0.67774  -0.65080
 Alpha  occ. eigenvalues --   -0.62294  -0.62031  -0.59521  -0.54197  -0.54016
 Alpha  occ. eigenvalues --   -0.52230  -0.50174  -0.46857  -0.44154  -0.36545
 Alpha  occ. eigenvalues --   -0.34565  -0.31235
 Alpha virt. eigenvalues --    0.03294   0.03946   0.04000   0.05002   0.05144
 Alpha virt. eigenvalues --    0.05773   0.07153   0.07615   0.07956   0.08818
 Alpha virt. eigenvalues --    0.09493   0.10569   0.11035   0.12055   0.12571

 Mulliken charges:
               1
     1  C   -0.934734
     2  N    0.173630
     3  P   -0.277275
     4  C    0.158035
     5  C    0.411832
     6  C   -0.020940
     7  C    0.354359
     8  C    0.425729
     9  H   -0.334059
    10  H   -0.319978
    11  H   -0.224076
    12  H   -0.219443
    13  H   -0.232854
    14  N    0.563514
    15  H    0.016622
    16  H    0.215090
    17  H    0.207457
    18  H    0.037092
 Sum of Mulliken charges =   0.00000

 Dipole moment (field-independent basis, Debye):
    X=             -0.7622    Y=              0.8569    Z=             -0.5239  Tot=              1.2608

 Test job not archived.
 1\1\GINC-SE365\SP\RHF\Aug-CC-pVDZ\C6H9N2P1\OHZDE\08-Apr-2025\0\\#t hf
 aug-cc-pvdz iop(5/13=1,5/36=2,99/5=2) pseudo=read geom=check guess=(re
 ad,tcheck) scf=(maxcycle=1)\\title\\0,1\C,0,0.407648,0.371117,0.359318
 \N,0,-1.930719,-0.058987,0.74996\P,0,-2.931278,-0.305541,-0.628553\C,0
 ,1.36167,1.293315,-0.0945\C,0,2.639308,0.869687,-0.440824\C,0,2.988598
 ,-0.477147,-0.352255\C,0,2.037401,-1.393338,0.091671\C,0,0.756669,-0.9
 81652,0.448333\H,0,0.020258,-1.693613,0.796394\H,0,1.098826,2.344322,-
 0.16967\H,0,3.363895,1.597896,-0.788557\H,0,3.983705,-0.805939,-0.6271

 Normal termination of Gaussian 16 at Tue Apr  8 23:39:18 2025.
