 Gaussian 16, Revision C.01,

 ----------------------------------------------------------------------
 #t hf aug-cc-pvdz symm=none int=(grid=ultrafine) guess=(read,tcheck) s
 table=(opt,rrhf)
 ----------------------------------------------------------------------
 -----
 title
 -----
 Symbolic Z-matrix:
 Charge =  0 Multiplicity = 1

 SCF Done:  E(RHF) =  -743.750440883     A.U. after   15 cycles
 Normal termination of Gaussian 16 at Tue Apr  8 23:29:14 2025.
 Gaussian 16:  ES64L-G16RevC.01  3-Jul-2019

 ----------------------------------------------------------------------
 #t hf aug-cc-pvdz iop(5/13=1,5/36=2,99/5=2) pseudo=read geom=check gue
 ss=(read,tcheck) scf=(maxcycle=1)
 ----------------------------------------------------------------------
 -----
 title
 -----
 Structure from the checkpoint file:  "BDE49_nonexpt_1352_mol1.chk"
 Charge =  0 Multiplicity = 1

                         Standard orientation:
 ---------------------------------------------------------------------
 Center     Atomic      Atomic             Coordinates (Angstroms)
 Number     Number       Type             X           Y           Z
 ---------------------------------------------------------------------
      1          6           0       -1.277115    0.285517   -0.060666
      2          6           0       -0.774997    1.725655    0.112575
      3          1           0       -1.181651    2.112556    1.052496
      4          1           0       -1.202300    2.326255   -0.692397
      5          6           0        0.774814    1.725740    0.112509
      6          1           0        1.201977    2.326312   -0.692560
      7          1           0        1.181512    2.112776    1.052354
      8          6           0        1.277087    0.285645   -0.060656
      9          9           0        0.000115   -2.142650   -0.290577
     10         15           0        0.000040   -0.874042    0.710420
     11          8           0       -2.304642   -0.038781   -0.586488
     12          8           0        2.304653   -0.038563   -0.586459
 ---------------------------------------------------------------------

 SCF Done:  E(RHF) =  -744.181307729     A.U. after    2 cycles

 The electronic state is 1-A.
 Alpha  occ. eigenvalues --  -84.37256 -26.48838 -20.58001 -20.57997 -11.37776
 Alpha  occ. eigenvalues --  -11.37761 -11.28900 -11.28895  -6.83776  -4.36655
 Alpha  occ. eigenvalues --   -4.35868  -4.35330  -1.59938  -1.51275  -1.51236
 Alpha  occ. eigenvalues --   -1.13692  -0.96714  -0.95184  -0.77721  -0.77543
 Alpha  occ. eigenvalues --   -0.70997  -0.68999  -0.68383  -0.68200  -0.65143
 Alpha  occ. eigenvalues --   -0.63298  -0.62445  -0.60129  -0.58094  -0.54532
 Alpha  occ. eigenvalues --   -0.52221  -0.49664  -0.38609  -0.37131
 Alpha virt. eigenvalues --    0.02458   0.03522   0.04233   0.04599   0.06356
 Alpha virt. eigenvalues --    0.07089   0.07618   0.08147   0.09673   0.10937
 Alpha virt. eigenvalues --    0.11842   0.13488   0.13596   0.14212   0.14229

 Mulliken charges:
               1
     1  C    0.830221
     2  C   -0.493106
     3  H    0.279966
     4  H    0.154517
     5  C   -0.493199
     6  H    0.154551
     7  H    0.279957
     8  C    0.830253
     9  F   -0.834090
    10  P    1.878494
    11  O   -1.293774
    12  O   -1.293788
 Sum of Mulliken charges =  -0.00000

 Dipole moment (field-independent basis, Debye):
    X=             -0.0002    Y=              3.4134    Z=              2.4791  Tot=              4.2187

 Test job not archived.
 1\1\GINC-SE252\SP\RHF\Aug-CC-pVDZ\C4H4F1O2P1\OHZDE\08-Apr-2025\0\\#t h
 f aug-cc-pvdz iop(5/13=1,5/36=2,99/5=2) pseudo=read geom=check guess=(
 read,tcheck) scf=(maxcycle=1)\\title\\0,1\C,0,-1.277114,0.28552,-0.060
 666\C,0,-0.774993,1.725657,0.112575\H,0,-1.181646,2.112559,1.052496\H,
 0,-1.202295,2.326258,-0.692397\C,0,0.774818,1.725738,0.112509\H,0,1.20
 1982,2.326309,-0.69256\H,0,1.181517,2.112774,1.052354\C,0,1.277088,0.2
 85642,-0.060656\F,0,0.00011,-2.14265,-0.290577\P,0,0.000038,-0.874042,
 0.71042\O,0,-2.304642,-0.038776,-0.586488\O,0,2.304653,-0.038568,-0.58

 Normal termination of Gaussian 16 at Tue Apr  8 23:29:20 2025.
