 Gaussian 16, Revision C.01,

 ----------------------------------------------------------------------
 #t hf aug-cc-pvdz symm=none int=(grid=ultrafine) guess=(read,tcheck) s
 table=(opt,rrhf)
 ----------------------------------------------------------------------
 -----
 title
 -----
 Symbolic Z-matrix:
 Charge =  0 Multiplicity = 1

 SCF Done:  E(RHF) =  -382.520121724     A.U. after   15 cycles
 Normal termination of Gaussian 16 at Tue Apr  8 22:36:22 2025.
 Gaussian 16:  ES64L-G16RevC.01  3-Jul-2019

 ----------------------------------------------------------------------
 #t hf aug-cc-pvdz iop(5/13=1,5/36=2,99/5=2) pseudo=read geom=check gue
 ss=(read,tcheck) scf=(maxcycle=1)
 ----------------------------------------------------------------------
 -----
 title
 -----
 Structure from the checkpoint file:  "BDE49_expt_1098_mol1.chk"
 Charge =  0 Multiplicity = 1

                         Standard orientation:
 ---------------------------------------------------------------------
 Center     Atomic      Atomic             Coordinates (Angstroms)
 Number     Number       Type             X           Y           Z
 ---------------------------------------------------------------------
      1          6           0        0.432881    1.193210   -0.000032
      2          6           0       -0.203960   -0.053876   -0.000045
      3          6           0       -1.698397   -0.204835   -0.000096
      4          8           0       -2.209078   -1.307241    0.000041
      5          6           0       -2.560301    1.045341    0.000022
      6          1           0       -2.358647    1.660368    0.881906
      7          1           0       -3.606406    0.744299    0.000103
      8          1           0       -2.358796    1.660418   -0.881859
      9          6           0        1.823037    1.274896    0.000008
     10          6           0        2.589394    0.111694    0.000038
     11          6           0        1.963361   -1.135775    0.000028
     12          6           0        0.577285   -1.217191   -0.000013
     13          1           0        0.068733   -2.173326   -0.000023
     14          1           0        3.671798    0.176065    0.000070
     15          1           0        2.558983   -2.041622    0.000051
     16          1           0       -0.150068    2.106151   -0.000055
     17          1           0        2.307229    2.244794    0.000016
 ---------------------------------------------------------------------

 SCF Done:  E(RHF) =  -382.911314570     A.U. after    2 cycles

 The electronic state is 1-A.
 Alpha  occ. eigenvalues --  -20.53309 -11.34390 -11.26279 -11.26059 -11.25518
 Alpha  occ. eigenvalues --  -11.25450 -11.25384 -11.25201 -11.24633  -1.46779
 Alpha  occ. eigenvalues --   -1.16956  -1.05678  -1.03069  -1.00088  -0.87387
 Alpha  occ. eigenvalues --   -0.84584  -0.77448  -0.72156  -0.66765  -0.66181
 Alpha  occ. eigenvalues --   -0.63766  -0.61283  -0.61114  -0.60640  -0.56194
 Alpha  occ. eigenvalues --   -0.53259  -0.53258  -0.51448  -0.49470  -0.41594
 Alpha  occ. eigenvalues --   -0.35977  -0.35516
 Alpha virt. eigenvalues --    0.02966   0.03282   0.03958   0.04803   0.04864
 Alpha virt. eigenvalues --    0.05792   0.06606   0.07247   0.08985   0.09175
 Alpha virt. eigenvalues --    0.09746   0.11079   0.11553   0.13194   0.13596

 Mulliken charges:
               1
     1  C    0.362576
     2  C    2.044735
     3  C    0.462924
     4  O   -1.473030
     5  C   -0.617665
     6  H    0.308184
     7  H    0.036985
     8  H    0.308194
     9  C    0.086436
    10  C   -0.042178
    11  C    0.312652
    12  C   -0.469703
    13  H   -0.306667
    14  H   -0.219546
    15  H   -0.217686
    16  H   -0.351202
    17  H   -0.225011
 Sum of Mulliken charges =  -0.00000

 Dipole moment (field-independent basis, Debye):
    X=              1.9023    Y=              2.6287    Z=             -0.0001  Tot=              3.2448

 Test job not archived.
 1\1\GINC-SE071\SP\RHF\Aug-CC-pVDZ\C8H8O1\OHZDE\08-Apr-2025\0\\#t hf au
 g-cc-pvdz iop(5/13=1,5/36=2,99/5=2) pseudo=read geom=check guess=(read
 ,tcheck) scf=(maxcycle=1)\\title\\0,1\C,0,-0.432881,1.19321,0.000032\C
 ,0,0.20396,-0.053876,0.000045\C,0,1.698397,-0.204835,0.000096\O,0,2.20
 9078,-1.307241,-0.000041\C,0,2.560301,1.045341,-0.000022\H,0,2.358647,
 1.660368,-0.881906\H,0,3.606406,0.744299,-0.000103\H,0,2.358796,1.6604
 18,0.881859\C,0,-1.823037,1.274896,-0.000008\C,0,-2.589394,0.111694,-0
 .000038\C,0,-1.963361,-1.135775,-0.000028\C,0,-0.577285,-1.217191,0.00

 Normal termination of Gaussian 16 at Tue Apr  8 22:36:30 2025.
