 Gaussian 16, Revision C.01,

 ----------------------------------------------------------------------
 #t hf aug-cc-pvdz symm=none int=(grid=ultrafine) guess=(read,tcheck) s
 table=(opt,rrhf)
 ----------------------------------------------------------------------
 -----
 title
 -----
 Symbolic Z-matrix:
 Charge =  0 Multiplicity = 1

 SCF Done:  E(RHF) =  -1341.93231507     A.U. after   12 cycles
 Normal termination of Gaussian 16 at Tue Apr  8 23:39:06 2025.
 Gaussian 16:  ES64L-G16RevC.01  3-Jul-2019

 ----------------------------------------------------------------------
 #t hf aug-cc-pvdz iop(5/13=1,5/36=2,99/5=2) pseudo=read geom=check gue
 ss=(read,tcheck) scf=(maxcycle=1)
 ----------------------------------------------------------------------
 -----
 title
 -----
 Structure from the checkpoint file:  "BDE49_nonexpt_160_mol1.chk"
 Charge =  0 Multiplicity = 1

                         Standard orientation:
 ---------------------------------------------------------------------
 Center     Atomic      Atomic             Coordinates (Angstroms)
 Number     Number       Type             X           Y           Z
 ---------------------------------------------------------------------
      1         17           0        1.662176    0.595641    0.000000
      2         17           0       -1.329538    1.169743    0.000000
      3         16           0       -0.253559   -1.770385    0.000000
      4          5           0        0.000000    0.010866    0.000000
      5          1           0       -1.597916   -1.739706    0.000000
 ---------------------------------------------------------------------

 SCF Done:  E(RHF) =  -1342.16796266     A.U. after    2 cycles

 The electronic state is 1-A'.
 Alpha  occ. eigenvalues -- -105.58793-105.58484 -93.98098 -10.63808 -10.63500
 Alpha  occ. eigenvalues --   -8.26441  -7.80707  -7.80404  -7.80401  -7.80371
 Alpha  occ. eigenvalues --   -7.80097  -7.80064  -7.74687  -6.24258  -6.24118
 Alpha  occ. eigenvalues --   -6.23948  -1.12893  -1.06918  -1.04014  -0.70454
 Alpha  occ. eigenvalues --   -0.62867  -0.59005  -0.54648  -0.53545  -0.48814
 Alpha  occ. eigenvalues --   -0.47722  -0.46828  -0.41927
 Alpha virt. eigenvalues --    0.03915   0.05495   0.05520   0.05594   0.07512
 Alpha virt. eigenvalues --    0.08021   0.10522   0.12699   0.13389   0.13470
 Alpha virt. eigenvalues --    0.15107   0.16092   0.17404   0.18585   0.18719

 Mulliken charges:
               1
     1  Cl  -0.272087
     2  Cl  -0.269199
     3  S   -0.560924
     4  B    0.794098
     5  H    0.308112
 Sum of Mulliken charges =  -0.00000

 Dipole moment (field-independent basis, Debye):
    X=             -1.1089    Y=             -0.7259    Z=              0.0000  Tot=              1.3253

 Test job not archived.
 1\1\GINC-SE331\SP\RHF\Aug-CC-pVDZ\B1Cl2H1S1\OHZDE\08-Apr-2025\0\\#t hf
  aug-cc-pvdz iop(5/13=1,5/36=2,99/5=2) pseudo=read geom=check guess=(r
 ead,tcheck) scf=(maxcycle=1)\\title\\0,1\Cl,0,-1.662158,0.595693,0.\Cl
 ,0,1.329574,1.169702,0.\S,0,0.253503,-1.770393,0.\B,0,0.,0.010866,0.\H
 ,0,1.597861,-1.739756,0.\\Version=ES64L-G16RevC.01\State=1-A'\HF=-1342
 .1679627\RMSD=4.365e-03\Dipole=0.4362495,-0.2856073,0.\Quadrupole=1.03
 76542,-0.4127257,-0.6249285,-1.7239708,0.,0.\PG=CS [SG(B1Cl2H1S1)]\\@

 Normal termination of Gaussian 16 at Tue Apr  8 23:39:08 2025.
