 Gaussian 16, Revision C.01,

 ----------------------------------------------------------------------
 #t hf aug-cc-pvdz symm=none int=(grid=ultrafine) guess=(read,tcheck) s
 table=(opt,rrhf)
 ----------------------------------------------------------------------
 -----
 title
 -----
 Symbolic Z-matrix:
 Charge =  0 Multiplicity = 1

 SCF Done:  E(RHF) =  -1076.91636628     A.U. after   17 cycles
 Normal termination of Gaussian 16 at Wed Apr  9 00:50:18 2025.
 Gaussian 16:  ES64L-G16RevC.01  3-Jul-2019

 ----------------------------------------------------------------------
 #t hf aug-cc-pvdz iop(5/13=1,5/36=2,99/5=2) pseudo=read geom=check gue
 ss=(read,tcheck) scf=(maxcycle=1)
 ----------------------------------------------------------------------
 -----
 title
 -----
 Structure from the checkpoint file:  "BDE49_nonexpt_854_mol1.chk"
 Charge =  0 Multiplicity = 1

                         Standard orientation:
 ---------------------------------------------------------------------
 Center     Atomic      Atomic             Coordinates (Angstroms)
 Number     Number       Type             X           Y           Z
 ---------------------------------------------------------------------
      1         14           0        0.013167   -0.082293    0.020817
      2          7           0       -0.966996   -0.977981   -1.262600
      3          5           0        2.017032   -0.438151    0.080467
      4          7           0       -0.913893   -0.303527    1.608447
      5          8           0       -0.820311   -1.489712    1.935780
      6          8           0        2.866333    0.600829    0.149539
      7          8           0       -0.380696   -0.772745   -2.334364
      8          8           0        2.384871   -1.730175    0.042958
      9          8           0       -1.979046   -1.621850   -1.105630
     10          8           0       -1.497776    0.572148    2.215477
     11          7           0       -0.297711    1.709434   -0.405450
     12          8           0        0.632350    2.434493   -0.012337
     13          8           0       -1.304450    2.100618   -0.953199
     14          1           0        3.341011   -1.868898    0.061738
     15          1           0        2.429487    1.467433    0.155914
 ---------------------------------------------------------------------

 SCF Done:  E(RHF) =  -1077.68880978     A.U. after    2 cycles

 The electronic state is 1-A.
 Alpha  occ. eigenvalues --  -69.71974 -20.65468 -20.64855 -20.64538 -20.64090
 Alpha  occ. eigenvalues --  -20.63950 -20.63814 -20.62194 -20.61936 -15.81445
 Alpha  occ. eigenvalues --  -15.81181 -15.81050  -7.73180  -6.38334  -4.13583
 Alpha  occ. eigenvalues --   -4.13568  -4.13354  -1.71255  -1.70857  -1.70678
 Alpha  occ. eigenvalues --   -1.55481  -1.55322  -1.55188  -1.54384  -1.50841
 Alpha  occ. eigenvalues --   -1.10236  -1.02749  -1.02499  -0.88773  -0.85321
 Alpha  occ. eigenvalues --   -0.84532  -0.84050  -0.80355  -0.79393  -0.78805
 Alpha  occ. eigenvalues --   -0.78678  -0.77735  -0.77522  -0.77092  -0.70184
 Alpha  occ. eigenvalues --   -0.63379  -0.62593  -0.59248  -0.55247  -0.55024
 Alpha  occ. eigenvalues --   -0.54843  -0.54267  -0.51280  -0.51083  -0.50527
 Alpha  occ. eigenvalues --   -0.50012  -0.48933  -0.48825
 Alpha virt. eigenvalues --   -0.01324   0.00097   0.00420   0.02297   0.03820
 Alpha virt. eigenvalues --    0.04337   0.05514   0.06169   0.07487   0.07790
 Alpha virt. eigenvalues --    0.08473   0.08756   0.09189   0.09979   0.12222

 Mulliken charges:
               1
     1  Si   1.072721
     2  N    2.079647
     3  B    1.630044
     4  N    1.961805
     5  O   -1.236771
     6  O   -1.456475
     7  O   -1.283923
     8  O   -1.159294
     9  O   -1.222484
    10  O   -1.198513
    11  N    2.017785
    12  O   -1.234954
    13  O   -1.217762
    14  H    0.557068
    15  H    0.691106
 Sum of Mulliken charges =  -0.00000

 Dipole moment (field-independent basis, Debye):
    X=              4.6838    Y=             -0.4979    Z=              0.2786  Tot=              4.7185

 Test job not archived.
 1\1\GINC-SE099\SP\RHF\Aug-CC-pVDZ\B1H2N3O8Si1\OHZDE\09-Apr-2025\0\\#t
 hf aug-cc-pvdz iop(5/13=1,5/36=2,99/5=2) pseudo=read geom=check guess=
 (read,tcheck) scf=(maxcycle=1)\\title\\0,1\Si,0,0.013167,-0.082293,0.0
 20817\N,0,-0.966996,-0.977981,-1.2626\B,0,2.017032,-0.438152,0.080467\
 N,0,-0.913893,-0.303527,1.608447\O,0,-0.820311,-1.489712,1.93578\O,0,2
 .866333,0.600828,0.149539\O,0,-0.380696,-0.772745,-2.334364\O,0,2.3848
 7,-1.730176,0.042958\O,0,-1.979046,-1.621849,-1.10563\O,0,-1.497776,0.
 572149,2.215477\N,0,-0.29771,1.709434,-0.40545\O,0,0.632351,2.434493,-

 Normal termination of Gaussian 16 at Wed Apr  9 00:50:29 2025.
