 Gaussian 16, Revision C.01,

 ----------------------------------------------------------------------
 #t hf aug-cc-pvdz symm=none int=(grid=ultrafine) guess=(read,tcheck) s
 table=(opt,rrhf)
 ----------------------------------------------------------------------
 -----
 title
 -----
 Symbolic Z-matrix:
 Charge =  0 Multiplicity = 1

 SCF Done:  E(RHF) =  -693.885965081     A.U. after   15 cycles
 Normal termination of Gaussian 16 at Wed Apr  9 00:45:48 2025.
 Gaussian 16:  ES64L-G16RevC.01  3-Jul-2019

 ----------------------------------------------------------------------
 #t hf aug-cc-pvdz iop(5/13=1,5/36=2,99/5=2) pseudo=read geom=check gue
 ss=(read,tcheck) scf=(maxcycle=1)
 ----------------------------------------------------------------------
 -----
 title
 -----
 Structure from the checkpoint file:  "BDE49_nonexpt_783_mol1.chk"
 Charge =  0 Multiplicity = 1

                         Standard orientation:
 ---------------------------------------------------------------------
 Center     Atomic      Atomic             Coordinates (Angstroms)
 Number     Number       Type             X           Y           Z
 ---------------------------------------------------------------------
      1          8           0        1.078173    0.834191    0.324546
      2          6           0        2.384644    1.170617    0.127004
      3          6           0        0.941195   -0.523593    0.044788
      4          6           0        3.094936    0.085846   -0.269871
      5          6           0        2.165264   -1.001785   -0.324202
      6          1           0        4.148748    0.059841   -0.497250
      7          1           0        2.639874    2.201207    0.308334
      8          1           0        2.381432   -2.021094   -0.604350
      9          5           0       -2.111791    0.275594   -0.074286
     10          8           0       -1.723397    1.582358   -0.085058
     11          8           0       -3.425488   -0.028660   -0.257454
     12          1           0       -3.965865    0.763331   -0.377887
     13          1           0       -0.773211    1.690603    0.051255
     14         14           0       -0.785145   -1.241712    0.235344
     15          1           0       -0.897014   -2.364500   -0.725777
     16          1           0       -0.933529   -1.813014    1.599705
 ---------------------------------------------------------------------

 SCF Done:  E(RHF) =  -694.321544004     A.U. after    2 cycles

 The electronic state is 1-A.
 Alpha  occ. eigenvalues --  -69.52290 -20.62062 -20.55761 -20.55623 -11.30885
 Alpha  occ. eigenvalues --  -11.28583 -11.24904 -11.24785  -7.64197  -6.19512
 Alpha  occ. eigenvalues --   -3.94904  -3.94852  -3.94820  -1.54673  -1.48073
 Alpha  occ. eigenvalues --   -1.43871  -1.10047  -1.01248  -0.82197  -0.80788
 Alpha  occ. eigenvalues --   -0.77616  -0.76735  -0.72787  -0.68838  -0.64256
 Alpha  occ. eigenvalues --   -0.61652  -0.59724  -0.58248  -0.57226  -0.56853
 Alpha  occ. eigenvalues --   -0.55242  -0.50457  -0.49054  -0.48692  -0.42774
 Alpha  occ. eigenvalues --   -0.41013  -0.33504
 Alpha virt. eigenvalues --    0.03153   0.03611   0.04027   0.04658   0.05288
 Alpha virt. eigenvalues --    0.05872   0.06774   0.07170   0.07931   0.08639
 Alpha virt. eigenvalues --    0.08852   0.10229   0.10430   0.11257   0.12245

 Mulliken charges:
               1
     1  O   -1.366796
     2  C    0.791439
     3  C    0.024261
     4  C    0.252144
     5  C    0.571885
     6  H   -0.124167
     7  H   -0.172534
     8  H   -0.180965
     9  B    1.582536
    10  O   -1.481210
    11  O   -1.302954
    12  H    0.585749
    13  H    0.735190
    14  Si   0.347302
    15  H   -0.108970
    16  H   -0.152911
 Sum of Mulliken charges =   0.00000

 Dipole moment (field-independent basis, Debye):
    X=              1.8274    Y=              0.8601    Z=             -0.2462  Tot=              2.0346

 Test job not archived.
 1\1\GINC-SE069\SP\RHF\Aug-CC-pVDZ\C4H7B1O3Si1\OHZDE\09-Apr-2025\0\\#t
 hf aug-cc-pvdz iop(5/13=1,5/36=2,99/5=2) pseudo=read geom=check guess=
 (read,tcheck) scf=(maxcycle=1)\\title\\0,1\O,0,1.078173,0.834191,0.324
 546\C,0,2.384644,1.170617,0.127004\C,0,0.941195,-0.523593,0.044788\C,0
 ,3.094936,0.085846,-0.269871\C,0,2.165264,-1.001785,-0.324202\H,0,4.14
 8748,0.059841,-0.49725\H,0,2.639874,2.201207,0.308334\H,0,2.381432,-2.
 021094,-0.60435\B,0,-2.111791,0.275594,-0.074286\O,0,-1.723397,1.58235
 8,-0.085058\O,0,-3.425488,-0.02866,-0.257454\H,0,-3.965865,0.763331,-0

 Normal termination of Gaussian 16 at Wed Apr  9 00:45:55 2025.
