 Gaussian 16, Revision C.01,

 ----------------------------------------------------------------------
 #t hf aug-cc-pvdz symm=none int=(grid=ultrafine) guess=(read,tcheck) s
 table=opt
 ----------------------------------------------------------------------
 -----
 title
 -----
 Symbolic Z-matrix:
 Charge =  0 Multiplicity = 2

 SCF Done:  E(UHF) =  -1208.58927395     A.U. after   14 cycles
 Normal termination of Gaussian 16 at Tue Apr  8 23:49:15 2025.
 Gaussian 16:  ES64L-G16RevC.01  3-Jul-2019

 ----------------------------------------------------------------------
 #t hf aug-cc-pvdz iop(5/13=1,5/36=2,99/5=2) pseudo=read geom=check gue
 ss=(read,tcheck) scf=(maxcycle=1)
 ----------------------------------------------------------------------
 -----
 title
 -----
 Structure from the checkpoint file:  "BDE49_nonexpt_1824_mol2.chk"
 Charge =  0 Multiplicity = 2

                         Standard orientation:
 ---------------------------------------------------------------------
 Center     Atomic      Atomic             Coordinates (Angstroms)
 Number     Number       Type             X           Y           Z
 ---------------------------------------------------------------------
      1         14           0       -0.025866    0.806787    0.000000
      2         17           0       -0.025866   -0.378674    1.703205
      3         17           0       -0.025866   -0.378674   -1.703205
      4          1           0        1.241551    1.579891    0.000000
 ---------------------------------------------------------------------

 SCF Done:  E(UHF) =  -1208.77127844     A.U. after    2 cycles

 The electronic state is 2-A'.
 Alpha  occ. eigenvalues -- -105.57899-105.57899 -69.64361 -10.62915 -10.62905
 Alpha  occ. eigenvalues --   -7.79879  -7.79874  -7.79496  -7.79496  -7.79431
 Alpha  occ. eigenvalues --   -7.79430  -6.30672  -4.06337  -4.05701  -4.05536
 Alpha  occ. eigenvalues --   -1.09316  -1.05918  -0.74633  -0.57932  -0.57528
 Alpha  occ. eigenvalues --   -0.53721  -0.49748  -0.48802  -0.47943  -0.37628
 Alpha virt. eigenvalues --    0.04323   0.05022   0.05075   0.06064   0.10081
 Alpha virt. eigenvalues --    0.11818   0.12366   0.13575   0.13832   0.15336
 Alpha virt. eigenvalues --    0.15945   0.18242   0.18773   0.19303   0.23735

  Beta  occ. eigenvalues -- -105.57792-105.57792 -69.63760 -10.62798 -10.62788
  Beta  occ. eigenvalues --   -7.79638  -7.79635  -7.79374  -7.79372  -7.79250
  Beta  occ. eigenvalues --   -7.79249  -6.29690  -4.05307  -4.05177  -4.04306
  Beta  occ. eigenvalues --   -1.08260  -1.05075  -0.70624  -0.56332  -0.56301
  Beta  occ. eigenvalues --   -0.51166  -0.48599  -0.47930  -0.47760
  Beta virt. eigenvalues --   -0.00006   0.04758   0.05321   0.05408   0.06557
  Beta virt. eigenvalues --    0.11293   0.12731   0.12796   0.14735   0.15213
  Beta virt. eigenvalues --    0.15514   0.16672   0.18580   0.19422   0.20282

 Mulliken charges and spin densities:
               1          2
     1  Si   1.150014   0.792103
     2  Cl  -0.493123   0.046019
     3  Cl  -0.493123   0.046019
     4  H   -0.163767   0.115859
 Sum of Mulliken charges =  -0.00000   1.00000

 Dipole moment (field-independent basis, Debye):
    X=              0.1111    Y=              1.5257    Z=             -0.0000  Tot=              1.5297
                          Isotropic Fermi Contact Couplings
        Atom                 a.u.       MegaHertz       Gauss      10(-4) cm-1
     1  Si(29)             0.93461    -830.61049    -296.38248    -277.06184
     2  Cl(35)             0.06126      26.86076       9.58459       8.95979
     3  Cl(35)             0.06126      26.86076       9.58459       8.95979
     4  H(1)               0.02867     128.15144      45.72762      42.74672
 --------------------------------------------------------
       Center         ----  Spin Dipole Couplings  ----
                      3XX-RR        3YY-RR        3ZZ-RR
 --------------------------------------------------------

 Normal termination of Gaussian 16 at Tue Apr  8 23:49:20 2025.
