 Gaussian 16, Revision C.01,

 ----------------------------------------------------------------------
 #t hf aug-cc-pvdz symm=none int=(grid=ultrafine) guess=(read,tcheck) s
 table=opt
 ----------------------------------------------------------------------
 -----
 title
 -----
 Symbolic Z-matrix:
 Charge =  0 Multiplicity = 2

 SCF Done:  E(UHF) =  -1540.49290650     A.U. after   17 cycles
 Normal termination of Gaussian 16 at Wed Apr  9 00:32:20 2025.
 Gaussian 16:  ES64L-G16RevC.01  3-Jul-2019

 ----------------------------------------------------------------------
 #t hf aug-cc-pvdz iop(5/13=1,5/36=2,99/5=2) pseudo=read geom=check gue
 ss=(read,tcheck) scf=(maxcycle=1)
 ----------------------------------------------------------------------
 -----
 title
 -----
 Structure from the checkpoint file:  "BDE49_nonexpt_365_mol2.chk"
 Charge =  0 Multiplicity = 2

                         Standard orientation:
 ---------------------------------------------------------------------
 Center     Atomic      Atomic             Coordinates (Angstroms)
 Number     Number       Type             X           Y           Z
 ---------------------------------------------------------------------
      1          9           0        2.246119   -0.028878    1.105291
      2          5           0        0.980841    0.233711    1.247242
      3          6           0       -0.093089   -0.007610    0.102426
      4         17           0       -1.675917   -0.469967    0.788727
      5         17           0        0.419739   -1.219621   -1.124418
      6         17           0       -0.188572    1.638824   -0.652449
 ---------------------------------------------------------------------

 SCF Done:  E(UHF) =  -1540.86484515     A.U. after    2 cycles

 The electronic state is 2-A.
 Alpha  occ. eigenvalues -- -105.61090-105.60751-105.60426 -26.51825 -11.44489
 Alpha  occ. eigenvalues --  -10.65864 -10.65552 -10.65216  -7.82796  -7.82486
 Alpha  occ. eigenvalues --   -7.82378  -7.82374  -7.82226  -7.82068  -7.82065
 Alpha  occ. eigenvalues --   -7.81719  -7.81718  -7.73596  -1.65363  -1.21712
 Alpha  occ. eigenvalues --   -1.07995  -1.07687  -0.89545  -0.80566  -0.73163
 Alpha  occ. eigenvalues --   -0.70050  -0.68750  -0.64110  -0.63722  -0.52574
 Alpha  occ. eigenvalues --   -0.52350  -0.48793  -0.48614  -0.48019  -0.47003
 Alpha  occ. eigenvalues --   -0.39945
 Alpha virt. eigenvalues --    0.03845   0.04830   0.05473   0.06009   0.06963
 Alpha virt. eigenvalues --    0.08544   0.09226   0.10018   0.12826   0.13778
 Alpha virt. eigenvalues --    0.14196   0.16390   0.17420   0.17650   0.18519

  Beta  occ. eigenvalues -- -105.61096-105.60757-105.60380 -26.51537 -11.44198
  Beta  occ. eigenvalues --  -10.65871 -10.65557 -10.65168  -7.82812  -7.82521
  Beta  occ. eigenvalues --   -7.82398  -7.82372  -7.82072  -7.82062  -7.82050
  Beta  occ. eigenvalues --   -7.81693  -7.81676  -7.71472  -1.64541  -1.21302
  Beta  occ. eigenvalues --   -1.07995  -1.07417  -0.87907  -0.79444  -0.71011
  Beta  occ. eigenvalues --   -0.70035  -0.66400  -0.64011  -0.63144  -0.52530
  Beta  occ. eigenvalues --   -0.52065  -0.48638  -0.48361  -0.47033  -0.46941
  Beta virt. eigenvalues --    0.02842   0.04714   0.05475   0.06008   0.06391
  Beta virt. eigenvalues --    0.08134   0.08995   0.11151   0.11212   0.13186
  Beta virt. eigenvalues --    0.14277   0.14623   0.16891   0.17705   0.17855

 Mulliken charges and spin densities:
               1          2
     1  F   -0.465696  -0.028563
     2  B    0.987404   1.003499
     3  C   -0.672046  -0.009227
     4  Cl   0.065615  -0.003728
     5  Cl   0.049084   0.035160
     6  Cl   0.035638   0.002858
 Sum of Mulliken charges =  -0.00000   1.00000

 Dipole moment (field-independent basis, Debye):
    X=              0.1459    Y=              0.0436    Z=              0.4807  Tot=              0.5042
                          Isotropic Fermi Contact Couplings
        Atom                 a.u.       MegaHertz       Gauss      10(-4) cm-1
     1  F(19)              0.06942     292.09501     104.22676      97.43241
     2  B(11)              0.40122     575.49027     205.34924     191.96289
     3  C(13)              0.09439     106.11075      37.86295      35.39474
     4  Cl(35)             0.00445       1.94904       0.69547       0.65013
     5  Cl(35)             0.01018       4.46295       1.59249       1.48868
     6  Cl(35)            -0.00331      -1.45023      -0.51748      -0.48375
 --------------------------------------------------------
       Center         ----  Spin Dipole Couplings  ----

 Normal termination of Gaussian 16 at Wed Apr  9 00:32:23 2025.
