 Gaussian 16, Revision C.01,

 ----------------------------------------------------------------------
 #t hf aug-cc-pvdz symm=none int=(grid=ultrafine) guess=(read,tcheck) s
 table=opt
 ----------------------------------------------------------------------
 -----
 title
 -----
 Symbolic Z-matrix:
 Charge =  0 Multiplicity = 2

 SCF Done:  E(UHF) =  -664.871370525     A.U. after   21 cycles
 Normal termination of Gaussian 16 at Tue Apr  8 23:01:18 2025.
 Gaussian 16:  ES64L-G16RevC.01  3-Jul-2019

 ----------------------------------------------------------------------
 #t hf aug-cc-pvdz iop(5/13=1,5/36=2,99/5=2) pseudo=read geom=check gue
 ss=(read,tcheck) scf=(maxcycle=1)
 ----------------------------------------------------------------------
 -----
 title
 -----
 Structure from the checkpoint file:  "BDE49_expt_1982_mol2.chk"
 Charge =  0 Multiplicity = 2

                         Standard orientation:
 ---------------------------------------------------------------------
 Center     Atomic      Atomic             Coordinates (Angstroms)
 Number     Number       Type             X           Y           Z
 ---------------------------------------------------------------------
      1         16           0        0.927321    0.103094   -0.262255
      2          8           0        2.084630   -0.798567   -0.294176
      3          8           0        0.998990    1.415446    0.391422
      4          6           0       -0.435690   -0.845553    0.587758
      5          6           0       -1.745380   -0.070636    0.623628
      6          1           0       -0.018362   -1.036748    1.579380
      7          1           0       -0.495482   -1.783307    0.032918
      8          6           0       -2.377917    0.145075   -0.753660
      9          1           0       -1.575672    0.888366    1.119516
     10          1           0       -2.434321   -0.635144    1.262599
     11          1           0       -1.729660    0.742411   -1.400788
     12          1           0       -3.329274    0.673816   -0.664917
     13          1           0       -2.569404   -0.807248   -1.256953
 ---------------------------------------------------------------------

 SCF Done:  E(UHF) =  -665.205555971     A.U. after    2 cycles

 The electronic state is 2-A.
 Alpha  occ. eigenvalues --  -94.16451 -20.57528 -20.57459 -11.31155 -11.26781
 Alpha  occ. eigenvalues --  -11.25107  -8.42452  -6.40795  -6.40238  -6.39903
 Alpha  occ. eigenvalues --   -1.56476  -1.46360  -1.12035  -1.00645  -0.90759
 Alpha  occ. eigenvalues --   -0.83221  -0.70883  -0.69367  -0.67236  -0.64605
 Alpha  occ. eigenvalues --   -0.63338  -0.60435  -0.55412  -0.53794  -0.53322
 Alpha  occ. eigenvalues --   -0.52177  -0.49691  -0.49228  -0.40136
 Alpha virt. eigenvalues --    0.02835   0.03469   0.03762   0.05179   0.06661
 Alpha virt. eigenvalues --    0.06874   0.07087   0.09572   0.10514   0.13200
 Alpha virt. eigenvalues --    0.13802   0.14019   0.14525   0.14896   0.15155

  Beta  occ. eigenvalues --  -94.16091 -20.56059 -20.56032 -11.30650 -11.26823
  Beta  occ. eigenvalues --  -11.25096  -8.41997  -6.40203  -6.39964  -6.39009
  Beta  occ. eigenvalues --   -1.53386  -1.42374  -1.10981  -0.99063  -0.88008
  Beta  occ. eigenvalues --   -0.80617  -0.68550  -0.67606  -0.65024  -0.62434
  Beta  occ. eigenvalues --   -0.60278  -0.58691  -0.53855  -0.53027  -0.52099
  Beta  occ. eigenvalues --   -0.47956  -0.46660  -0.42972
  Beta virt. eigenvalues --    0.00407   0.02982   0.03514   0.03820   0.05672
  Beta virt. eigenvalues --    0.06678   0.06924   0.07109   0.09707   0.10653
  Beta virt. eigenvalues --    0.13345   0.13868   0.14181   0.14567   0.14962

 Mulliken charges and spin densities:
               1          2
     1  S    2.814563   0.246633
     2  O   -1.321542   0.291048
     3  O   -1.351336   0.284005
     4  C   -0.720519   0.238431
     5  C   -0.354425  -0.045633
     6  H    0.230645  -0.000679
     7  H    0.227829  -0.017833
     8  C   -0.326757   0.010703
     9  H    0.162021   0.000006
    10  H    0.174098   0.002430
    11  H    0.172269  -0.010238
    12  H    0.128494   0.000259
    13  H    0.164659   0.000867
 Sum of Mulliken charges =  -0.00000   1.00000

 Dipole moment (field-independent basis, Debye):
    X=             -4.3130    Y=             -1.6556    Z=              0.2235  Tot=              4.6252
                          Isotropic Fermi Contact Couplings
        Atom                 a.u.       MegaHertz       Gauss      10(-4) cm-1
     1  S(33)              0.41153     141.34825      50.43657      47.14870
     2  O(17)              0.09675     -58.64733     -20.92683     -19.56265
     3  O(17)              0.09483     -57.48367     -20.51160     -19.17449
     4  C(13)              0.07286      81.91321      29.22867      27.32331
     5  C(13)             -0.00835      -9.38213      -3.34778      -3.12954
     6  H(1)               0.00231      10.34142       3.69007       3.44952
     7  H(1)              -0.00374     -16.71879      -5.96568      -5.57679
     8  C(13)              0.00069       0.77759       0.27746       0.25938

 Normal termination of Gaussian 16 at Tue Apr  8 23:01:25 2025.
