 Gaussian 16, Revision C.01,

 ----------------------------------------------------------------------
 #t hf aug-cc-pvdz symm=none int=(grid=ultrafine) guess=(read,tcheck) s
 table=(opt,rrhf)
 ----------------------------------------------------------------------
 -----
 title
 -----
 Symbolic Z-matrix:
 Charge =  0 Multiplicity = 1

 SCF Done:  E(RHF) =  -170.982598831     A.U. after   13 cycles
 Normal termination of Gaussian 16 at Tue Apr  8 23:02:40 2025.
 Gaussian 16:  ES64L-G16RevC.01  3-Jul-2019

 ----------------------------------------------------------------------
 #t hf aug-cc-pvdz iop(5/13=1,5/36=2,99/5=2) pseudo=read geom=check gue
 ss=(read,tcheck) scf=(maxcycle=1)
 ----------------------------------------------------------------------
 -----
 title
 -----
 Structure from the checkpoint file:  "BDE49_expt_299_mol1.chk"
 Charge =  0 Multiplicity = 1

                         Standard orientation:
 ---------------------------------------------------------------------
 Center     Atomic      Atomic             Coordinates (Angstroms)
 Number     Number       Type             X           Y           Z
 ---------------------------------------------------------------------
      1          6           0       -0.879144    0.110430   -0.000104
      2          7           0       -1.943566   -0.331803    0.000068
      3          6           0        0.479258    0.650780   -0.000008
      4          6           0        1.556909   -0.447002    0.000016
      5          1           0        0.588302    1.294732    0.877857
      6          1           0        0.588390    1.294783   -0.877824
      7          1           0        1.468646   -1.080681    0.884048
      8          1           0        2.548761    0.009184    0.000072
      9          1           0        1.468725   -1.080639   -0.884055
 ---------------------------------------------------------------------

 SCF Done:  E(RHF) =  -171.160510265     A.U. after    2 cycles

 The electronic state is 1-A.
 Alpha  occ. eigenvalues --  -15.51006 -11.29538 -11.27989 -11.26041  -1.23202
 Alpha  occ. eigenvalues --   -1.08746  -0.91760  -0.71356  -0.66618  -0.61259
 Alpha  occ. eigenvalues --   -0.59042  -0.55673  -0.55318  -0.48994  -0.48845
 Alpha virt. eigenvalues --    0.02839   0.04001   0.04207   0.05049   0.06740
 Alpha virt. eigenvalues --    0.09283   0.11228   0.11437   0.12529   0.13479
 Alpha virt. eigenvalues --    0.15022   0.16141   0.16582   0.17303   0.17330

 Mulliken charges:
               1
     1  C   -1.404576
     2  N    0.820495
     3  C   -0.118002
     4  C   -0.290925
     5  H    0.242510
     6  H    0.242483
     7  H    0.186008
     8  H    0.136006
     9  H    0.185999
 Sum of Mulliken charges =   0.00000

 Dipole moment (field-independent basis, Debye):
    X=              4.6216    Y=              1.6182    Z=             -0.0002  Tot=              4.8967

 Test job not archived.
 1\1\GINC-SE222\SP\RHF\Aug-CC-pVDZ\C3H5N1\OHZDE\08-Apr-2025\0\\#t hf au
 g-cc-pvdz iop(5/13=1,5/36=2,99/5=2) pseudo=read geom=check guess=(read
 ,tcheck) scf=(maxcycle=1)\\title\\0,1\C,0,-0.879144,0.11043,-0.000104\
 N,0,-1.943566,-0.331803,0.000068\C,0,0.479258,0.65078,-0.000008\C,0,1.
 556909,-0.447002,0.000016\H,0,0.588302,1.294732,0.877857\H,0,0.58839,1
 .294783,-0.877824\H,0,1.468646,-1.080681,0.884048\H,0,2.548761,0.00918
 4,0.000072\H,0,1.468725,-1.080639,-0.884055\\Version=ES64L-G16RevC.01\
 State=1-A\HF=-171.1605103\RMSD=1.930e-02\Dipole=1.8182605,0.6366434,-0

 Normal termination of Gaussian 16 at Tue Apr  8 23:02:43 2025.
