 Gaussian 16, Revision C.01,

 ----------------------------------------------------------------------
 #t hf aug-cc-pvdz symm=none int=(grid=ultrafine) guess=(read,tcheck) s
 table=opt
 ----------------------------------------------------------------------
 -----
 title
 -----
 Symbolic Z-matrix:
 Charge =  0 Multiplicity = 2

 SCF Done:  E(UHF) =  -886.085200786     A.U. after   15 cycles
 Normal termination of Gaussian 16 at Wed Apr  9 00:20:56 2025.
 Gaussian 16:  ES64L-G16RevC.01  3-Jul-2019

 ----------------------------------------------------------------------
 #t hf aug-cc-pvdz iop(5/13=1,5/36=2,99/5=2) pseudo=read geom=check gue
 ss=(read,tcheck) scf=(maxcycle=1)
 ----------------------------------------------------------------------
 -----
 title
 -----
 Structure from the checkpoint file:  "BDE49_nonexpt_2625_mol2.chk"
 Charge =  0 Multiplicity = 2

                         Standard orientation:
 ---------------------------------------------------------------------
 Center     Atomic      Atomic             Coordinates (Angstroms)
 Number     Number       Type             X           Y           Z
 ---------------------------------------------------------------------
      1         16           0       -1.672116   -0.000004   -0.102804
      2         14           0        0.403043   -0.000001    0.344659
      3          9           0        1.142132   -1.267050   -0.276921
      4          9           0        1.142114    1.267060   -0.276918
      5          1           0        0.553041   -0.000007    1.804196
 ---------------------------------------------------------------------

 SCF Done:  E(UHF) =  -886.350803935     A.U. after    2 cycles

 The electronic state is 2-A.
 Alpha  occ. eigenvalues --  -93.99755 -69.66709 -26.47981 -26.47980  -8.28017
 Alpha  occ. eigenvalues --   -6.32655  -6.27142  -6.25376  -6.25113  -4.08031
 Alpha  occ. eigenvalues --   -4.07931  -4.07779  -1.60712  -1.58193  -1.04451
 Alpha  occ. eigenvalues --   -0.80131  -0.71394  -0.70029  -0.68416  -0.65020
 Alpha  occ. eigenvalues --   -0.63113  -0.59880  -0.50626  -0.48905  -0.43703
 Alpha virt. eigenvalues --    0.04956   0.05070   0.05636   0.05900   0.09420
 Alpha virt. eigenvalues --    0.11955   0.13027   0.13586   0.16248   0.16576
 Alpha virt. eigenvalues --    0.19725   0.20703   0.21027   0.24836   0.26682

  Beta  occ. eigenvalues --  -93.98894 -69.66740 -26.47979 -26.47978  -8.27031
  Beta  occ. eigenvalues --   -6.32702  -6.24891  -6.24590  -6.23273  -4.08058
  Beta  occ. eigenvalues --   -4.07995  -4.07830  -1.60698  -1.58182  -0.95328
  Beta  occ. eigenvalues --   -0.79383  -0.71375  -0.69761  -0.68121  -0.65020
  Beta  occ. eigenvalues --   -0.63099  -0.58848  -0.48526  -0.41376
  Beta virt. eigenvalues --   -0.04491   0.05045   0.05160   0.05926   0.06039
  Beta virt. eigenvalues --    0.09635   0.12563   0.13093   0.14499   0.16485
  Beta virt. eigenvalues --    0.18293   0.21169   0.21196   0.22239   0.25049

 Mulliken charges and spin densities:
               1          2
     1  S   -0.517578   1.090086
     2  Si   2.385226  -0.127637
     3  F   -0.819574   0.007028
     4  F   -0.819574   0.007028
     5  H   -0.228500   0.023495
 Sum of Mulliken charges =   0.00000   1.00000

 Dipole moment (field-independent basis, Debye):
    X=             -0.5748    Y=             -0.0000    Z=              1.1258  Tot=              1.2641
                          Isotropic Fermi Contact Couplings
        Atom                 a.u.       MegaHertz       Gauss      10(-4) cm-1
     1  S(33)              0.14278      49.04280      17.49969      16.35892
     2  Si(29)            -0.04278      38.02104      13.56685      12.68246
     3  F(19)              0.00118       4.94958       1.76613       1.65100
     4  F(19)              0.00118       4.95094       1.76662       1.65146
     5  H(1)               0.00535      23.91838       8.53467       7.97831
 --------------------------------------------------------
       Center         ----  Spin Dipole Couplings  ----
                      3XX-RR        3YY-RR        3ZZ-RR

 Normal termination of Gaussian 16 at Wed Apr  9 00:20:58 2025.
