 Gaussian 16, Revision C.01,

 ----------------------------------------------------------------------
 #t hf aug-cc-pvdz symm=none int=(grid=ultrafine) guess=(read,tcheck) s
 table=opt
 ----------------------------------------------------------------------
 -----
 title
 -----
 Symbolic Z-matrix:
 Charge =  0 Multiplicity = 2

 SCF Done:  E(UHF) =  -272.647100242     A.U. after   18 cycles
 Normal termination of Gaussian 16 at Wed Apr  9 00:33:50 2025.
 Gaussian 16:  ES64L-G16RevC.01  3-Jul-2019

 ----------------------------------------------------------------------
 #t hf aug-cc-pvdz iop(5/13=1,5/36=2,99/5=2) pseudo=read geom=check gue
 ss=(read,tcheck) scf=(maxcycle=1)
 ----------------------------------------------------------------------
 -----
 title
 -----
 Structure from the checkpoint file:  "BDE49_nonexpt_425_mol2.chk"
 Charge =  0 Multiplicity = 2

                         Standard orientation:
 ---------------------------------------------------------------------
 Center     Atomic      Atomic             Coordinates (Angstroms)
 Number     Number       Type             X           Y           Z
 ---------------------------------------------------------------------
      1          9           0       -2.512927    0.209468    0.000077
      2          5           0       -1.235190   -0.038859   -0.000829
      3          7           0       -0.006277   -0.262836    0.000837
      4          7           0        1.229541   -0.674721   -0.000310
      5          6           0        2.167245    0.445634   -0.000043
      6          1           0        2.022269    1.077209   -0.886571
      7          1           0        3.180536    0.044871   -0.000818
      8          1           0        2.023170    1.076097    0.887413
 ---------------------------------------------------------------------

 SCF Done:  E(UHF) =  -272.908702528     A.U. after    2 cycles

 The electronic state is 2-A.
 Alpha  occ. eigenvalues --  -26.52397 -15.56670 -15.52051 -11.26202  -7.70108
 Alpha  occ. eigenvalues --   -1.65224  -1.33082  -1.08316  -0.93718  -0.80177
 Alpha  occ. eigenvalues --   -0.73679  -0.72205  -0.71537  -0.69058  -0.65020
 Alpha  occ. eigenvalues --   -0.54696  -0.54454  -0.42059  -0.39817
 Alpha virt. eigenvalues --    0.03380   0.05040   0.05291   0.05337   0.05994
 Alpha virt. eigenvalues --    0.06205   0.07233   0.11601   0.14722   0.15058
 Alpha virt. eigenvalues --    0.15943   0.16613   0.19354   0.19399   0.19689

  Beta  occ. eigenvalues --  -26.52296 -15.53482 -15.52643 -11.26506  -7.69662
  Beta  occ. eigenvalues --   -1.64993  -1.28776  -1.05673  -0.92125  -0.80010
  Beta  occ. eigenvalues --   -0.71306  -0.70540  -0.70424  -0.64156  -0.59945
  Beta  occ. eigenvalues --   -0.53829  -0.51995  -0.40784
  Beta virt. eigenvalues --    0.03472   0.04953   0.05056   0.05310   0.05997
  Beta virt. eigenvalues --    0.06181   0.07322   0.07390   0.11699   0.14998
  Beta virt. eigenvalues --    0.15490   0.16066   0.16706   0.19351   0.19842

 Mulliken charges and spin densities:
               1          2
     1  F   -0.857799   0.014503
     2  B    0.610567   0.253970
     3  N    0.428143  -0.134728
     4  N   -0.198280   0.938341
     5  C   -0.399813  -0.150538
     6  H    0.171409   0.035037
     7  H    0.074643   0.008407
     8  H    0.171130   0.035009
 Sum of Mulliken charges =  -0.00000   1.00000

 Dipole moment (field-independent basis, Debye):
    X=             -0.5333    Y=              1.7706    Z=             -0.0044  Tot=              1.8492
                          Isotropic Fermi Contact Couplings
        Atom                 a.u.       MegaHertz       Gauss      10(-4) cm-1
     1  F(19)              0.01119      47.07367      16.79706      15.70209
     2  B(11)              0.02428      34.82477      12.42634      11.61629
     3  N(14)             -0.16468     -53.20993     -18.98663     -17.74892
     4  N(14)              0.32496     104.99731      37.46565      35.02333
     5  C(13)             -0.04958     -55.73990     -19.88938     -18.59283
     6  H(1)               0.01614      72.16494      25.75025      24.07163
     7  H(1)               0.00087       3.87526       1.38279       1.29265
     8  H(1)               0.01614      72.14179      25.74199      24.06391

 Normal termination of Gaussian 16 at Wed Apr  9 00:33:52 2025.
