 Gaussian 16, Revision C.01,

 ----------------------------------------------------------------------
 #t hf aug-cc-pvdz symm=none int=(grid=ultrafine) guess=(read,tcheck) s
 table=(opt,rrhf)
 ----------------------------------------------------------------------
 -----
 title
 -----
 Symbolic Z-matrix:
 Charge =  0 Multiplicity = 1

 SCF Done:  E(RHF) =  -420.549542211     A.U. after   12 cycles
 Normal termination of Gaussian 16 at Tue Apr  8 23:26:59 2025.
 Gaussian 16:  ES64L-G16RevC.01  3-Jul-2019

 ----------------------------------------------------------------------
 #t hf aug-cc-pvdz iop(5/13=1,5/36=2,99/5=2) pseudo=read geom=check gue
 ss=(read,tcheck) scf=(maxcycle=1)
 ----------------------------------------------------------------------
 -----
 title
 -----
 Structure from the checkpoint file:  "BDE49_nonexpt_1307_mol1.chk"
 Charge =  0 Multiplicity = 1

                         Standard orientation:
 ---------------------------------------------------------------------
 Center     Atomic      Atomic             Coordinates (Angstroms)
 Number     Number       Type             X           Y           Z
 ---------------------------------------------------------------------
      1         15           0       -1.214491   -0.040478   -0.000000
      2          6           0        0.521650    0.653638   -0.000000
      3          6           0        1.675993   -0.351327   -0.000000
      4          1           0        0.584817    1.312149    0.872924
      5          1           0        0.584817    1.312148   -0.872925
      6          1           0        1.638327   -0.996267    0.882091
      7          1           0        2.644559    0.159598   -0.000001
      8          1           0        1.638327   -0.996269   -0.882090
      9          1           0       -1.029666   -0.999028    1.032699
     10          1           0       -1.029667   -0.999029   -1.032697
 ---------------------------------------------------------------------

 SCF Done:  E(RHF) =  -420.687147129     A.U. after    2 cycles

 The electronic state is 1-A.
 Alpha  occ. eigenvalues --  -84.26590 -11.24507 -11.23384  -6.73676  -4.26054
 Alpha  occ. eigenvalues --   -4.25950  -4.25415  -1.04338  -0.88838  -0.78900
 Alpha  occ. eigenvalues --   -0.62614  -0.58117  -0.54115  -0.51714  -0.47814
 Alpha  occ. eigenvalues --   -0.45015  -0.33813
 Alpha virt. eigenvalues --    0.03799   0.04457   0.04696   0.04937   0.07070
 Alpha virt. eigenvalues --    0.07544   0.08869   0.10749   0.11596   0.12590
 Alpha virt. eigenvalues --    0.12774   0.14962   0.15957   0.16960   0.17058

 Mulliken charges:
               1
     1  P   -0.310179
     2  C   -0.849710
     3  C   -0.374943
     4  H    0.189161
     5  H    0.189161
     6  H    0.141971
     7  H    0.124753
     8  H    0.141972
     9  H    0.373907
    10  H    0.373908
 Sum of Mulliken charges =  -0.00000

 Dipole moment (field-independent basis, Debye):
    X=              1.0266    Y=              0.0072    Z=             -0.0000  Tot=              1.0266

 Test job not archived.
 1\1\GINC-SE344\SP\RHF\Aug-CC-pVDZ\C2H7P1\OHZDE\08-Apr-2025\0\\#t hf au
 g-cc-pvdz iop(5/13=1,5/36=2,99/5=2) pseudo=read geom=check guess=(read
 ,tcheck) scf=(maxcycle=1)\\title\\0,1\P,0,-1.214491,-0.040478,0.\C,0,0
 .52165,0.653638,0.\C,0,1.675993,-0.351327,0.\H,0,0.584817,1.312149,0.8
 72924\H,0,0.584817,1.312148,-0.872925\H,0,1.638327,-0.996267,0.882091\
 H,0,2.644559,0.159598,-0.000001\H,0,1.638327,-0.996269,-0.88209\H,0,-1
 .029666,-0.999028,1.032699\H,0,-1.029667,-0.999029,-1.032697\\Version=
 ES64L-G16RevC.01\State=1-A\HF=-420.6871471\RMSD=2.510e-02\Dipole=0.403

 Normal termination of Gaussian 16 at Tue Apr  8 23:27:01 2025.
