 Gaussian 16, Revision C.01,

 ----------------------------------------------------------------------
 #t hf aug-cc-pvdz symm=none int=(grid=ultrafine) guess=(read,tcheck) s
 table=(opt,rrhf)
 ----------------------------------------------------------------------
 -----
 title
 -----
 Symbolic Z-matrix:
 Charge =  0 Multiplicity = 1

 SCF Done:  E(RHF) =  -686.760295231     A.U. after   13 cycles
 Normal termination of Gaussian 16 at Tue Apr  8 23:08:46 2025.
 Gaussian 16:  ES64L-G16RevC.01  3-Jul-2019

 ----------------------------------------------------------------------
 #t hf aug-cc-pvdz iop(5/13=1,5/36=2,99/5=2) pseudo=read geom=check gue
 ss=(read,tcheck) scf=(maxcycle=1)
 ----------------------------------------------------------------------
 -----
 title
 -----
 Structure from the checkpoint file:  "BDE49_expt_593_mol1.chk"
 Charge =  0 Multiplicity = 1

                         Standard orientation:
 ---------------------------------------------------------------------
 Center     Atomic      Atomic             Coordinates (Angstroms)
 Number     Number       Type             X           Y           Z
 ---------------------------------------------------------------------
      1          6           0        1.080454   -0.020838    0.000061
      2          8           0        2.145475   -0.568748   -0.000041
      3          8           0        0.946849    1.310473   -0.000011
      4          1           0        0.004623    1.542046   -0.000001
      5          6           0       -0.190301   -0.876199    0.000017
      6         17           0       -1.747624    0.053880   -0.000004
      7          1           0       -0.187278   -1.504802    0.887816
      8          1           0       -0.187241   -1.504779   -0.887799
 ---------------------------------------------------------------------

 SCF Done:  E(RHF) =  -687.061233069     A.U. after    2 cycles

 The electronic state is 1-A.
 Alpha  occ. eigenvalues -- -105.60017 -20.61935 -20.55299 -11.42141 -11.35009
 Alpha  occ. eigenvalues --  -10.64821  -7.81752  -7.81409  -7.81361  -1.56612
 Alpha  occ. eigenvalues --   -1.47778  -1.14384  -0.98365  -0.85190  -0.76291
 Alpha  occ. eigenvalues --   -0.69839  -0.68828  -0.61500  -0.60635  -0.58239
 Alpha  occ. eigenvalues --   -0.51154  -0.50129  -0.47508  -0.45456
 Alpha virt. eigenvalues --    0.03351   0.04733   0.04820   0.07581   0.09661
 Alpha virt. eigenvalues --    0.11038   0.11816   0.11909   0.14216   0.14589
 Alpha virt. eigenvalues --    0.15264   0.15777   0.17056   0.17139   0.18550

 Mulliken charges:
               1
     1  C    1.949215
     2  O   -1.197234
     3  O   -1.183507
     4  H    0.443180
     5  C   -0.659826
     6  Cl  -0.056281
     7  H    0.352234
     8  H    0.352219
 Sum of Mulliken charges =  -0.00000

 Dipole moment (field-independent basis, Debye):
    X=             -2.8722    Y=             -0.5710    Z=              0.0002  Tot=              2.9284

 Test job not archived.
 1\1\GINC-SE249\SP\RHF\Aug-CC-pVDZ\C2H3Cl1O2\OHZDE\08-Apr-2025\0\\#t hf
  aug-cc-pvdz iop(5/13=1,5/36=2,99/5=2) pseudo=read geom=check guess=(r
 ead,tcheck) scf=(maxcycle=1)\\title\\0,1\C,0,1.080454,-0.020838,0.0000
 61\O,0,2.145475,-0.568748,-0.000041\O,0,0.946849,1.310473,-0.000011\H,
 0,0.004623,1.542046,-0.000001\C,0,-0.190301,-0.876199,0.000017\Cl,0,-1
 .747624,0.05388,-0.000004\H,0,-0.187278,-1.504802,0.887816\H,0,-0.1872
 41,-1.504779,-0.887799\\Version=ES64L-G16RevC.01\State=1-A\HF=-687.061
 2331\RMSD=1.009e-02\Dipole=-1.1300148,-0.224651,0.0000867\Quadrupole=-

 Normal termination of Gaussian 16 at Tue Apr  8 23:08:49 2025.
