 Gaussian 16, Revision C.01,

 ----------------------------------------------------------------------
 #t hf aug-cc-pvdz symm=none int=(grid=ultrafine) guess=(read,tcheck) s
 table=(opt,rrhf)
 ----------------------------------------------------------------------
 -----
 title
 -----
 Symbolic Z-matrix:
 Charge =  0 Multiplicity = 1

 SCF Done:  E(RHF) =  -704.773722542     A.U. after   12 cycles
 Normal termination of Gaussian 16 at Tue Apr  8 23:50:15 2025.
 Gaussian 16:  ES64L-G16RevC.01  3-Jul-2019

 ----------------------------------------------------------------------
 #t hf aug-cc-pvdz iop(5/13=1,5/36=2,99/5=2) pseudo=read geom=check gue
 ss=(read,tcheck) scf=(maxcycle=1)
 ----------------------------------------------------------------------
 -----
 title
 -----
 Structure from the checkpoint file:  "BDE49_nonexpt_1862_mol1.chk"
 Charge =  0 Multiplicity = 1

                         Standard orientation:
 ---------------------------------------------------------------------
 Center     Atomic      Atomic             Coordinates (Angstroms)
 Number     Number       Type             X           Y           Z
 ---------------------------------------------------------------------
      1          6           0        0.905504   -0.017545   -0.011441
      2         14           0       -0.952438   -0.005126    0.449066
      3          8           0        1.427262    1.282387   -0.184464
      4          1           0        0.734787    1.823884   -0.586324
      5          8           0       -1.696678   -1.353734   -0.105442
      6          1           0       -1.280116   -1.754601   -0.876402
      7          8           0        0.981297   -0.783424   -1.184196
      8          1           0        1.921531   -0.907660   -1.382324
      9          8           0       -1.435516    1.395009   -0.292717
     10          1           0       -2.355286    1.668424   -0.268272
     11          8           0        1.724596   -0.637688    0.953274
     12          1           0        2.082148    0.066523    1.506150
     13          1           0       -1.209646    0.060057    1.897257
 ---------------------------------------------------------------------

 SCF Done:  E(RHF) =  -705.218626776     A.U. after    2 cycles

 The electronic state is 1-A.
 Alpha  occ. eigenvalues --  -69.58698 -20.56982 -20.56908 -20.56711 -20.56443
 Alpha  occ. eigenvalues --  -20.55373 -11.38940  -6.25105  -4.00615  -4.00479
 Alpha  occ. eigenvalues --   -4.00395  -1.54509  -1.45880  -1.44856  -1.43727
 Alpha  occ. eigenvalues --   -1.43334  -0.90340  -0.79892  -0.75689  -0.73340
 Alpha  occ. eigenvalues --   -0.71352  -0.67669  -0.63161  -0.60030  -0.58367
 Alpha  occ. eigenvalues --   -0.56431  -0.56322  -0.53277  -0.52026  -0.50156
 Alpha  occ. eigenvalues --   -0.49256  -0.47818  -0.42388
 Alpha virt. eigenvalues --    0.03203   0.04374   0.04643   0.05496   0.06788
 Alpha virt. eigenvalues --    0.07188   0.07822   0.08345   0.08897   0.12920
 Alpha virt. eigenvalues --    0.14218   0.14500   0.15165   0.17559   0.18852

 Mulliken charges:
               1
     1  C    2.714974
     2  Si   2.579552
     3  O   -1.380639
     4  H    0.370848
     5  O   -1.563235
     6  H    0.507736
     7  O   -1.250502
     8  H    0.211903
     9  O   -1.375358
    10  H    0.403621
    11  O   -1.305475
    12  H    0.272188
    13  H   -0.185614
 Sum of Mulliken charges =  -0.00000

 Dipole moment (field-independent basis, Debye):
    X=             -0.6899    Y=              1.4671    Z=             -0.2521  Tot=              1.6407

 Test job not archived.
 1\1\GINC-SE128\SP\RHF\Aug-CC-pVDZ\C1H6O5Si1\OHZDE\08-Apr-2025\0\\#t hf
  aug-cc-pvdz iop(5/13=1,5/36=2,99/5=2) pseudo=read geom=check guess=(r
 ead,tcheck) scf=(maxcycle=1)\\title\\0,1\C,0,0.905504,-0.017545,-0.011
 441\Si,0,-0.952438,-0.005126,0.449066\O,0,1.427262,1.282388,-0.184464\
 H,0,0.734786,1.823884,-0.586324\O,0,-1.696677,-1.353735,-0.105442\H,0,
 -1.280115,-1.754601,-0.876402\O,0,0.981297,-0.783424,-1.184196\H,0,1.9
 21531,-0.907659,-1.382324\O,0,-1.435516,1.395009,-0.292717\H,0,-2.3552
 87,1.668423,-0.268272\O,0,1.724596,-0.637687,0.953274\H,0,2.082148,0.0

 Normal termination of Gaussian 16 at Tue Apr  8 23:50:20 2025.
