 Gaussian 16, Revision C.01,

 ----------------------------------------------------------------------
 #t hf aug-cc-pvdz symm=none int=(grid=ultrafine) guess=(read,tcheck) s
 table=(opt,rrhf)
 ----------------------------------------------------------------------
 -----
 title
 -----
 Symbolic Z-matrix:
 Charge =  0 Multiplicity = 1

 SCF Done:  E(RHF) =  -392.973616686     A.U. after   13 cycles
 Normal termination of Gaussian 16 at Tue Apr  8 23:27:59 2025.
 Gaussian 16:  ES64L-G16RevC.01  3-Jul-2019

 ----------------------------------------------------------------------
 #t hf aug-cc-pvdz iop(5/13=1,5/36=2,99/5=2) pseudo=read geom=check gue
 ss=(read,tcheck) scf=(maxcycle=1)
 ----------------------------------------------------------------------
 -----
 title
 -----
 Structure from the checkpoint file:  "BDE49_nonexpt_132_mol1.chk"
 Charge =  0 Multiplicity = 1

                         Standard orientation:
 ---------------------------------------------------------------------
 Center     Atomic      Atomic             Coordinates (Angstroms)
 Number     Number       Type             X           Y           Z
 ---------------------------------------------------------------------
      1          5           0       -2.034244   -0.240713    0.014884
      2          5           0       -0.642477    0.616286    0.004301
      3         15           0        1.090695   -0.128466   -0.105377
      4          1           0        1.013957   -1.302198    0.676134
      5          1           0        1.817096    0.677661    0.797380
      6          1           0       -0.657872    1.810810   -0.059581
      7          1           0       -2.524088   -0.713000   -0.968043
      8          1           0       -2.625915   -0.424145    1.038836
 ---------------------------------------------------------------------

 SCF Done:  E(RHF) =  -393.073906567     A.U. after    2 cycles

 The electronic state is 1-A.
 Alpha  occ. eigenvalues --  -84.26413  -7.59534  -7.59054  -6.73819  -4.26295
 Alpha  occ. eigenvalues --   -4.26274  -4.25486  -0.88294  -0.74450  -0.62815
 Alpha  occ. eigenvalues --   -0.53018  -0.50278  -0.46233  -0.43952  -0.34068
 Alpha virt. eigenvalues --    0.03163   0.03777   0.03876   0.04549   0.06017
 Alpha virt. eigenvalues --    0.06328   0.07138   0.07892   0.08395   0.09776
 Alpha virt. eigenvalues --    0.10762   0.11282   0.12231   0.13423   0.14471

 Mulliken charges:
               1
     1  B   -0.476576
     2  B    0.012836
     3  P   -1.081040
     4  H    0.399435
     5  H    0.344638
     6  H    0.264991
     7  H    0.263805
     8  H    0.271910
 Sum of Mulliken charges =  -0.00000

 Dipole moment (field-independent basis, Debye):
    X=              0.1132    Y=              0.0536    Z=              0.4528  Tot=              0.4698

 Test job not archived.
 1\1\GINC-SE365\SP\RHF\Aug-CC-pVDZ\B2H5P1\OHZDE\08-Apr-2025\0\\#t hf au
 g-cc-pvdz iop(5/13=1,5/36=2,99/5=2) pseudo=read geom=check guess=(read
 ,tcheck) scf=(maxcycle=1)\\title\\0,1\B,0,-2.034244,-0.240713,0.014884
 \B,0,-0.642477,0.616286,0.004301\P,0,1.090695,-0.128466,-0.105377\H,0,
 1.013957,-1.302198,0.676134\H,0,1.817096,0.677661,0.79738\H,0,-0.65787
 2,1.81081,-0.059581\H,0,-2.524088,-0.713,-0.968043\H,0,-2.625915,-0.42
 4145,1.038836\\Version=ES64L-G16RevC.01\State=1-A\HF=-393.0739066\RMSD
 =3.439e-02\Dipole=0.0445181,0.0210799,0.1781497\Quadrupole=-0.5321371,

 Normal termination of Gaussian 16 at Tue Apr  8 23:28:01 2025.
