 Gaussian 16, Revision C.01,

 ----------------------------------------------------------------------
 #t hf aug-cc-pvdz symm=none int=(grid=ultrafine) guess=(read,tcheck) s
 table=(opt,rrhf)
 ----------------------------------------------------------------------
 -----
 title
 -----
 Symbolic Z-matrix:
 Charge =  0 Multiplicity = 1

 SCF Done:  E(RHF) =  -778.635082266     A.U. after   18 cycles
 Normal termination of Gaussian 16 at Tue Apr  8 23:31:06 2025.
 Gaussian 16:  ES64L-G16RevC.01  3-Jul-2019

 ----------------------------------------------------------------------
 #t hf aug-cc-pvdz iop(5/13=1,5/36=2,99/5=2) pseudo=read geom=check gue
 ss=(read,tcheck) scf=(maxcycle=1)
 ----------------------------------------------------------------------
 -----
 title
 -----
 Structure from the checkpoint file:  "BDE49_nonexpt_1367_mol1.chk"
 Charge =  0 Multiplicity = 1

                         Standard orientation:
 ---------------------------------------------------------------------
 Center     Atomic      Atomic             Coordinates (Angstroms)
 Number     Number       Type             X           Y           Z
 ---------------------------------------------------------------------
      1          9           0        2.346991   -0.986733    0.878892
      2         15           0        1.683778   -0.435313   -0.500559
      3          7           0        1.692516    1.353605   -0.121052
      4          7           0        0.550423    1.830045    0.035943
      5          6           0       -0.099299   -0.467858   -0.153800
      6          6           0       -0.511752    0.861819    0.014807
      7          6           0       -1.846294    1.206238    0.167272
      8          1           0       -2.126721    2.245762    0.285282
      9          6           0       -2.792568    0.179659    0.161324
     10          1           0       -3.842817    0.415810    0.286087
     11          6           0       -2.398967   -1.148325   -0.009368
     12          1           0       -3.146939   -1.932771   -0.008096
     13          6           0       -1.051230   -1.479785   -0.186351
     14          1           0       -0.763016   -2.514554   -0.332441
 ---------------------------------------------------------------------

 SCF Done:  E(RHF) =  -779.100926884     A.U. after    2 cycles

 The electronic state is 1-A.
 Alpha  occ. eigenvalues --  -84.37865 -26.47662 -15.59754 -15.57659 -11.29988
 Alpha  occ. eigenvalues --  -11.28434 -11.27875 -11.27643 -11.27544 -11.27207
 Alpha  occ. eigenvalues --   -6.84018  -4.36861  -4.36360  -4.35653  -1.58776
 Alpha  occ. eigenvalues --   -1.38851  -1.18927  -1.07341  -1.06144  -0.98559
 Alpha  occ. eigenvalues --   -0.90136  -0.84911  -0.82082  -0.73684  -0.71091
 Alpha  occ. eigenvalues --   -0.69583  -0.66601  -0.65935  -0.65312  -0.62627
 Alpha  occ. eigenvalues --   -0.61742  -0.60514  -0.55885  -0.54616  -0.52964
 Alpha  occ. eigenvalues --   -0.43668  -0.40102  -0.37428  -0.36489
 Alpha virt. eigenvalues --    0.00710   0.02731   0.03215   0.04101   0.05846
 Alpha virt. eigenvalues --    0.06616   0.07438   0.07765   0.08444   0.09960
 Alpha virt. eigenvalues --    0.10796   0.11928   0.12441   0.13126   0.13510

 Mulliken charges:
               1
     1  F   -0.839458
     2  P    1.810712
     3  N    0.022841
     4  N   -0.352570
     5  C   -0.047466
     6  C   -1.703797
     7  C    1.130554
     8  H   -0.203705
     9  C    0.224041
    10  H   -0.201283
    11  C    0.467407
    12  H   -0.210897
    13  C    0.155600
    14  H   -0.251979
 Sum of Mulliken charges =  -0.00000

 Dipole moment (field-independent basis, Debye):
    X=             -4.0753    Y=             -2.8175    Z=             -0.8784  Tot=              5.0317

 Test job not archived.
 1\1\GINC-SE016\SP\RHF\Aug-CC-pVDZ\C6H4F1N2P1\OHZDE\08-Apr-2025\0\\#t h
 f aug-cc-pvdz iop(5/13=1,5/36=2,99/5=2) pseudo=read geom=check guess=(
 read,tcheck) scf=(maxcycle=1)\\title\\0,1\F,0,2.346991,-0.986733,0.878
 892\P,0,1.683778,-0.435313,-0.500559\N,0,1.692516,1.353605,-0.121052\N
 ,0,0.550423,1.830045,0.035943\C,0,-0.099299,-0.467858,-0.1538\C,0,-0.5
 11752,0.861819,0.014807\C,0,-1.846294,1.206238,0.167272\H,0,-2.126721,
 2.245762,0.285282\C,0,-2.792568,0.179659,0.161324\H,0,-3.842817,0.4158
 11,0.286087\C,0,-2.398967,-1.148325,-0.009368\H,0,-3.146939,-1.932771,

 Normal termination of Gaussian 16 at Tue Apr  8 23:31:13 2025.
