 Gaussian 16, Revision C.01,

 ----------------------------------------------------------------------
 #t hf aug-cc-pvdz symm=none int=(grid=ultrafine) guess=(read,tcheck) s
 table=opt
 ----------------------------------------------------------------------
 -----
 title
 -----
 Symbolic Z-matrix:
 Charge =  0 Multiplicity = 2

 SCF Done:  E(UHF) =  -116.428431370     A.U. after   15 cycles
 Normal termination of Gaussian 16 at Tue Apr  8 22:39:25 2025.
 Gaussian 16:  ES64L-G16RevC.01  3-Jul-2019

 ----------------------------------------------------------------------
 #t hf aug-cc-pvdz iop(5/13=1,5/36=2,99/5=2) pseudo=read geom=check gue
 ss=(read,tcheck) scf=(maxcycle=1)
 ----------------------------------------------------------------------
 -----
 title
 -----
 Structure from the checkpoint file:  "BDE49_expt_1281_mol2.chk"
 Charge =  0 Multiplicity = 2

                         Standard orientation:
 ---------------------------------------------------------------------
 Center     Atomic      Atomic             Coordinates (Angstroms)
 Number     Number       Type             X           Y           Z
 ---------------------------------------------------------------------
      1          6           0       -0.027291    0.886367   -0.000000
      2          6           0       -0.027291   -0.363759    0.767965
      3          6           0       -0.027291   -0.363759   -0.767965
      4          1           0        0.632754    1.741616   -0.000000
      5          1           0        0.874129   -0.663664   -1.297867
      6          1           0       -0.944888   -0.683690   -1.256023
      7          1           0       -0.944888   -0.683690    1.256023
      8          1           0        0.874129   -0.663664    1.297867
 ---------------------------------------------------------------------

 SCF Done:  E(UHF) =  -116.555484237     A.U. after    2 cycles

 The electronic state is 2-A'.
 Alpha  occ. eigenvalues --  -11.25428 -11.23892 -11.23853  -1.15299  -0.83035
 Alpha  occ. eigenvalues --   -0.81185  -0.67507  -0.64896  -0.52701  -0.46327
 Alpha  occ. eigenvalues --   -0.44913  -0.36842
 Alpha virt. eigenvalues --    0.04120   0.04477   0.04621   0.04819   0.07268
 Alpha virt. eigenvalues --    0.10331   0.11740   0.12203   0.13292   0.15447
 Alpha virt. eigenvalues --    0.16077   0.16453   0.17515   0.18200   0.19770

  Beta  occ. eigenvalues --  -11.24091 -11.24048 -11.22809  -1.12578  -0.82792
  Beta  occ. eigenvalues --   -0.75973  -0.65878  -0.61813  -0.51819  -0.44236
  Beta  occ. eigenvalues --   -0.43560
  Beta virt. eigenvalues --    0.04137   0.04511   0.04628   0.04870   0.07271
  Beta virt. eigenvalues --    0.08288   0.11062   0.11764   0.12480   0.15475
  Beta virt. eigenvalues --    0.16124   0.16152   0.16840   0.17778   0.18622

 Mulliken charges and spin densities:
               1          2
     1  C    0.164819   1.281116
     2  C    0.119591  -0.161832
     3  C    0.119591  -0.161832
     4  H   -0.135854  -0.044374
     5  H   -0.094559   0.018435
     6  H   -0.039515   0.025026
     7  H   -0.039515   0.025026
     8  H   -0.094559   0.018435
 Sum of Mulliken charges =  -0.00000   1.00000

 Dipole moment (field-independent basis, Debye):
    X=              0.4701    Y=             -0.2708    Z=             -0.0000  Tot=              0.5425
                          Isotropic Fermi Contact Couplings
        Atom                 a.u.       MegaHertz       Gauss      10(-4) cm-1
     1  C(13)              0.35633     400.58267     142.93786     133.62000
     2  C(13)             -0.03507     -39.42822     -14.06897     -13.15184
     3  C(13)             -0.03507     -39.42822     -14.06897     -13.15184
     4  H(1)              -0.01118     -49.96583     -17.82905     -16.66681
     5  H(1)               0.00923      41.24574      14.71751      13.75810
     6  H(1)               0.01405      62.78481      22.40318      20.94276
     7  H(1)               0.01405      62.78481      22.40318      20.94276
     8  H(1)               0.00923      41.24574      14.71751      13.75810

 Normal termination of Gaussian 16 at Tue Apr  8 22:39:27 2025.
