 Gaussian 16, Revision C.01,

 ----------------------------------------------------------------------
 #t hf aug-cc-pvdz symm=none int=(grid=ultrafine) guess=(read,tcheck) s
 table=(opt,rrhf)
 ----------------------------------------------------------------------
 -----
 title
 -----
 Symbolic Z-matrix:
 Charge =  0 Multiplicity = 1

 SCF Done:  E(RHF) =  -781.650584967     A.U. after   15 cycles
 Normal termination of Gaussian 16 at Wed Apr  9 00:04:28 2025.
 Gaussian 16:  ES64L-G16RevC.01  3-Jul-2019

 ----------------------------------------------------------------------
 #t hf aug-cc-pvdz iop(5/13=1,5/36=2,99/5=2) pseudo=read geom=check gue
 ss=(read,tcheck) scf=(maxcycle=1)
 ----------------------------------------------------------------------
 -----
 title
 -----
 Structure from the checkpoint file:  "BDE49_nonexpt_2180_mol1.chk"
 Charge =  0 Multiplicity = 1

                         Standard orientation:
 ---------------------------------------------------------------------
 Center     Atomic      Atomic             Coordinates (Angstroms)
 Number     Number       Type             X           Y           Z
 ---------------------------------------------------------------------
      1          8           0       -0.099857    0.078264   -1.071621
      2          8           0        1.132240    0.701727   -0.634082
      3          6           0        2.015334   -0.189333   -0.097766
      4          8           0        1.756700   -1.323532    0.202812
      5          6           0        3.353188    0.488710    0.054302
      6          1           0        3.277486    1.570448   -0.043134
      7          1           0        4.016274    0.108439   -0.726981
      8          1           0        3.775717    0.217760    1.021741
      9         14           0       -1.328854    0.053416    0.105571
     10          8           0       -1.781320    1.545127    0.591648
     11          6           0       -2.709112   -0.731128   -0.837458
     12          1           0       -2.386861   -1.662664   -1.307434
     13          1           0       -3.075104   -0.057915   -1.615796
     14          1           0       -3.536389   -0.954161   -0.158517
     15          1           0       -1.366987    1.905915    1.378803
     16          8           0       -0.762992   -0.745750    1.414496
     17          1           0       -0.014809   -1.331834    1.232828
 ---------------------------------------------------------------------

 SCF Done:  E(RHF) =  -782.171247445     A.U. after    2 cycles

 The electronic state is 1-A.
 Alpha  occ. eigenvalues --  -69.60163 -20.66136 -20.61433 -20.55959 -20.55305
 Alpha  occ. eigenvalues --  -20.54475 -11.41742 -11.27158 -11.22125  -6.26265
 Alpha  occ. eigenvalues --   -4.01749  -4.01739  -4.01554  -1.62484  -1.50128
 Alpha  occ. eigenvalues --   -1.45521  -1.42711  -1.32359  -1.03634  -0.96149
 Alpha  occ. eigenvalues --   -0.82453  -0.76761  -0.73243  -0.71113  -0.70482
 Alpha  occ. eigenvalues --   -0.69882  -0.63005  -0.61318  -0.59090  -0.58261
 Alpha  occ. eigenvalues --   -0.57147  -0.56259  -0.55942  -0.54658  -0.52694
 Alpha  occ. eigenvalues --   -0.51874  -0.49655  -0.48344  -0.46339  -0.46225
 Alpha virt. eigenvalues --    0.03117   0.04047   0.04620   0.05037   0.05882
 Alpha virt. eigenvalues --    0.06243   0.06416   0.07948   0.08552   0.09197
 Alpha virt. eigenvalues --    0.11021   0.11583   0.12450   0.13828   0.14214

 Mulliken charges:
               1
     1  O   -1.019763
     2  O   -0.919917
     3  C    1.773195
     4  O   -1.207006
     5  C   -0.507108
     6  H    0.183503
     7  H    0.278233
     8  H    0.235141
     9  Si   3.851023
    10  O   -1.531696
    11  C   -0.555369
    12  H    0.009198
    13  H    0.063073
    14  H    0.011209
    15  H    0.415911
    16  O   -1.588113
    17  H    0.508484
 Sum of Mulliken charges =  -0.00000

 Dipole moment (field-independent basis, Debye):
    X=              1.9354    Y=              1.0977    Z=              0.4790  Tot=              2.2760

 Test job not archived.
 1\1\GINC-SE250\SP\RHF\Aug-CC-pVDZ\C3H8O5Si1\OHZDE\09-Apr-2025\0\\#t hf
  aug-cc-pvdz iop(5/13=1,5/36=2,99/5=2) pseudo=read geom=check guess=(r
 ead,tcheck) scf=(maxcycle=1)\\title\\0,1\O,0,-0.099857,0.078264,-1.071
 621\O,0,1.13224,0.701727,-0.634082\C,0,2.015334,-0.189333,-0.097766\O,
 0,1.7567,-1.323532,0.202812\C,0,3.353188,0.48871,0.054302\H,0,3.277486
 ,1.570448,-0.043134\H,0,4.016274,0.108439,-0.726981\H,0,3.775717,0.217
 76,1.021741\Si,0,-1.328854,0.053416,0.105571\O,0,-1.78132,1.545127,0.5
 91648\C,0,-2.709112,-0.731128,-0.837458\H,0,-2.386861,-1.662664,-1.307

 Normal termination of Gaussian 16 at Wed Apr  9 00:04:36 2025.
