 Gaussian 16, Revision C.01,

 ----------------------------------------------------------------------
 #t hf aug-cc-pvdz symm=none int=(grid=ultrafine) guess=(read,tcheck) s
 table=(opt,rrhf)
 ----------------------------------------------------------------------
 -----
 title
 -----
 Symbolic Z-matrix:
 Charge =  0 Multiplicity = 1

 SCF Done:  E(RHF) =  -1329.37519980     A.U. after   17 cycles
 Normal termination of Gaussian 16 at Wed Apr  9 00:30:45 2025.
 Gaussian 16:  ES64L-G16RevC.01  3-Jul-2019

 ----------------------------------------------------------------------
 #t hf aug-cc-pvdz iop(5/13=1,5/36=2,99/5=2) pseudo=read geom=check gue
 ss=(read,tcheck) scf=(maxcycle=1)
 ----------------------------------------------------------------------
 -----
 title
 -----
 Structure from the checkpoint file:  "BDE49_nonexpt_2724_mol1.chk"
 Charge =  0 Multiplicity = 1

                         Standard orientation:
 ---------------------------------------------------------------------
 Center     Atomic      Atomic             Coordinates (Angstroms)
 Number     Number       Type             X           Y           Z
 ---------------------------------------------------------------------
      1          6           0        0.700328    0.063523   -0.548763
      2          8           0        0.131454    0.872109   -1.227972
      3         16           0       -0.192575   -1.378341    0.190846
      4         16           0       -2.039718   -1.194482   -0.706298
      5          6           0       -2.825814    0.147277    0.289882
      6          8           0       -2.299738    0.656392    1.232213
      7          6           0        2.143207    0.144500   -0.181211
      8          6           0        2.806037    1.350353   -0.447159
      9          6           0        4.151022    1.491309   -0.131691
     10          6           0        4.848023    0.429188    0.444838
     11          6           0        4.196561   -0.775169    0.703748
     12          6           0        2.848379   -0.919656    0.392644
     13          1           0        2.356139   -1.865634    0.583499
     14          1           0        2.247651    2.160825   -0.898182
     15          1           0        4.657787    2.427644   -0.334727
     16          1           0        5.898418    0.539325    0.689610
     17          1           0        4.738968   -1.603549    1.144036
     18          6           0       -4.183591    0.521393   -0.278265
     19          6           0       -5.068845    1.247717    0.735057
     20          1           0       -4.670779   -0.376647   -0.671220
     21          1           0       -3.980423    1.160563   -1.146036
     22          1           0       -5.309618    0.601003    1.581582
     23          1           0       -6.004168    1.559414    0.265359
     24          1           0       -4.562871    2.131616    1.124916
 ---------------------------------------------------------------------

 SCF Done:  E(RHF) =  -1330.03170167     A.U. after    2 cycles

 The electronic state is 1-A.
 Alpha  occ. eigenvalues --  -93.99048 -93.98884 -20.55743 -20.55638 -11.38466
 Alpha  occ. eigenvalues --  -11.37925 -11.27134 -11.27035 -11.26798 -11.26538
 Alpha  occ. eigenvalues --  -11.26515 -11.26042 -11.25899 -11.23959  -8.27061
 Alpha  occ. eigenvalues --   -8.26896  -6.24852  -6.24689  -6.24633  -6.24465
 Alpha  occ. eigenvalues --   -6.24422  -6.24259  -1.50111  -1.49878  -1.17972
 Alpha  occ. eigenvalues --   -1.11902  -1.07676  -1.05605  -1.03873  -0.97188
 Alpha  occ. eigenvalues --   -0.90336  -0.87317  -0.85226  -0.78446  -0.74706
 Alpha  occ. eigenvalues --   -0.72549  -0.68157  -0.67229  -0.66722  -0.65453
 Alpha  occ. eigenvalues --   -0.64227  -0.63828  -0.62066  -0.60556  -0.58257
 Alpha  occ. eigenvalues --   -0.56332  -0.55286  -0.54519  -0.53355  -0.52465
 Alpha  occ. eigenvalues --   -0.51905  -0.50823  -0.48784  -0.42978  -0.42415
 Alpha  occ. eigenvalues --   -0.39000  -0.37986  -0.36426  -0.36380
 Alpha virt. eigenvalues --    0.02975   0.03578   0.03633   0.04379   0.04787
 Alpha virt. eigenvalues --    0.04873   0.05139   0.05940   0.06376   0.07673
 Alpha virt. eigenvalues --    0.07731   0.08532   0.09201   0.09525   0.10514

 Mulliken charges:
               1
     1  C   -0.157092
     2  O   -1.357690
     3  S   -0.020535
     4  S    0.065550
     5  C    1.048562
     6  O   -1.235274
     7  C    2.350359
     8  C   -0.377271
     9  C    0.510659
    10  C   -0.067766
    11  C    0.191857
    12  C    0.055602
    13  H   -0.168918
    14  H   -0.330875
    15  H   -0.211437
    16  H   -0.209045
    17  H   -0.242641
    18  C   -0.582148
    19  C   -0.308274
    20  H    0.248025
    21  H    0.305144
    22  H    0.160435
    23  H    0.144294
    24  H    0.188481
 Sum of Mulliken charges =  -0.00000

 Dipole moment (field-independent basis, Debye):
    X=              0.9926    Y=             -0.0637    Z=             -0.1442  Tot=              1.0050

 Test job not archived.
 1\1\GINC-SE106\SP\RHF\Aug-CC-pVDZ\C10H10O2S2\OHZDE\09-Apr-2025\0\\#t h
 f aug-cc-pvdz iop(5/13=1,5/36=2,99/5=2) pseudo=read geom=check guess=(
 read,tcheck) scf=(maxcycle=1)\\title\\0,1\C,0,0.700328,0.063523,-0.548
 763\O,0,0.131454,0.872109,-1.227972\S,0,-0.192575,-1.378341,0.190846\S
 ,0,-2.039718,-1.194482,-0.706298\C,0,-2.825814,0.147277,0.289882\O,0,-
 2.299738,0.656392,1.232213\C,0,2.143207,0.1445,-0.181211\C,0,2.806037,
 1.350353,-0.447159\C,0,4.151022,1.491309,-0.131691\C,0,4.848023,0.4291
 88,0.444838\C,0,4.196561,-0.775169,0.703748\C,0,2.848379,-0.919656,0.3

 Normal termination of Gaussian 16 at Wed Apr  9 00:31:07 2025.
