 Gaussian 16, Revision C.01,

 ----------------------------------------------------------------------
 #t hf aug-cc-pvdz symm=none int=(grid=ultrafine) guess=(read,tcheck) s
 table=(opt,rrhf)
 ----------------------------------------------------------------------
 -----
 title
 -----
 Symbolic Z-matrix:
 Charge =  0 Multiplicity = 1

 SCF Done:  E(RHF) =  -406.765914591     A.U. after   13 cycles
 Normal termination of Gaussian 16 at Wed Apr  9 00:42:50 2025.
 Gaussian 16:  ES64L-G16RevC.01  3-Jul-2019

 ----------------------------------------------------------------------
 #t hf aug-cc-pvdz iop(5/13=1,5/36=2,99/5=2) pseudo=read geom=check gue
 ss=(read,tcheck) scf=(maxcycle=1)
 ----------------------------------------------------------------------
 -----
 title
 -----
 Structure from the checkpoint file:  "BDE49_nonexpt_725_mol1.chk"
 Charge =  0 Multiplicity = 1

                         Standard orientation:
 ---------------------------------------------------------------------
 Center     Atomic      Atomic             Coordinates (Angstroms)
 Number     Number       Type             X           Y           Z
 ---------------------------------------------------------------------
      1          5           0        1.604469    0.568339    0.087038
      2         15           0        0.122457   -0.498973   -0.151444
      3          6           0       -1.469524    0.419088    0.082426
      4          1           0       -1.621642    0.733160    1.115006
      5          1           0       -2.308059   -0.203757   -0.232112
      6          1           0       -1.444115    1.304598   -0.555386
      7          1           0        2.625588    0.058851    0.422112
      8          1           0        1.579450    1.700636   -0.279676
      9          1           0        0.126726   -1.465113    0.871965
 ---------------------------------------------------------------------

 SCF Done:  E(RHF) =  -406.885844423     A.U. after    2 cycles

 The electronic state is 1-A.
 Alpha  occ. eigenvalues --  -84.25545 -11.24947  -7.60239  -6.73101  -4.25728
 Alpha  occ. eigenvalues --   -4.25551  -4.24719  -0.99346  -0.82871  -0.67224
 Alpha  occ. eigenvalues --   -0.58932  -0.58397  -0.52299  -0.47038  -0.45001
 Alpha  occ. eigenvalues --   -0.31481
 Alpha virt. eigenvalues --    0.03216   0.04149   0.04587   0.04861   0.06305
 Alpha virt. eigenvalues --    0.06740   0.06982   0.08630   0.10419   0.11230
 Alpha virt. eigenvalues --    0.11743   0.13448   0.14682   0.15382   0.16214

 Mulliken charges:
               1
     1  B   -0.330124
     2  P   -0.056572
     3  C   -0.854724
     4  H    0.091988
     5  H    0.103659
     6  H    0.098890
     7  H    0.316898
     8  H    0.271320
     9  H    0.358665
 Sum of Mulliken charges =  -0.00000

 Dipole moment (field-independent basis, Debye):
    X=             -1.3021    Y=              0.2138    Z=              0.6348  Tot=              1.4643

 Test job not archived.
 1\1\GINC-SE342\SP\RHF\Aug-CC-pVDZ\C1H6B1P1\OHZDE\09-Apr-2025\0\\#t hf
 aug-cc-pvdz iop(5/13=1,5/36=2,99/5=2) pseudo=read geom=check guess=(re
 ad,tcheck) scf=(maxcycle=1)\\title\\0,1\B,0,1.604469,0.568339,0.087038
 \P,0,0.122457,-0.498973,-0.151444\C,0,-1.469524,0.419088,0.082426\H,0,
 -1.621642,0.73316,1.115006\H,0,-2.308059,-0.203757,-0.232112\H,0,-1.44
 4115,1.304598,-0.555386\H,0,2.625588,0.058851,0.422112\H,0,1.57945,1.7
 00636,-0.279676\H,0,0.126726,-1.465113,0.871965\\Version=ES64L-G16RevC
 .01\State=1-A\HF=-406.8858444\RMSD=3.270e-02\Dipole=-0.5122924,0.08410

 Normal termination of Gaussian 16 at Wed Apr  9 00:42:52 2025.
