 Gaussian 16, Revision C.01,

 ----------------------------------------------------------------------
 #t hf aug-cc-pvdz symm=none int=(grid=ultrafine) guess=(read,tcheck) s
 table=(opt,rrhf)
 ----------------------------------------------------------------------
 -----
 title
 -----
 Symbolic Z-matrix:
 Charge =  0 Multiplicity = 1

 SCF Done:  E(RHF) =  -632.919218061     A.U. after   12 cycles

 1\1\GINC-SE009\Stability\RHF\Aug-CC-pVDZ\C6H14S1\OHZDE\08-Apr-2025\0\\
 #t hf aug-cc-pvdz symm=none int=(grid=ultrafine) guess=(read,tcheck) s
 table=(opt,rrhf)\\title\\0,1\C,0,1.094778,1.172735,-0.193254\C,0,-0.20
 5937,0.904526,0.57195\C,0,-3.686667,-0.693857,-0.304291\C,0,-2.588018,
 -0.033511,0.53353\H,0,-3.353452,-1.656475,-0.704116\H,0,-4.5877,-0.873
 828,0.288447\C,0,-1.303092,0.232272,-0.258856\H,0,-2.354327,-0.670873,
 1.395085\H,0,-2.962758,0.910699,0.947561\H,0,-1.536784,0.866416,-1.124
 448\H,0,-0.921529,-0.710913,-0.66423\H,0,-0.575407,1.868357,0.946708\H

 Normal termination of Gaussian 16 at Tue Apr  8 22:47:27 2025.
 Gaussian 16:  ES64L-G16RevC.01  3-Jul-2019

 ----------------------------------------------------------------------
 #t hf aug-cc-pvdz iop(5/13=1,5/36=2,99/5=2) pseudo=read geom=check gue
 ss=(read,tcheck) scf=(maxcycle=1)
 ----------------------------------------------------------------------
 -----
 title
 -----
 Structure from the checkpoint file:  "BDE49_expt_1573_mol1.chk"
 Charge =  0 Multiplicity = 1

                         Standard orientation:
 ---------------------------------------------------------------------
 Center     Atomic      Atomic             Coordinates (Angstroms)
 Number     Number       Type             X           Y           Z
 ---------------------------------------------------------------------
      1          6           0        1.094778    1.172735   -0.193254
      2          6           0       -0.205937    0.904526    0.571950
      3          6           0       -3.686667   -0.693857   -0.304291
      4          6           0       -2.588018   -0.033511    0.533530
      5          1           0       -3.353452   -1.656475   -0.704116
      6          1           0       -4.587700   -0.873828    0.288447
      7          6           0       -1.303092    0.232272   -0.258856
      8          1           0       -2.354327   -0.670873    1.395085
      9          1           0       -2.962758    0.910699    0.947561
     10          1           0       -1.536784    0.866416   -1.124448
     11          1           0       -0.921529   -0.710913   -0.664230
     12          1           0       -0.575407    1.868357    0.946708
     13          1           0        0.006494    0.299603    1.460975
     14         16           0        2.040897   -0.307604   -0.721411
     15          1           0        1.768289    1.804796    0.392141
     16          6           0        2.734681   -0.852105    0.873195
     17          1           0        1.956129   -1.162758    1.571115
     18          1           0        3.345243   -0.065332    1.320903
     19          1           0        3.371176   -1.711082    0.657063
     20          1           0        0.884204    1.706561   -1.124506
     21          1           0       -3.968405   -0.063861   -1.153776
 ---------------------------------------------------------------------

 SCF Done:  E(RHF) =  -633.245655043     A.U. after    2 cycles

 The electronic state is 1-A.
 Alpha  occ. eigenvalues --  -93.93414 -11.26312 -11.26052 -11.23398 -11.22643
 Alpha  occ. eigenvalues --  -11.22285 -11.22114  -8.21470  -6.19300  -6.19139
 Alpha  occ. eigenvalues --   -6.18927  -1.10382  -1.06064  -1.00390  -0.93291
 Alpha  occ. eigenvalues --   -0.86585  -0.80643  -0.77926  -0.65353  -0.62615
 Alpha  occ. eigenvalues --   -0.60748  -0.59331  -0.57838  -0.57083  -0.56687
 Alpha  occ. eigenvalues --   -0.52385  -0.51410  -0.48146  -0.47658  -0.46964
 Alpha  occ. eigenvalues --   -0.46775  -0.42656  -0.34067
 Alpha virt. eigenvalues --    0.03323   0.03383   0.03768   0.04217   0.05387
 Alpha virt. eigenvalues --    0.05441   0.06113   0.06480   0.07828   0.08471
 Alpha virt. eigenvalues --    0.08663   0.08983   0.09730   0.11031   0.12188

 Mulliken charges:
               1
     1  C   -0.346908
     2  C   -0.199810
     3  C   -0.420871
     4  C   -0.204738
     5  H    0.160812
     6  H    0.121105
     7  C   -0.501209
     8  H    0.110883
     9  H    0.120715
    10  H    0.100317
    11  H    0.165291
    12  H    0.132002
    13  H    0.112979
    14  S    0.418258
    15  H    0.136368
    16  C   -0.723963
    17  H    0.175816
    18  H    0.172937
    19  H    0.139532
    20  H    0.166944
    21  H    0.163542
 Sum of Mulliken charges =  -0.00000

 Dipole moment (field-independent basis, Debye):
    X=             -0.3609    Y=              0.6989    Z=              1.6644  Tot=              1.8409

 Test job not archived.
 1\1\GINC-SE009\SP\RHF\Aug-CC-pVDZ\C6H14S1\OHZDE\08-Apr-2025\0\\#t hf a
 ug-cc-pvdz iop(5/13=1,5/36=2,99/5=2) pseudo=read geom=check guess=(rea
 d,tcheck) scf=(maxcycle=1)\\title\\0,1\C,0,1.094778,1.172735,-0.193254
 \C,0,-0.205937,0.904526,0.57195\C,0,-3.686667,-0.693857,-0.304291\C,0,
 -2.588018,-0.033511,0.53353\H,0,-3.353452,-1.656475,-0.704116\H,0,-4.5
 877,-0.873828,0.288447\C,0,-1.303092,0.232272,-0.258856\H,0,-2.354327,
 -0.670873,1.395085\H,0,-2.962758,0.910699,0.947561\H,0,-1.536784,0.866
 416,-1.124448\H,0,-0.921529,-0.710913,-0.66423\H,0,-0.575407,1.868357,

 Normal termination of Gaussian 16 at Tue Apr  8 22:47:37 2025.
