 Gaussian 16, Revision C.01,

 ----------------------------------------------------------------------
 #t hf aug-cc-pvdz symm=none int=(grid=ultrafine) guess=(read,tcheck) s
 table=(opt,rrhf)
 ----------------------------------------------------------------------
 -----
 title
 -----
 Symbolic Z-matrix:
 Charge =  0 Multiplicity = 1

 SCF Done:  E(RHF) =  -381.518448922     A.U. after   14 cycles
 Normal termination of Gaussian 16 at Tue Apr  8 23:20:56 2025.
 Gaussian 16:  ES64L-G16RevC.01  3-Jul-2019

 ----------------------------------------------------------------------
 #t hf aug-cc-pvdz iop(5/13=1,5/36=2,99/5=2) pseudo=read geom=check gue
 ss=(read,tcheck) scf=(maxcycle=1)
 ----------------------------------------------------------------------
 -----
 title
 -----
 Structure from the checkpoint file:  "BDE49_nonexpt_1159_mol1.chk"
 Charge =  0 Multiplicity = 1

                         Standard orientation:
 ---------------------------------------------------------------------
 Center     Atomic      Atomic             Coordinates (Angstroms)
 Number     Number       Type             X           Y           Z
 ---------------------------------------------------------------------
      1          9           0       -2.030481   -0.719941   -0.000026
      2          8           0       -1.313682    0.519311   -0.000094
      3          6           0        0.038516    0.284430   -0.000025
      4          7           0        0.510639   -0.890609    0.000005
      5          8           0        1.922920   -0.835014    0.000107
      6          1           0        2.155347   -1.768366    0.000026
      7          6           0        0.762626    1.594770    0.000017
      8          1           0        0.060876    2.428329   -0.000759
      9          1           0        1.402047    1.651762   -0.882772
     10          1           0        1.400830    1.652437    0.883649
 ---------------------------------------------------------------------

 SCF Done:  E(RHF) =  -381.890517571     A.U. after    2 cycles

 The electronic state is 1-A.
 Alpha  occ. eigenvalues --  -26.52616 -20.70569 -20.59962 -15.56622 -11.37086
 Alpha  occ. eigenvalues --  -11.27216  -1.68824  -1.51012  -1.40788  -1.19087
 Alpha  occ. eigenvalues --   -1.02603  -0.82950  -0.73915  -0.73533  -0.73230
 Alpha  occ. eigenvalues --   -0.68767  -0.64755  -0.62342  -0.59299  -0.58847
 Alpha  occ. eigenvalues --   -0.58277  -0.55652  -0.49438  -0.41545
 Alpha virt. eigenvalues --    0.03522   0.04544   0.05523   0.05794   0.08581
 Alpha virt. eigenvalues --    0.11261   0.12138   0.12219   0.14271   0.14394
 Alpha virt. eigenvalues --    0.15059   0.16057   0.16820   0.19088   0.19663

 Mulliken charges:
               1
     1  F   -0.373756
     2  O   -0.573465
     3  C   -0.056783
     4  N    1.336903
     5  O   -1.107029
     6  H    0.310355
     7  C   -0.226036
     8  H    0.103783
     9  H    0.293029
    10  H    0.292999
 Sum of Mulliken charges =   0.00000

 Dipole moment (field-independent basis, Debye):
    X=              1.8437    Y=              1.7621    Z=             -0.0001  Tot=              2.5503

 Test job not archived.
 1\1\GINC-SE343\SP\RHF\Aug-CC-pVDZ\C2H4F1N1O2\OHZDE\08-Apr-2025\0\\#t h
 f aug-cc-pvdz iop(5/13=1,5/36=2,99/5=2) pseudo=read geom=check guess=(
 read,tcheck) scf=(maxcycle=1)\\title\\0,1\F,0,-2.030481,-0.719942,-0.0
 00026\O,0,-1.313682,0.519311,-0.000094\C,0,0.038516,0.28443,-0.000025\
 N,0,0.510639,-0.890609,0.000005\O,0,1.92292,-0.835014,0.000107\H,0,2.1
 55347,-1.768366,0.000026\C,0,0.762625,1.59477,0.000017\H,0,0.060875,2.
 428329,-0.000759\H,0,1.402046,1.651762,-0.882772\H,0,1.400829,1.652437
 ,0.883649\\Version=ES64L-G16RevC.01\State=1-A\HF=-381.8905176\RMSD=1.6

 Normal termination of Gaussian 16 at Tue Apr  8 23:20:59 2025.
