 Gaussian 16, Revision C.01,

 ----------------------------------------------------------------------
 #t hf aug-cc-pvdz symm=none int=(grid=ultrafine) guess=(read,tcheck) s
 table=(opt,rrhf)
 ----------------------------------------------------------------------
 -----
 title
 -----
 Symbolic Z-matrix:
 Charge =  0 Multiplicity = 1

 SCF Done:  E(RHF) =  -723.823379337     A.U. after   17 cycles
 Normal termination of Gaussian 16 at Tue Apr  8 23:35:52 2025.
 Gaussian 16:  ES64L-G16RevC.01  3-Jul-2019

 ----------------------------------------------------------------------
 #t hf aug-cc-pvdz iop(5/13=1,5/36=2,99/5=2) pseudo=read geom=check gue
 ss=(read,tcheck) scf=(maxcycle=1)
 ----------------------------------------------------------------------
 -----
 title
 -----
 Structure from the checkpoint file:  "BDE49_nonexpt_1475_mol1.chk"
 Charge =  0 Multiplicity = 1

                         Standard orientation:
 ---------------------------------------------------------------------
 Center     Atomic      Atomic             Coordinates (Angstroms)
 Number     Number       Type             X           Y           Z
 ---------------------------------------------------------------------
      1          6           0        2.350065   -1.133693    0.732836
      2          6           0        1.050803   -1.208439    0.239182
      3          6           0        3.121350    0.006189    0.507712
      4          6           0        2.591580    1.066612   -0.223036
      5          6           0        1.295855    0.986316   -0.729236
      6          6           0        0.503558   -0.146119   -0.496249
      7          1           0        0.458682   -2.097732    0.424741
      8          1           0        2.760701   -1.964803    1.295398
      9          1           0        4.132409    0.063207    0.894733
     10          1           0        3.189745    1.951334   -0.410244
     11          1           0        0.898224    1.806277   -1.318117
     12         15           0       -1.201086   -0.177715   -1.189931
     13          6           0       -2.314900    0.083151    0.325715
     14          8           0       -3.374234   -0.493851    0.361517
     15          6           0       -1.885456    1.086071    1.374805
     16          1           0       -1.016315    0.706354    1.918962
     17          1           0       -2.710032    1.259623    2.066815
     18          1           0       -1.582390    2.026804    0.906049
     19          1           0       -1.398000   -1.575061   -1.211880
 ---------------------------------------------------------------------

 SCF Done:  E(RHF) =  -724.257728238     A.U. after    2 cycles

 The electronic state is 1-A.
 Alpha  occ. eigenvalues --  -84.28467 -20.54533 -11.34819 -11.26423 -11.26218
 Alpha  occ. eigenvalues --  -11.26182 -11.26107 -11.25827 -11.25793 -11.24869
 Alpha  occ. eigenvalues --   -6.75602  -4.28547  -4.28115  -4.27666  -1.47948
 Alpha  occ. eigenvalues --   -1.17097  -1.04732  -1.03284  -1.01826  -0.90354
 Alpha  occ. eigenvalues --   -0.85053  -0.82509  -0.74488  -0.71416  -0.65971
 Alpha  occ. eigenvalues --   -0.65438  -0.63234  -0.63100  -0.61564  -0.60923
 Alpha  occ. eigenvalues --   -0.57563  -0.53909  -0.52756  -0.52142  -0.51169
 Alpha  occ. eigenvalues --   -0.48726  -0.40540  -0.37419  -0.36185  -0.32847
 Alpha virt. eigenvalues --    0.02896   0.03273   0.03773   0.04475   0.05364
 Alpha virt. eigenvalues --    0.05637   0.06762   0.06953   0.07706   0.07789
 Alpha virt. eigenvalues --    0.08414   0.08756   0.10284   0.11429   0.11996

 Mulliken charges:
               1
     1  C    0.281995
     2  C    0.163696
     3  C    0.266657
     4  C    0.222368
     5  C   -0.235591
     6  C    0.421331
     7  H   -0.311283
     8  H   -0.219915
     9  H   -0.208930
    10  H   -0.218947
    11  H   -0.253239
    12  P    0.235644
    13  C    0.701469
    14  O   -1.282849
    15  C   -0.572352
    16  H    0.278522
    17  H    0.086155
    18  H    0.265914
    19  H    0.379355
 Sum of Mulliken charges =  -0.00000

 Dipole moment (field-independent basis, Debye):
    X=              3.6996    Y=              1.1192    Z=              0.8342  Tot=              3.9542

 Test job not archived.
 1\1\GINC-SE364\SP\RHF\Aug-CC-pVDZ\C8H9O1P1\OHZDE\08-Apr-2025\0\\#t hf
 aug-cc-pvdz iop(5/13=1,5/36=2,99/5=2) pseudo=read geom=check guess=(re
 ad,tcheck) scf=(maxcycle=1)\\title\\0,1\C,0,2.350065,-1.133693,0.73283
 6\C,0,1.050803,-1.208439,0.239182\C,0,3.12135,0.006189,0.507712\C,0,2.
 59158,1.066612,-0.223036\C,0,1.295855,0.986316,-0.729236\C,0,0.503558,
 -0.146119,-0.496249\H,0,0.458682,-2.097732,0.424741\H,0,2.760701,-1.96
 4803,1.295398\H,0,4.132409,0.063207,0.894733\H,0,3.189745,1.951334,-0.
 410244\H,0,0.898224,1.806277,-1.318117\P,0,-1.201086,-0.177715,-1.1899

 Normal termination of Gaussian 16 at Tue Apr  8 23:36:03 2025.
