 Gaussian 16, Revision C.01,

 ----------------------------------------------------------------------
 #t hf aug-cc-pvdz symm=none int=(grid=ultrafine) guess=(read,tcheck) s
 table=(opt,rrhf)
 ----------------------------------------------------------------------
 -----
 title
 -----
 Symbolic Z-matrix:
 Charge =  0 Multiplicity = 1

 SCF Done:  E(RHF) =  -1140.19991367     A.U. after   14 cycles
 Normal termination of Gaussian 16 at Tue Apr  8 23:24:11 2025.
 Gaussian 16:  ES64L-G16RevC.01  3-Jul-2019

 ----------------------------------------------------------------------
 #t hf aug-cc-pvdz iop(5/13=1,5/36=2,99/5=2) pseudo=read geom=check gue
 ss=(read,tcheck) scf=(maxcycle=1)
 ----------------------------------------------------------------------
 -----
 title
 -----
 Structure from the checkpoint file:  "BDE49_nonexpt_1238_mol1.chk"
 Charge =  0 Multiplicity = 1

                         Standard orientation:
 ---------------------------------------------------------------------
 Center     Atomic      Atomic             Coordinates (Angstroms)
 Number     Number       Type             X           Y           Z
 ---------------------------------------------------------------------
      1         17           0       -2.920231   -0.585311   -0.208353
      2          8           0        2.306084   -2.277652    0.192534
      3         15           0       -1.439339    0.707224    0.612786
      4          7           0        0.490765   -1.039578   -0.517196
      5          7           0        1.116327    1.060881    0.160150
      6          6           0        0.032335    0.324795   -0.505154
      7          6           0        1.738273   -1.225729    0.017179
      8          6           0        2.272120    0.174520    0.311814
      9          6           0        1.399007    2.379266   -0.388776
     10          1           0       -0.115890   -1.816579   -0.733558
     11          1           0        2.701401    0.213893    1.315399
     12          1           0        3.071637    0.398666   -0.411084
     13          1           0        2.094465    2.905025    0.268071
     14          1           0        1.839157    2.330545   -1.398848
     15          1           0        0.480934    2.968181   -0.436139
     16          1           0       -1.009632   -0.191741    1.616932
     17          1           0       -0.176782    0.688920   -1.521876
 ---------------------------------------------------------------------

 SCF Done:  E(RHF) =  -1140.66746046     A.U. after    2 cycles

 The electronic state is 1-A.
 Alpha  occ. eigenvalues -- -105.56680 -84.33830 -20.52417 -15.54564 -15.53256
 Alpha  occ. eigenvalues --  -11.37328 -11.34182 -11.29308 -11.28627 -10.61520
 Alpha  occ. eigenvalues --   -7.78422  -7.78082  -7.78063  -6.80503  -4.33001
 Alpha  occ. eigenvalues --   -4.32512  -4.32116  -1.47376  -1.32029  -1.21250
 Alpha  occ. eigenvalues --   -1.07376  -1.03531  -0.99308  -0.87654  -0.85661
 Alpha  occ. eigenvalues --   -0.82866  -0.74486  -0.70785  -0.66363  -0.65756
 Alpha  occ. eigenvalues --   -0.64410  -0.61736  -0.60830  -0.58664  -0.56117
 Alpha  occ. eigenvalues --   -0.54042  -0.53387  -0.49512  -0.47012  -0.44541
 Alpha  occ. eigenvalues --   -0.43335  -0.41270  -0.36096
 Alpha virt. eigenvalues --    0.03001   0.03858   0.04321   0.04505   0.05430
 Alpha virt. eigenvalues --    0.05712   0.06341   0.06945   0.07302   0.09153
 Alpha virt. eigenvalues --    0.10689   0.11414   0.11791   0.13038   0.13687

 Mulliken charges:
               1
     1  Cl  -0.545014
     2  O   -1.331493
     3  P    0.488538
     4  N    0.753219
     5  N    0.849140
     6  C   -1.312075
     7  C    0.818633
     8  C   -0.387937
     9  C   -0.483232
    10  H    0.050459
    11  H    0.090093
    12  H    0.218146
    13  H    0.078456
    14  H    0.209447
    15  H    0.083855
    16  H    0.465048
    17  H   -0.045283
 Sum of Mulliken charges =  -0.00000

 Dipole moment (field-independent basis, Debye):
    X=              0.6183    Y=              4.0930    Z=             -0.6539  Tot=              4.1908

 Test job not archived.
 1\1\GINC-SE073\SP\RHF\Aug-CC-pVDZ\C4H8Cl1N2O1P1\OHZDE\08-Apr-2025\0\\#
 t hf aug-cc-pvdz iop(5/13=1,5/36=2,99/5=2) pseudo=read geom=check gues
 s=(read,tcheck) scf=(maxcycle=1)\\title\\0,1\Cl,0,-2.920231,-0.585311,
 -0.208353\O,0,2.306084,-2.277652,0.192534\P,0,-1.439339,0.707224,0.612
 786\N,0,0.490765,-1.039578,-0.517196\N,0,1.116327,1.060881,0.16015\C,0
 ,0.032335,0.324795,-0.505154\C,0,1.738273,-1.225729,0.017179\C,0,2.272
 12,0.17452,0.311814\C,0,1.399007,2.379266,-0.388776\H,0,-0.11589,-1.81
 6579,-0.733558\H,0,2.701401,0.213893,1.315399\H,0,3.071637,0.398666,-0

 Normal termination of Gaussian 16 at Tue Apr  8 23:24:20 2025.
