 Gaussian 16, Revision C.01,

 ----------------------------------------------------------------------
 #t hf aug-cc-pvdz symm=none int=(grid=ultrafine) guess=(read,tcheck) s
 table=(opt,rrhf)
 ----------------------------------------------------------------------
 -----
 title
 -----
 Symbolic Z-matrix:
 Charge =  0 Multiplicity = 1

 SCF Done:  E(RHF) =  -298.722596648     A.U. after   15 cycles
 Normal termination of Gaussian 16 at Tue Apr  8 23:05:45 2025.
 Gaussian 16:  ES64L-G16RevC.01  3-Jul-2019

 ----------------------------------------------------------------------
 #t hf aug-cc-pvdz iop(5/13=1,5/36=2,99/5=2) pseudo=read geom=check gue
 ss=(read,tcheck) scf=(maxcycle=1)
 ----------------------------------------------------------------------
 -----
 title
 -----
 Structure from the checkpoint file:  "BDE49_expt_408_mol1.chk"
 Charge =  0 Multiplicity = 1

                         Standard orientation:
 ---------------------------------------------------------------------
 Center     Atomic      Atomic             Coordinates (Angstroms)
 Number     Number       Type             X           Y           Z
 ---------------------------------------------------------------------
      1          7           0       -0.562246   -0.658866   -0.202688
      2          6           0       -1.815651    0.023541    0.087270
      3          1           0       -1.880358    0.368248    1.124688
      4          1           0       -2.617097   -0.687719   -0.114385
      5          1           0       -1.923296    0.878831   -0.576456
      6          7           0        0.615910    0.049660   -0.019917
      7          1           0       -0.427056   -1.602661    0.134813
      8          8           0        0.539186    1.268077   -0.027801
      9          8           0        1.631572   -0.622265    0.086046
 ---------------------------------------------------------------------

 SCF Done:  E(RHF) =  -299.018802352     A.U. after    2 cycles

 The electronic state is 1-A.
 Alpha  occ. eigenvalues --  -20.59267 -20.58847 -15.82416 -15.59294 -11.30131
 Alpha  occ. eigenvalues --   -1.68477  -1.51981  -1.30718  -1.04170  -0.91154
 Alpha  occ. eigenvalues --   -0.82482  -0.78280  -0.76855  -0.69675  -0.63486
 Alpha  occ. eigenvalues --   -0.60219  -0.52569  -0.49025  -0.48425  -0.46048
 Alpha virt. eigenvalues --    0.02748   0.04798   0.04873   0.05670   0.06977
 Alpha virt. eigenvalues --    0.09529   0.12382   0.13351   0.14050   0.14742
 Alpha virt. eigenvalues --    0.16684   0.17914   0.18192   0.20622   0.20830

 Mulliken charges:
               1
     1  N   -0.003991
     2  C   -0.299232
     3  H    0.160078
     4  H    0.090822
     5  H    0.129598
     6  N    2.271656
     7  H    0.194509
     8  O   -1.297514
     9  O   -1.245927
 Sum of Mulliken charges =  -0.00000

 Dipole moment (field-independent basis, Debye):
    X=             -3.8766    Y=             -1.6055    Z=              0.6629  Tot=              4.2480

 Test job not archived.
 1\1\GINC-SE402\SP\RHF\Aug-CC-pVDZ\C1H4N2O2\OHZDE\08-Apr-2025\0\\#t hf
 aug-cc-pvdz iop(5/13=1,5/36=2,99/5=2) pseudo=read geom=check guess=(re
 ad,tcheck) scf=(maxcycle=1)\\title\\0,1\N,0,-0.562246,-0.658866,-0.202
 688\C,0,-1.815651,0.023541,0.08727\H,0,-1.880358,0.368248,1.124688\H,0
 ,-2.617097,-0.687719,-0.114385\H,0,-1.923296,0.878831,-0.576456\N,0,0.
 61591,0.04966,-0.019917\H,0,-0.427056,-1.602661,0.134813\O,0,0.539186,
 1.268077,-0.027801\O,0,1.631572,-0.622265,0.086046\\Version=ES64L-G16R
 evC.01\State=1-A\HF=-299.0188024\RMSD=2.521e-02\Dipole=-1.5251752,-0.6

 Normal termination of Gaussian 16 at Tue Apr  8 23:05:48 2025.
