 Gaussian 16, Revision C.01,

 ----------------------------------------------------------------------
 #t hf aug-cc-pvdz symm=none int=(grid=ultrafine) guess=(read,tcheck) s
 table=(opt,rrhf)
 ----------------------------------------------------------------------
 -----
 title
 -----
 Symbolic Z-matrix:
 Charge =  0 Multiplicity = 1

 SCF Done:  E(RHF) =  -208.833703997     A.U. after   14 cycles
 Normal termination of Gaussian 16 at Tue Apr  8 22:36:26 2025.
 Gaussian 16:  ES64L-G16RevC.01  3-Jul-2019

 ----------------------------------------------------------------------
 #t hf aug-cc-pvdz iop(5/13=1,5/36=2,99/5=2) pseudo=read geom=check gue
 ss=(read,tcheck) scf=(maxcycle=1)
 ----------------------------------------------------------------------
 -----
 title
 -----
 Structure from the checkpoint file:  "BDE49_expt_1152_mol1.chk"
 Charge =  0 Multiplicity = 1

                         Standard orientation:
 ---------------------------------------------------------------------
 Center     Atomic      Atomic             Coordinates (Angstroms)
 Number     Number       Type             X           Y           Z
 ---------------------------------------------------------------------
      1          6           0       -1.499824    0.090722   -0.000006
      2          6           0       -0.131615    0.489352   -0.000010
      3          7           0       -2.615025   -0.213143   -0.000004
      4          6           0        0.882378   -0.384324    0.000010
      5          6           0        2.327062   -0.005277    0.000008
      6          1           0        2.465467    1.077491   -0.000019
      7          1           0        2.833740   -0.420690   -0.877793
      8          1           0        2.833730   -0.420645    0.877835
      9          1           0        0.051890    1.559665   -0.000030
     10          1           0        0.652339   -1.446662    0.000029
 ---------------------------------------------------------------------

 SCF Done:  E(RHF) =  -209.047644743     A.U. after    2 cycles

 The electronic state is 1-A.
 Alpha  occ. eigenvalues --  -15.51127 -11.29528 -11.28612 -11.28168 -11.26469
 Alpha  occ. eigenvalues --   -1.23043  -1.12093  -0.99801  -0.84205  -0.74484
 Alpha  occ. eigenvalues --   -0.65321  -0.61234  -0.60629  -0.57728  -0.55252
 Alpha  occ. eigenvalues --   -0.53627  -0.49738  -0.39828
 Alpha virt. eigenvalues --    0.02790   0.03595   0.04410   0.04525   0.07004
 Alpha virt. eigenvalues --    0.07051   0.09136   0.10946   0.12242   0.12621
 Alpha virt. eigenvalues --    0.12622   0.13568   0.14960   0.15493   0.16535

 Mulliken charges:
               1
     1  C   -2.380877
     2  C    1.438896
     3  N    0.901748
     4  C    0.301152
     5  C   -0.587901
     6  H    0.122495
     7  H    0.246332
     8  H    0.246332
     9  H   -0.175024
    10  H   -0.113154
 Sum of Mulliken charges =   0.00000

 Dipole moment (field-independent basis, Debye):
    X=              5.7436    Y=              0.6551    Z=              0.0000  Tot=              5.7809

 Test job not archived.
 1\1\GINC-SE461\SP\RHF\Aug-CC-pVDZ\C4H5N1\OHZDE\08-Apr-2025\0\\#t hf au
 g-cc-pvdz iop(5/13=1,5/36=2,99/5=2) pseudo=read geom=check guess=(read
 ,tcheck) scf=(maxcycle=1)\\title\\0,1\C,0,-1.499824,0.090722,-0.000006
 \C,0,-0.131615,0.489352,-0.00001\N,0,-2.615025,-0.213143,-0.000004\C,0
 ,0.882378,-0.384324,0.00001\C,0,2.327062,-0.005277,0.000008\H,0,2.4654
 67,1.077491,-0.000019\H,0,2.83374,-0.42069,-0.877793\H,0,2.83373,-0.42
 0645,0.877835\H,0,0.05189,1.559665,-0.00003\H,0,0.652339,-1.446662,0.0
 00029\\Version=ES64L-G16RevC.01\State=1-A\HF=-209.0476447\RMSD=2.556e-

 Normal termination of Gaussian 16 at Tue Apr  8 22:36:29 2025.
