 Gaussian 16, Revision C.01,

 ----------------------------------------------------------------------
 #t hf aug-cc-pvdz symm=none int=(grid=ultrafine) guess=(read,tcheck) s
 table=(opt,rrhf)
 ----------------------------------------------------------------------
 -----
 title
 -----
 Symbolic Z-matrix:
 Charge =  0 Multiplicity = 1

 SCF Done:  E(RHF) =  -498.012976479     A.U. after   13 cycles
 Normal termination of Gaussian 16 at Tue Apr  8 23:52:24 2025.
 Gaussian 16:  ES64L-G16RevC.01  3-Jul-2019

 ----------------------------------------------------------------------
 #t hf aug-cc-pvdz iop(5/13=1,5/36=2,99/5=2) pseudo=read geom=check gue
 ss=(read,tcheck) scf=(maxcycle=1)
 ----------------------------------------------------------------------
 -----
 title
 -----
 Structure from the checkpoint file:  "BDE49_nonexpt_1923_mol1.chk"
 Charge =  0 Multiplicity = 1

                         Standard orientation:
 ---------------------------------------------------------------------
 Center     Atomic      Atomic             Coordinates (Angstroms)
 Number     Number       Type             X           Y           Z
 ---------------------------------------------------------------------
      1         14           0       -1.788826   -0.308095   -0.186602
      2          6           0       -0.381317    0.586890    0.725877
      3          1           0       -2.363350    0.586394   -1.219621
      4          1           0       -2.854007   -0.652256    0.785366
      5          1           0       -1.296129   -1.540866   -0.836236
      6          6           0        0.739329    0.971312   -0.184237
      7          7           0        1.785114    0.292733   -0.456095
      8          1           0        0.693083    1.920462   -0.712431
      9          8           0        1.800902   -0.935378    0.235739
     10          1           0        2.634457   -1.319211   -0.052523
     11          1           0       -0.015774   -0.077264    1.512107
     12          1           0       -0.805813    1.480750    1.192686
 ---------------------------------------------------------------------

 SCF Done:  E(RHF) =  -498.259524734     A.U. after    2 cycles

 The electronic state is 1-A.
 Alpha  occ. eigenvalues --  -69.53495 -20.58372 -15.56138 -11.29034 -11.24138
 Alpha  occ. eigenvalues --   -6.20547  -3.95920  -3.95917  -3.95905  -1.49638
 Alpha  occ. eigenvalues --   -1.18419  -0.99841  -0.80569  -0.73904  -0.71123
 Alpha  occ. eigenvalues --   -0.66908  -0.61001  -0.59707  -0.56485  -0.50374
 Alpha  occ. eigenvalues --   -0.48779  -0.48271  -0.46118  -0.39971
 Alpha virt. eigenvalues --    0.03431   0.04131   0.04410   0.04750   0.06225
 Alpha virt. eigenvalues --    0.07117   0.07785   0.08488   0.09165   0.10571
 Alpha virt. eigenvalues --    0.11638   0.12499   0.13726   0.15090   0.15339

 Mulliken charges:
               1
     1  Si   1.049007
     2  C   -0.570514
     3  H   -0.204642
     4  H   -0.171449
     5  H   -0.150877
     6  C   -0.690082
     7  N    1.305277
     8  H   -0.065434
     9  O   -1.130177
    10  H    0.320648
    11  H    0.204256
    12  H    0.103988
 Sum of Mulliken charges =  -0.00000

 Dipole moment (field-independent basis, Debye):
    X=             -0.9464    Y=              0.5116    Z=              0.7544  Tot=              1.3140

 Test job not archived.
 1\1\GINC-SE338\SP\RHF\Aug-CC-pVDZ\C2H7N1O1Si1\OHZDE\08-Apr-2025\0\\#t
 hf aug-cc-pvdz iop(5/13=1,5/36=2,99/5=2) pseudo=read geom=check guess=
 (read,tcheck) scf=(maxcycle=1)\\title\\0,1\Si,0,-1.788826,-0.308095,-0
 .186602\C,0,-0.381317,0.58689,0.725877\H,0,-2.36335,0.586394,-1.219621
 \H,0,-2.854007,-0.652256,0.785366\H,0,-1.296129,-1.540866,-0.836236\C,
 0,0.739329,0.971312,-0.184237\N,0,1.785114,0.292733,-0.456095\H,0,0.69
 3083,1.920462,-0.712431\O,0,1.800902,-0.935378,0.235739\H,0,2.634457,-
 1.319211,-0.052523\H,0,-0.015774,-0.077264,1.512107\H,0,-0.805813,1.48

 Normal termination of Gaussian 16 at Tue Apr  8 23:52:27 2025.
