 Gaussian 16, Revision C.01,

 ----------------------------------------------------------------------
 #t hf aug-cc-pvdz symm=none int=(grid=ultrafine) guess=(read,tcheck) s
 table=(opt,rrhf)
 ----------------------------------------------------------------------
 -----
 title
 -----
 Symbolic Z-matrix:
 Charge =  0 Multiplicity = 1

 SCF Done:  E(RHF) =  -348.478647526     A.U. after   12 cycles
 Normal termination of Gaussian 16 at Wed Apr  9 00:37:30 2025.
 Gaussian 16:  ES64L-G16RevC.01  3-Jul-2019

 ----------------------------------------------------------------------
 #t hf aug-cc-pvdz iop(5/13=1,5/36=2,99/5=2) pseudo=read geom=check gue
 ss=(read,tcheck) scf=(maxcycle=1)
 ----------------------------------------------------------------------
 -----
 title
 -----
 Structure from the checkpoint file:  "BDE49_nonexpt_557_mol1.chk"
 Charge =  0 Multiplicity = 1

                         Standard orientation:
 ---------------------------------------------------------------------
 Center     Atomic      Atomic             Coordinates (Angstroms)
 Number     Number       Type             X           Y           Z
 ---------------------------------------------------------------------
      1          7           0        0.149482    0.419707    0.227474
      2          5           0       -1.076181   -0.265241    0.016211
      3          8           0       -2.202219    0.457372   -0.314157
      4          8           0       -1.226208   -1.636918    0.123219
      5          6           0        1.389624   -0.253695    0.588751
      6          6           0        2.297603   -0.587045   -0.602791
      7          1           0        1.157590   -1.172659    1.139756
      8          1           0        1.936512    0.377844    1.299921
      9          1           0        2.565500    0.314313   -1.159410
     10          1           0        1.795369   -1.269006   -1.294304
     11          6           0        0.251781    1.862706    0.051589
     12          1           0        0.946381    2.130902   -0.754465
     13          1           0        0.603947    2.346556    0.972206
     14          1           0       -0.727163    2.266760   -0.197485
     15          1           0        3.224812   -1.060740   -0.265937
     16          1           0       -2.955668   -0.126521   -0.434457
     17          1           0       -0.419380   -2.114622    0.323006
 ---------------------------------------------------------------------

 SCF Done:  E(RHF) =  -348.842976954     A.U. after    2 cycles

 The electronic state is 1-A.
 Alpha  occ. eigenvalues --  -20.54609 -20.53623 -15.47724 -11.27063 -11.25180
 Alpha  occ. eigenvalues --  -11.23095  -7.63227  -1.46647  -1.42354  -1.20689
 Alpha  occ. eigenvalues --   -1.01876  -0.92356  -0.85171  -0.75045  -0.73478
 Alpha  occ. eigenvalues --   -0.68360  -0.64515  -0.61763  -0.59916  -0.56442
 Alpha  occ. eigenvalues --   -0.55515  -0.54600  -0.54459  -0.53335  -0.51442
 Alpha  occ. eigenvalues --   -0.49879  -0.48108  -0.39233
 Alpha virt. eigenvalues --    0.03412   0.04235   0.04415   0.04541   0.05577
 Alpha virt. eigenvalues --    0.06339   0.06422   0.06502   0.07350   0.09656
 Alpha virt. eigenvalues --    0.09792   0.10522   0.10980   0.11611   0.13712

 Mulliken charges:
               1
     1  N    0.672188
     2  B    1.670436
     3  O   -1.248085
     4  O   -1.581463
     5  C   -0.779569
     6  C   -0.277591
     7  H   -0.043877
     8  H    0.078676
     9  H    0.130243
    10  H    0.131743
    11  C   -0.361336
    12  H    0.187561
    13  H    0.202442
    14  H   -0.024457
    15  H    0.136129
    16  H    0.497568
    17  H    0.609393
 Sum of Mulliken charges =   0.00000

 Dipole moment (field-independent basis, Debye):
    X=              1.7605    Y=             -0.6520    Z=              0.3270  Tot=              1.9056

 Test job not archived.
 1\1\GINC-SE090\SP\RHF\Aug-CC-pVDZ\C3H10B1N1O2\OHZDE\09-Apr-2025\0\\#t
 hf aug-cc-pvdz iop(5/13=1,5/36=2,99/5=2) pseudo=read geom=check guess=
 (read,tcheck) scf=(maxcycle=1)\\title\\0,1\N,0,-0.149482,0.419707,-0.2
 27474\B,0,1.076181,-0.265241,-0.016211\O,0,2.202219,0.457372,0.314157\
 O,0,1.226208,-1.636918,-0.123219\C,0,-1.389624,-0.253695,-0.588751\C,0
 ,-2.297603,-0.587045,0.602791\H,0,-1.15759,-1.172659,-1.139756\H,0,-1.
 936512,0.377844,-1.299921\H,0,-2.5655,0.314313,1.15941\H,0,-1.795369,-
 1.269006,1.294304\C,0,-0.251781,1.862706,-0.051589\H,0,-0.946381,2.130

 Normal termination of Gaussian 16 at Wed Apr  9 00:37:36 2025.
