 Gaussian 16, Revision C.01,

 ----------------------------------------------------------------------
 #t hf aug-cc-pvdz symm=none int=(grid=ultrafine) guess=(read,tcheck) s
 table=(opt,rrhf)
 ----------------------------------------------------------------------
 -----
 title
 -----
 Symbolic Z-matrix:
 Charge =  0 Multiplicity = 1

 SCF Done:  E(RHF) =  -590.854455655     A.U. after   14 cycles
 Normal termination of Gaussian 16 at Tue Apr  8 22:47:28 2025.
 Gaussian 16:  ES64L-G16RevC.01  3-Jul-2019

 ----------------------------------------------------------------------
 #t hf aug-cc-pvdz iop(5/13=1,5/36=2,99/5=2) pseudo=read geom=check gue
 ss=(read,tcheck) scf=(maxcycle=1)
 ----------------------------------------------------------------------
 -----
 title
 -----
 Structure from the checkpoint file:  "BDE49_expt_1622_mol1.chk"
 Charge =  0 Multiplicity = 1

                         Standard orientation:
 ---------------------------------------------------------------------
 Center     Atomic      Atomic             Coordinates (Angstroms)
 Number     Number       Type             X           Y           Z
 ---------------------------------------------------------------------
      1          6           0        0.027925    0.817327    0.000019
      2         17           0       -1.400078   -0.292188    0.000000
      3          6           0        1.282523    0.084054    0.000004
      4          1           0       -0.045328    1.440588   -0.889905
      5          1           0       -0.045336    1.440561    0.889958
      6          7           0        2.289901   -0.474606   -0.000028
 ---------------------------------------------------------------------

 SCF Done:  E(RHF) =  -591.060255018     A.U. after    2 cycles

 The electronic state is 1-A.
 Alpha  occ. eigenvalues -- -105.59611 -15.53896 -11.37349 -11.30580 -10.64366
 Alpha  occ. eigenvalues --   -7.81316  -7.80901  -7.80892  -1.25831  -1.14895
 Alpha  occ. eigenvalues --   -0.98739  -0.75137  -0.69675  -0.63121  -0.61845
 Alpha  occ. eigenvalues --   -0.52575  -0.51806  -0.48665  -0.47926
 Alpha virt. eigenvalues --    0.02714   0.04431   0.06044   0.07092   0.11023
 Alpha virt. eigenvalues --    0.11651   0.11906   0.12936   0.13974   0.14810
 Alpha virt. eigenvalues --    0.15183   0.15427   0.16782   0.17568   0.20078

 Mulliken charges:
               1
     1  C   -0.276431
     2  Cl  -0.000045
     3  C   -1.074979
     4  H    0.325032
     5  H    0.325021
     6  N    0.701401
 Sum of Mulliken charges =  -0.00000

 Dipole moment (field-independent basis, Debye):
    X=             -2.4195    Y=              3.1769    Z=              0.0001  Tot=              3.9934

 Test job not archived.
 1\1\GINC-SE128\SP\RHF\Aug-CC-pVDZ\C2H2Cl1N1\OHZDE\08-Apr-2025\0\\#t hf
  aug-cc-pvdz iop(5/13=1,5/36=2,99/5=2) pseudo=read geom=check guess=(r
 ead,tcheck) scf=(maxcycle=1)\\title\\0,1\C,0,0.027925,0.817327,0.00001
 9\Cl,0,-1.400078,-0.292188,0.\C,0,1.282523,0.084054,0.000004\H,0,-0.04
 5328,1.440588,-0.889905\H,0,-0.045336,1.440561,0.889958\N,0,2.289901,-
 0.474606,-0.000028\\Version=ES64L-G16RevC.01\State=1-A\HF=-591.060255\
 RMSD=1.784e-02\Dipole=-0.9519238,1.2498998,0.0000401\Quadrupole=-6.081
 7879,3.5389133,2.5428745,2.2871102,0.0001144,0.0000085\PG=C01 [X(C2H2C

 Normal termination of Gaussian 16 at Tue Apr  8 22:47:31 2025.
