 Gaussian 16, Revision C.01,

 ----------------------------------------------------------------------
 #t hf aug-cc-pvdz symm=none int=(grid=ultrafine) guess=(read,tcheck) s
 table=(opt,rrhf)
 ----------------------------------------------------------------------
 -----
 title
 -----
 Symbolic Z-matrix:
 Charge =  0 Multiplicity = 1

 SCF Done:  E(RHF) =  -1423.40178940     A.U. after   12 cycles
 Normal termination of Gaussian 16 at Wed Apr  9 00:45:40 2025.
 Gaussian 16:  ES64L-G16RevC.01  3-Jul-2019

 ----------------------------------------------------------------------
 #t hf aug-cc-pvdz iop(5/13=1,5/36=2,99/5=2) pseudo=read geom=check gue
 ss=(read,tcheck) scf=(maxcycle=1)
 ----------------------------------------------------------------------
 -----
 title
 -----
 Structure from the checkpoint file:  "BDE49_nonexpt_791_mol1.chk"
 Charge =  0 Multiplicity = 1

                         Standard orientation:
 ---------------------------------------------------------------------
 Center     Atomic      Atomic             Coordinates (Angstroms)
 Number     Number       Type             X           Y           Z
 ---------------------------------------------------------------------
      1         14           0       -0.317301   -0.125083    0.302789
      2          5           0        1.681297    0.008763   -0.032913
      3          8           0        2.250207    1.067433   -0.669932
      4          8           0        2.456247   -1.013353    0.410204
      5          6           0       -0.883758   -0.666904    1.989084
      6          1           0       -0.490893   -1.664964    2.201531
      7          1           0       -1.973974   -0.698892    2.046035
      8          1           0       -0.511917    0.022505    2.751984
      9         17           0       -1.088831    1.800498   -0.073398
     10         17           0       -1.167144   -1.403277   -1.115690
     11          1           0        3.392345   -0.888803    0.205296
     12          1           0        1.622658    1.753520   -0.921503
 ---------------------------------------------------------------------

 SCF Done:  E(RHF) =  -1423.80544636     A.U. after    2 cycles

 The electronic state is 1-A.
 Alpha  occ. eigenvalues -- -105.56463-105.56128 -69.60890 -20.57925 -20.57670
 Alpha  occ. eigenvalues --  -11.24062 -10.61424 -10.61100  -7.78305  -7.78025
 Alpha  occ. eigenvalues --   -7.78016  -7.77987  -7.77685  -7.77683  -7.66411
 Alpha  occ. eigenvalues --   -6.27305  -4.02672  -4.02569  -4.02408  -1.50152
 Alpha  occ. eigenvalues --   -1.46031  -1.07674  -1.03919  -0.97174  -0.79928
 Alpha  occ. eigenvalues --   -0.75928  -0.70316  -0.63083  -0.59761  -0.59126
 Alpha  occ. eigenvalues --   -0.58671  -0.57921  -0.54069  -0.53714  -0.51479
 Alpha  occ. eigenvalues --   -0.50953  -0.47972  -0.47207  -0.46253  -0.42482
 Alpha virt. eigenvalues --    0.03097   0.04034   0.04890   0.04951   0.06425
 Alpha virt. eigenvalues --    0.06827   0.06979   0.07898   0.09287   0.09714
 Alpha virt. eigenvalues --    0.09741   0.09976   0.11706   0.12125   0.14946

 Mulliken charges:
               1
     1  Si   1.571754
     2  B    1.588901
     3  O   -1.321912
     4  O   -1.207217
     5  C   -0.695151
     6  H    0.114252
     7  H    0.039827
     8  H    0.090760
     9  Cl  -0.654479
    10  Cl  -0.633249
    11  H    0.537446
    12  H    0.569068
 Sum of Mulliken charges =  -0.00000

 Dipole moment (field-independent basis, Debye):
    X=              1.6004    Y=              0.2690    Z=              1.5132  Tot=              2.2188

 Test job not archived.
 1\1\GINC-SE083\SP\RHF\Aug-CC-pVDZ\C1H5B1Cl2O2Si1\OHZDE\09-Apr-2025\0\\
 #t hf aug-cc-pvdz iop(5/13=1,5/36=2,99/5=2) pseudo=read geom=check gue
 ss=(read,tcheck) scf=(maxcycle=1)\\title\\0,1\Si,0,-0.317301,-0.125083
 ,0.302789\B,0,1.681297,0.008763,-0.032913\O,0,2.250207,1.067433,-0.669
 932\O,0,2.456247,-1.013353,0.410204\C,0,-0.883758,-0.666904,1.989084\H
 ,0,-0.490892,-1.664964,2.201531\H,0,-1.973974,-0.698893,2.046035\H,0,-
 0.511917,0.022505,2.751984\Cl,0,-1.088831,1.800498,-0.073398\Cl,0,-1.1
 67143,-1.403277,-1.11569\H,0,3.392345,-0.888802,0.205296\H,0,1.622658,

 Normal termination of Gaussian 16 at Wed Apr  9 00:45:48 2025.
