 Gaussian 16, Revision C.01,

 ----------------------------------------------------------------------
 #t hf aug-cc-pvdz symm=none int=(grid=ultrafine) guess=(read,tcheck) s
 table=(opt,rrhf)
 ----------------------------------------------------------------------
 -----
 title
 -----
 Symbolic Z-matrix:
 Charge =  0 Multiplicity = 1

 SCF Done:  E(RHF) =  -401.911720774     A.U. after   14 cycles
 Normal termination of Gaussian 16 at Tue Apr  8 23:33:26 2025.
 Gaussian 16:  ES64L-G16RevC.01  3-Jul-2019

 ----------------------------------------------------------------------
 #t hf aug-cc-pvdz iop(5/13=1,5/36=2,99/5=2) pseudo=read geom=check gue
 ss=(read,tcheck) scf=(maxcycle=1)
 ----------------------------------------------------------------------
 -----
 title
 -----
 Structure from the checkpoint file:  "BDE49_nonexpt_144_mol1.chk"
 Charge =  0 Multiplicity = 1

                         Standard orientation:
 ---------------------------------------------------------------------
 Center     Atomic      Atomic             Coordinates (Angstroms)
 Number     Number       Type             X           Y           Z
 ---------------------------------------------------------------------
      1          5           0        0.610923   -1.265065   -0.469205
      2          5           0       -0.622273   -1.221712    0.545599
      3          5           0       -1.801070   -0.045467    0.117285
      4          5           0        1.778440   -0.065650   -0.127775
      5          8           0       -3.073658   -0.466593   -0.142002
      6          1           0       -3.639749    0.268300   -0.410361
      7          8           0       -1.517877    1.287003    0.022187
      8          1           0       -0.571581    1.486904    0.087834
      9          8           0        1.351372    1.243530   -0.038690
     10          1           0        2.075341    1.859059    0.135386
     11          8           0        3.107332   -0.279651    0.120510
     12          1           0        3.385918   -1.191843    0.007236
     13          1           0       -0.737765   -1.765719    1.602464
     14          1           0        0.720377   -1.941540   -1.448133
 ---------------------------------------------------------------------

 SCF Done:  E(RHF) =  -402.309292649     A.U. after    2 cycles

 The electronic state is 1-A.
 Alpha  occ. eigenvalues --  -20.57651 -20.57432 -20.54372 -20.53982  -7.64620
 Alpha  occ. eigenvalues --   -7.61966  -7.56972  -7.56210  -1.49831  -1.46580
 Alpha  occ. eigenvalues --   -1.45362  -1.42258  -0.81342  -0.77613  -0.76427
 Alpha  occ. eigenvalues --   -0.72410  -0.70975  -0.64754  -0.60632  -0.58866
 Alpha  occ. eigenvalues --   -0.58451  -0.56981  -0.55318  -0.53750  -0.51015
 Alpha  occ. eigenvalues --   -0.47966  -0.47702  -0.44342  -0.39694
 Alpha virt. eigenvalues --    0.02419   0.03258   0.03511   0.03812   0.04883
 Alpha virt. eigenvalues --    0.05853   0.06240   0.06876   0.07279   0.07528
 Alpha virt. eigenvalues --    0.08823   0.09120   0.09726   0.10045   0.10703

 Mulliken charges:
               1
     1  B   -0.702508
     2  B   -0.637614
     3  B    1.891702
     4  B    1.942787
     5  O   -1.303861
     6  H    0.521272
     7  O   -1.432353
     8  H    0.726176
     9  O   -1.372327
    10  H    0.499499
    11  O   -1.204677
    12  H    0.488753
    13  H    0.270905
    14  H    0.312246
 Sum of Mulliken charges =  -0.00000

 Dipole moment (field-independent basis, Debye):
    X=              2.7484    Y=             -0.0740    Z=             -0.2398  Tot=              2.7598

 Test job not archived.
 1\1\GINC-SE332\SP\RHF\Aug-CC-pVDZ\B4H6O4\OHZDE\08-Apr-2025\0\\#t hf au
 g-cc-pvdz iop(5/13=1,5/36=2,99/5=2) pseudo=read geom=check guess=(read
 ,tcheck) scf=(maxcycle=1)\\title\\0,1\B,0,0.610923,-1.265065,-0.469205
 \B,0,-0.622273,-1.221712,0.545599\B,0,-1.80107,-0.045467,0.117285\B,0,
 1.77844,-0.06565,-0.127775\O,0,-3.073658,-0.466594,-0.142002\H,0,-3.63
 9749,0.268299,-0.410361\O,0,-1.517877,1.287003,0.022187\H,0,-0.571581,
 1.486904,0.087834\O,0,1.351372,1.24353,-0.03869\H,0,2.075341,1.859059,
 0.135386\O,0,3.107332,-0.279651,0.12051\H,0,3.385918,-1.191843,0.00723

 Normal termination of Gaussian 16 at Tue Apr  8 23:33:31 2025.
