 Gaussian 16, Revision C.01,

 ----------------------------------------------------------------------
 #t hf aug-cc-pvdz symm=none int=(grid=ultrafine) guess=(read,tcheck) s
 table=(opt,rrhf)
 ----------------------------------------------------------------------
 -----
 title
 -----
 Symbolic Z-matrix:
 Charge =  0 Multiplicity = 1

 SCF Done:  E(RHF) =  -716.048224015     A.U. after   16 cycles
 Normal termination of Gaussian 16 at Wed Apr  9 00:54:25 2025.
 Gaussian 16:  ES64L-G16RevC.01  3-Jul-2019

 ----------------------------------------------------------------------
 #t hf aug-cc-pvdz iop(5/13=1,5/36=2,99/5=2) pseudo=read geom=check gue
 ss=(read,tcheck) scf=(maxcycle=1)
 ----------------------------------------------------------------------
 -----
 title
 -----
 Structure from the checkpoint file:  "BDE49_nonexpt_998_mol1.chk"
 Charge =  0 Multiplicity = 1

                         Standard orientation:
 ---------------------------------------------------------------------
 Center     Atomic      Atomic             Coordinates (Angstroms)
 Number     Number       Type             X           Y           Z
 ---------------------------------------------------------------------
      1         16           0       -0.144587   -1.017312   -0.023464
      2          7           0        1.190345    0.262816   -0.005992
      3          8           0        0.897421    1.399668   -0.287800
      4          8           0        2.269459   -0.189376    0.310127
      5          8           0       -1.422612   -0.158022   -0.550329
      6          6           0       -2.156383    0.606122    0.442429
      7          1           0       -3.033989    0.981158   -0.081747
      8          1           0       -1.545506    1.436821    0.795049
      9          1           0       -2.455369   -0.035585    1.273510
 ---------------------------------------------------------------------

 SCF Done:  E(RHF) =  -716.412366523     A.U. after    2 cycles

 The electronic state is 1-A.
 Alpha  occ. eigenvalues --  -94.08557 -20.63012 -20.61456 -20.61144 -15.81155
 Alpha  occ. eigenvalues --  -11.32224  -8.35656  -6.33421  -6.33210  -6.32866
 Alpha  occ. eigenvalues --   -1.69519  -1.54139  -1.52689  -1.10493  -0.97993
 Alpha  occ. eigenvalues --   -0.89103  -0.79793  -0.76691  -0.76398  -0.68086
 Alpha  occ. eigenvalues --   -0.67210  -0.64517  -0.55061  -0.53362  -0.50910
 Alpha  occ. eigenvalues --   -0.47411  -0.46228  -0.42334
 Alpha virt. eigenvalues --    0.03084   0.04481   0.04943   0.05861   0.06341
 Alpha virt. eigenvalues --    0.07747   0.08838   0.11308   0.11782   0.13752
 Alpha virt. eigenvalues --    0.14450   0.15743   0.16196   0.17293   0.17826

 Mulliken charges:
               1
     1  S    1.115626
     2  N    1.733329
     3  O   -1.112018
     4  O   -1.154092
     5  O   -1.213931
     6  C    0.235545
     7  H    0.035153
     8  H    0.175598
     9  H    0.184790
 Sum of Mulliken charges =   0.00000

 Dipole moment (field-independent basis, Debye):
    X=             -3.7438    Y=             -0.6820    Z=              1.0990  Tot=              3.9609

 Test job not archived.
 1\1\GINC-SE026\SP\RHF\Aug-CC-pVDZ\C1H3N1O3S1\OHZDE\09-Apr-2025\0\\#t h
 f aug-cc-pvdz iop(5/13=1,5/36=2,99/5=2) pseudo=read geom=check guess=(
 read,tcheck) scf=(maxcycle=1)\\title\\0,1\S,0,-0.144587,-1.017312,-0.0
 23464\N,0,1.190345,0.262816,-0.005992\O,0,0.897421,1.399668,-0.2878\O,
 0,2.269459,-0.189376,0.310127\O,0,-1.422612,-0.158022,-0.550329\C,0,-2
 .156383,0.606122,0.442429\H,0,-3.033989,0.981158,-0.081747\H,0,-1.5455
 06,1.436821,0.795049\H,0,-2.455369,-0.035585,1.27351\\Version=ES64L-G1
 6RevC.01\State=1-A\HF=-716.4123665\RMSD=1.135e-02\Dipole=-1.4729062,-0

 Normal termination of Gaussian 16 at Wed Apr  9 00:54:28 2025.
