 Gaussian 16, Revision C.01,

 ----------------------------------------------------------------------
 #t hf aug-cc-pvdz symm=none int=(grid=ultrafine) guess=(read,tcheck) s
 table=(opt,rrhf)
 ----------------------------------------------------------------------
 -----
 title
 -----
 Symbolic Z-matrix:
 Charge =  0 Multiplicity = 1

 SCF Done:  E(RHF) =  -609.376155198     A.U. after   16 cycles
 Normal termination of Gaussian 16 at Wed Apr  9 00:31:19 2025.
 Gaussian 16:  ES64L-G16RevC.01  3-Jul-2019

 ----------------------------------------------------------------------
 #t hf aug-cc-pvdz iop(5/13=1,5/36=2,99/5=2) pseudo=read geom=check gue
 ss=(read,tcheck) scf=(maxcycle=1)
 ----------------------------------------------------------------------
 -----
 title
 -----
 Structure from the checkpoint file:  "BDE49_nonexpt_320_mol1.chk"
 Charge =  0 Multiplicity = 1

                         Standard orientation:
 ---------------------------------------------------------------------
 Center     Atomic      Atomic             Coordinates (Angstroms)
 Number     Number       Type             X           Y           Z
 ---------------------------------------------------------------------
      1          6           0        0.007331    1.215949    0.772287
      2          6           0        0.000000    1.203063   -0.617787
      3          6           0       -0.000000   -0.000000    1.445141
      4          6           0       -0.007331   -1.215949    0.772287
      5          6           0       -0.000000   -1.203063   -0.617787
      6          6           0        0.000000    0.000000   -1.343391
      7          1           0       -0.015758   -2.151593   -1.145187
      8          1           0        0.018584    2.137003    1.338189
      9          1           0        0.015758    2.151593   -1.145187
     10          5           0        0.000000    0.000000   -2.925195
     11          8           0        0.688451   -0.927644   -3.648118
     12          8           0       -0.688451    0.927644   -3.648118
     13          7           0       -0.000000   -0.000000    2.927294
     14          8           0       -0.004212   -1.084755    3.492097
     15          8           0        0.004212    1.084755    3.492097
     16          1           0       -0.018584   -2.137003    1.338189
     17          1           0       -1.240116    1.499702   -3.109629
     18          1           0        1.240116   -1.499702   -3.109629
 ---------------------------------------------------------------------

 SCF Done:  E(RHF) =  -609.974940801     A.U. after    2 cycles

 The electronic state is 1-A.
 Alpha  occ. eigenvalues --  -20.59878 -20.59873 -20.57243 -20.57243 -15.80147
 Alpha  occ. eigenvalues --  -11.32821 -11.29199 -11.29193 -11.28544 -11.28535
 Alpha  occ. eigenvalues --  -11.27059  -7.66580  -1.67866  -1.51577  -1.49546
 Alpha  occ. eigenvalues --   -1.45742  -1.21358  -1.11636  -1.06439  -0.99270
 Alpha  occ. eigenvalues --   -0.88552  -0.85959  -0.81336  -0.80858  -0.75784
 Alpha  occ. eigenvalues --   -0.75409  -0.73886  -0.69310  -0.68122  -0.67187
 Alpha  occ. eigenvalues --   -0.64580  -0.61900  -0.60625  -0.57827  -0.55113
 Alpha  occ. eigenvalues --   -0.54721  -0.50995  -0.50506  -0.50082  -0.49616
 Alpha  occ. eigenvalues --   -0.45922  -0.39607  -0.38804
 Alpha virt. eigenvalues --    0.00952   0.02496   0.02827   0.03904   0.04218
 Alpha virt. eigenvalues --    0.05629   0.05698   0.06601   0.06946   0.08034
 Alpha virt. eigenvalues --    0.08708   0.09452   0.10431   0.10476   0.12113

 Mulliken charges:
               1
     1  C   -0.015064
     2  C    0.971006
     3  C    0.103698
     4  C   -0.015064
     5  C    0.971006
     6  C   -0.409921
     7  H   -0.371283
     8  H   -0.200793
     9  H   -0.371283
    10  B    1.454452
    11  O   -1.537865
    12  O   -1.537865
    13  N    2.963032
    14  O   -1.472977
    15  O   -1.472977
    16  H   -0.200793
    17  H    0.571346
    18  H    0.571346
 Sum of Mulliken charges =  -0.00000

 Dipole moment (field-independent basis, Debye):
    X=              0.0000    Y=              0.0000    Z=             -1.8360  Tot=              1.8360

 Test job not archived.
 1\1\GINC-SE109\SP\RHF\Aug-CC-pVDZ\C6H6B1N1O4\OHZDE\09-Apr-2025\0\\#t h
 f aug-cc-pvdz iop(5/13=1,5/36=2,99/5=2) pseudo=read geom=check guess=(
 read,tcheck) scf=(maxcycle=1)\\title\\0,1\C,0,0.007331,1.215949,0.7722
 87\C,0,0.,1.203063,-0.617787\C,0,0.,0.,1.445141\C,0,-0.007331,-1.21594
 9,0.772287\C,0,0.,-1.203063,-0.617787\C,0,0.,0.,-1.343391\H,0,-0.01575
 8,-2.151593,-1.145187\H,0,0.018584,2.137003,1.338189\H,0,0.015758,2.15
 1593,-1.145187\B,0,0.,0.,-2.925195\O,0,0.688451,-0.927644,-3.648118\O,
 0,-0.688451,0.927644,-3.648118\N,0,0.,0.,2.927294\O,0,-0.004212,-1.084

 Normal termination of Gaussian 16 at Wed Apr  9 00:31:26 2025.
