 Gaussian 16, Revision C.01,

 ----------------------------------------------------------------------
 #t hf aug-cc-pvdz symm=none int=(grid=ultrafine) guess=(read,tcheck) s
 table=(opt,rrhf)
 ----------------------------------------------------------------------
 -----
 title
 -----
 Symbolic Z-matrix:
 Charge =  0 Multiplicity = 1

 SCF Done:  E(RHF) =  -450.729228905     A.U. after   12 cycles
 Normal termination of Gaussian 16 at Tue Apr  8 22:50:35 2025.
 Gaussian 16:  ES64L-G16RevC.01  3-Jul-2019

 ----------------------------------------------------------------------
 #t hf aug-cc-pvdz iop(5/13=1,5/36=2,99/5=2) pseudo=read geom=check gue
 ss=(read,tcheck) scf=(maxcycle=1)
 ----------------------------------------------------------------------
 -----
 title
 -----
 Structure from the checkpoint file:  "BDE49_expt_174_mol1.chk"
 Charge =  0 Multiplicity = 1

                         Standard orientation:
 ---------------------------------------------------------------------
 Center     Atomic      Atomic             Coordinates (Angstroms)
 Number     Number       Type             X           Y           Z
 ---------------------------------------------------------------------
      1          6           0       -1.956596    0.022867   -0.000004
      2          8           0       -0.723026    0.767826   -0.000005
      3          1           0       -2.743913    0.771886   -0.000013
      4          1           0       -2.027442   -0.595589    0.896261
      5          1           0       -2.027434   -0.595604   -0.896259
      6          6           0        0.398600    0.037078    0.000001
      7          9           0        1.442241    0.864083    0.000000
      8          9           0        0.497270   -0.769988   -1.083312
      9          9           0        0.497264   -0.769981    1.083319
 ---------------------------------------------------------------------

 SCF Done:  E(RHF) =  -451.153191584     A.U. after    2 cycles

 The electronic state is 1-A.
 Alpha  occ. eigenvalues --  -26.51176 -26.50905 -26.50901 -20.60965 -11.57087
 Alpha  occ. eigenvalues --  -11.32135  -1.73256  -1.62354  -1.61586  -1.53498
 Alpha  occ. eigenvalues --   -1.01877  -0.92281  -0.82913  -0.82911  -0.81101
 Alpha  occ. eigenvalues --   -0.70759  -0.70172  -0.65748  -0.65379  -0.64593
 Alpha  occ. eigenvalues --   -0.62848  -0.62335  -0.62092  -0.55123  -0.50475
 Alpha virt. eigenvalues --    0.03302   0.05271   0.05584   0.08220   0.10614
 Alpha virt. eigenvalues --    0.11263   0.11302   0.13861   0.15360   0.16383
 Alpha virt. eigenvalues --    0.18444   0.21450   0.23968   0.25910   0.26916

 Mulliken charges:
               1
     1  C    0.145244
     2  O   -1.315938
     3  H    0.000960
     4  H    0.184699
     5  H    0.184699
     6  C    2.879182
     7  F   -0.688973
     8  F   -0.694937
     9  F   -0.694936
 Sum of Mulliken charges =   0.00000

 Dipole moment (field-independent basis, Debye):
    X=             -2.5810    Y=             -0.4630    Z=              0.0000  Tot=              2.6222

 Test job not archived.
 1\1\GINC-SE080\SP\RHF\Aug-CC-pVDZ\C2H3F3O1\OHZDE\08-Apr-2025\0\\#t hf
 aug-cc-pvdz iop(5/13=1,5/36=2,99/5=2) pseudo=read geom=check guess=(re
 ad,tcheck) scf=(maxcycle=1)\\title\\0,1\C,0,-1.956596,0.022867,-0.0000
 04\O,0,-0.723026,0.767826,-0.000005\H,0,-2.743913,0.771887,-0.000013\H
 ,0,-2.027442,-0.595588,0.896261\H,0,-2.027434,-0.595603,-0.896259\C,0,
 0.3986,0.037078,0.000001\F,0,1.442241,0.864082,0.\F,0,0.49727,-0.76998
 8,-1.083312\F,0,0.497264,-0.769981,1.083319\\Version=ES64L-G16RevC.01\
 State=1-A\HF=-451.1531916\RMSD=5.204e-03\Dipole=-1.0154564,-0.1821476,

 Normal termination of Gaussian 16 at Tue Apr  8 22:50:38 2025.
