 Gaussian 16, Revision C.01,

 ----------------------------------------------------------------------
 #t hf aug-cc-pvdz symm=none int=(grid=ultrafine) guess=(read,tcheck) s
 table=(opt,rrhf)
 ----------------------------------------------------------------------
 -----
 title
 -----
 Symbolic Z-matrix:
 Charge =  0 Multiplicity = 1

 SCF Done:  E(RHF) =  -913.319020760     A.U. after   18 cycles
 Normal termination of Gaussian 16 at Wed Apr  9 00:53:30 2025.
 Gaussian 16:  ES64L-G16RevC.01  3-Jul-2019

 ----------------------------------------------------------------------
 #t hf aug-cc-pvdz iop(5/13=1,5/36=2,99/5=2) pseudo=read geom=check gue
 ss=(read,tcheck) scf=(maxcycle=1)
 ----------------------------------------------------------------------
 -----
 title
 -----
 Structure from the checkpoint file:  "BDE49_nonexpt_926_mol1.chk"
 Charge =  0 Multiplicity = 1

                         Standard orientation:
 ---------------------------------------------------------------------
 Center     Atomic      Atomic             Coordinates (Angstroms)
 Number     Number       Type             X           Y           Z
 ---------------------------------------------------------------------
      1         17           0       -3.810036   -0.050580   -0.410497
      2          7           0       -0.241961   -1.035010    0.169838
      3          7           0       -2.477463   -0.707628    0.554428
      4          1           0       -2.446236   -1.704079    0.353607
      5          6           0       -1.207044   -0.155384    0.285085
      6          6           0       -1.013170    1.253847    0.266431
      7          1           0       -1.859758    1.919895    0.362635
      8          6           0        0.263828    1.720533    0.131056
      9          1           0        0.459697    2.787539    0.111177
     10          6           0        2.698886    1.217753   -0.103045
     11          1           0        2.928189    2.278009   -0.130106
     12          6           0        3.703368    0.282547   -0.194368
     13          1           0        4.734976    0.599431   -0.294547
     14          6           0        3.395662   -1.096388   -0.158554
     15          1           0        4.196714   -1.823336   -0.231609
     16          6           0        2.094094   -1.522515   -0.031763
     17          1           0        1.837055   -2.574321   -0.003770
     18          6           0        1.040318   -0.582092    0.065213
     19          6           0        1.350048    0.810896    0.030147
 ---------------------------------------------------------------------

 SCF Done:  E(RHF) =  -913.852469416     A.U. after    2 cycles

 The electronic state is 1-A.
 Alpha  occ. eigenvalues -- -105.59982 -15.58026 -15.50913 -11.33686 -11.28912
 Alpha  occ. eigenvalues --  -11.27877 -11.25850 -11.25830 -11.25772 -11.25624
 Alpha  occ. eigenvalues --  -11.25056 -11.24620 -10.64461  -7.81416  -7.80962
 Alpha  occ. eigenvalues --   -7.80925  -1.30730  -1.22894  -1.15301  -1.10553
 Alpha  occ. eigenvalues --   -1.04571  -1.02224  -0.99767  -0.89984  -0.87346
 Alpha  occ. eigenvalues --   -0.84283  -0.76765  -0.75381  -0.72612  -0.66993
 Alpha  occ. eigenvalues --   -0.65760  -0.63213  -0.62934  -0.62559  -0.61092
 Alpha  occ. eigenvalues --   -0.59361  -0.56172  -0.53742  -0.53458  -0.48916
 Alpha  occ. eigenvalues --   -0.48154  -0.46427  -0.43964  -0.43648  -0.33681
 Alpha  occ. eigenvalues --   -0.32804
 Alpha virt. eigenvalues --    0.03132   0.03300   0.03641   0.04590   0.04897
 Alpha virt. eigenvalues --    0.05439   0.06581   0.07210   0.08096   0.08635
 Alpha virt. eigenvalues --    0.09114   0.09598   0.11440   0.11671   0.12288

 Mulliken charges:
               1
     1  Cl   0.119833
     2  N    1.487829
     3  N    0.587626
     4  H    0.110432
     5  C   -2.188835
     6  C    0.264963
     7  H   -0.215265
     8  C    0.167174
     9  H   -0.297389
    10  C    0.492386
    11  H   -0.294192
    12  C    0.206464
    13  H   -0.250358
    14  C    0.021833
    15  H   -0.226146
    16  C    1.361031
    17  H   -0.277820
    18  C   -2.578739
    19  C    1.509173
 Sum of Mulliken charges =  -0.00000

 Dipole moment (field-independent basis, Debye):
    X=              1.8095    Y=              1.6975    Z=             -0.4961  Tot=              2.5302

 Test job not archived.
 1\1\GINC-SE038\SP\RHF\Aug-CC-pVDZ\C9H7Cl1N2\OHZDE\09-Apr-2025\0\\#t hf
  aug-cc-pvdz iop(5/13=1,5/36=2,99/5=2) pseudo=read geom=check guess=(r
 ead,tcheck) scf=(maxcycle=1)\\title\\0,1\Cl,0,-3.810036,-0.05058,-0.41
 0497\N,0,-0.241961,-1.03501,0.169838\N,0,-2.477463,-0.707628,0.554428\
 H,0,-2.446236,-1.704079,0.353607\C,0,-1.207044,-0.155384,0.285085\C,0,
 -1.01317,1.253847,0.266431\H,0,-1.859758,1.919895,0.362635\C,0,0.26382
 8,1.720533,0.131056\H,0,0.459697,2.787539,0.111177\C,0,2.698886,1.2177
 53,-0.103045\H,0,2.928189,2.278009,-0.130106\C,0,3.703368,0.282547,-0.

 Normal termination of Gaussian 16 at Wed Apr  9 00:53:48 2025.
