 Gaussian 16, Revision C.01,

 ----------------------------------------------------------------------
 #t hf aug-cc-pvdz symm=none int=(grid=ultrafine) guess=(read,tcheck) s
 table=(opt,rrhf)
 ----------------------------------------------------------------------
 -----
 title
 -----
 Symbolic Z-matrix:
 Charge =  0 Multiplicity = 1

 SCF Done:  E(RHF) =  -561.356122984     A.U. after   12 cycles
 Normal termination of Gaussian 16 at Wed Apr  9 00:06:28 2025.
 Gaussian 16:  ES64L-G16RevC.01  3-Jul-2019

 ----------------------------------------------------------------------
 #t hf aug-cc-pvdz iop(5/13=1,5/36=2,99/5=2) pseudo=read geom=check gue
 ss=(read,tcheck) scf=(maxcycle=1)
 ----------------------------------------------------------------------
 -----
 title
 -----
 Structure from the checkpoint file:  "BDE49_nonexpt_2231_mol1.chk"
 Charge =  0 Multiplicity = 1

                         Standard orientation:
 ---------------------------------------------------------------------
 Center     Atomic      Atomic             Coordinates (Angstroms)
 Number     Number       Type             X           Y           Z
 ---------------------------------------------------------------------
      1          8           0       -0.302313   -0.346377   -0.176191
      2         14           0        1.172301   -0.991713    0.201296
      3          6           0        2.487442    0.165540   -0.456705
      4          6           0       -1.565278   -0.922246    0.160615
      5          6           0       -2.688030   -0.055395   -0.394661
      6          6           0       -2.716942    1.356198    0.194855
      7          1           0       -3.637133   -0.567583   -0.196627
      8          1           0       -2.576695   -0.004898   -1.482953
      9          1           0       -2.868147    1.328365    1.278847
     10          1           0       -3.526640    1.948206   -0.239578
     11          1           0       -1.775571    1.873343    0.000573
     12          6           0        2.461592    1.582488    0.143549
     13          1           0        2.381402    0.212699   -1.546658
     14          1           0        3.459488   -0.309011   -0.270048
     15          1           0        1.508577    2.077495   -0.057174
     16          1           0        3.256166    2.207490   -0.274099
     17          1           0        2.597920    1.558653    1.228731
     18          1           0       -1.655894   -1.002634    1.253319
     19          1           0       -1.634097   -1.935848   -0.255923
     20          1           0        1.309263   -2.341680   -0.409716
     21          1           0        1.294948   -1.149106    1.676767
 ---------------------------------------------------------------------

 SCF Done:  E(RHF) =  -561.686369055     A.U. after    2 cycles

 The electronic state is 1-A.
 Alpha  occ. eigenvalues --  -69.54138 -20.52802 -11.28770 -11.22887 -11.22746
 Alpha  occ. eigenvalues --  -11.21945 -11.21758  -6.20820  -3.96298  -3.96145
 Alpha  occ. eigenvalues --   -3.96132  -1.43118  -1.05334  -1.02167  -0.92374
 Alpha  occ. eigenvalues --   -0.85076  -0.80441  -0.72749  -0.65311  -0.63315
 Alpha  occ. eigenvalues --   -0.61255  -0.59452  -0.58136  -0.57597  -0.53048
 Alpha  occ. eigenvalues --   -0.52773  -0.51091  -0.49715  -0.49003  -0.47585
 Alpha  occ. eigenvalues --   -0.45776  -0.42973  -0.42244
 Alpha virt. eigenvalues --    0.03728   0.03777   0.03885   0.03974   0.05305
 Alpha virt. eigenvalues --    0.05567   0.05980   0.06588   0.07126   0.08200
 Alpha virt. eigenvalues --    0.08396   0.08584   0.09744   0.10800   0.10979

 Mulliken charges:
               1
     1  O   -1.810889
     2  Si   1.851521
     3  C   -0.596826
     4  C    0.678150
     5  C   -0.467060
     6  C   -0.324466
     7  H    0.165550
     8  H    0.175460
     9  H    0.152526
    10  H    0.103624
    11  H    0.185753
    12  C   -0.390128
    13  H    0.121598
    14  H    0.039366
    15  H    0.139620
    16  H    0.102083
    17  H    0.138929
    18  H    0.098463
    19  H    0.080642
    20  H   -0.250656
    21  H   -0.193258
 Sum of Mulliken charges =   0.00000

 Dipole moment (field-independent basis, Debye):
    X=             -0.2506    Y=             -0.2191    Z=              0.0543  Tot=              0.3373

 Test job not archived.
 1\1\GINC-SE069\SP\RHF\Aug-CC-pVDZ\C5H14O1Si1\OHZDE\09-Apr-2025\0\\#t h
 f aug-cc-pvdz iop(5/13=1,5/36=2,99/5=2) pseudo=read geom=check guess=(
 read,tcheck) scf=(maxcycle=1)\\title\\0,1\O,0,-0.302313,-0.346377,-0.1
 76191\Si,0,1.172301,-0.991713,0.201296\C,0,2.487442,0.16554,-0.456705\
 C,0,-1.565278,-0.922246,0.160615\C,0,-2.68803,-0.055395,-0.394661\C,0,
 -2.716942,1.356198,0.194855\H,0,-3.637133,-0.567583,-0.196627\H,0,-2.5
 76695,-0.004898,-1.482953\H,0,-2.868147,1.328365,1.278847\H,0,-3.52664
 ,1.948206,-0.239578\H,0,-1.775571,1.873343,0.000573\C,0,2.461592,1.582

 Normal termination of Gaussian 16 at Wed Apr  9 00:06:37 2025.
