 Gaussian 16, Revision C.01,

 ----------------------------------------------------------------------
 #t hf aug-cc-pvdz symm=none int=(grid=ultrafine) guess=(read,tcheck) s
 table=(opt,rrhf)
 ----------------------------------------------------------------------
 -----
 title
 -----
 Symbolic Z-matrix:
 Charge =  0 Multiplicity = 1

 SCF Done:  E(RHF) =  -658.812311542     A.U. after   15 cycles
 Normal termination of Gaussian 16 at Tue Apr  8 23:12:54 2025.
 Gaussian 16:  ES64L-G16RevC.01  3-Jul-2019

 ----------------------------------------------------------------------
 #t hf aug-cc-pvdz iop(5/13=1,5/36=2,99/5=2) pseudo=read geom=check gue
 ss=(read,tcheck) scf=(maxcycle=1)
 ----------------------------------------------------------------------
 -----
 title
 -----
 Structure from the checkpoint file:  "BDE49_expt_806_mol1.chk"
 Charge =  0 Multiplicity = 1

                         Standard orientation:
 ---------------------------------------------------------------------
 Center     Atomic      Atomic             Coordinates (Angstroms)
 Number     Number       Type             X           Y           Z
 ---------------------------------------------------------------------
      1         14           0       -1.640734   -0.393821   -0.140427
      2          1           0       -1.911565   -1.680071   -0.820551
      3          9           0       -2.220042   -0.541725    1.368749
      4          6           0       -2.553638    1.014871   -0.948939
      5          6           0        0.204600   -0.134285   -0.068895
      6          1           0       -3.631429    0.830610   -0.939219
      7          1           0       -2.236961    1.128325   -1.990060
      8          1           0       -2.370632    1.962989   -0.435677
      9          6           0        1.078765   -1.190435   -0.371261
     10          6           0        2.460543   -1.019082   -0.319198
     11          6           0        2.994130    0.216265    0.040152
     12          6           0        2.144303    1.278608    0.345740
     13          6           0        0.764713    1.103556    0.289503
     14          1           0        0.119443    1.942633    0.530690
     15          1           0        0.675438   -2.158450   -0.651786
     16          1           0        3.118898   -1.847259   -0.557050
     17          1           0        4.069185    0.352210    0.082001
     18          1           0        2.557773    2.241046    0.626289
 ---------------------------------------------------------------------

 SCF Done:  E(RHF) =  -659.219318769     A.U. after    2 cycles

 The electronic state is 1-A.
 Alpha  occ. eigenvalues --  -69.56743 -26.43259 -11.25534 -11.25478 -11.25426
 Alpha  occ. eigenvalues --  -11.24939 -11.24893 -11.23469 -11.22370  -6.23343
 Alpha  occ. eigenvalues --   -3.98767  -3.98578  -3.98563  -1.54233  -1.15887
 Alpha  occ. eigenvalues --   -1.02407  -1.02362  -0.96150  -0.84116  -0.83874
 Alpha  occ. eigenvalues --   -0.75020  -0.71030  -0.65095  -0.64863  -0.62701
 Alpha  occ. eigenvalues --   -0.62450  -0.60996  -0.60619  -0.57219  -0.56389
 Alpha  occ. eigenvalues --   -0.54440  -0.51645  -0.51124  -0.46870  -0.45680
 Alpha  occ. eigenvalues --   -0.35557  -0.35280
 Alpha virt. eigenvalues --    0.03188   0.03517   0.03643   0.04755   0.04887
 Alpha virt. eigenvalues --    0.05122   0.07042   0.07572   0.07907   0.08154
 Alpha virt. eigenvalues --    0.08743   0.09743   0.10172   0.11042   0.12059

 Mulliken charges:
               1
     1  Si   2.017647
     2  H   -0.242239
     3  F   -0.947763
     4  C   -0.579464
     5  C   -0.915940
     6  H   -0.000398
     7  H    0.012097
     8  H    0.055138
     9  C    0.185699
    10  C    0.481377
    11  C    0.325243
    12  C    0.413986
    13  C    0.571606
    14  H   -0.368902
    15  H   -0.357646
    16  H   -0.218791
    17  H   -0.209799
    18  H   -0.221850
 Sum of Mulliken charges =  -0.00000

 Dipole moment (field-independent basis, Debye):
    X=              1.2306    Y=              0.8172    Z=             -1.5208  Tot=              2.1201

 Test job not archived.
 1\1\GINC-SE361\SP\RHF\Aug-CC-pVDZ\C7H9F1Si1\OHZDE\08-Apr-2025\0\\#t hf
  aug-cc-pvdz iop(5/13=1,5/36=2,99/5=2) pseudo=read geom=check guess=(r
 ead,tcheck) scf=(maxcycle=1)\\title\\0,1\Si,0,-1.640734,-0.393821,-0.1
 40427\H,0,-1.911565,-1.680071,-0.820551\F,0,-2.220042,-0.541725,1.3687
 49\C,0,-2.553638,1.014871,-0.948939\C,0,0.2046,-0.134285,-0.068895\H,0
 ,-3.631429,0.83061,-0.939219\H,0,-2.236961,1.128325,-1.99006\H,0,-2.37
 0632,1.962989,-0.435677\C,0,1.078765,-1.190435,-0.371261\C,0,2.460543,
 -1.019082,-0.319198\C,0,2.99413,0.216265,0.040152\C,0,2.144303,1.27860

 Normal termination of Gaussian 16 at Tue Apr  8 23:13:02 2025.
