 Gaussian 16, Revision C.01,

 ----------------------------------------------------------------------
 #t hf aug-cc-pvdz symm=none int=(grid=ultrafine) guess=(read,tcheck) s
 table=opt
 ----------------------------------------------------------------------
 -----
 title
 -----
 Symbolic Z-matrix:
 Charge =  0 Multiplicity = 2

 SCF Done:  E(UHF) =  -985.178065925     A.U. after   18 cycles
 Normal termination of Gaussian 16 at Tue Apr  8 23:55:20 2025.
 Gaussian 16:  ES64L-G16RevC.01  3-Jul-2019

 ----------------------------------------------------------------------
 #t hf aug-cc-pvdz iop(5/13=1,5/36=2,99/5=2) pseudo=read geom=check gue
 ss=(read,tcheck) scf=(maxcycle=1)
 ----------------------------------------------------------------------
 -----
 title
 -----
 Structure from the checkpoint file:  "BDE49_nonexpt_1983_mol2.chk"
 Charge =  0 Multiplicity = 2

                         Standard orientation:
 ---------------------------------------------------------------------
 Center     Atomic      Atomic             Coordinates (Angstroms)
 Number     Number       Type             X           Y           Z
 ---------------------------------------------------------------------
      1         14           0       -1.092985   -0.457504   -0.000000
      2          6           0       -0.000000    1.081893   -0.000000
      3         17           0        0.503343   -1.853693    0.000000
      4          9           0        1.307557    1.208451    0.000000
      5          9           0       -0.558118    2.283380   -0.000000
 ---------------------------------------------------------------------

 SCF Done:  E(UHF) =  -985.494091612     A.U. after    2 cycles

 The electronic state is 2-A".
 Alpha  occ. eigenvalues -- -105.57092 -69.62171 -26.52599 -26.52574 -11.44405
 Alpha  occ. eigenvalues --  -10.62055  -7.78884  -7.78699  -7.78586  -6.28373
 Alpha  occ. eigenvalues --   -4.03426  -4.03255  -4.02978  -1.70575  -1.63159
 Alpha  occ. eigenvalues --   -1.06498  -0.96870  -0.81869  -0.79276  -0.78235
 Alpha  occ. eigenvalues --   -0.69112  -0.67924  -0.64872  -0.56323  -0.50265
 Alpha  occ. eigenvalues --   -0.49356  -0.39942  -0.38616
 Alpha virt. eigenvalues --    0.00982   0.04713   0.05453   0.05710   0.07473
 Alpha virt. eigenvalues --    0.10289   0.11508   0.11589   0.13155   0.13832
 Alpha virt. eigenvalues --    0.16210   0.16867   0.18446   0.19386   0.23846

  Beta  occ. eigenvalues -- -105.57069 -69.62131 -26.52193 -26.52173 -11.42458
  Beta  occ. eigenvalues --  -10.62031  -7.78905  -7.78590  -7.78554  -6.28314
  Beta  occ. eigenvalues --   -4.03286  -4.03120  -4.03003  -1.69168  -1.62195
  Beta  occ. eigenvalues --   -1.06135  -0.92026  -0.80369  -0.78692  -0.72061
  Beta  occ. eigenvalues --   -0.67214  -0.64955  -0.64709  -0.55080  -0.49309
  Beta  occ. eigenvalues --   -0.49109  -0.39155
  Beta virt. eigenvalues --   -0.02288   0.04788   0.05527   0.05924   0.06541
  Beta virt. eigenvalues --    0.10396   0.10897   0.11782   0.13371   0.14056
  Beta virt. eigenvalues --    0.15244   0.16566   0.17547   0.18718   0.20477

 Mulliken charges and spin densities:
               1          2
     1  Si   0.820392   0.075511
     2  C    0.902443   0.860657
     3  Cl  -0.468224   0.009378
     4  F   -0.624802   0.030847
     5  F   -0.629809   0.023606
 Sum of Mulliken charges =   0.00000   1.00000

 Dipole moment (field-independent basis, Debye):
    X=             -1.0520    Y=              0.4228    Z=             -0.0000  Tot=              1.1338
                          Isotropic Fermi Contact Couplings
        Atom                 a.u.       MegaHertz       Gauss      10(-4) cm-1
     1  Si(29)             0.01739     -15.45167      -5.51354      -5.15412
     2  C(13)              0.16811     188.98471      67.43444      63.03851
     3  Cl(35)             0.00677       2.96626       1.05844       0.98944
     4  F(19)              0.05343     224.79779      80.21344      74.98447
     5  F(19)              0.05082     213.81437      76.29428      71.32080
 --------------------------------------------------------
       Center         ----  Spin Dipole Couplings  ----
                      3XX-RR        3YY-RR        3ZZ-RR

 Normal termination of Gaussian 16 at Tue Apr  8 23:55:22 2025.
