 Gaussian 16, Revision C.01,

 ----------------------------------------------------------------------
 #t hf aug-cc-pvdz symm=none int=(grid=ultrafine) guess=(read,tcheck) s
 table=(opt,rrhf)
 ----------------------------------------------------------------------
 -----
 title
 -----
 Symbolic Z-matrix:
 Charge =  0 Multiplicity = 1

 SCF Done:  E(RHF) =  -607.821393179     A.U. after   18 cycles
 Normal termination of Gaussian 16 at Tue Apr  8 23:23:13 2025.
 Gaussian 16:  ES64L-G16RevC.01  3-Jul-2019

 ----------------------------------------------------------------------
 #t hf aug-cc-pvdz iop(5/13=1,5/36=2,99/5=2) pseudo=read geom=check gue
 ss=(read,tcheck) scf=(maxcycle=1)
 ----------------------------------------------------------------------
 -----
 title
 -----
 Structure from the checkpoint file:  "BDE49_nonexpt_1179_mol1.chk"
 Charge =  0 Multiplicity = 1

                         Standard orientation:
 ---------------------------------------------------------------------
 Center     Atomic      Atomic             Coordinates (Angstroms)
 Number     Number       Type             X           Y           Z
 ---------------------------------------------------------------------
      1          9           0       -3.363306   -0.814992    0.662004
      2          8           0       -2.455663   -0.940269   -0.505263
      3          6           0       -1.389878   -0.122252   -0.249476
      4          6           0       -0.136345   -0.717743   -0.151001
      5          6           0        0.965758    0.118947   -0.025379
      6          6           0        0.844000    1.500484    0.055229
      7          6           0       -1.548812    1.265825   -0.174187
      8          1           0       -2.544510    1.685416   -0.238965
      9          6           0       -0.428393    2.069511   -0.011215
     10          1           0       -0.537657    3.145055    0.051169
     11          1           0        1.733869    2.103856    0.166765
     12          7           0        2.316205   -0.490731    0.051126
     13          8           0        3.265766    0.264535    0.196847
     14          8           0        2.388596   -1.706942   -0.037539
     15          1           0       -0.022953   -1.791510   -0.191069
 ---------------------------------------------------------------------

 SCF Done:  E(RHF) =  -608.406972811     A.U. after    2 cycles

 The electronic state is 1-A.
 Alpha  occ. eigenvalues --  -26.52026 -20.70781 -20.60454 -20.60409 -15.80785
 Alpha  occ. eigenvalues --  -11.34930 -11.33731 -11.30697 -11.30477 -11.30330
 Alpha  occ. eigenvalues --  -11.29419  -1.68516  -1.66212  -1.52271  -1.41475
 Alpha  occ. eigenvalues --   -1.22156  -1.12466  -1.06544  -1.00608  -0.89596
 Alpha  occ. eigenvalues --   -0.86988  -0.82162  -0.77042  -0.76074  -0.74657
 Alpha  occ. eigenvalues --   -0.73198  -0.72882  -0.69851  -0.66796  -0.66564
 Alpha  occ. eigenvalues --   -0.61124  -0.60108  -0.58114  -0.56394  -0.53462
 Alpha  occ. eigenvalues --   -0.51047  -0.50183  -0.46460  -0.40728  -0.39494
 Alpha virt. eigenvalues --    0.00699   0.02500   0.03690   0.04326   0.04940
 Alpha virt. eigenvalues --    0.05924   0.08892   0.08957   0.09573   0.10308
 Alpha virt. eigenvalues --    0.11562   0.12339   0.12684   0.13045   0.13623

 Mulliken charges:
               1
     1  F   -0.398842
     2  O   -1.121969
     3  C    1.539550
     4  C   -0.042091
     5  C    0.040013
     6  C    0.089009
     7  C   -0.085188
     8  H   -0.221663
     9  C    0.711635
    10  H   -0.198375
    11  H   -0.183905
    12  N    2.993718
    13  O   -1.486245
    14  O   -1.469146
    15  H   -0.166500
 Sum of Mulliken charges =  -0.00000

 Dipole moment (field-independent basis, Debye):
    X=             -1.8596    Y=              3.4190    Z=             -0.4218  Tot=              3.9148

 Test job not archived.
 1\1\GINC-SE029\SP\RHF\Aug-CC-pVDZ\C6H4F1N1O3\OHZDE\08-Apr-2025\0\\#t h
 f aug-cc-pvdz iop(5/13=1,5/36=2,99/5=2) pseudo=read geom=check guess=(
 read,tcheck) scf=(maxcycle=1)\\title\\0,1\F,0,-3.363306,-0.814992,0.66
 2004\O,0,-2.455663,-0.940269,-0.505263\C,0,-1.389878,-0.122252,-0.2494
 76\C,0,-0.136345,-0.717743,-0.151001\C,0,0.965758,0.118947,-0.025379\C
 ,0,0.844,1.500484,0.055229\C,0,-1.548812,1.265825,-0.174187\H,0,-2.544
 51,1.685416,-0.238965\C,0,-0.428393,2.069511,-0.011215\H,0,-0.537657,3
 .145055,0.051169\H,0,1.733869,2.103856,0.166765\N,0,2.316205,-0.490731

 Normal termination of Gaussian 16 at Tue Apr  8 23:23:21 2025.
