 Gaussian 16, Revision C.01,

 ----------------------------------------------------------------------
 #t hf aug-cc-pvdz symm=none int=(grid=ultrafine) guess=(read,tcheck) s
 table=(opt,rrhf)
 ----------------------------------------------------------------------
 -----
 title
 -----
 Symbolic Z-matrix:
 Charge =  0 Multiplicity = 1

 SCF Done:  E(RHF) =  -515.702910424     A.U. after   14 cycles
 Normal termination of Gaussian 16 at Wed Apr  9 00:35:47 2025.
 Gaussian 16:  ES64L-G16RevC.01  3-Jul-2019

 ----------------------------------------------------------------------
 #t hf aug-cc-pvdz iop(5/13=1,5/36=2,99/5=2) pseudo=read geom=check gue
 ss=(read,tcheck) scf=(maxcycle=1)
 ----------------------------------------------------------------------
 -----
 title
 -----
 Structure from the checkpoint file:  "BDE49_nonexpt_488_mol1.chk"
 Charge =  0 Multiplicity = 1

                         Standard orientation:
 ---------------------------------------------------------------------
 Center     Atomic      Atomic             Coordinates (Angstroms)
 Number     Number       Type             X           Y           Z
 ---------------------------------------------------------------------
      1          1           0       -1.101813    1.956420   -0.000004
      2          1           0       -2.748631    0.652781   -0.000007
      3          5           0       -1.585831    0.879816    0.000020
      4          6           0        1.020807    0.013406   -0.000002
      5          7           0        2.124865    0.357498    0.000011
      6         16           0       -0.576206   -0.599450   -0.000010
 ---------------------------------------------------------------------

 SCF Done:  E(RHF) =  -515.874786286     A.U. after    2 cycles

 The electronic state is 1-A.
 Alpha  occ. eigenvalues --  -94.02271 -15.53509 -11.31450  -8.30534  -7.66531
 Alpha  occ. eigenvalues --   -6.28365  -6.28108  -6.27984  -1.25271  -1.10903
 Alpha  occ. eigenvalues --   -0.78453  -0.67413  -0.61629  -0.57860  -0.56352
 Alpha  occ. eigenvalues --   -0.53324  -0.48387  -0.43902
 Alpha virt. eigenvalues --    0.02284   0.03334   0.04166   0.05056   0.07655
 Alpha virt. eigenvalues --    0.09181   0.09815   0.10517   0.11631   0.12398
 Alpha virt. eigenvalues --    0.12574   0.13525   0.14918   0.16165   0.16393

 Mulliken charges:
               1
     1  H    0.222859
     2  H    0.266692
     3  B   -0.049793
     4  C   -1.472689
     5  N    0.677354
     6  S    0.355576
 Sum of Mulliken charges =  -0.00000

 Dipole moment (field-independent basis, Debye):
    X=             -4.2854    Y=             -0.2967    Z=              0.0000  Tot=              4.2957

 Test job not archived.
 1\1\GINC-SE339\SP\RHF\Aug-CC-pVDZ\C1H2B1N1S1\OHZDE\09-Apr-2025\0\\#t h
 f aug-cc-pvdz iop(5/13=1,5/36=2,99/5=2) pseudo=read geom=check guess=(
 read,tcheck) scf=(maxcycle=1)\\title\\0,1\H,0,-1.101813,1.95642,-0.000
 004\H,0,-2.748631,0.652781,-0.000007\B,0,-1.585831,0.879816,0.00002\C,
 0,1.020807,0.013406,-0.000002\N,0,2.124865,0.357498,0.000011\S,0,-0.57
 6206,-0.59945,-0.00001\\Version=ES64L-G16RevC.01\State=1-A\HF=-515.874
 7863\RMSD=1.302e-02\Dipole=-1.686009,-0.1167464,0.0000063\Quadrupole=-
 3.4548664,1.7582865,1.6965798,-2.0023951,-0.0001083,0.0000478\PG=C01 [

 Normal termination of Gaussian 16 at Wed Apr  9 00:35:49 2025.
