 Gaussian 16, Revision C.01,

 ----------------------------------------------------------------------
 #t hf aug-cc-pvdz symm=none int=(grid=ultrafine) guess=(read,tcheck) s
 table=(opt,rrhf)
 ----------------------------------------------------------------------
 -----
 title
 -----
 Symbolic Z-matrix:
 Charge =  0 Multiplicity = 1

 SCF Done:  E(RHF) =  -847.578450183     A.U. after   12 cycles
 Normal termination of Gaussian 16 at Wed Apr  9 00:13:35 2025.
 Gaussian 16:  ES64L-G16RevC.01  3-Jul-2019

 ----------------------------------------------------------------------
 #t hf aug-cc-pvdz iop(5/13=1,5/36=2,99/5=2) pseudo=read geom=check gue
 ss=(read,tcheck) scf=(maxcycle=1)
 ----------------------------------------------------------------------
 -----
 title
 -----
 Structure from the checkpoint file:  "BDE49_nonexpt_2379_mol1.chk"
 Charge =  0 Multiplicity = 1

                         Standard orientation:
 ---------------------------------------------------------------------
 Center     Atomic      Atomic             Coordinates (Angstroms)
 Number     Number       Type             X           Y           Z
 ---------------------------------------------------------------------
      1         14           0       -0.441684   -1.097202    1.152313
      2         14           0        0.441684    1.097202    1.152313
      3          7           0        0.242244    1.896455   -0.373926
      4          1           0        1.900353    1.092988    1.434718
      5          1           0       -0.190265    1.790846    2.320091
      6          7           0       -0.242244   -1.896455   -0.373926
      7          1           0       -1.900353   -1.092988    1.434718
      8          1           0        0.190265   -1.790846    2.320091
      9          6           0       -0.980657    1.771720   -1.157760
     10          1           0       -1.728096    2.542439   -0.911061
     11          1           0       -1.434721    0.790560   -1.005255
     12          1           0       -0.751757    1.864657   -2.226909
     13          6           0        0.980657   -1.771720   -1.157760
     14          1           0        1.728096   -2.542439   -0.911061
     15          1           0        1.434721   -0.790560   -1.005255
     16          1           0        0.751757   -1.864657   -2.226909
     17          6           0        0.980657    3.121437   -0.658787
     18          1           0        1.923865    3.134648   -0.107900
     19          1           0        0.418242    4.029935   -0.390571
     20          1           0        1.217397    3.181783   -1.728730
     21          6           0       -0.980657   -3.121437   -0.658787
     22          1           0       -1.923865   -3.134648   -0.107900
     23          1           0       -0.418242   -4.029935   -0.390571
     24          1           0       -1.217397   -3.181783   -1.728730
 ---------------------------------------------------------------------

 SCF Done:  E(RHF) =  -847.936309919     A.U. after    2 cycles

 The electronic state is 1-A.
 Alpha  occ. eigenvalues --  -69.52941 -69.52940 -15.47434 -15.47431 -11.25860
 Alpha  occ. eigenvalues --  -11.25858 -11.25758 -11.25755  -6.19816  -6.19808
 Alpha  occ. eigenvalues --   -3.95201  -3.95178  -3.95173  -3.95136  -3.95109
 Alpha  occ. eigenvalues --   -3.95087  -1.19428  -1.19066  -0.95990  -0.95917
 Alpha  occ. eigenvalues --   -0.87509  -0.86989  -0.75712  -0.70911  -0.64110
 Alpha  occ. eigenvalues --   -0.63603  -0.63319  -0.63101  -0.62813  -0.59845
 Alpha  occ. eigenvalues --   -0.55117  -0.54949  -0.53047  -0.52990  -0.51386
 Alpha  occ. eigenvalues --   -0.50957  -0.49085  -0.47023  -0.41348  -0.38444
 Alpha  occ. eigenvalues --   -0.36894
 Alpha virt. eigenvalues --    0.03692   0.03803   0.04465   0.04622   0.05125
 Alpha virt. eigenvalues --    0.05188   0.05344   0.05773   0.06078   0.07381
 Alpha virt. eigenvalues --    0.07543   0.07960   0.08645   0.08771   0.10106

 Mulliken charges:
               1
     1  Si   0.238320
     2  Si   0.238320
     3  N    0.384565
     4  H   -0.012904
     5  H   -0.160373
     6  N    0.384565
     7  H   -0.012904
     8  H   -0.160373
     9  C   -0.519763
    10  H    0.142059
    11  H   -0.051046
    12  H    0.121851
    13  C   -0.519763
    14  H    0.142059
    15  H   -0.051046
    16  H    0.121851
    17  C   -0.458047
    18  H   -0.012960
    19  H    0.205511
    20  H    0.122787
    21  C   -0.458047
    22  H   -0.012960
    23  H    0.205511
    24  H    0.122787
 Sum of Mulliken charges =  -0.00000

 Dipole moment (field-independent basis, Debye):
    X=             -0.0000    Y=              0.0000    Z=             -1.2504  Tot=              1.2504

 Test job not archived.
 1\1\GINC-SE102\SP\RHF\Aug-CC-pVDZ\C4H16N2Si2\OHZDE\09-Apr-2025\0\\#t h
 f aug-cc-pvdz iop(5/13=1,5/36=2,99/5=2) pseudo=read geom=check guess=(
 read,tcheck) scf=(maxcycle=1)\\title\\0,1\Si,0,-0.441684,-1.097202,1.1
 52313\Si,0,0.441684,1.097202,1.152313\N,0,0.242244,1.896455,-0.373926\
 H,0,1.900353,1.092988,1.434718\H,0,-0.190265,1.790846,2.320091\N,0,-0.
 242244,-1.896455,-0.373926\H,0,-1.900353,-1.092988,1.434718\H,0,0.1902
 65,-1.790846,2.320091\C,0,-0.980657,1.77172,-1.15776\H,0,-1.728096,2.5
 42439,-0.911061\H,0,-1.434721,0.79056,-1.005255\H,0,-0.751757,1.864657

 Normal termination of Gaussian 16 at Wed Apr  9 00:13:44 2025.
