 Gaussian 16, Revision C.01,

 ----------------------------------------------------------------------
 #t hf aug-cc-pvdz symm=none int=(grid=ultrafine) guess=(read,tcheck) s
 table=(opt,rrhf)
 ----------------------------------------------------------------------
 -----
 title
 -----
 Symbolic Z-matrix:
 Charge =  0 Multiplicity = 1

 SCF Done:  E(RHF) =  -193.956259070     A.U. after   13 cycles
 Normal termination of Gaussian 16 at Tue Apr  8 23:02:50 2025.
 Gaussian 16:  ES64L-G16RevC.01  3-Jul-2019

 ----------------------------------------------------------------------
 #t hf aug-cc-pvdz iop(5/13=1,5/36=2,99/5=2) pseudo=read geom=check gue
 ss=(read,tcheck) scf=(maxcycle=1)
 ----------------------------------------------------------------------
 -----
 title
 -----
 Structure from the checkpoint file:  "BDE49_expt_31_mol1.chk"
 Charge =  0 Multiplicity = 1

                         Standard orientation:
 ---------------------------------------------------------------------
 Center     Atomic      Atomic             Coordinates (Angstroms)
 Number     Number       Type             X           Y           Z
 ---------------------------------------------------------------------
      1          6           0       -0.389563   -0.000001   -0.399400
      2          6           0        1.049265   -0.000415   -0.122531
      3          6           0        2.227001   -0.000460    0.118814
      4          1           0        3.268569    0.001192    0.327407
      5          6           0       -1.058664    1.274437    0.152623
      6          1           0       -0.963982    1.316842    1.240692
      7          1           0       -2.121987    1.281986   -0.102134
      8          1           0       -0.596298    2.171457   -0.264128
      9          6           0       -1.059388   -1.274022    0.152705
     10          1           0       -0.513226    0.000001   -1.489844
     11          1           0       -0.964727   -1.316412    1.240777
     12          1           0       -0.597537   -2.171330   -0.263992
     13          1           0       -2.122716   -1.280973   -0.102050
 ---------------------------------------------------------------------

 SCF Done:  E(RHF) =  -194.168238064     A.U. after    2 cycles

 The electronic state is 1-A.
 Alpha  occ. eigenvalues --  -11.26509 -11.23826 -11.23353 -11.23345 -11.22838
 Alpha  occ. eigenvalues --   -1.10223  -1.00474  -0.93993  -0.84721  -0.72044
 Alpha  occ. eigenvalues --   -0.66626  -0.62428  -0.58226  -0.55104  -0.53071
 Alpha  occ. eigenvalues --   -0.50645  -0.50476  -0.39193  -0.39101
 Alpha virt. eigenvalues --    0.03636   0.03744   0.04391   0.04405   0.05885
 Alpha virt. eigenvalues --    0.07060   0.07358   0.07593   0.11146   0.11516
 Alpha virt. eigenvalues --    0.12168   0.13352   0.14149   0.15261   0.15676

 Mulliken charges:
               1
     1  C   -1.501101
     2  C    0.527374
     3  C    0.369259
     4  H   -0.452323
     5  C   -0.094725
     6  H    0.215194
     7  H    0.145268
     8  H    0.142383
     9  C   -0.094889
    10  H    0.240658
    11  H    0.215226
    12  H    0.142424
    13  H    0.145250
 Sum of Mulliken charges =  -0.00000

 Dipole moment (field-independent basis, Debye):
    X=             -0.7585    Y=              0.0024    Z=             -0.1197  Tot=              0.7679

 Test job not archived.
 1\1\GINC-SE250\SP\RHF\Aug-CC-pVDZ\C5H8\OHZDE\08-Apr-2025\0\\#t hf aug-
 cc-pvdz iop(5/13=1,5/36=2,99/5=2) pseudo=read geom=check guess=(read,t
 check) scf=(maxcycle=1)\\title\\0,1\C,0,-0.389563,-0.000001,-0.3994\C,
 0,1.049265,-0.000415,-0.122531\C,0,2.227001,-0.00046,0.118814\H,0,3.26
 8569,0.001193,0.327407\C,0,-1.058664,1.274437,0.152623\H,0,-0.963982,1
 .316842,1.240692\H,0,-2.121987,1.281985,-0.102134\H,0,-0.596298,2.1714
 57,-0.264128\C,0,-1.059388,-1.274022,0.152705\H,0,-0.513226,0.000001,-
 1.489844\H,0,-0.964727,-1.316412,1.240777\H,0,-0.597536,-2.17133,-0.26

 Normal termination of Gaussian 16 at Tue Apr  8 23:02:54 2025.
