 Gaussian 16, Revision C.01,

 ----------------------------------------------------------------------
 #t hf aug-cc-pvdz symm=none int=(grid=ultrafine) guess=(read,tcheck) s
 table=(opt,rrhf)
 ----------------------------------------------------------------------
 -----
 title
 -----
 Symbolic Z-matrix:
 Charge =  0 Multiplicity = 1

 SCF Done:  E(RHF) =  -630.593775133     A.U. after   13 cycles
 Normal termination of Gaussian 16 at Tue Apr  8 23:38:36 2025.
 Gaussian 16:  ES64L-G16RevC.01  3-Jul-2019

 ----------------------------------------------------------------------
 #t hf aug-cc-pvdz iop(5/13=1,5/36=2,99/5=2) pseudo=read geom=check gue
 ss=(read,tcheck) scf=(maxcycle=1)
 ----------------------------------------------------------------------
 -----
 title
 -----
 Structure from the checkpoint file:  "BDE49_nonexpt_1530_mol1.chk"
 Charge =  0 Multiplicity = 1

                         Standard orientation:
 ---------------------------------------------------------------------
 Center     Atomic      Atomic             Coordinates (Angstroms)
 Number     Number       Type             X           Y           Z
 ---------------------------------------------------------------------
      1          6           0       -0.260673   -0.155812    0.244015
      2          6           0        0.667871   -1.341099   -0.078553
      3          6           0        2.110264   -1.072773    0.381086
      4          6           0        2.657376    0.239080   -0.198887
      5          6           0        1.731891    1.421843    0.119181
      6          6           0        0.293197    1.152474   -0.347059
      7          7           0       -2.881608    0.721040    0.428970
      8          1           0        0.662764   -1.518213   -1.162340
      9          1           0        0.292299   -2.257837    0.388703
     10          1           0        2.753808   -1.911557    0.095832
     11          1           0        2.133536   -1.020613    1.477258
     12          1           0        2.751581    0.139352   -1.288051
     13          1           0        3.665088    0.430045    0.184383
     14          1           0        2.110654    2.336444   -0.348933
     15          1           0        1.733944    1.602539    1.202028
     16          1           0        0.275393    1.082597   -1.443006
     17          1           0       -0.362216    1.984753   -0.076330
     18         15           0       -1.985771   -0.489973   -0.393676
     19          1           0       -0.316550   -0.046286    1.336045
     20          1           0       -2.202847   -1.644824    0.418067
     21          1           0       -3.004663    0.661248    1.431308
     22          1           0       -3.734528    1.002401   -0.031315
 ---------------------------------------------------------------------

 SCF Done:  E(RHF) =  -630.956316736     A.U. after    2 cycles

 The electronic state is 1-A.
 Alpha  occ. eigenvalues --  -84.27861 -15.48981 -11.23087 -11.22776 -11.22480
 Alpha  occ. eigenvalues --  -11.22240 -11.22214 -11.22121  -6.74563  -4.27465
 Alpha  occ. eigenvalues --   -4.27159  -4.26378  -1.16073  -1.11478  -1.00765
 Alpha  occ. eigenvalues --   -1.00104  -0.85801  -0.83413  -0.78329  -0.75074
 Alpha  occ. eigenvalues --   -0.69730  -0.64631  -0.61048  -0.60803  -0.60330
 Alpha  occ. eigenvalues --   -0.58273  -0.53311  -0.52422  -0.51419  -0.49400
 Alpha  occ. eigenvalues --   -0.48859  -0.45923  -0.45037  -0.43674  -0.39993
 Alpha  occ. eigenvalues --   -0.32456
 Alpha virt. eigenvalues --    0.03159   0.03708   0.03827   0.04198   0.05430
 Alpha virt. eigenvalues --    0.05958   0.06204   0.06451   0.06818   0.08116
 Alpha virt. eigenvalues --    0.08476   0.09102   0.09456   0.09749   0.10803

 Mulliken charges:
               1
     1  C   -0.430861
     2  C   -0.311618
     3  C   -0.225337
     4  C   -0.297336
     5  C   -0.307501
     6  C   -0.327717
     7  N    0.037196
     8  H    0.178425
     9  H    0.066595
    10  H    0.108907
    11  H    0.152827
    12  H    0.151026
    13  H    0.111488
    14  H    0.102957
    15  H    0.151967
    16  H    0.181257
    17  H    0.131780
    18  P    0.153745
    19  H    0.080776
    20  H    0.321000
    21  H   -0.028758
    22  H   -0.000816
 Sum of Mulliken charges =  -0.00000

 Dipole moment (field-independent basis, Debye):
    X=             -0.1586    Y=             -0.0934    Z=              1.1609  Tot=              1.1754

 Test job not archived.
 1\1\GINC-SE108\SP\RHF\Aug-CC-pVDZ\C6H14N1P1\OHZDE\08-Apr-2025\0\\#t hf
  aug-cc-pvdz iop(5/13=1,5/36=2,99/5=2) pseudo=read geom=check guess=(r
 ead,tcheck) scf=(maxcycle=1)\\title\\0,1\C,0,-0.260673,-0.155812,0.244
 015\C,0,0.667871,-1.341099,-0.078553\C,0,2.110264,-1.072773,0.381086\C
 ,0,2.657376,0.23908,-0.198887\C,0,1.731891,1.421843,0.119181\C,0,0.293
 197,1.152474,-0.347059\N,0,-2.881608,0.72104,0.42897\H,0,0.662764,-1.5
 18213,-1.16234\H,0,0.292299,-2.257837,0.388703\H,0,2.753808,-1.911557,
 0.095832\H,0,2.133536,-1.020613,1.477258\H,0,2.751581,0.139352,-1.2880

 Normal termination of Gaussian 16 at Tue Apr  8 23:38:49 2025.
