 Gaussian 16, Revision C.01,

 ----------------------------------------------------------------------
 #t hf aug-cc-pvdz symm=none int=(grid=ultrafine) guess=(read,tcheck) s
 table=(opt,rrhf)
 ----------------------------------------------------------------------
 -----
 title
 -----
 Symbolic Z-matrix:
 Charge =  0 Multiplicity = 1

 SCF Done:  E(RHF) =  -819.554403628     A.U. after   14 cycles
 Normal termination of Gaussian 16 at Tue Apr  8 23:53:22 2025.
 Gaussian 16:  ES64L-G16RevC.01  3-Jul-2019

 ----------------------------------------------------------------------
 #t hf aug-cc-pvdz iop(5/13=1,5/36=2,99/5=2) pseudo=read geom=check gue
 ss=(read,tcheck) scf=(maxcycle=1)
 ----------------------------------------------------------------------
 -----
 title
 -----
 Structure from the checkpoint file:  "BDE49_nonexpt_1936_mol1.chk"
 Charge =  0 Multiplicity = 1

                         Standard orientation:
 ---------------------------------------------------------------------
 Center     Atomic      Atomic             Coordinates (Angstroms)
 Number     Number       Type             X           Y           Z
 ---------------------------------------------------------------------
      1         14           0        2.353736   -0.536722    0.005285
      2          6           0        1.217242    0.991880   -0.148669
      3          1           0        3.712577   -0.135415   -0.426347
      4          1           0        1.840273   -1.615543   -0.864871
      5          1           0        2.379677   -0.987575    1.412467
      6          7           0       -0.124534    0.703510    0.246099
      7          6           0       -1.206934    0.247288    0.082334
      8         16           0       -2.682020   -0.328886   -0.051428
      9          1           0        1.227825    1.361670   -1.180719
     10          1           0        1.609559    1.793560    0.483653
 ---------------------------------------------------------------------

 SCF Done:  E(RHF) =  -819.778913671     A.U. after    2 cycles

 The electronic state is 1-A.
 Alpha  occ. eigenvalues --  -93.93769 -69.55226 -15.55574 -11.37966 -11.30830
 Alpha  occ. eigenvalues --   -8.22032  -6.22325  -6.19939  -6.19500  -6.19476
 Alpha  occ. eigenvalues --   -3.97697  -3.97685  -3.97670  -1.30195  -1.07900
 Alpha  occ. eigenvalues --   -1.02307  -0.79029  -0.73501  -0.67594  -0.62662
 Alpha  occ. eigenvalues --   -0.60393  -0.55624  -0.51044  -0.50325  -0.49187
 Alpha  occ. eigenvalues --   -0.37557  -0.36426
 Alpha virt. eigenvalues --    0.02783   0.03577   0.04025   0.05445   0.07173
 Alpha virt. eigenvalues --    0.07291   0.07880   0.08514   0.09154   0.09884
 Alpha virt. eigenvalues --    0.09966   0.11573   0.13364   0.13923   0.14293

 Mulliken charges:
               1
     1  Si   1.095991
     2  C   -0.644598
     3  H   -0.203420
     4  H   -0.174322
     5  H   -0.165276
     6  N    0.776836
     7  C   -1.092139
     8  S    0.248383
     9  H    0.085907
    10  H    0.072638
 Sum of Mulliken charges =  -0.00000

 Dipole moment (field-independent basis, Debye):
    X=              3.4060    Y=              0.9001    Z=             -0.5662  Tot=              3.5682

 Test job not archived.
 1\1\GINC-SE453\SP\RHF\Aug-CC-pVDZ\C2H5N1S1Si1\OHZDE\08-Apr-2025\0\\#t
 hf aug-cc-pvdz iop(5/13=1,5/36=2,99/5=2) pseudo=read geom=check guess=
 (read,tcheck) scf=(maxcycle=1)\\title\\0,1\Si,0,2.353736,-0.536722,0.0
 05285\C,0,1.217242,0.99188,-0.148669\H,0,3.712577,-0.135415,-0.426347\
 H,0,1.840273,-1.615543,-0.864871\H,0,2.379677,-0.987575,1.412467\N,0,-
 0.124534,0.70351,0.246099\C,0,-1.206934,0.247288,0.082334\S,0,-2.68202
 ,-0.328886,-0.051428\H,0,1.227825,1.36167,-1.180719\H,0,1.609559,1.793
 56,0.483653\\Version=ES64L-G16RevC.01\State=1-A\HF=-819.7789137\RMSD=1

 Normal termination of Gaussian 16 at Tue Apr  8 23:53:25 2025.
