 Gaussian 16, Revision C.01,

 ----------------------------------------------------------------------
 #t hf aug-cc-pvdz symm=none int=(grid=ultrafine) guess=(read,tcheck) s
 table=(opt,rrhf)
 ----------------------------------------------------------------------
 -----
 title
 -----
 Symbolic Z-matrix:
 Charge =  0 Multiplicity = 1

 SCF Done:  E(RHF) =  -268.781199905     A.U. after   17 cycles
 Normal termination of Gaussian 16 at Tue Apr  8 23:19:51 2025.
 Gaussian 16:  ES64L-G16RevC.01  3-Jul-2019

 ----------------------------------------------------------------------
 #t hf aug-cc-pvdz iop(5/13=1,5/36=2,99/5=2) pseudo=read geom=check gue
 ss=(read,tcheck) scf=(maxcycle=1)
 ----------------------------------------------------------------------
 -----
 title
 -----
 Structure from the checkpoint file:  "BDE49_nonexpt_1103_mol1.chk"
 Charge =  0 Multiplicity = 1

                         Standard orientation:
 ---------------------------------------------------------------------
 Center     Atomic      Atomic             Coordinates (Angstroms)
 Number     Number       Type             X           Y           Z
 ---------------------------------------------------------------------
      1          9           0       -1.538762    0.568676    0.112837
      2          7           0        0.554542   -0.581229    0.260456
      3          8           0       -0.531526   -0.700371   -0.359246
      4          6           0        1.451054    0.512367   -0.103676
      5          1           0        0.519995   -0.846825    1.246527
      6          1           0        1.014307    1.459076    0.223862
      7          1           0        1.560832    0.517102   -1.187101
      8          1           0        2.417810    0.349928    0.374008
 ---------------------------------------------------------------------

 SCF Done:  E(RHF) =  -269.047328421     A.U. after    2 cycles

 The electronic state is 1-A.
 Alpha  occ. eigenvalues --  -26.38114 -20.73368 -15.64034 -11.30315  -1.62909
 Alpha  occ. eigenvalues --   -1.40973  -1.16404  -0.96648  -0.81306  -0.74377
 Alpha  occ. eigenvalues --   -0.71216  -0.60806  -0.59370  -0.57409  -0.52010
 Alpha  occ. eigenvalues --   -0.50053  -0.43427
 Alpha virt. eigenvalues --    0.02556   0.04535   0.05131   0.05661   0.07098
 Alpha virt. eigenvalues --    0.09826   0.12919   0.13759   0.14598   0.15209
 Alpha virt. eigenvalues --    0.17444   0.17714   0.22503   0.23554   0.25673

 Mulliken charges:
               1
     1  F   -0.475828
     2  N    0.945314
     3  O   -0.679290
     4  C   -0.380016
     5  H    0.159177
     6  H    0.204085
     7  H    0.122810
     8  H    0.103749
 Sum of Mulliken charges =  -0.00000

 Dipole moment (field-independent basis, Debye):
    X=              4.4659    Y=             -0.7141    Z=              0.9852  Tot=              4.6287

 Test job not archived.
 1\1\GINC-SE102\SP\RHF\Aug-CC-pVDZ\C1H4F1N1O1\OHZDE\08-Apr-2025\0\\#t h
 f aug-cc-pvdz iop(5/13=1,5/36=2,99/5=2) pseudo=read geom=check guess=(
 read,tcheck) scf=(maxcycle=1)\\title\\0,1\F,0,-1.538762,0.568677,0.112
 837\N,0,0.554542,-0.581229,0.260456\O,0,-0.531526,-0.700371,-0.359246\
 C,0,1.451054,0.512367,-0.103676\H,0,0.519995,-0.846825,1.246527\H,0,1.
 014307,1.459076,0.223862\H,0,1.560832,0.517102,-1.187101\H,0,2.41781,0
 .349927,0.374008\\Version=ES64L-G16RevC.01\State=1-A\HF=-269.0473284\R
 MSD=1.077e-02\Dipole=1.7570357,-0.2809594,0.3876017\Quadrupole=-1.6056

 Normal termination of Gaussian 16 at Tue Apr  8 23:19:53 2025.
