 Gaussian 16, Revision C.01,

 ----------------------------------------------------------------------
 #t hf aug-cc-pvdz symm=none int=(grid=ultrafine) guess=(read,tcheck) s
 table=(opt,rrhf)
 ----------------------------------------------------------------------
 -----
 title
 -----
 Symbolic Z-matrix:
 Charge =  0 Multiplicity = 1

 SCF Done:  E(RHF) =  -441.920262835     A.U. after   15 cycles
 Normal termination of Gaussian 16 at Tue Apr  8 23:11:59 2025.
 Gaussian 16:  ES64L-G16RevC.01  3-Jul-2019

 ----------------------------------------------------------------------
 #t hf aug-cc-pvdz iop(5/13=1,5/36=2,99/5=2) pseudo=read geom=check gue
 ss=(read,tcheck) scf=(maxcycle=1)
 ----------------------------------------------------------------------
 -----
 title
 -----
 Structure from the checkpoint file:  "BDE49_expt_468_mol1.chk"
 Charge =  0 Multiplicity = 1

                         Standard orientation:
 ---------------------------------------------------------------------
 Center     Atomic      Atomic             Coordinates (Angstroms)
 Number     Number       Type             X           Y           Z
 ---------------------------------------------------------------------
      1          6           0       -0.384483    1.212624   -0.002849
      2          6           0       -1.777215    1.206209   -0.005732
      3          6           0       -2.490337    0.002806   -0.006554
      4          6           0        0.363493    0.031073   -0.001323
      5          6           0       -0.365849   -1.167551   -0.003044
      6          6           0       -1.753445   -1.190725   -0.006493
      7          1           0        0.114862    2.173012   -0.000667
      8          1           0       -2.316979    2.148444   -0.011641
      9          7           0       -3.886621   -0.013425   -0.071956
     10          1           0       -4.337658    0.819058    0.278842
     11          1           0       -4.319129   -0.850791    0.290365
     12          1           0       -2.276197   -2.142494   -0.013655
     13          1           0        0.157958   -2.117263   -0.001127
     14          6           0        1.901720    0.003296    0.002490
     15          6           0        2.509627    1.417907    0.002263
     16          1           0        2.215815    1.985643   -0.884861
     17          1           0        3.600978    1.349595    0.004180
     18          1           0        2.212920    1.987365    0.887370
     19          6           0        2.410870   -0.737048   -1.256285
     20          1           0        2.075857   -0.231677   -2.166127
     21          1           0        2.047532   -1.766689   -1.294417
     22          1           0        3.505166   -0.768663   -1.266060
     23          6           0        2.405231   -0.734361    1.265097
     24          1           0        2.041306   -1.763793    1.303935
     25          1           0        2.066794   -0.226661    2.172461
     26          1           0        3.499454   -0.766497    1.279682
 ---------------------------------------------------------------------

 SCF Done:  E(RHF) =  -442.390742631     A.U. after    2 cycles

 The electronic state is 1-A.
 Alpha  occ. eigenvalues --  -15.50560 -11.27675 -11.24449 -11.23538 -11.23442
 Alpha  occ. eigenvalues --  -11.22850 -11.22713 -11.22659 -11.21945 -11.21856
 Alpha  occ. eigenvalues --  -11.21818  -1.21992  -1.14010  -1.08336  -1.01005
 Alpha  occ. eigenvalues --   -0.97742  -0.93046  -0.92812  -0.83631  -0.83583
 Alpha  occ. eigenvalues --   -0.75563  -0.72275  -0.71440  -0.65264  -0.62447
 Alpha  occ. eigenvalues --   -0.62042  -0.60366  -0.59222  -0.58250  -0.56821
 Alpha  occ. eigenvalues --   -0.55262  -0.54112  -0.53144  -0.51696  -0.50288
 Alpha  occ. eigenvalues --   -0.48070  -0.46818  -0.45797  -0.45326  -0.34119
 Alpha  occ. eigenvalues --   -0.30101
 Alpha virt. eigenvalues --    0.02845   0.03518   0.03914   0.04255   0.04555
 Alpha virt. eigenvalues --    0.04899   0.06134   0.06627   0.07080   0.07155
 Alpha virt. eigenvalues --    0.07805   0.09778   0.09848   0.10064   0.10774

 Mulliken charges:
               1
     1  C    0.402058
     2  C    0.385303
     3  C   -1.812845
     4  C    2.249925
     5  C    0.279732
     6  C    0.423620
     7  H   -0.502407
     8  H   -0.304438
     9  N    0.803068
    10  H    0.015656
    11  H    0.018821
    12  H   -0.316996
    13  H   -0.426292
    14  C   -2.867490
    15  C    0.159951
    16  H    0.254278
    17  H    0.069000
    18  H    0.255399
    19  C   -0.035360
    20  H    0.176542
    21  H    0.158574
    22  H    0.164493
    23  C   -0.049661
    24  H    0.157537
    25  H    0.174115
    26  H    0.167414
 Sum of Mulliken charges =   0.00000

 Dipole moment (field-independent basis, Debye):
    X=             -0.5337    Y=             -0.0159    Z=              1.0396  Tot=              1.1687

 Test job not archived.
 1\1\GINC-SE094\SP\RHF\Aug-CC-pVDZ\C10H15N1\OHZDE\08-Apr-2025\0\\#t hf
 aug-cc-pvdz iop(5/13=1,5/36=2,99/5=2) pseudo=read geom=check guess=(re
 ad,tcheck) scf=(maxcycle=1)\\title\\0,1\C,0,-0.384483,1.212624,-0.0028
 49\C,0,-1.777215,1.206209,-0.005732\C,0,-2.490337,0.002806,-0.006554\C
 ,0,0.363493,0.031073,-0.001323\C,0,-0.365849,-1.167551,-0.003044\C,0,-
 1.753445,-1.190725,-0.006493\H,0,0.114862,2.173012,-0.000667\H,0,-2.31
 6979,2.148444,-0.011641\N,0,-3.886621,-0.013425,-0.071956\H,0,-4.33765
 8,0.819058,0.278842\H,0,-4.319129,-0.850791,0.290365\H,0,-2.276197,-2.

 Normal termination of Gaussian 16 at Tue Apr  8 23:12:20 2025.
