 Gaussian 16, Revision C.01,

 ----------------------------------------------------------------------
 #t hf aug-cc-pvdz symm=none int=(grid=ultrafine) guess=(read,tcheck) s
 table=(opt,rrhf)
 ----------------------------------------------------------------------
 -----
 title
 -----
 Symbolic Z-matrix:
 Charge =  0 Multiplicity = 1

 SCF Done:  E(RHF) =  -760.171221396     A.U. after   17 cycles
 Normal termination of Gaussian 16 at Wed Apr  9 00:42:31 2025.
 Gaussian 16:  ES64L-G16RevC.01  3-Jul-2019

 ----------------------------------------------------------------------
 #t hf aug-cc-pvdz iop(5/13=1,5/36=2,99/5=2) pseudo=read geom=check gue
 ss=(read,tcheck) scf=(maxcycle=1)
 ----------------------------------------------------------------------
 -----
 title
 -----
 Structure from the checkpoint file:  "BDE49_nonexpt_705_mol1.chk"
 Charge =  0 Multiplicity = 1

                         Standard orientation:
 ---------------------------------------------------------------------
 Center     Atomic      Atomic             Coordinates (Angstroms)
 Number     Number       Type             X           Y           Z
 ---------------------------------------------------------------------
      1         15           0       -0.095689    0.624381    0.737490
      2          5           0        1.444559   -0.338638   -0.011058
      3          7           0       -1.423534   -0.436292   -0.010744
      4          8           0        2.549795    0.429844   -0.193609
      5          8           0        1.436833   -1.665684   -0.239915
      6          8           0       -1.295892   -1.660609    0.122698
      7          8           0       -2.392857    0.097878   -0.514516
      8          6           0       -0.228247    2.109371   -0.349251
      9          1           0       -1.049231    2.743687   -0.017522
     10          1           0       -0.365915    1.851778   -1.399138
     11          1           0        0.713005    2.653691   -0.234790
     12          1           0        3.310615   -0.083659   -0.492446
     13          1           0        0.555248   -2.051637   -0.089718
 ---------------------------------------------------------------------

 SCF Done:  E(RHF) =  -760.624055714     A.U. after    2 cycles

 The electronic state is 1-A.
 Alpha  occ. eigenvalues --  -84.32906 -20.60601 -20.59464 -20.58707 -20.57443
 Alpha  occ. eigenvalues --  -15.77955 -11.27043  -7.68283  -6.79945  -4.32759
 Alpha  occ. eigenvalues --   -4.32213  -4.31526  -1.67070  -1.51259  -1.50430
 Alpha  occ. eigenvalues --   -1.46647  -1.06227  -0.97894  -0.84951  -0.80724
 Alpha  occ. eigenvalues --   -0.76178  -0.75034  -0.73796  -0.70214  -0.63246
 Alpha  occ. eigenvalues --   -0.60927  -0.59983  -0.59419  -0.58879  -0.51571
 Alpha  occ. eigenvalues --   -0.50487  -0.47947  -0.46286  -0.45906  -0.37117
 Alpha virt. eigenvalues --    0.03042   0.03780   0.04415   0.05059   0.05602
 Alpha virt. eigenvalues --    0.06340   0.06968   0.07211   0.08526   0.09075
 Alpha virt. eigenvalues --    0.09846   0.10512   0.11966   0.13742   0.14607

 Mulliken charges:
               1
     1  P    0.240441
     2  B    2.005153
     3  N    2.011378
     4  O   -1.186436
     5  O   -1.335437
     6  O   -1.326087
     7  O   -1.206883
     8  C   -0.831446
     9  H    0.129504
    10  H    0.098877
    11  H    0.146405
    12  H    0.534012
    13  H    0.720521
 Sum of Mulliken charges =  -0.00000

 Dipole moment (field-independent basis, Debye):
    X=              2.9728    Y=              2.2744    Z=              0.1373  Tot=              3.7456

 Test job not archived.
 1\1\GINC-SE166\SP\RHF\Aug-CC-pVDZ\C1H5B1N1O4P1\OHZDE\09-Apr-2025\0\\#t
  hf aug-cc-pvdz iop(5/13=1,5/36=2,99/5=2) pseudo=read geom=check guess
 =(read,tcheck) scf=(maxcycle=1)\\title\\0,1\P,0,-0.095689,0.624381,0.7
 3749\B,0,1.444559,-0.338638,-0.011058\N,0,-1.423534,-0.436292,-0.01074
 4\O,0,2.549795,0.429843,-0.193609\O,0,1.436833,-1.665684,-0.239915\O,0
 ,-1.295892,-1.660609,0.122698\O,0,-2.392857,0.097879,-0.514516\C,0,-0.
 228247,2.109371,-0.349251\H,0,-1.04923,2.743687,-0.017522\H,0,-0.36591
 5,1.851778,-1.399138\H,0,0.713006,2.653691,-0.23479\H,0,3.310615,-0.08

 Normal termination of Gaussian 16 at Wed Apr  9 00:42:37 2025.
