 Gaussian 16, Revision C.01,

 ----------------------------------------------------------------------
 #t hf aug-cc-pvdz symm=none int=(grid=ultrafine) guess=(read,tcheck) s
 table=(opt,rrhf)
 ----------------------------------------------------------------------
 -----
 title
 -----
 Symbolic Z-matrix:
 Charge =  0 Multiplicity = 1

 SCF Done:  E(RHF) =  -1129.83466899     A.U. after   17 cycles
 Normal termination of Gaussian 16 at Tue Apr  8 23:28:51 2025.
 Gaussian 16:  ES64L-G16RevC.01  3-Jul-2019

 ----------------------------------------------------------------------
 #t hf aug-cc-pvdz iop(5/13=1,5/36=2,99/5=2) pseudo=read geom=check gue
 ss=(read,tcheck) scf=(maxcycle=1)
 ----------------------------------------------------------------------
 -----
 title
 -----
 Structure from the checkpoint file:  "BDE49_nonexpt_1332_mol1.chk"
 Charge =  0 Multiplicity = 1

                         Standard orientation:
 ---------------------------------------------------------------------
 Center     Atomic      Atomic             Coordinates (Angstroms)
 Number     Number       Type             X           Y           Z
 ---------------------------------------------------------------------
      1          7           0       -2.392194   -0.353915   -0.079339
      2         15           0       -1.326327    1.159252   -0.410517
      3          6           0        0.006804    0.756098    0.792142
      4         15           0        0.926957   -0.815011    0.392654
      5          1           0       -0.365824    0.686243    1.814283
      6          1           0        0.753663    1.557406    0.743587
      7          7           0        2.568307   -0.019995   -0.147027
      8          8           0        2.865134    1.110865    0.206435
      9          8           0        3.278896   -0.772193   -0.791057
     10          8           0       -1.831325   -1.373510    0.313557
     11          8           0       -3.573091   -0.255018   -0.343361
     12          1           0       -2.149579    1.955366    0.419959
     13          1           0        0.561759   -0.963002   -0.962760
 ---------------------------------------------------------------------

 SCF Done:  E(RHF) =  -1130.34713500     A.U. after    2 cycles

 The electronic state is 1-A.
 Alpha  occ. eigenvalues --  -84.38020 -84.37086 -20.62308 -20.61934 -20.60172
 Alpha  occ. eigenvalues --  -20.60077 -15.79922 -15.77843 -11.30707  -6.84734
 Alpha  occ. eigenvalues --   -6.83644  -4.37312  -4.37035  -4.36294  -4.36223
 Alpha  occ. eigenvalues --   -4.35793  -4.35159  -1.69354  -1.67396  -1.53519
 Alpha  occ. eigenvalues --   -1.51578  -1.10622  -1.04392  -0.98679  -0.87360
 Alpha  occ. eigenvalues --   -0.85075  -0.77258  -0.77217  -0.75981  -0.75277
 Alpha  occ. eigenvalues --   -0.74488  -0.73072  -0.64960  -0.58847  -0.55004
 Alpha  occ. eigenvalues --   -0.52052  -0.49696  -0.49418  -0.48036  -0.47017
 Alpha  occ. eigenvalues --   -0.46100  -0.42282  -0.40465
 Alpha virt. eigenvalues --    0.02543   0.02887   0.03928   0.04415   0.05078
 Alpha virt. eigenvalues --    0.05703   0.07096   0.07370   0.07681   0.08551
 Alpha virt. eigenvalues --    0.10330   0.10978   0.11861   0.12366   0.13059

 Mulliken charges:
               1
     1  N    1.810345
     2  P    0.519396
     3  C   -0.996767
     4  P    0.645273
     5  H    0.106817
     6  H    0.203857
     7  N    1.871869
     8  O   -1.213547
     9  O   -1.268429
    10  O   -1.145517
    11  O   -1.236571
    12  H    0.408514
    13  H    0.294761
 Sum of Mulliken charges =  -0.00000

 Dipole moment (field-independent basis, Debye):
    X=             -2.0147    Y=              2.5530    Z=              1.3127  Tot=              3.5071

 Test job not archived.
 1\1\GINC-SE072\SP\RHF\Aug-CC-pVDZ\C1H4N2O4P2\OHZDE\08-Apr-2025\0\\#t h
 f aug-cc-pvdz iop(5/13=1,5/36=2,99/5=2) pseudo=read geom=check guess=(
 read,tcheck) scf=(maxcycle=1)\\title\\0,1\N,0,-2.392194,-0.353915,-0.0
 79339\P,0,-1.326327,1.159252,-0.410517\C,0,0.006804,0.756098,0.792142\
 P,0,0.926957,-0.815011,0.392654\H,0,-0.365824,0.686243,1.814283\H,0,0.
 753663,1.557406,0.743587\N,0,2.568307,-0.019995,-0.147027\O,0,2.865134
 ,1.110865,0.206435\O,0,3.278896,-0.772193,-0.791057\O,0,-1.831325,-1.3
 7351,0.313557\O,0,-3.573091,-0.255018,-0.343361\H,0,-2.149579,1.955366

 Normal termination of Gaussian 16 at Tue Apr  8 23:28:57 2025.
