 Gaussian 16, Revision C.01,

 ----------------------------------------------------------------------
 #t hf aug-cc-pvdz symm=none int=(grid=ultrafine) guess=(read,tcheck) s
 table=opt
 ----------------------------------------------------------------------
 -----
 title
 -----
 Symbolic Z-matrix:
 Charge =  0 Multiplicity = 2

 SCF Done:  E(UHF) =  -711.412908618     A.U. after   22 cycles
 Normal termination of Gaussian 16 at Tue Apr  8 23:51:30 2025.
 Gaussian 16:  ES64L-G16RevC.01  3-Jul-2019

 ----------------------------------------------------------------------
 #t hf aug-cc-pvdz iop(5/13=1,5/36=2,99/5=2) pseudo=read geom=check gue
 ss=(read,tcheck) scf=(maxcycle=1)
 ----------------------------------------------------------------------
 -----
 title
 -----
 Structure from the checkpoint file:  "BDE49_nonexpt_188_mol2.chk"
 Charge =  0 Multiplicity = 2

                         Standard orientation:
 ---------------------------------------------------------------------
 Center     Atomic      Atomic             Coordinates (Angstroms)
 Number     Number       Type             X           Y           Z
 ---------------------------------------------------------------------
      1         17           0        2.390142   -0.223379    0.181979
      2          5           0        0.944589    0.039304   -0.704758
      3          6           0       -0.498355    0.324125   -0.192422
      4          8           0       -0.822324    1.456102    0.101630
      5          8           0       -1.324259   -0.736717   -0.182415
      6          6           0       -2.688383   -0.472471    0.216427
      7          1           0       -3.198973   -1.429430    0.145613
      8          1           0       -3.143608    0.259254   -0.452045
      9          1           0       -2.719687   -0.093908    1.238826
 ---------------------------------------------------------------------

 SCF Done:  E(UHF) =  -711.731863577     A.U. after    2 cycles

 The electronic state is 2-A.
 Alpha  occ. eigenvalues -- -105.60128 -20.60534 -20.55452 -11.38976 -11.30766
 Alpha  occ. eigenvalues --  -10.65136  -7.82045  -7.81763  -7.81685  -7.70629
 Alpha  occ. eigenvalues --   -1.55355  -1.46540  -1.11307  -0.99894  -0.85006
 Alpha  occ. eigenvalues --   -0.76346  -0.69181  -0.68303  -0.65952  -0.60000
 Alpha  occ. eigenvalues --   -0.58123  -0.54352  -0.53130  -0.52282  -0.47666
 Alpha  occ. eigenvalues --   -0.46228  -0.36671
 Alpha virt. eigenvalues --    0.03530   0.03895   0.04750   0.05013   0.05801
 Alpha virt. eigenvalues --    0.06930   0.07027   0.07169   0.12368   0.13129
 Alpha virt. eigenvalues --    0.13593   0.14240   0.14697   0.15777   0.16363

  Beta  occ. eigenvalues -- -105.60064 -20.60543 -20.55000 -11.39008 -11.30767
  Beta  occ. eigenvalues --  -10.65062  -7.81985  -7.81720  -7.81478  -7.68617
  Beta  occ. eigenvalues --   -1.55158  -1.45746  -1.10389  -0.99674  -0.83507
  Beta  occ. eigenvalues --   -0.75466  -0.68779  -0.68096  -0.64174  -0.59568
  Beta  occ. eigenvalues --   -0.56112  -0.53922  -0.52353  -0.50846  -0.45916
  Beta  occ. eigenvalues --   -0.44866
  Beta virt. eigenvalues --    0.03133   0.03786   0.04641   0.04869   0.06263
  Beta virt. eigenvalues --    0.06391   0.07019   0.08078   0.08899   0.12648
  Beta virt. eigenvalues --    0.13253   0.13933   0.14849   0.15716   0.16516

 Mulliken charges and spin densities:
               1          2
     1  Cl  -0.197946   0.016487
     2  B    0.123080   0.961636
     3  C    1.598229  -0.093304
     4  O   -1.032118   0.116926
     5  O   -1.116463   0.002566
     6  C    0.301495  -0.003724
     7  H    0.002906   0.000319
     8  H    0.161592   0.000047
     9  H    0.159225  -0.000953
 Sum of Mulliken charges =   0.00000   1.00000

 Dipole moment (field-independent basis, Debye):
    X=             -1.0828    Y=             -1.7308    Z=              0.0411  Tot=              2.0420
                          Isotropic Fermi Contact Couplings
        Atom                 a.u.       MegaHertz       Gauss      10(-4) cm-1
     1  Cl(35)             0.05992      26.27131       9.37426       8.76317
     2  B(11)              0.31942     458.16647     163.48519     152.82788
     3  C(13)              0.02077      23.34675       8.33070       7.78764
     4  O(17)              0.03392     -20.56034      -7.33644      -6.85819
     5  O(17)             -0.00480       2.90756       1.03749       0.96986
     6  C(13)             -0.00038      -0.43264      -0.15438      -0.14431
     7  H(1)               0.00007       0.31805       0.11349       0.10609
     8  H(1)               0.00020       0.88028       0.31411       0.29363

 1\1\GINC-SE393\SP\UHF\Aug-CC-pVDZ\C2H3B1Cl1O2(2)\OHZDE\08-Apr-2025\0\\
 #t hf aug-cc-pvdz iop(5/13=1,5/36=2,99/5=2) pseudo=read geom=check gue
 ss=(read,tcheck) scf=(maxcycle=1)\\title\\0,2\Cl,0,2.390142,-0.223379,
 0.181979\B,0,0.944589,0.039304,-0.704758\C,0,-0.498355,0.324125,-0.192
 422\O,0,-0.822324,1.456102,0.10163\O,0,-1.324259,-0.736717,-0.182415\C
 ,0,-2.688383,-0.472471,0.216427\H,0,-3.198973,-1.42943,0.145613\H,0,-3
 .143608,0.259254,-0.452045\H,0,-2.719687,-0.093908,1.238826\\Version=E
 S64L-G16RevC.01\State=2-A\HF=-711.7318636\S2=0.764121\S2-1=0.\S2A=0.75

 Normal termination of Gaussian 16 at Tue Apr  8 23:51:34 2025.
