 Gaussian 16, Revision C.01,

 ----------------------------------------------------------------------
 #t hf aug-cc-pvdz symm=none int=(grid=ultrafine) guess=(read,tcheck) s
 table=(opt,rrhf)
 ----------------------------------------------------------------------
 -----
 title
 -----
 Symbolic Z-matrix:
 Charge =  0 Multiplicity = 1

 SCF Done:  E(RHF) =  -558.119424745     A.U. after   12 cycles
 Normal termination of Gaussian 16 at Tue Apr  8 23:50:45 2025.
 Gaussian 16:  ES64L-G16RevC.01  3-Jul-2019

 ----------------------------------------------------------------------
 #t hf aug-cc-pvdz iop(5/13=1,5/36=2,99/5=2) pseudo=read geom=check gue
 ss=(read,tcheck) scf=(maxcycle=1)
 ----------------------------------------------------------------------
 -----
 title
 -----
 Structure from the checkpoint file:  "BDE49_nonexpt_1884_mol1.chk"
 Charge =  0 Multiplicity = 1

                         Standard orientation:
 ---------------------------------------------------------------------
 Center     Atomic      Atomic             Coordinates (Angstroms)
 Number     Number       Type             X           Y           Z
 ---------------------------------------------------------------------
      1         14           0       -0.890183   -1.028557    0.186253
      2          6           0        0.918679   -0.828966   -0.323730
      3          8           0       -1.838084    0.193416   -0.373320
      4          1           0       -0.950112   -1.111699    1.667329
      5          1           0       -1.418981   -2.265080   -0.428112
      6          6           0       -1.772937    1.555566    0.041765
      7          1           0       -2.514747    2.114026   -0.531480
      8          1           0       -0.780086    1.976052   -0.140780
      9          1           0       -2.006541    1.653470    1.108411
     10          8           0        1.417139    0.366174    0.271578
     11          6           0        2.781436    0.607693   -0.017712
     12          1           0        3.060700    1.535984    0.482393
     13          1           0        2.949406    0.716652   -1.098634
     14          1           0        3.418847   -0.206524    0.355220
     15          1           0        1.010496   -0.788539   -1.421246
     16          1           0        1.498065   -1.707026    0.011348
 ---------------------------------------------------------------------

 SCF Done:  E(RHF) =  -558.433329220     A.U. after    2 cycles

 The electronic state is 1-A.
 Alpha  occ. eigenvalues --  -69.54653 -20.55117 -20.53018 -11.28498 -11.28272
 Alpha  occ. eigenvalues --  -11.27056  -6.21346  -3.96827  -3.96693  -3.96652
 Alpha  occ. eigenvalues --   -1.46098  -1.43124  -0.97363  -0.93165  -0.88208
 Alpha  occ. eigenvalues --   -0.72965  -0.66744  -0.65224  -0.63964  -0.62217
 Alpha  occ. eigenvalues --   -0.61834  -0.58875  -0.56016  -0.50371  -0.49420
 Alpha  occ. eigenvalues --   -0.47986  -0.44671  -0.42455  -0.41580
 Alpha virt. eigenvalues --    0.03581   0.04086   0.04159   0.04428   0.05998
 Alpha virt. eigenvalues --    0.06349   0.06715   0.07117   0.08606   0.09211
 Alpha virt. eigenvalues --    0.09381   0.10133   0.11463   0.13252   0.14240

 Mulliken charges:
               1
     1  Si   1.850121
     2  C    0.106638
     3  O   -1.654379
     4  H   -0.190776
     5  H   -0.198148
     6  C    0.386720
     7  H   -0.001279
     8  H    0.107873
     9  H    0.129386
    10  O   -1.160176
    11  C    0.214109
    12  H   -0.028168
    13  H    0.168137
    14  H    0.150340
    15  H    0.091272
    16  H    0.028330
 Sum of Mulliken charges =  -0.00000

 Dipole moment (field-independent basis, Debye):
    X=              1.7282    Y=              0.3004    Z=             -0.1890  Tot=              1.7643

 Test job not archived.
 1\1\GINC-SE070\SP\RHF\Aug-CC-pVDZ\C3H10O2Si1\OHZDE\08-Apr-2025\0\\#t h
 f aug-cc-pvdz iop(5/13=1,5/36=2,99/5=2) pseudo=read geom=check guess=(
 read,tcheck) scf=(maxcycle=1)\\title\\0,1\Si,0,-0.890183,-1.028557,0.1
 86253\C,0,0.918679,-0.828966,-0.32373\O,0,-1.838084,0.193416,-0.37332\
 H,0,-0.950112,-1.111699,1.667329\H,0,-1.418981,-2.26508,-0.428112\C,0,
 -1.772937,1.555566,0.041765\H,0,-2.514748,2.114025,-0.53148\H,0,-0.780
 087,1.976052,-0.14078\H,0,-2.006541,1.65347,1.108411\O,0,1.417139,0.36
 6174,0.271578\C,0,2.781436,0.607693,-0.017712\H,0,3.0607,1.535984,0.48

 Normal termination of Gaussian 16 at Tue Apr  8 23:50:50 2025.
