 Gaussian 16, Revision C.01,

 ----------------------------------------------------------------------
 #t hf aug-cc-pvdz symm=none int=(grid=ultrafine) guess=(read,tcheck) s
 table=(opt,rrhf)
 ----------------------------------------------------------------------
 -----
 title
 -----
 Symbolic Z-matrix:
 Charge =  0 Multiplicity = 1

 SCF Done:  E(RHF) =  -698.724053900     A.U. after   16 cycles
 Normal termination of Gaussian 16 at Wed Apr  9 00:49:00 2025.
 Gaussian 16:  ES64L-G16RevC.01  3-Jul-2019

 ----------------------------------------------------------------------
 #t hf aug-cc-pvdz iop(5/13=1,5/36=2,99/5=2) pseudo=read geom=check gue
 ss=(read,tcheck) scf=(maxcycle=1)
 ----------------------------------------------------------------------
 -----
 title
 -----
 Structure from the checkpoint file:  "BDE49_nonexpt_781_mol1.chk"
 Charge =  0 Multiplicity = 1

                         Standard orientation:
 ---------------------------------------------------------------------
 Center     Atomic      Atomic             Coordinates (Angstroms)
 Number     Number       Type             X           Y           Z
 ---------------------------------------------------------------------
      1          6           0       -2.059109   -1.539346    0.103210
      2          6           0       -3.371363   -1.141283    0.186485
      3          6           0       -3.702578    0.233516    0.157402
      4          6           0       -2.715670    1.183196    0.045602
      5          6           0       -1.351498    0.805011   -0.042591
      6          6           0       -1.015929   -0.584146   -0.013110
      7          1           0       -1.802464   -2.593466    0.124908
      8          1           0       -4.159766   -1.880241    0.274701
      9          1           0       -4.741920    0.535002    0.223771
     10          1           0       -2.968824    2.238098    0.023128
     11          6           0        0.350189   -0.961790   -0.102531
     12          6           0        1.363357   -0.028551   -0.215871
     13          6           0       -0.301766    1.754145   -0.158431
     14          6           0        1.007199    1.352421   -0.239428
     15          1           0       -0.552248    2.810016   -0.180815
     16          1           0        1.785525    2.104562   -0.323581
     17          5           0        4.377878    0.284914    1.036870
     18          1           0        0.585087   -2.022200   -0.081483
     19         14           0        3.162301   -0.569305   -0.323001
     20          1           0        4.166151    1.378866    1.462022
     21          1           0        5.370898   -0.261736    1.407086
     22          1           0        3.196734   -2.053338   -0.281545
     23          1           0        3.742226   -0.148892   -1.634958
 ---------------------------------------------------------------------

 SCF Done:  E(RHF) =  -699.175470853     A.U. after    2 cycles

 The electronic state is 1-A.
 Alpha  occ. eigenvalues --  -69.51531 -11.25321 -11.25144 -11.25055 -11.24831
 Alpha  occ. eigenvalues --  -11.24809 -11.24803 -11.24684 -11.24648 -11.24608
 Alpha  occ. eigenvalues --  -11.23424  -7.60818  -6.18779  -3.94136  -3.94127
 Alpha  occ. eigenvalues --   -3.94090  -1.18035  -1.11262  -1.05402  -1.01165
 Alpha  occ. eigenvalues --   -0.98571  -0.86524  -0.84974  -0.82466  -0.76777
 Alpha  occ. eigenvalues --   -0.71709  -0.71050  -0.68919  -0.65304  -0.63530
 Alpha  occ. eigenvalues --   -0.61785  -0.60194  -0.59527  -0.55488  -0.54514
 Alpha  occ. eigenvalues --   -0.52625  -0.50992  -0.49227  -0.48366  -0.46167
 Alpha  occ. eigenvalues --   -0.45581  -0.42161  -0.39557  -0.32945  -0.30106
 Alpha virt. eigenvalues --    0.02611   0.03187   0.03304   0.03469   0.04062
 Alpha virt. eigenvalues --    0.04150   0.05255   0.06031   0.06553   0.06763
 Alpha virt. eigenvalues --    0.07332   0.07620   0.08393   0.08857   0.09254

 Mulliken charges:
               1
     1  C    0.251521
     2  C   -0.365192
     3  C   -0.337618
     4  C    0.220793
     5  C    1.146020
     6  C    1.855914
     7  H   -0.300119
     8  H   -0.244944
     9  H   -0.240163
    10  H   -0.304757
    11  C    0.306149
    12  C   -1.157066
    13  C    0.237133
    14  C    0.035927
    15  H   -0.330335
    16  H   -0.398557
    17  B   -1.015324
    18  H   -0.345432
    19  Si   0.470215
    20  H    0.424845
    21  H    0.349287
    22  H   -0.147868
    23  H   -0.110428
 Sum of Mulliken charges =  -0.00000

 Dipole moment (field-independent basis, Debye):
    X=             -0.6164    Y=              0.2252    Z=              0.4016  Tot=              0.7694

 Test job not archived.
 1\1\GINC-SE339\SP\RHF\Aug-CC-pVDZ\C10H11B1Si1\OHZDE\09-Apr-2025\0\\#t
 hf aug-cc-pvdz iop(5/13=1,5/36=2,99/5=2) pseudo=read geom=check guess=
 (read,tcheck) scf=(maxcycle=1)\\title\\0,1\C,0,-2.059109,-1.539346,0.1
 0321\C,0,-3.371363,-1.141283,0.186485\C,0,-3.702578,0.233516,0.157402\
 C,0,-2.71567,1.183196,0.045602\C,0,-1.351498,0.805011,-0.042591\C,0,-1
 .015929,-0.584146,-0.01311\H,0,-1.802464,-2.593466,0.124908\H,0,-4.159
 766,-1.880241,0.274701\H,0,-4.74192,0.535002,0.223771\H,0,-2.968824,2.
 238098,0.023128\C,0,0.350189,-0.96179,-0.102531\C,0,1.363357,-0.028551

 Normal termination of Gaussian 16 at Wed Apr  9 00:49:18 2025.
