 Gaussian 16, Revision C.01,

 ----------------------------------------------------------------------
 #t hf aug-cc-pvdz symm=none int=(grid=ultrafine) guess=(read,tcheck) s
 table=(opt,rrhf)
 ----------------------------------------------------------------------
 -----
 title
 -----
 Symbolic Z-matrix:
 Charge =  0 Multiplicity = 1

 SCF Done:  E(RHF) =  -423.187158853     A.U. after   12 cycles
 Normal termination of Gaussian 16 at Tue Apr  8 23:51:20 2025.
 Gaussian 16:  ES64L-G16RevC.01  3-Jul-2019

 ----------------------------------------------------------------------
 #t hf aug-cc-pvdz iop(5/13=1,5/36=2,99/5=2) pseudo=read geom=check gue
 ss=(read,tcheck) scf=(maxcycle=1)
 ----------------------------------------------------------------------
 -----
 title
 -----
 Structure from the checkpoint file:  "BDE49_nonexpt_1903_mol1.chk"
 Charge =  0 Multiplicity = 1

                         Standard orientation:
 ---------------------------------------------------------------------
 Center     Atomic      Atomic             Coordinates (Angstroms)
 Number     Number       Type             X           Y           Z
 ---------------------------------------------------------------------
      1         14           0        1.514219   -0.237073    0.011614
      2          6           0       -0.065502    0.795984   -0.217792
      3          6           0       -1.268522    0.160716    0.424081
      4          1           0        1.745087   -0.494374    1.451801
      5          1           0        2.671812    0.505712   -0.538923
      6          7           0       -2.212775   -0.480570   -0.131638
      7          1           0        1.377454   -1.528851   -0.697979
      8          1           0       -2.080536   -0.508004   -1.148317
      9          1           0       -1.313006    0.247199    1.515355
     10          1           0       -0.230006    0.942661   -1.290702
     11          1           0        0.123698    1.778475    0.229889
 ---------------------------------------------------------------------

 SCF Done:  E(RHF) =  -423.362900822     A.U. after    2 cycles

 The electronic state is 1-A.
 Alpha  occ. eigenvalues --  -69.54138 -15.49378 -11.29749 -11.24687  -6.21203
 Alpha  occ. eigenvalues --   -3.96575  -3.96570  -3.96563  -1.21524  -1.00415
 Alpha  occ. eigenvalues --   -0.82351  -0.74185  -0.66999  -0.64623  -0.56640
 Alpha  occ. eigenvalues --   -0.53275  -0.49649  -0.49102  -0.45469  -0.43530
 Alpha virt. eigenvalues --    0.03307   0.03968   0.04003   0.04674   0.06728
 Alpha virt. eigenvalues --    0.07032   0.07632   0.08012   0.08924   0.10553
 Alpha virt. eigenvalues --    0.11358   0.13044   0.13775   0.15020   0.15473

 Mulliken charges:
               1
     1  Si   1.100175
     2  C   -0.622637
     3  C   -0.798226
     4  H   -0.203328
     5  H   -0.180480
     6  N    0.638607
     7  H   -0.178587
     8  H    0.099568
     9  H   -0.055897
    10  H    0.045330
    11  H    0.155474
 Sum of Mulliken charges =   0.00000

 Dipole moment (field-independent basis, Debye):
    X=              2.4163    Y=              1.7384    Z=             -0.5296  Tot=              3.0234

 Test job not archived.
 1\1\GINC-SE455\SP\RHF\Aug-CC-pVDZ\C2H7N1Si1\OHZDE\08-Apr-2025\0\\#t hf
  aug-cc-pvdz iop(5/13=1,5/36=2,99/5=2) pseudo=read geom=check guess=(r
 ead,tcheck) scf=(maxcycle=1)\\title\\0,1\Si,0,1.514219,-0.237073,0.011
 614\C,0,-0.065502,0.795984,-0.217792\C,0,-1.268522,0.160716,0.424081\H
 ,0,1.745087,-0.494374,1.451801\H,0,2.671812,0.505713,-0.538923\N,0,-2.
 212775,-0.48057,-0.131638\H,0,1.377454,-1.528851,-0.697979\H,0,-2.0805
 36,-0.508004,-1.148317\H,0,-1.313006,0.247199,1.515355\H,0,-0.230006,0
 .942661,-1.290702\H,0,0.123698,1.778475,0.229889\\Version=ES64L-G16Rev

 Normal termination of Gaussian 16 at Tue Apr  8 23:51:23 2025.
