 Gaussian 16, Revision C.01,

 ----------------------------------------------------------------------
 #t hf aug-cc-pvdz symm=none int=(grid=ultrafine) guess=(read,tcheck) s
 table=(opt,rrhf)
 ----------------------------------------------------------------------
 -----
 title
 -----
 Symbolic Z-matrix:
 Charge =  0 Multiplicity = 1

 SCF Done:  E(RHF) =  -492.752961639     A.U. after   12 cycles
 Normal termination of Gaussian 16 at Wed Apr  9 00:53:37 2025.
 Gaussian 16:  ES64L-G16RevC.01  3-Jul-2019

 ----------------------------------------------------------------------
 #t hf aug-cc-pvdz iop(5/13=1,5/36=2,99/5=2) pseudo=read geom=check gue
 ss=(read,tcheck) scf=(maxcycle=1)
 ----------------------------------------------------------------------
 -----
 title
 -----
 Structure from the checkpoint file:  "BDE49_nonexpt_995_mol1.chk"
 Charge =  0 Multiplicity = 1

                         Standard orientation:
 ---------------------------------------------------------------------
 Center     Atomic      Atomic             Coordinates (Angstroms)
 Number     Number       Type             X           Y           Z
 ---------------------------------------------------------------------
      1          6           0        1.412267    0.467529    0.000001
      2         16           0       -0.048836   -0.614729   -0.000004
      3          1           0        1.430245    1.090068   -0.894603
      4          1           0        2.282440   -0.193936    0.000020
      5          1           0        1.430212    1.090076    0.894599
      6          7           0       -1.297935    0.579378    0.000005
      7          1           0       -1.874791    0.494318    0.828342
      8          1           0       -1.874796    0.494316   -0.828329
 ---------------------------------------------------------------------

 SCF Done:  E(RHF) =  -492.919641163     A.U. after    2 cycles

 The electronic state is 1-A.
 Alpha  occ. eigenvalues --  -93.96502 -15.51697 -11.25787  -8.24265  -6.22094
 Alpha  occ. eigenvalues --   -6.21897  -6.21678  -1.19633  -1.02028  -0.85624
 Alpha  occ. eigenvalues --   -0.70861  -0.62484  -0.58852  -0.55685  -0.53944
 Alpha  occ. eigenvalues --   -0.41863  -0.35545
 Alpha virt. eigenvalues --    0.03542   0.04524   0.05642   0.06062   0.07078
 Alpha virt. eigenvalues --    0.09095   0.12031   0.12785   0.14020   0.15450
 Alpha virt. eigenvalues --    0.16785   0.17610   0.18966   0.20128   0.21452

 Mulliken charges:
               1
     1  C   -0.722358
     2  S    0.309683
     3  H    0.193151
     4  H    0.201258
     5  H    0.193153
     6  N   -0.317802
     7  H    0.071457
     8  H    0.071458
 Sum of Mulliken charges =  -0.00000

 Dipole moment (field-independent basis, Debye):
    X=             -0.1768    Y=              0.4818    Z=              0.0000  Tot=              0.5132

 Test job not archived.
 1\1\GINC-SE123\SP\RHF\Aug-CC-pVDZ\C1H5N1S1\OHZDE\09-Apr-2025\0\\#t hf
 aug-cc-pvdz iop(5/13=1,5/36=2,99/5=2) pseudo=read geom=check guess=(re
 ad,tcheck) scf=(maxcycle=1)\\title\\0,1\C,0,1.412267,0.467529,0.000001
 \S,0,-0.048836,-0.614729,-0.000004\H,0,1.430245,1.090068,-0.894603\H,0
 ,2.28244,-0.193937,0.00002\H,0,1.430212,1.090076,0.894599\N,0,-1.29793
 5,0.579378,0.000005\H,0,-1.874791,0.494318,0.828342\H,0,-1.874796,0.49
 4316,-0.828329\\Version=ES64L-G16RevC.01\State=1-A\HF=-492.9196412\RMS
 D=7.125e-03\Dipole=-0.0695654,0.1895497,0.0000054\Quadrupole=3.7127154

 Normal termination of Gaussian 16 at Wed Apr  9 00:53:39 2025.
