 Gaussian 16, Revision C.01,

 ----------------------------------------------------------------------
 #t hf aug-cc-pvdz symm=none int=(grid=ultrafine) guess=(read,tcheck) s
 table=(opt,rrhf)
 ----------------------------------------------------------------------
 -----
 title
 -----
 Symbolic Z-matrix:
 Charge =  0 Multiplicity = 1

 SCF Done:  E(RHF) =  -983.552969488     A.U. after   19 cycles
 Normal termination of Gaussian 16 at Tue Apr  8 23:19:19 2025.
 Gaussian 16:  ES64L-G16RevC.01  3-Jul-2019

 ----------------------------------------------------------------------
 #t hf aug-cc-pvdz iop(5/13=1,5/36=2,99/5=2) pseudo=read geom=check gue
 ss=(read,tcheck) scf=(maxcycle=1)
 ----------------------------------------------------------------------
 -----
 title
 -----
 Structure from the checkpoint file:  "BDE49_nonexpt_1003_mol1.chk"
 Charge =  0 Multiplicity = 1

                         Standard orientation:
 ---------------------------------------------------------------------
 Center     Atomic      Atomic             Coordinates (Angstroms)
 Number     Number       Type             X           Y           Z
 ---------------------------------------------------------------------
      1          6           0        2.807224    0.166725    0.008832
      2          6           0        2.213343    1.440271    0.004072
      3          6           0        0.839888    1.563470   -0.007423
      4          6           0        1.998838   -0.976397    0.001967
      5          6           0        0.615260   -0.838203   -0.009484
      6          6           0        0.015834    0.422947   -0.014431
      7          1           0        2.860164    2.308845    0.009445
      8          1           0        0.372288    2.540026   -0.011358
      9          1           0        2.432477   -1.966678    0.006176
     10          1           0        0.000597   -1.730307   -0.013026
     11          6           0       -1.451255    0.633880   -0.027621
     12         16           0       -2.467462   -0.908588   -0.068378
     13          7           0       -4.173044    0.029106    0.082642
     14          8           0       -5.097369   -0.671000    0.069016
     15          8           0       -1.977089    1.714657   -0.019269
     16          8           0        4.160517    0.151349    0.020139
     17          6           0        4.835999   -1.103080    0.025053
     18          1           0        4.586935   -1.685801    0.917774
     19          1           0        5.897726   -0.865039    0.033654
     20          1           0        4.601245   -1.685108   -0.871990
 ---------------------------------------------------------------------

 SCF Done:  E(RHF) =  -984.182644173     A.U. after    2 cycles

 The electronic state is 1-A.
 Alpha  occ. eigenvalues --  -93.98504 -20.67432 -20.59543 -20.55173 -15.72010
 Alpha  occ. eigenvalues --  -11.38626 -11.33769 -11.31302 -11.28012 -11.27043
 Alpha  occ. eigenvalues --  -11.26224 -11.25925 -11.25328  -8.26549  -6.24276
 Alpha  occ. eigenvalues --   -6.24150  -6.23927  -1.68557  -1.52109  -1.49600
 Alpha  occ. eigenvalues --   -1.18017  -1.08836  -1.05408  -1.04609  -0.98118
 Alpha  occ. eigenvalues --   -0.94272  -0.88062  -0.85742  -0.79415  -0.75031
 Alpha  occ. eigenvalues --   -0.73894  -0.72858  -0.69820  -0.68356  -0.68042
 Alpha  occ. eigenvalues --   -0.67597  -0.65357  -0.62771  -0.61767  -0.59550
 Alpha  occ. eigenvalues --   -0.58670  -0.58238  -0.54719  -0.54529  -0.50837
 Alpha  occ. eigenvalues --   -0.48578  -0.41626  -0.40171  -0.39878  -0.37246
 Alpha  occ. eigenvalues --   -0.34133
 Alpha virt. eigenvalues --    0.02655   0.03327   0.04151   0.04215   0.04614
 Alpha virt. eigenvalues --    0.05461   0.05838   0.06393   0.06737   0.08018
 Alpha virt. eigenvalues --    0.08742   0.09137   0.10004   0.10612   0.10862

 Mulliken charges:
               1
     1  C    1.245983
     2  C    0.674019
     3  C   -0.110020
     4  C   -0.056875
     5  C    0.392589
     6  C    2.016709
     7  H   -0.306060
     8  H   -0.352904
     9  H   -0.409160
    10  H   -0.176380
    11  C   -0.193307
    12  S    0.263864
    13  N    0.752681
    14  O   -0.933964
    15  O   -1.381880
    16  O   -1.845130
    17  C    0.089823
    18  H    0.181884
    19  H   -0.033753
    20  H    0.181880
 Sum of Mulliken charges =   0.00000

 Dipole moment (field-independent basis, Debye):
    X=              4.3597    Y=             -2.9813    Z=              0.0016  Tot=              5.2816

 Test job not archived.
 1\1\GINC-SE009\SP\RHF\Aug-CC-pVDZ\C8H7N1O3S1\OHZDE\08-Apr-2025\0\\#t h
 f aug-cc-pvdz iop(5/13=1,5/36=2,99/5=2) pseudo=read geom=check guess=(
 read,tcheck) scf=(maxcycle=1)\\title\\0,1\C,0,2.807224,0.166725,0.0088
 32\C,0,2.213343,1.440271,0.004072\C,0,0.839888,1.56347,-0.007423\C,0,1
 .998838,-0.976397,0.001967\C,0,0.61526,-0.838203,-0.009484\C,0,0.01583
 4,0.422947,-0.014431\H,0,2.860164,2.308845,0.009445\H,0,0.372288,2.540
 026,-0.011358\H,0,2.432477,-1.966678,0.006176\H,0,0.000597,-1.730307,-
 0.013026\C,0,-1.451255,0.63388,-0.027621\S,0,-2.467462,-0.908588,-0.06

 Normal termination of Gaussian 16 at Tue Apr  8 23:19:34 2025.
