 Gaussian 16, Revision C.01,

 ----------------------------------------------------------------------
 #t hf aug-cc-pvdz symm=none int=(grid=ultrafine) guess=(read,tcheck) s
 table=(opt,rrhf)
 ----------------------------------------------------------------------
 -----
 title
 -----
 Symbolic Z-matrix:
 Charge =  0 Multiplicity = 1

 SCF Done:  E(RHF) =  -311.411408392     A.U. after   13 cycles
 Normal termination of Gaussian 16 at Wed Apr  9 00:37:25 2025.
 Gaussian 16:  ES64L-G16RevC.01  3-Jul-2019

 ----------------------------------------------------------------------
 #t hf aug-cc-pvdz iop(5/13=1,5/36=2,99/5=2) pseudo=read geom=check gue
 ss=(read,tcheck) scf=(maxcycle=1)
 ----------------------------------------------------------------------
 -----
 title
 -----
 Structure from the checkpoint file:  "BDE49_nonexpt_553_mol1.chk"
 Charge =  0 Multiplicity = 1

                         Standard orientation:
 ---------------------------------------------------------------------
 Center     Atomic      Atomic             Coordinates (Angstroms)
 Number     Number       Type             X           Y           Z
 ---------------------------------------------------------------------
      1          6           0        1.301897    0.092950    0.000004
      2          5           0       -1.259447   -0.087198   -0.000008
      3          6           0       -2.425783   -1.151411    0.000003
      4          1           0       -3.073951   -0.997549   -0.871568
      5          1           0       -3.073945   -0.997540    0.871576
      6          1           0       -2.108107   -2.199330    0.000007
      7          8           0        1.377737    1.300035   -0.000003
      8          6           0        2.530735   -0.803311    0.000002
      9          6           0       -1.560184    1.454056   -0.000001
     10          1           0       -1.101822    1.944328   -0.865198
     11          1           0       -1.101816    1.944322    0.865197
     12          1           0       -2.631634    1.671532    0.000003
     13          1           0        2.537993   -1.448832   -0.883509
     14          1           0        2.537994   -1.448835    0.883510
     15          1           0        3.422710   -0.180904    0.000003
     16          7           0        0.085194   -0.599868   -0.000001
     17          1           0        0.191571   -1.606111    0.000001
 ---------------------------------------------------------------------

 SCF Done:  E(RHF) =  -311.739790280     A.U. after    2 cycles

 The electronic state is 1-A.
 Alpha  occ. eigenvalues --  -20.52003 -15.51473 -11.36600 -11.25254 -11.20658
 Alpha  occ. eigenvalues --  -11.18899  -7.59321  -1.46872  -1.21745  -1.01513
 Alpha  occ. eigenvalues --   -0.96740  -0.92468  -0.82349  -0.74646  -0.68980
 Alpha  occ. eigenvalues --   -0.63005  -0.60777  -0.58876  -0.57834  -0.56873
 Alpha  occ. eigenvalues --   -0.53780  -0.53346  -0.52031  -0.51780  -0.46453
 Alpha  occ. eigenvalues --   -0.44776  -0.42201
 Alpha virt. eigenvalues --    0.02682   0.04068   0.04239   0.04528   0.05444
 Alpha virt. eigenvalues --    0.05452   0.05917   0.07072   0.08126   0.08948
 Alpha virt. eigenvalues --    0.09661   0.10063   0.10251   0.11026   0.12891

 Mulliken charges:
               1
     1  C    0.677501
     2  B    0.652859
     3  C   -0.395145
     4  H    0.106400
     5  H    0.106393
     6  H   -0.074438
     7  O   -1.218617
     8  C   -0.678331
     9  C   -0.472106
    10  H    0.156887
    11  H    0.156885
    12  H   -0.123909
    13  H    0.239004
    14  H    0.239001
    15  H    0.120879
    16  N    0.473683
    17  H    0.033054
 Sum of Mulliken charges =  -0.00000

 Dipole moment (field-independent basis, Debye):
    X=              0.0810    Y=             -3.4213    Z=              0.0000  Tot=              3.4223

 Test job not archived.
 1\1\GINC-SE073\SP\RHF\Aug-CC-pVDZ\C4H10B1N1O1\OHZDE\09-Apr-2025\0\\#t
 hf aug-cc-pvdz iop(5/13=1,5/36=2,99/5=2) pseudo=read geom=check guess=
 (read,tcheck) scf=(maxcycle=1)\\title\\0,1\C,0,1.301897,0.09295,0.0000
 04\B,0,-1.259447,-0.087198,-0.000008\C,0,-2.425783,-1.151411,0.000003\
 H,0,-3.073951,-0.997549,-0.871568\H,0,-3.073945,-0.99754,0.871576\H,0,
 -2.108107,-2.19933,0.000007\O,0,1.377737,1.300035,-0.000003\C,0,2.5307
 35,-0.803311,0.000002\C,0,-1.560184,1.454056,-0.000001\H,0,-1.101822,1
 .944328,-0.865198\H,0,-1.101816,1.944322,0.865197\H,0,-2.631634,1.6715

 Normal termination of Gaussian 16 at Wed Apr  9 00:37:31 2025.
