 Gaussian 16, Revision C.01,

 ----------------------------------------------------------------------
 #t hf aug-cc-pvdz symm=none int=(grid=ultrafine) guess=(read,tcheck) s
 table=(opt,rrhf)
 ----------------------------------------------------------------------
 -----
 title
 -----
 Symbolic Z-matrix:
 Charge =  0 Multiplicity = 1

 SCF Done:  E(RHF) =  -763.517995429     A.U. after   16 cycles
 Normal termination of Gaussian 16 at Wed Apr  9 00:04:27 2025.
 Gaussian 16:  ES64L-G16RevC.01  3-Jul-2019

 ----------------------------------------------------------------------
 #t hf aug-cc-pvdz iop(5/13=1,5/36=2,99/5=2) pseudo=read geom=check gue
 ss=(read,tcheck) scf=(maxcycle=1)
 ----------------------------------------------------------------------
 -----
 title
 -----
 Structure from the checkpoint file:  "BDE49_nonexpt_2158_mol1.chk"
 Charge =  0 Multiplicity = 1

                         Standard orientation:
 ---------------------------------------------------------------------
 Center     Atomic      Atomic             Coordinates (Angstroms)
 Number     Number       Type             X           Y           Z
 ---------------------------------------------------------------------
      1          6           0       -2.617251   -0.506566    0.244998
      2         14           0       -1.742465    0.978656   -0.607373
      3          8           0       -3.677463   -0.899926   -0.164441
      4          8           0       -2.030012   -1.088895    1.325763
      5          7           0       -0.193349    1.296978    0.117147
      6          6           0        1.003165    0.562952    0.016725
      7          1           0       -0.074816    2.196949    0.561625
      8          1           0       -1.187607   -0.646991    1.503509
      9          6           0        1.030516   -0.706225   -0.580167
     10          6           0        2.197625    1.087104    0.532982
     11          6           0        3.380985    0.362874    0.452589
     12          6           0        3.404019   -0.897140   -0.143234
     13          6           0        2.221644   -1.422364   -0.657513
     14          1           0        2.219002   -2.400705   -1.124620
     15          1           0        0.125358   -1.140247   -0.991036
     16          1           0        2.192970    2.068650    0.997078
     17          1           0        4.291827    0.789176    0.858017
     18          1           0        4.327797   -1.459286   -0.205138
     19          1           0       -2.550020    2.187823   -0.360996
     20          1           0       -1.660982    0.651375   -2.044098
 ---------------------------------------------------------------------

 SCF Done:  E(RHF) =  -764.025462349     A.U. after    2 cycles

 The electronic state is 1-A.
 Alpha  occ. eigenvalues --  -69.57924 -20.60020 -20.54283 -15.52671 -11.37896
 Alpha  occ. eigenvalues --  -11.30885 -11.26089 -11.26071 -11.25297 -11.25213
 Alpha  occ. eigenvalues --  -11.24545  -6.24765  -4.00174  -4.00121  -4.00075
 Alpha  occ. eigenvalues --   -1.53847  -1.45424  -1.24237  -1.14829  -1.03421
 Alpha  occ. eigenvalues --   -1.01228  -0.87528  -0.86051  -0.84162  -0.79987
 Alpha  occ. eigenvalues --   -0.75276  -0.71980  -0.69664  -0.66047  -0.65371
 Alpha  occ. eigenvalues --   -0.63632  -0.62127  -0.61340  -0.60736  -0.58110
 Alpha  occ. eigenvalues --   -0.55194  -0.53801  -0.52277  -0.51638  -0.49058
 Alpha  occ. eigenvalues --   -0.47030  -0.41742  -0.36442  -0.33132
 Alpha virt. eigenvalues --    0.02300   0.03255   0.03571   0.04411   0.04646
 Alpha virt. eigenvalues --    0.05262   0.05695   0.07047   0.07273   0.08315
 Alpha virt. eigenvalues --    0.08908   0.09520   0.10187   0.10538   0.11318

 Mulliken charges:
               1
     1  C    1.421660
     2  Si   0.668907
     3  O   -1.126757
     4  O   -1.174812
     5  N    1.034458
     6  C   -1.515687
     7  H   -0.151425
     8  H    0.496029
     9  C    0.766413
    10  C    0.334124
    11  C    0.433986
    12  C    0.023407
    13  C    0.323656
    14  H   -0.229011
    15  H   -0.419664
    16  H   -0.333237
    17  H   -0.218687
    18  H   -0.220200
    19  H   -0.066457
    20  H   -0.046703
 Sum of Mulliken charges =  -0.00000

 Dipole moment (field-independent basis, Debye):
    X=              4.1003    Y=              2.9603    Z=              0.2383  Tot=              5.0629

 Test job not archived.
 1\1\GINC-SE343\SP\RHF\Aug-CC-pVDZ\C7H9N1O2Si1\OHZDE\09-Apr-2025\0\\#t
 hf aug-cc-pvdz iop(5/13=1,5/36=2,99/5=2) pseudo=read geom=check guess=
 (read,tcheck) scf=(maxcycle=1)\\title\\0,1\C,0,-2.617251,-0.506566,0.2
 44998\Si,0,-1.742465,0.978656,-0.607373\O,0,-3.677463,-0.899926,-0.164
 441\O,0,-2.030012,-1.088895,1.325763\N,0,-0.193349,1.296978,0.117147\C
 ,0,1.003165,0.562952,0.016725\H,0,-0.074816,2.196949,0.561625\H,0,-1.1
 87607,-0.646991,1.503509\C,0,1.030516,-0.706225,-0.580167\C,0,2.197625
 ,1.087104,0.532982\C,0,3.380985,0.362874,0.452589\C,0,3.404019,-0.8971

 Normal termination of Gaussian 16 at Wed Apr  9 00:04:40 2025.
