 Gaussian 16, Revision C.01,

 ----------------------------------------------------------------------
 #t hf aug-cc-pvdz symm=none int=(grid=ultrafine) guess=(read,tcheck) s
 table=(opt,rrhf)
 ----------------------------------------------------------------------
 -----
 title
 -----
 Symbolic Z-matrix:
 Charge =  0 Multiplicity = 1

 SCF Done:  E(RHF) =  -896.416209175     A.U. after   17 cycles
 Normal termination of Gaussian 16 at Tue Apr  8 23:11:54 2025.
 Gaussian 16:  ES64L-G16RevC.01  3-Jul-2019

 ----------------------------------------------------------------------
 #t hf aug-cc-pvdz iop(5/13=1,5/36=2,99/5=2) pseudo=read geom=check gue
 ss=(read,tcheck) scf=(maxcycle=1)
 ----------------------------------------------------------------------
 -----
 title
 -----
 Structure from the checkpoint file:  "BDE49_expt_681_mol1.chk"
 Charge =  0 Multiplicity = 1

                         Standard orientation:
 ---------------------------------------------------------------------
 Center     Atomic      Atomic             Coordinates (Angstroms)
 Number     Number       Type             X           Y           Z
 ---------------------------------------------------------------------
      1          6           0       -1.379422   -1.217500    0.000005
      2          6           0        0.004340   -1.137385    0.000006
      3          6           0       -2.132314   -0.044351    0.000000
      4          6           0       -1.513897    1.197887   -0.000005
      5          6           0       -0.122411    1.264473   -0.000004
      6          6           0        0.662767    0.104517    0.000001
      7          1           0        0.596490   -2.042604    0.000010
      8          1           0       -1.876627   -2.178969    0.000009
      9          1           0       -2.109111    2.101752   -0.000010
     10          1           0        0.343388    2.241340   -0.000008
     11          6           0        2.146691    0.186409    0.000001
     12          7           0        2.771567   -0.935303   -0.000006
     13          8           0        4.162851   -0.797681   -0.000006
     14          1           0        4.456762   -1.713878   -0.000011
     15          6           0        2.826673    1.530118    0.000009
     16          1           0        2.535733    2.107416    0.882185
     17          1           0        2.535750    2.107418   -0.882171
     18          1           0        3.906185    1.411903    0.000019
     19         17           0       -3.885112   -0.141813   -0.000001
 ---------------------------------------------------------------------

 SCF Done:  E(RHF) =  -896.935020390     A.U. after    2 cycles

 The electronic state is 1-A.
 Alpha  occ. eigenvalues -- -105.57555 -20.58998 -15.56284 -11.31695 -11.29949
 Alpha  occ. eigenvalues --  -11.26645 -11.26450 -11.26207 -11.26086 -11.25862
 Alpha  occ. eigenvalues --  -11.24724 -10.62344  -7.79311  -7.78913  -7.78897
 Alpha  occ. eigenvalues --   -1.50585  -1.21028  -1.17881  -1.09886  -1.04178
 Alpha  occ. eigenvalues --   -1.01141  -0.98579  -0.86094  -0.85652  -0.78424
 Alpha  occ. eigenvalues --   -0.72956  -0.70645  -0.68072  -0.65935  -0.63736
 Alpha  occ. eigenvalues --   -0.63076  -0.62016  -0.59946  -0.57293  -0.55888
 Alpha  occ. eigenvalues --   -0.55725  -0.53340  -0.52894  -0.48964  -0.47152
 Alpha  occ. eigenvalues --   -0.46578  -0.42417  -0.36558  -0.33736
 Alpha virt. eigenvalues --    0.03320   0.03580   0.04044   0.04754   0.04874
 Alpha virt. eigenvalues --    0.05810   0.06282   0.07283   0.07955   0.09042
 Alpha virt. eigenvalues --    0.09274   0.10637   0.11133   0.11796   0.12895

 Mulliken charges:
               1
     1  C    0.337989
     2  C    0.174191
     3  C   -0.253921
     4  C    0.160881
     5  C    0.450166
     6  C    1.448913
     7  H   -0.327020
     8  H   -0.207380
     9  H   -0.197550
    10  H   -0.395021
    11  C   -1.948001
    12  N    1.759054
    13  O   -1.237320
    14  H    0.282531
    15  C   -0.444963
    16  H    0.332131
    17  H    0.332132
    18  H    0.072543
    19  Cl  -0.339357
 Sum of Mulliken charges =  -0.00000

 Dipole moment (field-independent basis, Debye):
    X=              1.4025    Y=              1.0752    Z=              0.0000  Tot=              1.7672

 Test job not archived.
 1\1\GINC-SE083\SP\RHF\Aug-CC-pVDZ\C8H8Cl1N1O1\OHZDE\08-Apr-2025\0\\#t
 hf aug-cc-pvdz iop(5/13=1,5/36=2,99/5=2) pseudo=read geom=check guess=
 (read,tcheck) scf=(maxcycle=1)\\title\\0,1\C,0,-1.379422,-1.2175,0.000
 005\C,0,0.00434,-1.137385,0.000006\C,0,-2.132314,-0.044351,0.\C,0,-1.5
 13897,1.197887,-0.000005\C,0,-0.122411,1.264473,-0.000004\C,0,0.662767
 ,0.104517,0.000001\H,0,0.59649,-2.042604,0.00001\H,0,-1.876627,-2.1789
 69,0.000009\H,0,-2.109111,2.101752,-0.00001\H,0,0.343388,2.24134,-0.00
 0008\C,0,2.146691,0.186409,0.000001\N,0,2.771567,-0.935303,-0.000006\O

 Normal termination of Gaussian 16 at Tue Apr  8 23:12:08 2025.
