 Gaussian 16, Revision C.01,

 ----------------------------------------------------------------------
 #t hf aug-cc-pvdz symm=none int=(grid=ultrafine) guess=(read,tcheck) s
 table=opt
 ----------------------------------------------------------------------
 -----
 title
 -----
 Symbolic Z-matrix:
 Charge =  0 Multiplicity = 2

 SCF Done:  E(UHF) =  -625.798581299     A.U. after   17 cycles
 Normal termination of Gaussian 16 at Tue Apr  8 23:05:52 2025.
 Gaussian 16:  ES64L-G16RevC.01  3-Jul-2019

 ----------------------------------------------------------------------
 #t hf aug-cc-pvdz iop(5/13=1,5/36=2,99/5=2) pseudo=read geom=check gue
 ss=(read,tcheck) scf=(maxcycle=1)
 ----------------------------------------------------------------------
 -----
 title
 -----
 Structure from the checkpoint file:  "BDE49_expt_390_mol2.chk"
 Charge =  0 Multiplicity = 2

                         Standard orientation:
 ---------------------------------------------------------------------
 Center     Atomic      Atomic             Coordinates (Angstroms)
 Number     Number       Type             X           Y           Z
 ---------------------------------------------------------------------
      1          6           0        1.139678    1.210477   -0.184294
      2         16           0        0.073557   -0.148385    0.023410
      3          1           0        0.853086    2.187235    0.181316
      4          1           0        2.156895    0.978161   -0.468685
      5          6           0       -1.564149    0.559655   -0.161123
      6          1           0       -2.260502   -0.268019   -0.021251
      7          1           0       -1.664592    0.975762   -1.162645
      8          1           0       -1.720596    1.314115    0.609237
      9          8           0        0.199753   -0.613041    1.394281
     10          8           0        0.300950   -1.066194   -1.074286
 ---------------------------------------------------------------------

 SCF Done:  E(UHF) =  -626.094293915     A.U. after    2 cycles

 The electronic state is 2-A.
 Alpha  occ. eigenvalues --  -94.19722 -20.53578 -20.53560 -11.31222 -11.29352
 Alpha  occ. eigenvalues --   -8.45041  -6.43160  -6.42946  -6.42856  -1.55747
 Alpha  occ. eigenvalues --   -1.43698  -1.10691  -1.02360  -0.83764  -0.71088
 Alpha  occ. eigenvalues --   -0.69571  -0.67307  -0.64207  -0.61494  -0.60501
 Alpha  occ. eigenvalues --   -0.51984  -0.50005  -0.47127  -0.45328  -0.42876
 Alpha virt. eigenvalues --    0.02594   0.03935   0.04538   0.05277   0.06676
 Alpha virt. eigenvalues --    0.09679   0.11232   0.12202   0.12977   0.14335
 Alpha virt. eigenvalues --    0.14718   0.15347   0.16215   0.16445   0.17536

  Beta  occ. eigenvalues --  -94.19799 -20.53492 -20.53291 -11.29364 -11.28710
  Beta  occ. eigenvalues --   -8.45141  -6.43241  -6.43106  -6.42983  -1.55422
  Beta  occ. eigenvalues --   -1.43204  -1.08382  -0.97798  -0.81675  -0.70223
  Beta  occ. eigenvalues --   -0.68862  -0.66417  -0.63489  -0.61034  -0.60069
  Beta  occ. eigenvalues --   -0.49221  -0.48873  -0.45829  -0.44363
  Beta virt. eigenvalues --    0.02525   0.03403   0.04003   0.04860   0.05707
  Beta virt. eigenvalues --    0.06692   0.09717   0.12110   0.12848   0.13517
  Beta virt. eigenvalues --    0.14691   0.15069   0.15578   0.16299   0.16796

 Mulliken charges and spin densities:
               1          2
     1  C   -0.401672   1.258149
     2  S    3.295085  -0.104089
     3  H    0.055198  -0.093194
     4  H    0.096833  -0.085650
     5  C   -0.710194  -0.004810
     6  H    0.257942  -0.000121
     7  H    0.230506   0.000144
     8  H    0.234388  -0.001109
     9  O   -1.501507   0.020413
    10  O   -1.556578   0.010267
 Sum of Mulliken charges =  -0.00000   1.00000

 Dipole moment (field-independent basis, Debye):
    X=             -1.3451    Y=              4.7218    Z=             -0.7868  Tot=              4.9723
                          Isotropic Fermi Contact Couplings
        Atom                 a.u.       MegaHertz       Gauss      10(-4) cm-1
     1  C(13)              0.21825     245.35859      87.55005      81.84282
     2  S(33)             -0.08831     -30.33195     -10.82319     -10.11765
     3  H(1)              -0.02310    -103.27342     -36.85053     -34.44831
     4  H(1)              -0.02376    -106.20579     -37.89687     -35.42644
     5  C(13)             -0.00222      -2.49645      -0.89080      -0.83273
     6  H(1)               0.00054       2.42583       0.86560       0.80917
     7  H(1)               0.00055       2.45837       0.87721       0.82002
     8  H(1)               0.00000       0.01768       0.00631       0.00590

 Normal termination of Gaussian 16 at Tue Apr  8 23:05:56 2025.
