 Gaussian 16, Revision C.01,

 ----------------------------------------------------------------------
 #t hf aug-cc-pvdz symm=none int=(grid=ultrafine) guess=(read,tcheck) s
 table=(opt,rrhf)
 ----------------------------------------------------------------------
 -----
 title
 -----
 Symbolic Z-matrix:
 Charge =  0 Multiplicity = 1

 SCF Done:  E(RHF) =  -729.253150733     A.U. after   13 cycles
 Normal termination of Gaussian 16 at Wed Apr  9 00:11:46 2025.
 Gaussian 16:  ES64L-G16RevC.01  3-Jul-2019

 ----------------------------------------------------------------------
 #t hf aug-cc-pvdz iop(5/13=1,5/36=2,99/5=2) pseudo=read geom=check gue
 ss=(read,tcheck) scf=(maxcycle=1)
 ----------------------------------------------------------------------
 -----
 title
 -----
 Structure from the checkpoint file:  "BDE49_nonexpt_2393_mol1.chk"
 Charge =  0 Multiplicity = 1

                         Standard orientation:
 ---------------------------------------------------------------------
 Center     Atomic      Atomic             Coordinates (Angstroms)
 Number     Number       Type             X           Y           Z
 ---------------------------------------------------------------------
      1         14           0       -1.941492   -0.854301    0.000001
      2         14           0       -0.648176    1.120588    0.000000
      3          1           0       -1.671433   -1.664932   -1.209774
      4          1           0       -3.378342   -0.478867    0.000000
      5          1           0       -1.671434   -1.664931    1.209776
      6          7           0        1.124450    0.782054   -0.000003
      7          1           0       -0.887940    1.959093    1.199326
      8          1           0       -0.887944    1.959095   -1.199323
      9          7           0        1.426006   -0.423672    0.000000
     10          6           0        2.874062   -0.674064    0.000000
     11          1           0        3.104952   -1.280139    0.880844
     12          1           0        3.444979    0.258514   -0.000001
     13          1           0        3.104953   -1.280142   -0.880841
 ---------------------------------------------------------------------

 SCF Done:  E(RHF) =  -729.473392054     A.U. after    2 cycles

 The electronic state is 1-A.
 Alpha  occ. eigenvalues --  -69.54595 -69.52743 -15.57889 -15.54003 -11.26330
 Alpha  occ. eigenvalues --   -6.21623  -6.19926  -3.96967  -3.96908  -3.96896
 Alpha  occ. eigenvalues --   -3.95279  -3.95276  -3.95276  -1.35394  -1.04046
 Alpha  occ. eigenvalues --   -0.86234  -0.77159  -0.72146  -0.66993  -0.63231
 Alpha  occ. eigenvalues --   -0.62965  -0.55101  -0.53890  -0.49403  -0.48800
 Alpha  occ. eigenvalues --   -0.47275  -0.43046  -0.39873
 Alpha virt. eigenvalues --    0.03701   0.04197   0.04784   0.05378   0.05997
 Alpha virt. eigenvalues --    0.06006   0.06025   0.06684   0.07186   0.08147
 Alpha virt. eigenvalues --    0.08703   0.09765   0.10172   0.10888   0.10984

 Mulliken charges:
               1
     1  Si   0.374017
     2  Si   0.744783
     3  H   -0.133481
     4  H   -0.161564
     5  H   -0.133480
     6  N   -0.457956
     7  H   -0.146388
     8  H   -0.146387
     9  N   -0.052536
    10  C   -0.301027
    11  H    0.176423
    12  H    0.061174
    13  H    0.176422
 Sum of Mulliken charges =   0.00000

 Dipole moment (field-independent basis, Debye):
    X=              0.3824    Y=             -0.4604    Z=              0.0000  Tot=              0.5985

 Test job not archived.
 1\1\GINC-SE333\SP\RHF\Aug-CC-pVDZ\C1H8N2Si2\OHZDE\09-Apr-2025\0\\#t hf
  aug-cc-pvdz iop(5/13=1,5/36=2,99/5=2) pseudo=read geom=check guess=(r
 ead,tcheck) scf=(maxcycle=1)\\title\\0,1\Si,0,-1.941492,-0.854301,0.00
 0001\Si,0,-0.648176,1.120588,0.\H,0,-1.671433,-1.664932,-1.209774\H,0,
 -3.378342,-0.478867,0.\H,0,-1.671434,-1.664931,1.209776\N,0,1.12445,0.
 782054,-0.000003\H,0,-0.88794,1.959093,1.199326\H,0,-0.887944,1.959095
 ,-1.199323\N,0,1.426006,-0.423672,0.\C,0,2.874062,-0.674064,0.\H,0,3.1
 04952,-1.280139,0.880844\H,0,3.444979,0.258514,-0.000001\H,0,3.104953,

 Normal termination of Gaussian 16 at Wed Apr  9 00:11:50 2025.
