 Gaussian 16, Revision C.01,

 ----------------------------------------------------------------------
 #t hf aug-cc-pvdz symm=none int=(grid=ultrafine) guess=(read,tcheck) s
 table=(opt,rrhf)
 ----------------------------------------------------------------------
 -----
 title
 -----
 Symbolic Z-matrix:
 Charge =  0 Multiplicity = 1

 SCF Done:  E(RHF) =  -572.854256117     A.U. after   14 cycles
 Normal termination of Gaussian 16 at Tue Apr  8 23:59:40 2025.
 Gaussian 16:  ES64L-G16RevC.01  3-Jul-2019

 ----------------------------------------------------------------------
 #t hf aug-cc-pvdz iop(5/13=1,5/36=2,99/5=2) pseudo=read geom=check gue
 ss=(read,tcheck) scf=(maxcycle=1)
 ----------------------------------------------------------------------
 -----
 title
 -----
 Structure from the checkpoint file:  "BDE49_nonexpt_2100_mol1.chk"
 Charge =  0 Multiplicity = 1

                         Standard orientation:
 ---------------------------------------------------------------------
 Center     Atomic      Atomic             Coordinates (Angstroms)
 Number     Number       Type             X           Y           Z
 ---------------------------------------------------------------------
      1         14           0       -0.080487   -1.031405   -0.005224
      2          7           0        1.260213    0.282151   -0.020714
      3          8           0        0.995755    1.410962   -0.429147
      4          8           0        2.365550   -0.074555    0.375471
      5          6           0       -1.705484   -0.259020   -0.492129
      6          6           0       -2.256809    0.777112    0.504904
      7          1           0       -1.572024    1.621074    0.605199
      8          1           0       -2.407530    0.341501    1.496569
      9          1           0       -3.219881    1.167044    0.166404
     10          1           0       -2.417988   -1.083634   -0.625526
     11          1           0       -1.576058    0.193097   -1.481028
     12          1           0       -0.041080   -1.544820    1.376042
     13          1           0        0.423218   -2.029450   -0.966768
 ---------------------------------------------------------------------

 SCF Done:  E(RHF) =  -573.170512185     A.U. after    2 cycles

 The electronic state is 1-A.
 Alpha  occ. eigenvalues --  -69.59103 -20.58784 -20.58737 -15.75069 -11.25398
 Alpha  occ. eigenvalues --  -11.24941  -6.26007  -4.01414  -4.01261  -4.01247
 Alpha  occ. eigenvalues --   -1.65075  -1.49274  -1.05497  -0.99053  -0.87874
 Alpha  occ. eigenvalues --   -0.81036  -0.73544  -0.72160  -0.69243  -0.63388
 Alpha  occ. eigenvalues --   -0.60726  -0.55666  -0.52712  -0.51659  -0.49636
 Alpha  occ. eigenvalues --   -0.47185  -0.45861  -0.44228
 Alpha virt. eigenvalues --    0.02749   0.03853   0.03938   0.04534   0.05604
 Alpha virt. eigenvalues --    0.05856   0.07172   0.07440   0.07890   0.09362
 Alpha virt. eigenvalues --    0.10228   0.11586   0.12740   0.13600   0.14578

 Mulliken charges:
               1
     1  Si   1.155313
     2  N    1.773826
     3  O   -1.135103
     4  O   -1.251199
     5  C   -0.616130
     6  C   -0.378081
     7  H    0.170342
     8  H    0.134974
     9  H    0.110790
    10  H    0.080902
    11  H    0.208063
    12  H   -0.095193
    13  H   -0.158503
 Sum of Mulliken charges =  -0.00000

 Dipole moment (field-independent basis, Debye):
    X=             -4.0743    Y=             -2.3405    Z=             -0.2124  Tot=              4.7035

 Test job not archived.
 1\1\GINC-SE070\SP\RHF\Aug-CC-pVDZ\C2H7N1O2Si1\OHZDE\08-Apr-2025\0\\#t
 hf aug-cc-pvdz iop(5/13=1,5/36=2,99/5=2) pseudo=read geom=check guess=
 (read,tcheck) scf=(maxcycle=1)\\title\\0,1\Si,0,-0.080487,-1.031405,-0
 .005224\N,0,1.260213,0.282151,-0.020714\O,0,0.995755,1.410962,-0.42914
 7\O,0,2.36555,-0.074555,0.375471\C,0,-1.705484,-0.25902,-0.492129\C,0,
 -2.256809,0.777112,0.504904\H,0,-1.572024,1.621074,0.605199\H,0,-2.407
 53,0.341502,1.496569\H,0,-3.219881,1.167045,0.166404\H,0,-2.417988,-1.
 083633,-0.625526\H,0,-1.576058,0.193097,-1.481028\H,0,-0.04108,-1.5448

 Normal termination of Gaussian 16 at Tue Apr  8 23:59:44 2025.
