 Gaussian 16, Revision C.01,

 ----------------------------------------------------------------------
 #t hf aug-cc-pvdz symm=none int=(grid=ultrafine) guess=(read,tcheck) s
 table=(opt,rrhf)
 ----------------------------------------------------------------------
 -----
 title
 -----
 Symbolic Z-matrix:
 Charge =  0 Multiplicity = 1

 SCF Done:  E(RHF) =  -907.692898926     A.U. after   16 cycles
 Normal termination of Gaussian 16 at Tue Apr  8 23:33:22 2025.
 Gaussian 16:  ES64L-G16RevC.01  3-Jul-2019

 ----------------------------------------------------------------------
 #t hf aug-cc-pvdz iop(5/13=1,5/36=2,99/5=2) pseudo=read geom=check gue
 ss=(read,tcheck) scf=(maxcycle=1)
 ----------------------------------------------------------------------
 -----
 title
 -----
 Structure from the checkpoint file:  "BDE49_nonexpt_1423_mol1.chk"
 Charge =  0 Multiplicity = 1

                         Standard orientation:
 ---------------------------------------------------------------------
 Center     Atomic      Atomic             Coordinates (Angstroms)
 Number     Number       Type             X           Y           Z
 ---------------------------------------------------------------------
      1          6           0       -2.860115   -0.495672    0.013552
      2          6           0       -2.154053    0.704520    0.007772
      3          6           0       -0.754187    0.733939   -0.017047
      4          6           0       -2.176319   -1.705326   -0.012178
      5          6           0       -0.785608   -1.703992   -0.032928
      6          6           0       -0.076789   -0.502759   -0.025968
      7          1           0       -3.944020   -0.479816    0.029904
      8          1           0       -2.703253    1.638338    0.014996
      9         15           0        0.138513    2.364051    0.081923
     10          1           0       -0.241935   -2.638948   -0.052722
     11          1           0       -2.716376   -2.644536   -0.015507
     12          6           0        1.430830   -0.567306    0.005896
     13          9           0        1.898835   -1.803569   -0.263260
     14          9           0        1.995305    0.268415   -0.900401
     15          9           0        1.925741   -0.217878    1.214439
     16          1           0       -1.032442    3.156659   -0.001078
     17          1           0        0.438856    2.504394   -1.296028
 ---------------------------------------------------------------------

 SCF Done:  E(RHF) =  -908.278186142     A.U. after    2 cycles

 The electronic state is 1-A.
 Alpha  occ. eigenvalues --  -84.28614 -26.50579 -26.50345 -26.49904 -11.52292
 Alpha  occ. eigenvalues --  -11.28186 -11.28113 -11.27109 -11.26852 -11.26588
 Alpha  occ. eigenvalues --  -11.26423  -6.75677  -4.28699  -4.28188  -4.27564
 Alpha  occ. eigenvalues --   -1.71008  -1.61071  -1.60551  -1.18648  -1.07393
 Alpha  occ. eigenvalues --   -1.05026  -0.96110  -0.89697  -0.86848  -0.83916
 Alpha  occ. eigenvalues --   -0.80359  -0.80071  -0.77748  -0.70107  -0.69007
 Alpha  occ. eigenvalues --   -0.68482  -0.66444  -0.65153  -0.63194  -0.62776
 Alpha  occ. eigenvalues --   -0.61611  -0.59866  -0.57808  -0.54439  -0.53383
 Alpha  occ. eigenvalues --   -0.50590  -0.49385  -0.39406  -0.37546  -0.33611
 Alpha virt. eigenvalues --    0.02862   0.03486   0.04266   0.05367   0.06001
 Alpha virt. eigenvalues --    0.06811   0.07661   0.08134   0.08876   0.09455
 Alpha virt. eigenvalues --    0.10035   0.10300   0.12202   0.12837   0.13094

 Mulliken charges:
               1
     1  C   -0.004639
     2  C    0.424792
     3  C   -0.569417
     4  C    0.305872
     5  C    0.078277
     6  C    0.338669
     7  H   -0.220271
     8  H   -0.281939
     9  P   -0.540536
    10  H   -0.253882
    11  H   -0.203115
    12  C    2.592200
    13  F   -0.875571
    14  F   -0.787420
    15  F   -0.759009
    16  H    0.276932
    17  H    0.479057
 Sum of Mulliken charges =  -0.00000

 Dipole moment (field-independent basis, Debye):
    X=             -3.1764    Y=             -0.2039    Z=             -0.3636  Tot=              3.2036

 Test job not archived.
 1\1\GINC-SE367\SP\RHF\Aug-CC-pVDZ\C7H6F3P1\OHZDE\08-Apr-2025\0\\#t hf
 aug-cc-pvdz iop(5/13=1,5/36=2,99/5=2) pseudo=read geom=check guess=(re
 ad,tcheck) scf=(maxcycle=1)\\title\\0,1\C,0,-2.860115,-0.495672,0.0135
 52\C,0,-2.154053,0.70452,0.007772\C,0,-0.754187,0.733939,-0.017047\C,0
 ,-2.176319,-1.705326,-0.012178\C,0,-0.785608,-1.703992,-0.032928\C,0,-
 0.076789,-0.502759,-0.025968\H,0,-3.94402,-0.479817,0.029904\H,0,-2.70
 3253,1.638338,0.014996\P,0,0.138513,2.364051,0.081923\H,0,-0.241934,-2
 .638948,-0.052722\H,0,-2.716375,-2.644536,-0.015507\C,0,1.43083,-0.567

 Normal termination of Gaussian 16 at Tue Apr  8 23:33:31 2025.
