 Gaussian 16, Revision C.01,

 ----------------------------------------------------------------------
 #t hf aug-cc-pvdz symm=none int=(grid=ultrafine) guess=(read,tcheck) s
 table=(opt,rrhf)
 ----------------------------------------------------------------------
 -----
 title
 -----
 Symbolic Z-matrix:
 Charge =  0 Multiplicity = 1

 SCF Done:  E(RHF) =  -436.562643229     A.U. after   12 cycles
 Normal termination of Gaussian 16 at Tue Apr  8 23:34:02 2025.
 Gaussian 16:  ES64L-G16RevC.01  3-Jul-2019

 ----------------------------------------------------------------------
 #t hf aug-cc-pvdz iop(5/13=1,5/36=2,99/5=2) pseudo=read geom=check gue
 ss=(read,tcheck) scf=(maxcycle=1)
 ----------------------------------------------------------------------
 -----
 title
 -----
 Structure from the checkpoint file:  "BDE49_nonexpt_1467_mol1.chk"
 Charge =  0 Multiplicity = 1

                         Standard orientation:
 ---------------------------------------------------------------------
 Center     Atomic      Atomic             Coordinates (Angstroms)
 Number     Number       Type             X           Y           Z
 ---------------------------------------------------------------------
      1          6           0        1.434322    0.465643   -0.015557
      2         15           0       -0.070325   -0.610931   -0.083610
      3          1           0        1.385272    1.216691    0.777009
      4          1           0        1.555217    0.971725   -0.975224
      5          1           0        2.310775   -0.166330    0.155312
      6          7           0       -1.311108    0.571224   -0.037946
      7          1           0       -2.196314    0.264008   -0.413719
      8          1           0       -1.440182    1.131256    0.795046
      9          1           0        0.011926   -1.045802    1.274691
 ---------------------------------------------------------------------

 SCF Done:  E(RHF) =  -436.714546610     A.U. after    2 cycles

 The electronic state is 1-A.
 Alpha  occ. eigenvalues --  -84.28467 -15.49209 -11.23116  -6.75170  -4.27906
 Alpha  occ. eigenvalues --   -4.27321  -4.26782  -1.16212  -0.97354  -0.79186
 Alpha  occ. eigenvalues --   -0.70017  -0.61131  -0.57415  -0.54290  -0.50552
 Alpha  occ. eigenvalues --   -0.42349  -0.33015
 Alpha virt. eigenvalues --    0.03516   0.04659   0.05406   0.05679   0.07053
 Alpha virt. eigenvalues --    0.07447   0.09393   0.10755   0.11627   0.14913
 Alpha virt. eigenvalues --    0.16332   0.16541   0.17366   0.19210   0.19746

 Mulliken charges:
               1
     1  C   -0.849302
     2  P    0.289764
     3  H    0.093175
     4  H    0.142115
     5  H    0.117775
     6  N   -0.155464
     7  H    0.022894
     8  H   -0.005281
     9  H    0.344324
 Sum of Mulliken charges =  -0.00000

 Dipole moment (field-independent basis, Debye):
    X=             -0.2911    Y=              0.4796    Z=              1.0908  Tot=              1.2266

 Test job not archived.
 1\1\GINC-SE218\SP\RHF\Aug-CC-pVDZ\C1H6N1P1\OHZDE\08-Apr-2025\0\\#t hf
 aug-cc-pvdz iop(5/13=1,5/36=2,99/5=2) pseudo=read geom=check guess=(re
 ad,tcheck) scf=(maxcycle=1)\\title\\0,1\C,0,1.434322,0.465643,-0.01555
 7\P,0,-0.070325,-0.610931,-0.08361\H,0,1.385272,1.216691,0.777009\H,0,
 1.555217,0.971725,-0.975224\H,0,2.310775,-0.16633,0.155312\N,0,-1.3111
 08,0.571224,-0.037946\H,0,-2.196314,0.264008,-0.413719\H,0,-1.440182,1
 .131256,0.795046\H,0,0.011926,-1.045802,1.274691\\Version=ES64L-G16Rev
 C.01\State=1-A\HF=-436.7145466\RMSD=2.109e-02\Dipole=-0.1145263,0.1886

 Normal termination of Gaussian 16 at Tue Apr  8 23:34:04 2025.
