 Gaussian 16, Revision C.01,

 ----------------------------------------------------------------------
 #t hf aug-cc-pvdz symm=none int=(grid=ultrafine) guess=(read,tcheck) s
 table=(opt,rrhf)
 ----------------------------------------------------------------------
 -----
 title
 -----
 Symbolic Z-matrix:
 Charge =  0 Multiplicity = 1

 SCF Done:  E(RHF) =  -716.711881046     A.U. after   14 cycles
 Normal termination of Gaussian 16 at Wed Apr  9 00:01:25 2025.
 Gaussian 16:  ES64L-G16RevC.01  3-Jul-2019

 ----------------------------------------------------------------------
 #t hf aug-cc-pvdz iop(5/13=1,5/36=2,99/5=2) pseudo=read geom=check gue
 ss=(read,tcheck) scf=(maxcycle=1)
 ----------------------------------------------------------------------
 -----
 title
 -----
 Structure from the checkpoint file:  "BDE49_nonexpt_2147_mol1.chk"
 Charge =  0 Multiplicity = 1

                         Standard orientation:
 ---------------------------------------------------------------------
 Center     Atomic      Atomic             Coordinates (Angstroms)
 Number     Number       Type             X           Y           Z
 ---------------------------------------------------------------------
      1         14           0        0.343001   -0.000127    0.000000
      2          7           0       -1.353266   -0.717823   -0.000002
      3          9           0        1.071819   -0.547869    1.285635
      4          9           0        0.379777    1.574812    0.000000
      5          9           0        1.071822   -0.547870   -1.285633
      6          8           0       -2.254989    0.089358   -0.000001
 ---------------------------------------------------------------------

 SCF Done:  E(RHF) =  -717.130034792     A.U. after    2 cycles

 The electronic state is 1-A.
 Alpha  occ. eigenvalues --  -69.72682 -26.51601 -26.51600 -26.51574 -20.67085
 Alpha  occ. eigenvalues --  -15.65953  -6.38409  -4.13735  -4.13731  -4.13510
 Alpha  occ. eigenvalues --   -1.65474  -1.62620  -1.62255  -1.62156  -1.03490
 Alpha  occ. eigenvalues --   -0.84847  -0.77917  -0.76636  -0.76453  -0.71829
 Alpha  occ. eigenvalues --   -0.70248  -0.69898  -0.69478  -0.67798  -0.67082
 Alpha  occ. eigenvalues --   -0.65696  -0.63464  -0.44046
 Alpha virt. eigenvalues --    0.01705   0.05595   0.05686   0.06021   0.06046
 Alpha virt. eigenvalues --    0.13961   0.16170   0.17285   0.18207   0.18671
 Alpha virt. eigenvalues --    0.19345   0.21785   0.22459   0.23419   0.24720

 Mulliken charges:
               1
     1  Si   2.872089
     2  N    0.519781
     3  F   -0.850725
     4  F   -0.853888
     5  F   -0.850725
     6  O   -0.836532
 Sum of Mulliken charges =  -0.00000

 Dipole moment (field-independent basis, Debye):
    X=              0.5007    Y=              0.4520    Z=              0.0000  Tot=              0.6745

 Test job not archived.
 1\1\GINC-SE341\SP\RHF\Aug-CC-pVDZ\F3N1O1Si1\OHZDE\09-Apr-2025\0\\#t hf
  aug-cc-pvdz iop(5/13=1,5/36=2,99/5=2) pseudo=read geom=check guess=(r
 ead,tcheck) scf=(maxcycle=1)\\title\\0,1\Si,0,0.343001,-0.000127,0.\N,
 0,-1.353266,-0.717823,-0.000002\F,0,1.071819,-0.547869,1.285635\F,0,0.
 379777,1.574812,0.\F,0,1.071822,-0.54787,-1.285633\O,0,-2.254989,0.089
 358,-0.000001\\Version=ES64L-G16RevC.01\State=1-A\HF=-717.1300348\RMSD
 =7.821e-03\Dipole=0.1969748,0.1778487,0.\Quadrupole=-0.6252974,-0.5144
 186,1.139716,-0.5389766,-0.0000016,-0.0000039\PG=C01 [X(F3N1O1Si1)]\\@

 Normal termination of Gaussian 16 at Wed Apr  9 00:01:28 2025.
