 Gaussian 16, Revision C.01,

 ----------------------------------------------------------------------
 #t hf aug-cc-pvdz symm=none int=(grid=ultrafine) guess=(read,tcheck) s
 table=(opt,rrhf)
 ----------------------------------------------------------------------
 -----
 title
 -----
 Symbolic Z-matrix:
 Charge =  0 Multiplicity = 1

 SCF Done:  E(RHF) =  -1732.58463120     A.U. after   14 cycles
 Normal termination of Gaussian 16 at Wed Apr  9 00:48:47 2025.
 Gaussian 16:  ES64L-G16RevC.01  3-Jul-2019

 ----------------------------------------------------------------------
 #t hf aug-cc-pvdz iop(5/13=1,5/36=2,99/5=2) pseudo=read geom=check gue
 ss=(read,tcheck) scf=(maxcycle=1)
 ----------------------------------------------------------------------
 -----
 title
 -----
 Structure from the checkpoint file:  "BDE49_nonexpt_862_mol1.chk"
 Charge =  0 Multiplicity = 1

                         Standard orientation:
 ---------------------------------------------------------------------
 Center     Atomic      Atomic             Coordinates (Angstroms)
 Number     Number       Type             X           Y           Z
 ---------------------------------------------------------------------
      1         16           0       -0.188517   -1.198744   -0.317625
      2          5           0       -1.555099   -0.007203   -0.060609
      3         16           0       -1.514222    1.769763   -0.374250
      4         16           0       -3.122808   -0.701214    0.556370
      5         16           0        1.467209   -0.107897   -1.048713
      6          6           0        2.544287    0.046833    0.381867
      7          6           0        3.800483   -0.375938    0.225844
      8          6           0        2.016784    0.731072    1.609197
      9          1           0        2.779939    0.756178    2.389726
     10          1           0        1.142358    0.206440    2.002961
     11          1           0        1.706421    1.755843    1.387004
     12          1           0        4.125355   -0.891022   -0.669370
     13          1           0        4.541752   -0.198147    0.998408
     14          1           0       -2.717288   -1.980325    0.661680
     15          1           0       -0.238946    1.784720   -0.821332
 ---------------------------------------------------------------------

 SCF Done:  E(RHF) =  -1732.97377238     A.U. after    2 cycles

 The electronic state is 1-A.
 Alpha  occ. eigenvalues --  -93.99353 -93.98306 -93.96333 -93.95903 -11.29611
 Alpha  occ. eigenvalues --  -11.25925 -11.25154  -8.27227  -8.26405  -8.24609
 Alpha  occ. eigenvalues --   -8.24235  -7.68504  -6.25021  -6.24827  -6.24600
 Alpha  occ. eigenvalues --   -6.24203  -6.23980  -6.23830  -6.22443  -6.22307
 Alpha  occ. eigenvalues --   -6.22127  -6.22062  -6.21941  -6.21767  -1.14329
 Alpha  occ. eigenvalues --   -1.08167  -1.03734  -1.01239  -0.96573  -0.92287
 Alpha  occ. eigenvalues --   -0.74781  -0.67505  -0.65093  -0.63121  -0.61215
 Alpha  occ. eigenvalues --   -0.58694  -0.55507  -0.54458  -0.53397  -0.50425
 Alpha  occ. eigenvalues --   -0.47550  -0.46458  -0.45006  -0.41625  -0.38566
 Alpha  occ. eigenvalues --   -0.38139  -0.35986
 Alpha virt. eigenvalues --    0.03275   0.03893   0.04169   0.04604   0.05610
 Alpha virt. eigenvalues --    0.05823   0.06039   0.07030   0.07929   0.08572
 Alpha virt. eigenvalues --    0.08784   0.09464   0.09849   0.10336   0.10912

 Mulliken charges:
               1
     1  S   -0.322766
     2  B    1.326648
     3  S   -0.639100
     4  S   -0.740176
     5  S   -0.015995
     6  C    0.169430
     7  C    0.108428
     8  C   -0.947399
     9  H    0.072130
    10  H    0.279379
    11  H    0.252684
    12  H   -0.105301
    13  H   -0.069760
    14  H    0.258532
    15  H    0.373263
 Sum of Mulliken charges =   0.00000

 Dipole moment (field-independent basis, Debye):
    X=              2.5623    Y=             -0.2286    Z=              1.1411  Tot=              2.8142

 Test job not archived.
 1\1\GINC-SE249\SP\RHF\Aug-CC-pVDZ\C3H7B1S4\OHZDE\09-Apr-2025\0\\#t hf
 aug-cc-pvdz iop(5/13=1,5/36=2,99/5=2) pseudo=read geom=check guess=(re
 ad,tcheck) scf=(maxcycle=1)\\title\\0,1\S,0,-0.188517,-1.198744,-0.317
 625\B,0,-1.555099,-0.007203,-0.060609\S,0,-1.514222,1.769763,-0.37425\
 S,0,-3.122808,-0.701214,0.55637\S,0,1.467209,-0.107897,-1.048713\C,0,2
 .544287,0.046833,0.381867\C,0,3.800483,-0.375938,0.225844\C,0,2.016784
 ,0.731072,1.609197\H,0,2.779939,0.756178,2.389726\H,0,1.142358,0.20644
 ,2.002961\H,0,1.706421,1.755843,1.387004\H,0,4.125355,-0.891022,-0.669

 Normal termination of Gaussian 16 at Wed Apr  9 00:48:55 2025.
