 Gaussian 16, Revision C.01,

 ----------------------------------------------------------------------
 #t hf aug-cc-pvdz symm=none int=(grid=ultrafine) guess=(read,tcheck) s
 table=(opt,rrhf)
 ----------------------------------------------------------------------
 -----
 title
 -----
 Symbolic Z-matrix:
 Charge =  0 Multiplicity = 1

 SCF Done:  E(RHF) =  -726.627271463     A.U. after   12 cycles
 Normal termination of Gaussian 16 at Tue Apr  8 23:58:21 2025.
 Gaussian 16:  ES64L-G16RevC.01  3-Jul-2019

 ----------------------------------------------------------------------
 #t hf aug-cc-pvdz iop(5/13=1,5/36=2,99/5=2) pseudo=read geom=check gue
 ss=(read,tcheck) scf=(maxcycle=1)
 ----------------------------------------------------------------------
 -----
 title
 -----
 Structure from the checkpoint file:  "BDE49_nonexpt_2055_mol1.chk"
 Charge =  0 Multiplicity = 1

                         Standard orientation:
 ---------------------------------------------------------------------
 Center     Atomic      Atomic             Coordinates (Angstroms)
 Number     Number       Type             X           Y           Z
 ---------------------------------------------------------------------
      1         14           0       -1.513943   -0.129028    0.000000
      2          6           0        0.206851    0.651255   -0.000013
      3         16           0        1.598659   -0.183421    0.000003
      4          1           0        0.261249    1.744995    0.000015
      5          1           0       -1.398154   -1.599132   -0.000029
      6          1           0       -2.243792    0.343891   -1.201320
      7          1           0       -2.243757    0.343846    1.201358
 ---------------------------------------------------------------------

 SCF Done:  E(RHF) =  -726.758900205     A.U. after    2 cycles

 The electronic state is 1-A.
 Alpha  occ. eigenvalues --  -93.95458 -69.55052 -11.31670  -8.23596  -6.22154
 Alpha  occ. eigenvalues --   -6.21376  -6.21262  -6.20959  -3.97549  -3.97514
 Alpha  occ. eigenvalues --   -3.97506  -1.08715  -0.83780  -0.73460  -0.59101
 Alpha  occ. eigenvalues --   -0.52540  -0.51480  -0.50130  -0.42248  -0.34963
 Alpha virt. eigenvalues --    0.02231   0.03268   0.04186   0.05484   0.05636
 Alpha virt. eigenvalues --    0.07354   0.08369   0.08850   0.09014   0.13543
 Alpha virt. eigenvalues --    0.14309   0.15126   0.15407   0.15959   0.16737

 Mulliken charges:
               1
     1  Si   1.236695
     2  C   -0.819382
     3  S    0.186283
     4  H    0.060887
     5  H   -0.200108
     6  H   -0.232187
     7  H   -0.232187
 Sum of Mulliken charges =  -0.00000

 Dipole moment (field-independent basis, Debye):
    X=             -1.8229    Y=              0.9812    Z=              0.0000  Tot=              2.0702

 Test job not archived.
 1\1\GINC-SE273\SP\RHF\Aug-CC-pVDZ\C1H4S1Si1\OHZDE\08-Apr-2025\0\\#t hf
  aug-cc-pvdz iop(5/13=1,5/36=2,99/5=2) pseudo=read geom=check guess=(r
 ead,tcheck) scf=(maxcycle=1)\\title\\0,1\Si,0,-1.513943,-0.129028,0.\C
 ,0,0.206851,0.651255,-0.000013\S,0,1.598659,-0.183421,0.000003\H,0,0.2
 61249,1.744995,0.000015\H,0,-1.398154,-1.599132,-0.000029\H,0,-2.24379
 2,0.343891,-1.20132\H,0,-2.243757,0.343846,1.201358\\Version=ES64L-G16
 RevC.01\State=1-A\HF=-726.7589002\RMSD=5.021e-03\Dipole=-0.7171665,0.3
 860517,0.0000082\Quadrupole=-1.1646347,0.9360667,0.228568,-0.1858139,-

 Normal termination of Gaussian 16 at Tue Apr  8 23:58:24 2025.
