 Gaussian 16, Revision C.01,

 ----------------------------------------------------------------------
 #t hf aug-cc-pvdz symm=none int=(grid=ultrafine) guess=(read,tcheck) s
 table=opt
 ----------------------------------------------------------------------
 -----
 title
 -----
 Symbolic Z-matrix:
 Charge =  0 Multiplicity = 2

 SCF Done:  E(UHF) =  -387.692464784     A.U. after   16 cycles

 1\1\GINC-SE435\Stability\UHF\Aug-CC-pVDZ\C8H17O1\OHZDE\08-Apr-2025\0\\
 #t hf aug-cc-pvdz symm=none int=(grid=ultrafine) guess=(read,tcheck) s
 table=opt\\title\\0,2\O,0,0.026369,-0.35335,-0.608326\C,0,1.316529,-0.
 055547,-0.006113\C,0,-1.269348,-0.022412,-0.050509\C,0,2.285907,-0.481
 61,-1.126997\H,0,2.125875,-1.532521,-1.373868\H,0,3.32417,-0.344738,-0
 .815824\H,0,2.097384,0.114547,-2.023546\C,0,1.557209,-0.903347,1.20479
 3\H,0,1.446381,-1.978205,1.125878\H,0,1.845426,-0.479272,2.158877\C,0,
 1.524644,1.435361,0.302477\H,0,1.316969,2.041753,-0.581076\H,0,2.56450

 Normal termination of Gaussian 16 at Tue Apr  8 22:58:30 2025.
 Gaussian 16:  ES64L-G16RevC.01  3-Jul-2019

 ----------------------------------------------------------------------
 #t hf aug-cc-pvdz iop(5/13=1,5/36=2,99/5=2) pseudo=read geom=check gue
 ss=(read,tcheck) scf=(maxcycle=1)
 ----------------------------------------------------------------------
 -----
 title
 -----
 Structure from the checkpoint file:  "BDE49_expt_180_mol2.chk"
 Charge =  0 Multiplicity = 2

                         Standard orientation:
 ---------------------------------------------------------------------
 Center     Atomic      Atomic             Coordinates (Angstroms)
 Number     Number       Type             X           Y           Z
 ---------------------------------------------------------------------
      1          8           0        0.026369   -0.353350   -0.608326
      2          6           0        1.316529   -0.055547   -0.006113
      3          6           0       -1.269348   -0.022412   -0.050509
      4          6           0        2.285907   -0.481610   -1.126997
      5          1           0        2.125875   -1.532521   -1.373868
      6          1           0        3.324170   -0.344738   -0.815824
      7          1           0        2.097384    0.114547   -2.023546
      8          6           0        1.557209   -0.903347    1.204793
      9          1           0        1.446381   -1.978205    1.125878
     10          1           0        1.845426   -0.479272    2.158877
     11          6           0        1.524644    1.435361    0.302477
     12          1           0        1.316969    2.041753   -0.581076
     13          1           0        2.564504    1.603568    0.596275
     14          1           0        0.891442    1.781949    1.120933
     15          6           0       -2.197882   -1.030209   -0.742797
     16          1           0       -2.105271   -0.938488   -1.827018
     17          1           0       -3.241039   -0.858192   -0.463938
     18          1           0       -1.921585   -2.049140   -0.463337
     19          6           0       -1.372538   -0.196984    1.471518
     20          1           0       -2.405198   -0.014518    1.783956
     21          1           0       -0.736655    0.503788    2.015052
     22          1           0       -1.101799   -1.211187    1.770563
     23          6           0       -1.672786    1.405411   -0.460608
     24          1           0       -1.535090    1.533500   -1.536592
     25          1           0       -1.081324    2.163299    0.054145
     26          1           0       -2.725547    1.586679   -0.224464
 ---------------------------------------------------------------------

 SCF Done:  E(UHF) =  -388.112087161     A.U. after    2 cycles

 The electronic state is 2-A.
 Alpha  occ. eigenvalues --  -20.52361 -11.29236 -11.28820 -11.23534 -11.22472
 Alpha  occ. eigenvalues --  -11.22158 -11.21762 -11.21682 -11.21415  -1.43193
 Alpha  occ. eigenvalues --   -1.09842  -1.04850  -0.94814  -0.93942  -0.92880
 Alpha  occ. eigenvalues --   -0.92776  -0.79656  -0.72672  -0.65350  -0.64192
 Alpha  occ. eigenvalues --   -0.63654  -0.60737  -0.60198  -0.58380  -0.56194
 Alpha  occ. eigenvalues --   -0.55692  -0.54435  -0.53273  -0.52242  -0.51792
 Alpha  occ. eigenvalues --   -0.51406  -0.51276  -0.48460  -0.47098  -0.43696
 Alpha  occ. eigenvalues --   -0.40886  -0.36091
 Alpha virt. eigenvalues --    0.03545   0.03635   0.03711   0.04022   0.05471
 Alpha virt. eigenvalues --    0.05580   0.05732   0.06049   0.06277   0.08405
 Alpha virt. eigenvalues --    0.08545   0.08839   0.09175   0.09251   0.09818

  Beta  occ. eigenvalues --  -20.52144 -11.29564 -11.28830 -11.22445 -11.22132
  Beta  occ. eigenvalues --  -11.21681 -11.21618 -11.21412 -11.21060  -1.42660
  Beta  occ. eigenvalues --   -1.09149  -1.03866  -0.93921  -0.93676  -0.92712
  Beta  occ. eigenvalues --   -0.87783  -0.78693  -0.71964  -0.64882  -0.63711
  Beta  occ. eigenvalues --   -0.63173  -0.60566  -0.59427  -0.57878  -0.55861
  Beta  occ. eigenvalues --   -0.55325  -0.54307  -0.52814  -0.51796  -0.51578
  Beta  occ. eigenvalues --   -0.51172  -0.51070  -0.48036  -0.46419  -0.43167
  Beta  occ. eigenvalues --   -0.40192
  Beta virt. eigenvalues --    0.03512   0.03604   0.03707   0.04024   0.05442
  Beta virt. eigenvalues --    0.05558   0.05737   0.06054   0.06287   0.08393
  Beta virt. eigenvalues --    0.08525   0.08772   0.09121   0.09242   0.09812

 Mulliken charges and spin densities:
               1          2
     1  O   -1.793437   0.017883
     2  C   -0.057889  -0.228519
     3  C   -1.361780  -0.043360
     4  C   -0.098856   0.042560
     5  H    0.169903  -0.006689
     6  H    0.196414  -0.004591
     7  H    0.211042   0.005404
     8  C    0.243527   1.457155
     9  H   -0.083754  -0.114507
    10  H   -0.077989  -0.123486
    11  C   -0.130868   0.008207
    12  H    0.250750  -0.002290
    13  H    0.095887  -0.002332
    14  H    0.216679  -0.007036
    15  C    0.122042   0.011637
    16  H    0.204587   0.000480
    17  H    0.210669  -0.000092
    18  H    0.204341   0.001843
    19  C    0.146709  -0.009512
    20  H    0.130324   0.010088
    21  H    0.213314  -0.001307
    22  H    0.282804  -0.022807
    23  C    0.112230   0.009490
    24  H    0.227796   0.000663
    25  H    0.164098   0.002001
    26  H    0.201453  -0.000882
 Sum of Mulliken charges =  -0.00000   1.00000

 Dipole moment (field-independent basis, Debye):
    X=             -0.0000    Y=              0.5842    Z=              1.0251  Tot=              1.1799
                          Isotropic Fermi Contact Couplings
        Atom                 a.u.       MegaHertz       Gauss      10(-4) cm-1
     1  O(17)              0.03497     -21.19747      -7.56379      -7.07072
     2  C(13)             -0.05702     -64.10065     -22.87271     -21.38168
     3  C(13)             -0.00196      -2.19992      -0.78499      -0.73381
     4  C(13)              0.03583      40.28518      14.37475      13.43769
     5  H(1)              -0.00085      -3.80158      -1.35650      -1.26807
     6  H(1)              -0.00009      -0.42321      -0.15101      -0.14117
     7  H(1)               0.00328      14.66668       5.23343       4.89228
     8  C(13)              0.21087     237.05549      84.58729      79.07320

 Normal termination of Gaussian 16 at Tue Apr  8 22:58:49 2025.
