 Gaussian 16, Revision C.01,

 ----------------------------------------------------------------------
 #t hf aug-cc-pvdz symm=none int=(grid=ultrafine) guess=(read,tcheck) s
 table=opt
 ----------------------------------------------------------------------
 -----
 title
 -----
 Symbolic Z-matrix:
 Charge =  0 Multiplicity = 2

 SCF Done:  E(UHF) =  -1254.55313062     A.U. after   23 cycles
 Normal termination of Gaussian 16 at Tue Apr  8 22:59:37 2025.
 Gaussian 16:  ES64L-G16RevC.01  3-Jul-2019

 ----------------------------------------------------------------------
 #t hf aug-cc-pvdz iop(5/13=1,5/36=2,99/5=2) pseudo=read geom=check gue
 ss=(read,tcheck) scf=(maxcycle=1)
 ----------------------------------------------------------------------
 -----
 title
 -----
 Structure from the checkpoint file:  "BDE49_expt_1976_mol2.chk"
 Charge =  0 Multiplicity = 2

                         Standard orientation:
 ---------------------------------------------------------------------
 Center     Atomic      Atomic             Coordinates (Angstroms)
 Number     Number       Type             X           Y           Z
 ---------------------------------------------------------------------
      1         16           0        0.000000    0.781671    0.000000
      2         16           0        1.709416   -0.109200    0.000000
      3         17           0       -1.608862   -0.632914   -0.000000
 ---------------------------------------------------------------------

 SCF Done:  E(UHF) =  -1254.74290751     A.U. after    2 cycles

 The electronic state is 2-A".
 Alpha  occ. eigenvalues -- -105.59196 -94.07584 -94.01976 -10.63879  -8.35124
 Alpha  occ. eigenvalues --   -8.30150  -7.80719  -7.80384  -7.80361  -6.32869
 Alpha  occ. eigenvalues --   -6.32759  -6.32462  -6.28900  -6.27633  -6.27256
 Alpha  occ. eigenvalues --   -1.18640  -1.05492  -0.88412  -0.59834  -0.58133
 Alpha  occ. eigenvalues --   -0.56320  -0.49366  -0.47230  -0.42198  -0.39001
 Alpha virt. eigenvalues --    0.01597   0.06062   0.09480   0.10174   0.10558
 Alpha virt. eigenvalues --    0.12910   0.13636   0.14205   0.14368   0.15872
 Alpha virt. eigenvalues --    0.16041   0.18578   0.24428   0.28002   0.28934

  Beta  occ. eigenvalues -- -105.59226 -94.07270 -94.01181 -10.63909  -8.34765
  Beta  occ. eigenvalues --   -8.29240  -7.80906  -7.80388  -7.80331  -6.32554
  Beta  occ. eigenvalues --   -6.32348  -6.31487  -6.27206  -6.26697  -6.25462
  Beta  occ. eigenvalues --   -1.16064  -1.03959  -0.82464  -0.58788  -0.55422
  Beta  occ. eigenvalues --   -0.52545  -0.46855  -0.42857  -0.40447
  Beta virt. eigenvalues --   -0.02191   0.02087   0.06396   0.09490   0.10272
  Beta virt. eigenvalues --    0.11271   0.12927   0.14331   0.14798   0.15172
  Beta virt. eigenvalues --    0.16058   0.16098   0.18935   0.24727   0.28570

 Mulliken charges and spin densities:
               1          2
     1  S    0.244103   0.200954
     2  S    0.010871   0.837502
     3  Cl  -0.254974  -0.038456
 Sum of Mulliken charges =   0.00000   1.00000

 Dipole moment (field-independent basis, Debye):
    X=              0.9995    Y=              0.6303    Z=              0.0000  Tot=              1.1817
                          Isotropic Fermi Contact Couplings
        Atom                 a.u.       MegaHertz       Gauss      10(-4) cm-1
     1  S(33)              0.11491      39.46884      14.08346      13.16539
     2  S(33)              0.19873      68.25777      24.35607      22.76834
     3  Cl(35)            -0.00375      -1.64401      -0.58663      -0.54838
 --------------------------------------------------------
       Center         ----  Spin Dipole Couplings  ----
                      3XX-RR        3YY-RR        3ZZ-RR
 --------------------------------------------------------
     1   Atom       -0.681595     -0.755161      1.436756

 Normal termination of Gaussian 16 at Tue Apr  8 22:59:39 2025.
