 Gaussian 16, Revision C.01,

 ----------------------------------------------------------------------
 #t hf aug-cc-pvdz symm=none int=(grid=ultrafine) guess=(read,tcheck) s
 table=(opt,rrhf)
 ----------------------------------------------------------------------
 -----
 title
 -----
 Symbolic Z-matrix:
 Charge =  0 Multiplicity = 1

 SCF Done:  E(RHF) =  -309.105054408     A.U. after   14 cycles

 1\1\GINC-SE044\Stability\RHF\Aug-CC-pVDZ\C6H12O1\OHZDE\08-Apr-2025\0\\
 #t hf aug-cc-pvdz symm=none int=(grid=ultrafine) guess=(read,tcheck) s
 table=(opt,rrhf)\\title\\0,1\C,0,0.759771,0.972687,-0.219608\C,0,2.102
 654,0.279087,-0.464563\C,0,2.588895,-0.546465,0.730704\H,0,2.849461,1.
 040192,-0.713089\H,0,2.004356,-0.369492,-1.339081\H,0,2.704862,0.07773
 6,1.62306\H,0,3.558477,-1.005689,0.520828\H,0,1.885957,-1.349052,0.963
 955\C,0,-0.441893,0.032427,-0.189241\H,0,0.555164,1.700162,-1.017324\H
 ,0,0.778157,1.559345,0.707455\O,0,-0.375396,-1.106408,-0.595741\C,0,-1

 Normal termination of Gaussian 16 at Tue Apr  8 22:35:25 2025.
 Gaussian 16:  ES64L-G16RevC.01  3-Jul-2019

 ----------------------------------------------------------------------
 #t hf aug-cc-pvdz iop(5/13=1,5/36=2,99/5=2) pseudo=read geom=check gue
 ss=(read,tcheck) scf=(maxcycle=1)
 ----------------------------------------------------------------------
 -----
 title
 -----
 Structure from the checkpoint file:  "BDE49_expt_1089_mol1.chk"
 Charge =  0 Multiplicity = 1

                         Standard orientation:
 ---------------------------------------------------------------------
 Center     Atomic      Atomic             Coordinates (Angstroms)
 Number     Number       Type             X           Y           Z
 ---------------------------------------------------------------------
      1          6           0        0.759771    0.972687   -0.219608
      2          6           0        2.102654    0.279087   -0.464563
      3          6           0        2.588895   -0.546465    0.730704
      4          1           0        2.849461    1.040192   -0.713089
      5          1           0        2.004356   -0.369492   -1.339081
      6          1           0        2.704862    0.077736    1.623060
      7          1           0        3.558477   -1.005689    0.520828
      8          1           0        1.885957   -1.349052    0.963955
      9          6           0       -0.441893    0.032427   -0.189241
     10          1           0        0.555164    1.700162   -1.017324
     11          1           0        0.778157    1.559345    0.707455
     12          8           0       -0.375396   -1.106408   -0.595741
     13          6           0       -1.737909    0.611669    0.365136
     14          6           0       -2.953237   -0.289885    0.166191
     15          1           0       -1.894130    1.600818   -0.082708
     16          1           0       -1.567236    0.806407    1.432584
     17          1           0       -3.151641   -0.450707   -0.895673
     18          1           0       -3.843236    0.154305    0.618175
     19          1           0       -2.786708   -1.269876    0.616035
 ---------------------------------------------------------------------

 SCF Done:  E(RHF) =  -309.437048884     A.U. after    2 cycles

 The electronic state is 1-A.
 Alpha  occ. eigenvalues --  -20.53082 -11.33377 -11.24691 -11.24424 -11.23061
 Alpha  occ. eigenvalues --  -11.22714 -11.22001  -1.46637  -1.08212  -1.05025
 Alpha  occ. eigenvalues --   -0.96485  -0.88522  -0.81603  -0.73209  -0.67697
 Alpha  occ. eigenvalues --   -0.64948  -0.62332  -0.61034  -0.59680  -0.56291
 Alpha  occ. eigenvalues --   -0.53859  -0.52513  -0.51834  -0.49576  -0.49035
 Alpha  occ. eigenvalues --   -0.48416  -0.47760  -0.40127
 Alpha virt. eigenvalues --    0.03224   0.03457   0.03743   0.04396   0.05463
 Alpha virt. eigenvalues --    0.05707   0.06034   0.06726   0.07597   0.08625
 Alpha virt. eigenvalues --    0.09072   0.09505   0.12338   0.13102   0.13894

 Mulliken charges:
               1
     1  C   -0.552673
     2  C   -0.254695
     3  C   -0.335688
     4  H    0.132274
     5  H    0.171432
     6  H    0.159522
     7  H    0.112600
     8  H    0.159719
     9  C    1.384013
    10  H    0.232281
    11  H    0.182742
    12  O   -1.426610
    13  C   -0.592967
    14  C   -0.314018
    15  H    0.219241
    16  H    0.239892
    17  H    0.166240
    18  H    0.134027
    19  H    0.182669
 Sum of Mulliken charges =  -0.00000

 Dipole moment (field-independent basis, Debye):
    X=             -0.1521    Y=              2.6485    Z=              0.8716  Tot=              2.7924

 Test job not archived.
 1\1\GINC-SE044\SP\RHF\Aug-CC-pVDZ\C6H12O1\OHZDE\08-Apr-2025\0\\#t hf a
 ug-cc-pvdz iop(5/13=1,5/36=2,99/5=2) pseudo=read geom=check guess=(rea
 d,tcheck) scf=(maxcycle=1)\\title\\0,1\C,0,0.759771,0.972687,-0.219608
 \C,0,2.102654,0.279087,-0.464563\C,0,2.588895,-0.546465,0.730704\H,0,2
 .849461,1.040192,-0.713089\H,0,2.004356,-0.369492,-1.339081\H,0,2.7048
 62,0.077736,1.62306\H,0,3.558477,-1.005689,0.520828\H,0,1.885957,-1.34
 9052,0.963955\C,0,-0.441893,0.032427,-0.189241\H,0,0.555164,1.700162,-
 1.017324\H,0,0.778157,1.559345,0.707455\O,0,-0.375396,-1.106408,-0.595

 Normal termination of Gaussian 16 at Tue Apr  8 22:35:33 2025.
