 Gaussian 16, Revision C.01,

 ----------------------------------------------------------------------
 #t hf aug-cc-pvdz symm=none int=(grid=ultrafine) guess=(read,tcheck) s
 table=(opt,rrhf)
 ----------------------------------------------------------------------
 -----
 title
 -----
 Symbolic Z-matrix:
 Charge =  0 Multiplicity = 1

 SCF Done:  E(RHF) =  -861.760124551     A.U. after   18 cycles
 Normal termination of Gaussian 16 at Tue Apr  8 23:33:02 2025.
 Gaussian 16:  ES64L-G16RevC.01  3-Jul-2019

 ----------------------------------------------------------------------
 #t hf aug-cc-pvdz iop(5/13=1,5/36=2,99/5=2) pseudo=read geom=check gue
 ss=(read,tcheck) scf=(maxcycle=1)
 ----------------------------------------------------------------------
 -----
 title
 -----
 Structure from the checkpoint file:  "BDE49_nonexpt_1354_mol1.chk"
 Charge =  0 Multiplicity = 1

                         Standard orientation:
 ---------------------------------------------------------------------
 Center     Atomic      Atomic             Coordinates (Angstroms)
 Number     Number       Type             X           Y           Z
 ---------------------------------------------------------------------
      1          9           0       -1.945731   -1.801156   -0.360812
      2          1           0        0.374280    1.791153   -1.334450
      3          1           0        2.742099    2.004426   -0.719895
      4         15           0       -1.602780   -0.317105   -0.993392
      5          6           0       -2.310410    0.787166    0.373549
      6          6           0        0.152712   -0.181453   -0.481772
      7          6           0        2.876073    0.064792    0.205643
      8          6           0       -3.047992    0.162141    1.530361
      9          1           0       -2.398765   -0.550080    2.046823
     10          1           0       -3.906584   -0.406811    1.161480
     11          6           0        0.866943    0.976506   -0.815025
     12          8           0       -2.157775    1.975601    0.218734
     13          6           0        4.340549    0.190056    0.547184
     14          6           0        2.205991    1.095993   -0.464280
     15          1           0        0.269543   -2.120128    0.446740
     16          1           0        2.650409   -1.901809    1.044533
     17          1           0       -3.380916    0.942335    2.215748
     18          6           0        0.808873   -1.217171    0.188679
     19          6           0        2.154929   -1.089039    0.523075
     20          1           0        4.966062   -0.007359   -0.330119
     21          1           0        4.630580   -0.519787    1.324478
     22          1           0        4.582762    1.196271    0.898506
 ---------------------------------------------------------------------

 SCF Done:  E(RHF) =  -862.325020408     A.U. after    2 cycles

 The electronic state is 1-A.
 Alpha  occ. eigenvalues --  -84.35117 -26.46691 -20.55648 -11.35467 -11.26085
 Alpha  occ. eigenvalues --  -11.25896 -11.25721 -11.25669 -11.25437 -11.24790
 Alpha  occ. eigenvalues --  -11.24784 -11.24335  -6.81479  -4.34459  -4.34076
 Alpha  occ. eigenvalues --   -4.33201  -1.57552  -1.48962  -1.16964  -1.06553
 Alpha  occ. eigenvalues --   -1.03029  -1.02690  -0.96067  -0.88767  -0.84902
 Alpha  occ. eigenvalues --   -0.80905  -0.75341  -0.70612  -0.68593  -0.67061
 Alpha  occ. eigenvalues --   -0.65030  -0.64518  -0.64196  -0.62234  -0.61323
 Alpha  occ. eigenvalues --   -0.60586  -0.59124  -0.58617  -0.55748  -0.55515
 Alpha  occ. eigenvalues --   -0.52744  -0.51646  -0.50847  -0.50271  -0.41301
 Alpha  occ. eigenvalues --   -0.38160  -0.35616  -0.32120
 Alpha virt. eigenvalues --    0.03272   0.03500   0.03902   0.04445   0.04660
 Alpha virt. eigenvalues --    0.05465   0.05661   0.06833   0.07042   0.08386
 Alpha virt. eigenvalues --    0.08431   0.08608   0.09088   0.09876   0.10281

 Mulliken charges:
               1
     1  F   -0.859275
     2  H   -0.272697
     3  H   -0.307044
     4  P    1.564169
     5  C    0.662697
     6  C    0.377849
     7  C    0.126017
     8  C   -0.589789
     9  H    0.242518
    10  H    0.259289
    11  C   -0.723404
    12  O   -1.303290
    13  C   -0.676326
    14  C    0.835794
    15  H   -0.317282
    16  H   -0.292204
    17  H    0.127370
    18  C   -0.168292
    19  C    0.801384
    20  H    0.275829
    21  H    0.077722
    22  H    0.158964
 Sum of Mulliken charges =  -0.00000

 Dipole moment (field-independent basis, Debye):
    X=              1.5464    Y=             -1.2321    Z=              1.0918  Tot=              2.2587

 Test job not archived.
 1\1\GINC-SE343\SP\RHF\Aug-CC-pVDZ\C9H10F1O1P1\OHZDE\08-Apr-2025\0\\#t
 hf aug-cc-pvdz iop(5/13=1,5/36=2,99/5=2) pseudo=read geom=check guess=
 (read,tcheck) scf=(maxcycle=1)\\title\\0,1\F,0,-1.945731,-1.801156,-0.
 360812\H,0,0.37428,1.791153,-1.33445\H,0,2.742099,2.004426,-0.719895\P
 ,0,-1.60278,-0.317105,-0.993392\C,0,-2.31041,0.787166,0.373549\C,0,0.1
 52712,-0.181453,-0.481772\C,0,2.876073,0.064792,0.205643\C,0,-3.047992
 ,0.162141,1.530361\H,0,-2.398765,-0.55008,2.046823\H,0,-3.906584,-0.40
 6811,1.16148\C,0,0.866943,0.976506,-0.815025\O,0,-2.157775,1.975601,0.

 Normal termination of Gaussian 16 at Tue Apr  8 23:33:17 2025.
