 Gaussian 16, Revision C.01,

 ----------------------------------------------------------------------
 #t hf aug-cc-pvdz symm=none int=(grid=ultrafine) guess=(read,tcheck) s
 table=(opt,rrhf)
 ----------------------------------------------------------------------
 -----
 title
 -----
 Symbolic Z-matrix:
 Charge =  0 Multiplicity = 1

 SCF Done:  E(RHF) =  -1512.98059115     A.U. after   12 cycles
 Normal termination of Gaussian 16 at Tue Apr  8 23:27:27 2025.
 Gaussian 16:  ES64L-G16RevC.01  3-Jul-2019

 ----------------------------------------------------------------------
 #t hf aug-cc-pvdz iop(5/13=1,5/36=2,99/5=2) pseudo=read geom=check gue
 ss=(read,tcheck) scf=(maxcycle=1)
 ----------------------------------------------------------------------
 -----
 title
 -----
 Structure from the checkpoint file:  "BDE49_expt_804_mol1.chk"
 Charge =  0 Multiplicity = 1

                         Standard orientation:
 ---------------------------------------------------------------------
 Center     Atomic      Atomic             Coordinates (Angstroms)
 Number     Number       Type             X           Y           Z
 ---------------------------------------------------------------------
      1         14           0       -2.291722    0.033290   -0.025113
      2         14           0       -0.000527    0.000063   -0.664078
      3          6           0       -3.057158    1.735513   -0.338902
      4          6           0       -2.489472   -0.378910    1.811168
      5          6           0       -3.255964   -1.235490   -1.044034
      6         14           0        1.116676   -2.000650   -0.025517
      7         14           0        1.174439    1.967536   -0.025508
      8          1           0       -0.000997   -0.000285   -2.162329
      9          1           0       -3.188008   -1.016228   -2.113449
     10          1           0       -4.315920   -1.221958   -0.767089
     11          1           0       -2.883150   -2.251244   -0.888869
     12          1           0       -2.593226    2.510513    0.277515
     13          1           0       -4.126511    1.719350   -0.100957
     14          1           0       -2.954432    2.034974   -1.385791
     15          1           0       -1.947139    0.328060    2.445497
     16          1           0       -2.121384   -1.382657    2.042202
     17          1           0       -3.545591   -0.340227    2.099231
     18          6           0        3.031218    1.779107   -0.339715
     19          1           0        3.552220    2.712942   -0.101176
     20          1           0        3.239286    1.540766   -1.386660
     21          1           0        3.469916    0.989393    0.276466
     22          6           0        0.918051    2.343912    1.811345
     23          1           0       -0.134877    2.527609    2.043738
     24          1           0        1.480530    3.238656    2.099343
     25          1           0        1.259399    1.520133    2.444876
     26          6           0        0.557497    3.437486   -1.043566
     27          1           0       -0.508420    3.623103   -0.887678
     28          1           0        0.712575    3.268995   -2.113097
     29          1           0        1.099857    4.348374   -0.766938
     30          6           0        0.022993   -3.514859   -0.330242
     31          1           0       -0.877406   -3.498418    0.290132
     32          1           0        0.572289   -4.432410   -0.091973
     33          1           0       -0.292289   -3.578556   -1.375574
     34          6           0        2.692981   -2.205259   -1.050984
     35          1           0        2.464539   -2.257681   -2.119349
     36          1           0        3.211027   -3.130257   -0.774551
     37          1           0        3.388308   -1.375390   -0.900294
     38          6           0        1.581356   -1.961687    1.808585
     39          1           0        0.701394   -1.842622    2.447226
     40          1           0        2.268983   -1.141449    2.034126
     41          1           0        2.075888   -2.895722    2.096524
 ---------------------------------------------------------------------

 SCF Done:  E(RHF) =  -1513.51639668     A.U. after    2 cycles

 The electronic state is 1-A.
 Alpha  occ. eigenvalues --  -69.50861 -69.50860 -69.50858 -69.48637 -11.20997
 Alpha  occ. eigenvalues --  -11.20992 -11.20992 -11.20894 -11.20891 -11.20891
 Alpha  occ. eigenvalues --  -11.20728 -11.20726 -11.20724  -6.17841  -6.17831
 Alpha  occ. eigenvalues --   -6.17830  -6.15999  -3.93163  -3.93162  -3.93161
 Alpha  occ. eigenvalues --   -3.93155  -3.93154  -3.93153  -3.93153  -3.93148
 Alpha  occ. eigenvalues --   -3.93147  -3.91305  -3.91261  -3.91261  -0.97927
 Alpha  occ. eigenvalues --   -0.97287  -0.97286  -0.92793  -0.92546  -0.92543
 Alpha  occ. eigenvalues --   -0.92270  -0.92265  -0.91989  -0.73651  -0.64262
 Alpha  occ. eigenvalues --   -0.64261  -0.60426  -0.57727  -0.57724  -0.57153
 Alpha  occ. eigenvalues --   -0.56816  -0.56814  -0.56191  -0.56182  -0.56179
 Alpha  occ. eigenvalues --   -0.55690  -0.54728  -0.54593  -0.54588  -0.54211
 Alpha  occ. eigenvalues --   -0.54206  -0.53890  -0.53497  -0.53492  -0.53270
 Alpha  occ. eigenvalues --   -0.44799  -0.44103  -0.44103  -0.43694  -0.43691
 Alpha  occ. eigenvalues --   -0.43336  -0.41286  -0.35298  -0.35296
 Alpha virt. eigenvalues --    0.02921   0.02921   0.02958   0.03370   0.04626
 Alpha virt. eigenvalues --    0.04626   0.05122   0.05175   0.05176   0.06724
 Alpha virt. eigenvalues --    0.06853   0.07247   0.07248   0.07464   0.07464

 Mulliken charges:
               1
     1  Si   2.646218
     2  Si  -0.328538
     3  C   -0.596486
     4  C   -0.431585
     5  C   -0.611391
     6  Si   2.645317
     7  Si   2.645542
     8  H   -0.411780
     9  H   -0.089689
    10  H   -0.073568
    11  H   -0.099460
    12  H   -0.084158
    13  H   -0.115203
    14  H   -0.053354
    15  H   -0.058917
    16  H   -0.090203
    17  H   -0.095618
    18  C   -0.595861
    19  H   -0.114256
    20  H   -0.053475
    21  H   -0.085408
    22  C   -0.431834
    23  H   -0.089858
    24  H   -0.095768
    25  H   -0.058825
    26  C   -0.611427
    27  H   -0.099228
    28  H   -0.089700
    29  H   -0.073782
    30  C   -0.594859
    31  H   -0.085162
    32  H   -0.114831
    33  H   -0.052914
    34  C   -0.611270
    35  H   -0.089582
    36  H   -0.074073
    37  H   -0.098885
    38  C   -0.431655
    39  H   -0.058162
    40  H   -0.090445
    41  H   -0.095867
 Sum of Mulliken charges =  -0.00000

 Dipole moment (field-independent basis, Debye):
    X=             -0.0013    Y=              0.0004    Z=              0.4795  Tot=              0.4795

 Test job not archived.
 1\1\GINC-SE331\SP\RHF\Aug-CC-pVDZ\C9H28Si4\OHZDE\08-Apr-2025\0\\#t hf
 aug-cc-pvdz iop(5/13=1,5/36=2,99/5=2) pseudo=read geom=check guess=(re
 ad,tcheck) scf=(maxcycle=1)\\title\\0,1\Si,0,2.291725,-0.033068,-0.025
 113\Si,0,0.000527,-0.000063,-0.664078\C,0,3.057326,-1.735217,-0.338902
 \C,0,2.489435,0.379151,1.811168\C,0,3.255844,1.235805,-1.044034\Si,0,-
 1.11687,2.000542,-0.025517\Si,0,-1.174248,-1.96765,-0.025508\H,0,0.000
 997,0.000285,-2.162329\H,0,3.18791,1.016537,-2.113449\H,0,4.315802,1.2
 22376,-0.767089\H,0,2.882932,2.251523,-0.888869\H,0,2.593469,-2.510262

 Normal termination of Gaussian 16 at Tue Apr  8 23:28:28 2025.
