 Gaussian 16, Revision C.01,

 ----------------------------------------------------------------------
 #t hf aug-cc-pvdz symm=none int=(grid=ultrafine) guess=(read,tcheck) s
 table=(opt,rrhf)
 ----------------------------------------------------------------------
 -----
 title
 -----
 Symbolic Z-matrix:
 Charge =  0 Multiplicity = 1

 SCF Done:  E(RHF) =  -824.825950014     A.U. after   11 cycles
 Normal termination of Gaussian 16 at Tue Apr  8 23:55:59 2025.
 Gaussian 16:  ES64L-G16RevC.01  3-Jul-2019

 ----------------------------------------------------------------------
 #t hf aug-cc-pvdz iop(5/13=1,5/36=2,99/5=2) pseudo=read geom=check gue
 ss=(read,tcheck) scf=(maxcycle=1)
 ----------------------------------------------------------------------
 -----
 title
 -----
 Structure from the checkpoint file:  "BDE49_nonexpt_1999_mol1.chk"
 Charge =  0 Multiplicity = 1

                         Standard orientation:
 ---------------------------------------------------------------------
 Center     Atomic      Atomic             Coordinates (Angstroms)
 Number     Number       Type             X           Y           Z
 ---------------------------------------------------------------------
      1          6           0        1.190798   -0.000000   -0.467600
      2         14           0       -0.643521    0.000000   -0.005323
      3          9           0        1.784873    1.113105    0.074982
      4          1           0        1.397167   -0.000000   -1.542028
      5          9           0        1.784873   -1.113105    0.074982
      6          9           0       -0.832273   -0.000001    1.559265
      7          9           0       -1.342774   -1.281295   -0.608941
      8          9           0       -1.342773    1.281297   -0.608939
 ---------------------------------------------------------------------

 SCF Done:  E(RHF) =  -825.345315058     A.U. after    2 cycles

 The electronic state is 1-A.
 Alpha  occ. eigenvalues --  -69.70391 -26.50588 -26.50587 -26.50501 -26.50500
 Alpha  occ. eigenvalues --  -26.50407 -11.43961  -6.36345  -4.11666  -4.11664
 Alpha  occ. eigenvalues --   -4.11397  -1.66443  -1.64339  -1.61221  -1.61137
 Alpha  occ. eigenvalues --   -1.59992  -0.98477  -0.84689  -0.79141  -0.77452
 Alpha  occ. eigenvalues --   -0.76635  -0.75080  -0.74863  -0.70056  -0.69206
 Alpha  occ. eigenvalues --   -0.69188  -0.67104  -0.66372  -0.66043  -0.64710
 Alpha  occ. eigenvalues --   -0.62857  -0.61610  -0.51618
 Alpha virt. eigenvalues --    0.03352   0.05461   0.05882   0.06057   0.09942
 Alpha virt. eigenvalues --    0.10635   0.11125   0.14084   0.17519   0.18723
 Alpha virt. eigenvalues --    0.19676   0.19905   0.20680   0.24206   0.24878

 Mulliken charges:
               1
     1  C    1.003426
     2  Si   2.948764
     3  F   -0.698269
     4  H    0.002931
     5  F   -0.698269
     6  F   -0.844075
     7  F   -0.857254
     8  F   -0.857254
 Sum of Mulliken charges =  -0.00000

 Dipole moment (field-independent basis, Debye):
    X=              0.0759    Y=              0.0000    Z=             -1.5872  Tot=              1.5890

 Test job not archived.
 1\1\GINC-SE103\SP\RHF\Aug-CC-pVDZ\C1H1F5Si1\OHZDE\08-Apr-2025\0\\#t hf
  aug-cc-pvdz iop(5/13=1,5/36=2,99/5=2) pseudo=read geom=check guess=(r
 ead,tcheck) scf=(maxcycle=1)\\title\\0,1\C,0,1.190798,0.,-0.4676\Si,0,
 -0.643521,0.,-0.005323\F,0,1.784873,1.113105,0.074982\H,0,1.397167,0.,
 -1.542028\F,0,1.784873,-1.113105,0.074982\F,0,-0.832273,-0.000001,1.55
 9265\F,0,-1.342774,-1.281296,-0.608941\F,0,-1.342773,1.281296,-0.60893
 9\\Version=ES64L-G16RevC.01\State=1-A\HF=-825.3453151\RMSD=3.200e-03\D
 ipole=0.0298592,0.0000017,-0.624466\Quadrupole=-0.894054,-1.2245486,2.

 Normal termination of Gaussian 16 at Tue Apr  8 23:56:02 2025.
