 Gaussian 16, Revision C.01,

 ----------------------------------------------------------------------
 #t hf aug-cc-pvdz symm=none int=(grid=ultrafine) guess=(read,tcheck) s
 table=(opt,rrhf)
 ----------------------------------------------------------------------
 -----
 title
 -----
 Symbolic Z-matrix:
 Charge =  0 Multiplicity = 1

 SCF Done:  E(RHF) =  -776.585427627     A.U. after   11 cycles
 Normal termination of Gaussian 16 at Tue Apr  8 23:12:58 2025.
 Gaussian 16:  ES64L-G16RevC.01  3-Jul-2019

 ----------------------------------------------------------------------
 #t hf aug-cc-pvdz iop(5/13=1,5/36=2,99/5=2) pseudo=read geom=check gue
 ss=(read,tcheck) scf=(maxcycle=1)
 ----------------------------------------------------------------------
 -----
 title
 -----
 Structure from the checkpoint file:  "BDE49_expt_803_mol1.chk"
 Charge =  0 Multiplicity = 1

                         Standard orientation:
 ---------------------------------------------------------------------
 Center     Atomic      Atomic             Coordinates (Angstroms)
 Number     Number       Type             X           Y           Z
 ---------------------------------------------------------------------
      1         14           0        0.239954   -0.983273   -0.000000
      2         14           0       -0.758296    1.168294    0.000000
      3          6           0       -0.298472   -1.943062    1.539306
      4          6           0        2.127851   -0.839861   -0.000000
      5          6           0       -0.298472   -1.943062   -1.539306
      6          6           0       -0.298472    2.158448   -1.546501
      7          6           0       -0.298472    2.158448    1.546501
      8          1           0       -2.240220    0.989865    0.000000
      9          1           0       -1.385618   -2.058934   -1.577402
     10          1           0        0.143253   -2.945292   -1.545551
     11          1           0        0.014610   -1.437983   -2.457877
     12          1           0        0.014610   -1.437983    2.457877
     13          1           0        0.143253   -2.945292    1.545551
     14          1           0       -1.385618   -2.058934    1.577402
     15          1           0        0.780765    2.329420    1.602390
     16          1           0       -0.601974    1.636605    2.458316
     17          1           0       -0.790723    3.135802    1.543259
     18          1           0        0.780765    2.329420   -1.602390
     19          1           0       -0.790723    3.135802   -1.543259
     20          1           0       -0.601974    1.636605   -2.458316
     21          1           0        2.490738   -0.306259    0.883519
     22          1           0        2.490738   -0.306259   -0.883519
     23          1           0        2.591119   -1.832342   -0.000000
 ---------------------------------------------------------------------

 SCF Done:  E(RHF) =  -776.880173248     A.U. after    2 cycles

 The electronic state is 1-A'.
 Alpha  occ. eigenvalues --  -69.50341 -69.50337 -11.21131 -11.21127 -11.20942
 Alpha  occ. eigenvalues --  -11.20850 -11.20846  -6.17443  -6.17410  -3.92783
 Alpha  occ. eigenvalues --   -3.92772  -3.92770  -3.92731  -3.92731  -3.92684
 Alpha  occ. eigenvalues --   -0.97609  -0.95820  -0.92721  -0.92426  -0.92177
 Alpha  occ. eigenvalues --   -0.69399  -0.62090  -0.57910  -0.56921  -0.56614
 Alpha  occ. eigenvalues --   -0.56468  -0.55604  -0.55034  -0.54604  -0.54377
 Alpha  occ. eigenvalues --   -0.54062  -0.53455  -0.45254  -0.44786  -0.43363
 Alpha  occ. eigenvalues --   -0.43170  -0.36702
 Alpha virt. eigenvalues --    0.03341   0.03488   0.03557   0.03752   0.05590
 Alpha virt. eigenvalues --    0.05827   0.05853   0.06172   0.06312   0.08072
 Alpha virt. eigenvalues --    0.08421   0.08569   0.08990   0.09339   0.09344

 Mulliken charges:
               1
     1  Si   2.529213
     2  Si   1.473131
     3  C   -0.676219
     4  C   -0.632636
     5  C   -0.676219
     6  C   -0.635725
     7  C   -0.635725
     8  H   -0.236570
     9  H   -0.059292
    10  H   -0.049295
    11  H   -0.061950
    12  H   -0.061950
    13  H   -0.049295
    14  H   -0.059292
    15  H    0.092060
    16  H   -0.036052
    17  H   -0.045910
    18  H    0.092060
    19  H   -0.045910
    20  H   -0.036052
    21  H   -0.062914
    22  H   -0.062914
    23  H   -0.062541
 Sum of Mulliken charges =  -0.00000

 Dipole moment (field-independent basis, Debye):
    X=              0.5338    Y=             -0.0373    Z=             -0.0000  Tot=              0.5351

 Test job not archived.
 1\1\GINC-SE453\SP\RHF\Aug-CC-pVDZ\C5H16Si2\OHZDE\08-Apr-2025\0\\#t hf
 aug-cc-pvdz iop(5/13=1,5/36=2,99/5=2) pseudo=read geom=check guess=(re
 ad,tcheck) scf=(maxcycle=1)\\title\\0,1\Si,0,0.239954,-0.983273,0.\Si,
 0,-0.758296,1.168294,0.\C,0,-0.298472,-1.943062,1.539306\C,0,2.127851,
 -0.839861,0.\C,0,-0.298472,-1.943062,-1.539306\C,0,-0.298472,2.158448,
 -1.546501\C,0,-0.298472,2.158448,1.546501\H,0,-2.24022,0.989865,0.\H,0
 ,-1.385618,-2.058934,-1.577402\H,0,0.143253,-2.945292,-1.545551\H,0,0.
 01461,-1.437983,-2.457877\H,0,0.01461,-1.437983,2.457877\H,0,0.143253,

 Normal termination of Gaussian 16 at Tue Apr  8 23:13:06 2025.
