 Gaussian 16, Revision C.01,

 ----------------------------------------------------------------------
 #t hf aug-cc-pvdz symm=none int=(grid=ultrafine) guess=(read,tcheck) s
 table=(opt,rrhf)
 ----------------------------------------------------------------------
 -----
 title
 -----
 Symbolic Z-matrix:
 Charge =  0 Multiplicity = 1

 SCF Done:  E(RHF) =  -1687.51736066     A.U. after   15 cycles
 Normal termination of Gaussian 16 at Wed Apr  9 00:52:09 2025.
 Gaussian 16:  ES64L-G16RevC.01  3-Jul-2019

 ----------------------------------------------------------------------
 #t hf aug-cc-pvdz iop(5/13=1,5/36=2,99/5=2) pseudo=read geom=check gue
 ss=(read,tcheck) scf=(maxcycle=1)
 ----------------------------------------------------------------------
 -----
 title
 -----
 Structure from the checkpoint file:  "BDE49_nonexpt_930_mol1.chk"
 Charge =  0 Multiplicity = 1

                         Standard orientation:
 ---------------------------------------------------------------------
 Center     Atomic      Atomic             Coordinates (Angstroms)
 Number     Number       Type             X           Y           Z
 ---------------------------------------------------------------------
      1         17           0       -0.203738    2.161826   -0.130922
      2          7           0       -0.012527    0.451381   -0.413196
      3         16           0        1.539688   -0.204431    0.183175
      4         16           0       -1.470904   -0.474484   -0.176519
      5          8           0        2.442485    0.910797    0.181097
      6          8           0        1.297892   -0.973043    1.377649
      7          8           0       -2.500778    0.218275   -0.893513
      8          8           0       -1.066368   -1.813218   -0.522756
      9          6           0        1.932343   -1.298441   -1.169538
     10          1           0        2.891972   -1.746584   -0.907689
     11          1           0        2.011996   -0.696881   -2.072305
     12          1           0        1.147912   -2.047025   -1.245185
     13          6           0       -1.816532   -0.392933    1.573474
     14          1           0       -1.969608    0.649755    1.846857
     15          1           0       -0.978742   -0.837135    2.106005
     16          1           0       -2.733541   -0.964441    1.720442
 ---------------------------------------------------------------------

 SCF Done:  E(RHF) =  -1688.15062762     A.U. after    2 cycles

 The electronic state is 1-A.
 Alpha  occ. eigenvalues -- -105.63590 -94.24960 -94.24629 -20.57532 -20.57433
 Alpha  occ. eigenvalues --  -20.57114 -20.56914 -15.62815 -11.30703 -11.30486
 Alpha  occ. eigenvalues --  -10.68003  -8.49923  -8.49583  -7.84983  -7.84467
 Alpha  occ. eigenvalues --   -7.84433  -6.48028  -6.47847  -6.47705  -6.47694
 Alpha  occ. eigenvalues --   -6.47510  -6.47365  -1.60669  -1.59529  -1.48129
 Alpha  occ. eigenvalues --   -1.47706  -1.28743  -1.10046  -1.09071  -1.03475
 Alpha  occ. eigenvalues --   -0.92830  -0.83493  -0.77082  -0.73479  -0.72708
 Alpha  occ. eigenvalues --   -0.70759  -0.69287  -0.68575  -0.64718  -0.63787
 Alpha  occ. eigenvalues --   -0.63035  -0.62462  -0.59685  -0.57239  -0.54621
 Alpha  occ. eigenvalues --   -0.52844  -0.52433  -0.50905  -0.50767  -0.49743
 Alpha  occ. eigenvalues --   -0.48293  -0.47729  -0.46087
 Alpha virt. eigenvalues --    0.03280   0.03749   0.04362   0.05255   0.05813
 Alpha virt. eigenvalues --    0.06203   0.06419   0.08355   0.10725   0.11054
 Alpha virt. eigenvalues --    0.11528   0.11912   0.12469   0.13467   0.14100

 Mulliken charges:
               1
     1  Cl   0.039250
     2  N   -0.623232
     3  S    3.196555
     4  S    3.156507
     5  O   -1.493760
     6  O   -1.558790
     7  O   -1.506412
     8  O   -1.537869
     9  C   -0.620680
    10  H    0.279242
    11  H    0.262621
    12  H    0.268634
    13  C   -0.669960
    14  H    0.268406
    15  H    0.268663
    16  H    0.270826
 Sum of Mulliken charges =  -0.00000

 Dipole moment (field-independent basis, Debye):
    X=              0.2278    Y=             -1.0061    Z=              0.8287  Tot=              1.3232

 Test job not archived.
 1\1\GINC-SE338\SP\RHF\Aug-CC-pVDZ\C2H6Cl1N1O4S2\OHZDE\09-Apr-2025\0\\#
 t hf aug-cc-pvdz iop(5/13=1,5/36=2,99/5=2) pseudo=read geom=check gues
 s=(read,tcheck) scf=(maxcycle=1)\\title\\0,1\Cl,0,-0.203738,2.161826,-
 0.130922\N,0,-0.012527,0.451381,-0.413196\S,0,1.539688,-0.204431,0.183
 175\S,0,-1.470904,-0.474484,-0.176519\O,0,2.442485,0.910797,0.181097\O
 ,0,1.297892,-0.973043,1.377649\O,0,-2.500778,0.218275,-0.893513\O,0,-1
 .066368,-1.813218,-0.522756\C,0,1.932343,-1.298441,-1.169538\H,0,2.891
 972,-1.746584,-0.907689\H,0,2.011996,-0.696881,-2.072305\H,0,1.147912,

 Normal termination of Gaussian 16 at Wed Apr  9 00:52:18 2025.
