 Gaussian 16, Revision C.01,

 ----------------------------------------------------------------------
 #t hf aug-cc-pvdz symm=none int=(grid=ultrafine) guess=(read,tcheck) s
 table=(opt,rrhf)
 ----------------------------------------------------------------------
 -----
 title
 -----
 Symbolic Z-matrix:
 Charge =  0 Multiplicity = 1

 SCF Done:  E(RHF) =  -190.882434977     A.U. after   13 cycles
 Normal termination of Gaussian 16 at Tue Apr  8 23:34:08 2025.
 Gaussian 16:  ES64L-G16RevC.01  3-Jul-2019

 ----------------------------------------------------------------------
 #t hf aug-cc-pvdz iop(5/13=1,5/36=2,99/5=2) pseudo=read geom=check gue
 ss=(read,tcheck) scf=(maxcycle=1)
 ----------------------------------------------------------------------
 -----
 title
 -----
 Structure from the checkpoint file:  "BDE49_nonexpt_147_mol1.chk"
 Charge =  0 Multiplicity = 1

                         Standard orientation:
 ---------------------------------------------------------------------
 Center     Atomic      Atomic             Coordinates (Angstroms)
 Number     Number       Type             X           Y           Z
 ---------------------------------------------------------------------
      1          5           0       -2.421813    0.135383   -0.348931
      2          5           0       -1.134857   -0.009494    0.621872
      3          5           0        0.475711   -0.115094    0.118439
      4          8           0        0.990748   -1.357332   -0.115360
      5          6           0        1.341996    1.193893   -0.086386
      6          1           0        1.919834   -1.342181   -0.372691
      7          1           0        1.151430    1.956135    0.675289
      8          1           0        1.076450    1.653268   -1.047691
      9          1           0        2.422084    1.000405   -0.105326
     10          1           0       -1.303190    0.000886    1.812861
     11          1           0       -3.026674   -0.823345   -0.734264
     12          1           0       -2.813103    1.196159   -0.743889
 ---------------------------------------------------------------------

 SCF Done:  E(RHF) =  -191.081640468     A.U. after    2 cycles

 The electronic state is 1-A.
 Alpha  occ. eigenvalues --  -20.55941 -11.21194  -7.59873  -7.57559  -7.55505
 Alpha  occ. eigenvalues --   -1.45721  -0.95762  -0.78119  -0.72850  -0.62986
 Alpha  occ. eigenvalues --   -0.62339  -0.57171  -0.55730  -0.51859  -0.50636
 Alpha  occ. eigenvalues --   -0.48849  -0.44646  -0.40170
 Alpha virt. eigenvalues --    0.02891   0.03572   0.03604   0.04128   0.05158
 Alpha virt. eigenvalues --    0.06115   0.06301   0.07047   0.07309   0.08593
 Alpha virt. eigenvalues --    0.08983   0.09539   0.10239   0.10538   0.10904

 Mulliken charges:
               1
     1  B   -0.801951
     2  B   -0.493792
     3  B    1.557639
     4  O   -1.231460
     5  C   -0.482847
     6  H    0.536798
     7  H    0.041838
     8  H    0.123381
     9  H   -0.125466
    10  H    0.220159
    11  H    0.321866
    12  H    0.333836
 Sum of Mulliken charges =  -0.00000

 Dipole moment (field-independent basis, Debye):
    X=              1.6468    Y=              0.7646    Z=             -0.2686  Tot=              1.8355

 Test job not archived.
 1\1\GINC-SE458\SP\RHF\Aug-CC-pVDZ\C1H7B3O1\OHZDE\08-Apr-2025\0\\#t hf
 aug-cc-pvdz iop(5/13=1,5/36=2,99/5=2) pseudo=read geom=check guess=(re
 ad,tcheck) scf=(maxcycle=1)\\title\\0,1\B,0,-2.421813,0.135383,-0.3489
 31\B,0,-1.134857,-0.009494,0.621872\B,0,0.475711,-0.115094,0.118439\O,
 0,0.990748,-1.357332,-0.11536\C,0,1.341996,1.193893,-0.086386\H,0,1.91
 9834,-1.342181,-0.372691\H,0,1.15143,1.956135,0.675289\H,0,1.07645,1.6
 53268,-1.047691\H,0,2.422084,1.000405,-0.105326\H,0,-1.30319,0.000886,
 1.812861\H,0,-3.026674,-0.823345,-0.734264\H,0,-2.813103,1.196159,-0.7

 Normal termination of Gaussian 16 at Tue Apr  8 23:34:11 2025.
