 Gaussian 16, Revision C.01,

 ----------------------------------------------------------------------
 #t hf aug-cc-pvdz symm=none int=(grid=ultrafine) guess=(read,tcheck) s
 table=opt
 ----------------------------------------------------------------------
 -----
 title
 -----
 Symbolic Z-matrix:
 Charge =  0 Multiplicity = 2

 SCF Done:  E(UHF) =  -485.825862897     A.U. after   15 cycles
 Normal termination of Gaussian 16 at Tue Apr  8 23:45:11 2025.
 Gaussian 16:  ES64L-G16RevC.01  3-Jul-2019

 ----------------------------------------------------------------------
 #t hf aug-cc-pvdz iop(5/13=1,5/36=2,99/5=2) pseudo=read geom=check gue
 ss=(read,tcheck) scf=(maxcycle=1)
 ----------------------------------------------------------------------
 -----
 title
 -----
 Structure from the checkpoint file:  "BDE49_nonexpt_1732_mol2.chk"
 Charge =  0 Multiplicity = 2

                         Standard orientation:
 ---------------------------------------------------------------------
 Center     Atomic      Atomic             Coordinates (Angstroms)
 Number     Number       Type             X           Y           Z
 ---------------------------------------------------------------------
      1         14           0       -3.090802   -0.114048    0.000000
      2          6           0       -1.383945    0.704188   -0.000001
      3          6           0       -0.203043   -0.290322    0.000000
      4          1           0       -1.318835    1.360145    0.875930
      5          1           0       -1.318835    1.360143   -0.875934
      6          6           0        1.167780    0.401595   -0.000001
      7          1           0       -0.274973   -0.945491   -0.876148
      8          1           0       -0.274973   -0.945489    0.876150
      9          6           0        2.346796   -0.578408    0.000001
     10          1           0        1.240256    1.057226    0.877217
     11          1           0        1.240256    1.057224   -0.877220
     12          6           0        3.710842    0.117935    0.000000
     13          1           0        2.271226   -1.233460   -0.876282
     14          1           0        2.271226   -1.233458    0.876285
     15          1           0        3.830527    0.753567   -0.882894
     16          1           0        4.529157   -0.607222    0.000001
     17          1           0        3.830527    0.753569    0.882892
     18          1           0       -3.292457   -0.954999    1.211388
     19          1           0       -3.292456   -0.955004   -1.211384
 ---------------------------------------------------------------------

 SCF Done:  E(UHF) =  -486.077430239     A.U. after    2 cycles

 The electronic state is 2-A.
 Alpha  occ. eigenvalues --  -69.52867 -11.23554 -11.22761 -11.22679 -11.22581
 Alpha  occ. eigenvalues --  -11.22308  -6.20007  -3.95970  -3.95059  -3.95048
 Alpha  occ. eigenvalues --   -1.08668  -1.02001  -0.92623  -0.83224  -0.79466
 Alpha  occ. eigenvalues --   -0.71348  -0.65771  -0.60724  -0.59588  -0.57279
 Alpha  occ. eigenvalues --   -0.54450  -0.52382  -0.50001  -0.49454  -0.47497
 Alpha  occ. eigenvalues --   -0.47324  -0.46992  -0.43768  -0.32489
 Alpha virt. eigenvalues --    0.03519   0.03729   0.03743   0.03927   0.05011
 Alpha virt. eigenvalues --    0.05803   0.05863   0.06662   0.07787   0.08181
 Alpha virt. eigenvalues --    0.08613   0.09741   0.09763   0.10928   0.11842

  Beta  occ. eigenvalues --  -69.52311 -11.23458 -11.22757 -11.22649 -11.22544
  Beta  occ. eigenvalues --  -11.22306  -6.19166  -3.94676  -3.94666  -3.93811
  Beta  occ. eigenvalues --   -1.08512  -1.01767  -0.92326  -0.82857  -0.79401
  Beta  occ. eigenvalues --   -0.67429  -0.65719  -0.60646  -0.59304  -0.56901
  Beta  occ. eigenvalues --   -0.54343  -0.52095  -0.49633  -0.49289  -0.47206
  Beta  occ. eigenvalues --   -0.46983  -0.46798  -0.42902
  Beta virt. eigenvalues --    0.02550   0.03740   0.03780   0.03888   0.04394
  Beta virt. eigenvalues --    0.05276   0.05925   0.06676   0.06982   0.07934
  Beta virt. eigenvalues --    0.08742   0.09083   0.09846   0.09874   0.11055

 Mulliken charges and spin densities:
               1          2
     1  Si   0.592848   1.025634
     2  C   -0.692795  -0.050297
     3  C   -0.207407   0.017305
     4  H    0.154387  -0.000960
     5  H    0.154388  -0.000960
     6  C   -0.203394   0.005220
     7  H    0.105891  -0.007342
     8  H    0.105892  -0.007342
     9  C   -0.203707  -0.006525
    10  H    0.105149  -0.000141
    11  H    0.105148  -0.000141
    12  C   -0.400931   0.000387
    13  H    0.118003   0.000191
    14  H    0.118001   0.000191
    15  H    0.161248  -0.000006
    16  H    0.119951   0.000082
    17  H    0.161247  -0.000006
    18  H   -0.146960   0.012355
    19  H   -0.146960   0.012355
 Sum of Mulliken charges =  -0.00000   1.00000

 Dipole moment (field-independent basis, Debye):
    X=              0.9525    Y=              0.2634    Z=             -0.0000  Tot=              0.9882
                          Isotropic Fermi Contact Couplings
        Atom                 a.u.       MegaHertz       Gauss      10(-4) cm-1
     1  Si(29)             0.56081    -498.40897    -177.84472    -166.25134
     2  C(13)              0.01134      12.74700       4.54845       4.25194
     3  C(13)              0.02464      27.70065       9.88428       9.23994
     4  H(1)               0.00029       1.29897       0.46350       0.43329
     5  H(1)               0.00029       1.29900       0.46352       0.43330
     6  C(13)              0.00560       6.30018       2.24806       2.10151
     7  H(1)              -0.00030      -1.33840      -0.47757      -0.44644
     8  H(1)              -0.00030      -1.33840      -0.47757      -0.44644

 Normal termination of Gaussian 16 at Tue Apr  8 23:45:19 2025.
