 Gaussian 16, Revision C.01,

 ----------------------------------------------------------------------
 #t hf aug-cc-pvdz symm=none int=(grid=ultrafine) guess=(read,tcheck) s
 table=(opt,rrhf)
 ----------------------------------------------------------------------
 -----
 title
 -----
 Symbolic Z-matrix:
 Charge =  0 Multiplicity = 1

 SCF Done:  E(RHF) =  -638.304483969     A.U. after   16 cycles
 Normal termination of Gaussian 16 at Wed Apr  9 00:38:21 2025.
 Gaussian 16:  ES64L-G16RevC.01  3-Jul-2019

 ----------------------------------------------------------------------
 #t hf aug-cc-pvdz iop(5/13=1,5/36=2,99/5=2) pseudo=read geom=check gue
 ss=(read,tcheck) scf=(maxcycle=1)
 ----------------------------------------------------------------------
 -----
 title
 -----
 Structure from the checkpoint file:  "BDE49_nonexpt_568_mol1.chk"
 Charge =  0 Multiplicity = 1

                         Standard orientation:
 ---------------------------------------------------------------------
 Center     Atomic      Atomic             Coordinates (Angstroms)
 Number     Number       Type             X           Y           Z
 ---------------------------------------------------------------------
      1          7           0        0.026918    0.057584    0.000047
      2          7           0       -0.205354    1.427400    0.000024
      3          5           0        1.339120   -0.636269    0.000021
      4          7           0       -1.241778   -0.747180    0.000012
      5          8           0       -1.660074   -1.023925   -1.088997
      6          8           0        1.221543   -1.982984    0.000012
      7          8           0        0.797446    2.135313   -0.000044
      8          8           0        2.506521    0.028707    0.000014
      9          8           0       -1.356066    1.799657   -0.000074
     10          8           0       -1.660117   -1.023946    1.089000
     11          1           0        2.070736   -2.435299   -0.000002
     12          1           0        2.381130    0.989435    0.000029
 ---------------------------------------------------------------------

 SCF Done:  E(RHF) =  -638.911229838     A.U. after    2 cycles

 The electronic state is 1-A.
 Alpha  occ. eigenvalues --  -20.64571 -20.64561 -20.64556 -20.63710 -20.60319
 Alpha  occ. eigenvalues --  -20.59790 -15.88491 -15.87572 -15.65810  -7.73025
 Alpha  occ. eigenvalues --   -1.74978  -1.73307  -1.58489  -1.57442  -1.52974
 Alpha  occ. eigenvalues --   -1.49397  -1.35843  -1.09361  -0.97188  -0.89645
 Alpha  occ. eigenvalues --   -0.87375  -0.84044  -0.80766  -0.80092  -0.79843
 Alpha  occ. eigenvalues --   -0.77950  -0.76005  -0.64591  -0.64213  -0.61256
 Alpha  occ. eigenvalues --   -0.57819  -0.56931  -0.55475  -0.53978  -0.53393
 Alpha  occ. eigenvalues --   -0.51973  -0.51073  -0.49294
 Alpha virt. eigenvalues --    0.02244   0.02289   0.03220   0.04820   0.05300
 Alpha virt. eigenvalues --    0.05544   0.07477   0.09497   0.11851   0.13541
 Alpha virt. eigenvalues --    0.13675   0.14446   0.15875   0.16261   0.16754

 Mulliken charges:
               1
     1  N    0.102634
     2  N    2.447265
     3  B    1.320228
     4  N    3.004764
     5  O   -1.395619
     6  O   -1.222527
     7  O   -1.362969
     8  O   -1.303428
     9  O   -1.379472
    10  O   -1.395615
    11  H    0.439024
    12  H    0.745715
 Sum of Mulliken charges =  -0.00000

 Dipole moment (field-independent basis, Debye):
    X=              2.9028    Y=             -0.8569    Z=              0.0001  Tot=              3.0266

 Test job not archived.
 1\1\GINC-SE096\SP\RHF\Aug-CC-pVDZ\B1H2N3O6\OHZDE\09-Apr-2025\0\\#t hf
 aug-cc-pvdz iop(5/13=1,5/36=2,99/5=2) pseudo=read geom=check guess=(re
 ad,tcheck) scf=(maxcycle=1)\\title\\0,1\N,0,-0.026918,0.057584,-0.0000
 47\N,0,0.205354,1.4274,-0.000024\B,0,-1.33912,-0.636269,-0.000021\N,0,
 1.241778,-0.74718,-0.000012\O,0,1.660074,-1.023925,1.088997\O,0,-1.221
 543,-1.982984,-0.000012\O,0,-0.797446,2.135313,0.000044\O,0,-2.506521,
 0.028707,-0.000014\O,0,1.356066,1.799657,0.000074\O,0,1.660117,-1.0239
 46,-1.089\H,0,-2.070736,-2.435299,0.000002\H,0,-2.38113,0.989435,-0.00

 Normal termination of Gaussian 16 at Wed Apr  9 00:38:28 2025.
