 Gaussian 16, Revision C.01,

 ----------------------------------------------------------------------
 #t hf aug-cc-pvdz symm=none int=(grid=ultrafine) guess=(read,tcheck) s
 table=(opt,rrhf)
 ----------------------------------------------------------------------
 -----
 title
 -----
 Symbolic Z-matrix:
 Charge =  0 Multiplicity = 1

 SCF Done:  E(RHF) =  -1025.31686817     A.U. after   15 cycles
 Normal termination of Gaussian 16 at Wed Apr  9 00:18:58 2025.
 Gaussian 16:  ES64L-G16RevC.01  3-Jul-2019

 ----------------------------------------------------------------------
 #t hf aug-cc-pvdz iop(5/13=1,5/36=2,99/5=2) pseudo=read geom=check gue
 ss=(read,tcheck) scf=(maxcycle=1)
 ----------------------------------------------------------------------
 -----
 title
 -----
 Structure from the checkpoint file:  "BDE49_nonexpt_2583_mol1.chk"
 Charge =  0 Multiplicity = 1

                         Standard orientation:
 ---------------------------------------------------------------------
 Center     Atomic      Atomic             Coordinates (Angstroms)
 Number     Number       Type             X           Y           Z
 ---------------------------------------------------------------------
      1         17           0        2.094930   -0.580030   -0.089808
      2         16           0        0.620365    0.896530    0.062193
      3          6           0       -0.798773   -0.096699    0.330098
      4          7           0       -1.826534    0.185467   -0.370367
      5          1           0       -0.793409   -0.842194    1.123793
      6          8           0       -2.942825   -0.514271    0.071671
      7          1           0       -3.625260   -0.245685   -0.553522
 ---------------------------------------------------------------------

 SCF Done:  E(RHF) =  -1025.61795409     A.U. after    2 cycles

 The electronic state is 1-A.
 Alpha  occ. eigenvalues -- -105.59649 -94.03270 -20.61658 -15.60545 -11.33573
 Alpha  occ. eigenvalues --  -10.64327  -8.31017  -7.81266  -7.80817  -7.80780
 Alpha  occ. eigenvalues --   -6.28799  -6.28586  -6.28274  -1.53673  -1.22993
 Alpha  occ. eigenvalues --   -1.12498  -0.97812  -0.82190  -0.76379  -0.70474
 Alpha  occ. eigenvalues --   -0.64188  -0.60548  -0.55251  -0.52862  -0.51096
 Alpha  occ. eigenvalues --   -0.47151  -0.45324  -0.38362
 Alpha virt. eigenvalues --    0.02920   0.03742   0.05203   0.07136   0.08728
 Alpha virt. eigenvalues --    0.10440   0.10920   0.12513   0.13681   0.14401
 Alpha virt. eigenvalues --    0.15432   0.16039   0.16933   0.17449   0.18211

 Mulliken charges:
               1
     1  Cl  -0.238583
     2  S    0.478644
     3  C   -0.809441
     4  N    1.211607
     5  H    0.124359
     6  O   -1.095673
     7  H    0.329088
 Sum of Mulliken charges =  -0.00000

 Dipole moment (field-independent basis, Debye):
    X=             -1.3388    Y=             -0.2143    Z=              0.5176  Tot=              1.4513

 Test job not archived.
 1\1\GINC-SE143\SP\RHF\Aug-CC-pVDZ\C1H2Cl1N1O1S1\OHZDE\09-Apr-2025\0\\#
 t hf aug-cc-pvdz iop(5/13=1,5/36=2,99/5=2) pseudo=read geom=check gues
 s=(read,tcheck) scf=(maxcycle=1)\\title\\0,1\Cl,0,2.09493,-0.58003,-0.
 089808\S,0,0.620365,0.89653,0.062193\C,0,-0.798773,-0.096699,0.330098\
 N,0,-1.826534,0.185467,-0.370367\H,0,-0.793409,-0.842194,1.123793\O,0,
 -2.942825,-0.514271,0.071671\H,0,-3.62526,-0.245685,-0.553522\\Version
 =ES64L-G16RevC.01\State=1-A\HF=-1025.6179541\RMSD=1.151e-02\Dipole=-0.
 5267212,-0.0843291,0.2036491\Quadrupole=2.738301,-1.0155663,-1.7227347

 Normal termination of Gaussian 16 at Wed Apr  9 00:19:00 2025.
