 Gaussian 16, Revision C.01,

 ----------------------------------------------------------------------
 #t hf aug-cc-pvdz symm=none int=(grid=ultrafine) guess=(read,tcheck) s
 table=opt
 ----------------------------------------------------------------------
 -----
 title
 -----
 Symbolic Z-matrix:
 Charge =  0 Multiplicity = 2

 SCF Done:  E(UHF) =  -200.895263964     A.U. after   18 cycles
 Normal termination of Gaussian 16 at Tue Apr  8 23:33:03 2025.
 Gaussian 16:  ES64L-G16RevC.01  3-Jul-2019

 ----------------------------------------------------------------------
 #t hf aug-cc-pvdz iop(5/13=1,5/36=2,99/5=2) pseudo=read geom=check gue
 ss=(read,tcheck) scf=(maxcycle=1)
 ----------------------------------------------------------------------
 -----
 title
 -----
 Structure from the checkpoint file:  "BDE49_nonexpt_144_mol2.chk"
 Charge =  0 Multiplicity = 2

                         Standard orientation:
 ---------------------------------------------------------------------
 Center     Atomic      Atomic             Coordinates (Angstroms)
 Number     Number       Type             X           Y           Z
 ---------------------------------------------------------------------
      1          5           0        1.723044   -0.101320   -0.091314
      2          5           0        0.080691   -0.013098   -0.002472
      3          8           0       -0.644672    1.161260    0.012099
      4          1           0       -0.118357    1.963505   -0.014533
      5          8           0       -0.624281   -1.186600    0.007388
      6          1           0       -1.575991   -1.029738    0.009285
      7          1           0        2.827296   -0.158956    0.318288
 ---------------------------------------------------------------------

 SCF Done:  E(UHF) =  -201.091077531     A.U. after    2 cycles

 The electronic state is 2-A.
 Alpha  occ. eigenvalues --  -20.56249 -20.55202  -7.63651  -7.62080  -1.47944
 Alpha  occ. eigenvalues --   -1.43671  -0.78930  -0.74461  -0.68572  -0.60629
 Alpha  occ. eigenvalues --   -0.57402  -0.55551  -0.49729  -0.49128  -0.31930
 Alpha virt. eigenvalues --    0.02121   0.03749   0.04353   0.05799   0.06473
 Alpha virt. eigenvalues --    0.07422   0.07837   0.09069   0.09276   0.10745
 Alpha virt. eigenvalues --    0.12872   0.14611   0.19891   0.20282   0.20558

  Beta  occ. eigenvalues --  -20.56151 -20.55083  -7.63719  -7.60632  -1.47702
  Beta  occ. eigenvalues --   -1.43395  -0.77765  -0.73687  -0.65278  -0.59780
  Beta  occ. eigenvalues --   -0.56143  -0.55431  -0.48666  -0.47900
  Beta virt. eigenvalues --    0.02717   0.03682   0.04161   0.04558   0.06642
  Beta virt. eigenvalues --    0.07381   0.07591   0.09365   0.10135   0.10522
  Beta virt. eigenvalues --    0.10846   0.13134   0.15112   0.20015   0.20607

 Mulliken charges and spin densities:
               1          2
     1  B   -1.242400   1.008662
     2  B    1.944233  -0.019674
     3  O   -1.030251   0.029731
     4  H    0.465953  -0.004320
     5  O   -1.126196   0.036941
     6  H    0.513808  -0.001061
     7  H    0.474854  -0.050279
 Sum of Mulliken charges =  -0.00000   1.00000

 Dipole moment (field-independent basis, Debye):
    X=              0.3325    Y=              1.5235    Z=              0.3057  Tot=              1.5891
                          Isotropic Fermi Contact Couplings
        Atom                 a.u.       MegaHertz       Gauss      10(-4) cm-1
     1  B(11)              0.11968     171.66254      61.25346      57.26046
     2  B(11)             -0.02118     -30.38588     -10.84244     -10.13564
     3  O(17)              0.00899      -5.45240      -1.94555      -1.81873
     4  H(1)              -0.00059      -2.63515      -0.94029      -0.87899
     5  O(17)              0.00684      -4.14770      -1.48000      -1.38352
     6  H(1)              -0.00118      -5.25801      -1.87619      -1.75388
     7  H(1)              -0.01643     -73.41905     -26.19774     -24.48996
 --------------------------------------------------------

 Normal termination of Gaussian 16 at Tue Apr  8 23:33:05 2025.
