 Gaussian 16, Revision C.01,

 ----------------------------------------------------------------------
 #t hf aug-cc-pvdz symm=none int=(grid=ultrafine) guess=(read,tcheck) s
 table=opt
 ----------------------------------------------------------------------
 -----
 title
 -----
 Symbolic Z-matrix:
 Charge =  0 Multiplicity = 2

 SCF Done:  E(UHF) =  -114.435823796     A.U. after   15 cycles
 Normal termination of Gaussian 16 at Tue Apr  8 22:31:37 2025.
 Gaussian 16:  ES64L-G16RevC.01  3-Jul-2019

 ----------------------------------------------------------------------
 #t hf aug-cc-pvdz iop(5/13=1,5/36=2,99/5=2) pseudo=read geom=check gue
 ss=(read,tcheck) scf=(maxcycle=1)
 ----------------------------------------------------------------------
 -----
 title
 -----
 Structure from the checkpoint file:  "BDE49_expt_1052_mol2.chk"
 Charge =  0 Multiplicity = 2

                         Standard orientation:
 ---------------------------------------------------------------------
 Center     Atomic      Atomic             Coordinates (Angstroms)
 Number     Number       Type             X           Y           Z
 ---------------------------------------------------------------------
      1          6           0        0.684502    0.027633   -0.066267
      2          8           0       -0.671169   -0.125159    0.023435
      3          1           0       -1.092075    0.734932   -0.068161
      4          1           0        1.231099   -0.889251    0.101595
      5          1           0        1.123315    0.989792    0.176691
 ---------------------------------------------------------------------

 SCF Done:  E(UHF) =  -114.552293048     A.U. after    2 cycles

 The electronic state is 2-A.
 Alpha  occ. eigenvalues --  -20.57768 -11.29050  -1.48774  -0.92739  -0.72174
 Alpha  occ. eigenvalues --   -0.63142  -0.60179  -0.52702  -0.34078
 Alpha virt. eigenvalues --    0.03490   0.04879   0.05775   0.10757   0.12023
 Alpha virt. eigenvalues --    0.15386   0.17281   0.21211   0.22471   0.24052
 Alpha virt. eigenvalues --    0.25614   0.30709   0.32056   0.35045   0.38034

  Beta  occ. eigenvalues --  -20.57122 -11.26605  -1.46841  -0.85907  -0.70611
  Beta  occ. eigenvalues --   -0.61782  -0.52722  -0.50496
  Beta virt. eigenvalues --    0.03567   0.04970   0.05805   0.08449   0.11989
  Beta virt. eigenvalues --    0.15521   0.17291   0.19493   0.21472   0.22617
  Beta virt. eigenvalues --    0.24721   0.26609   0.31930   0.32425   0.35818

 Mulliken charges and spin densities:
               1          2
     1  C    0.500750   1.143065
     2  O   -0.962880   0.045248
     3  H    0.383630  -0.008889
     4  H    0.023527  -0.084876
     5  H    0.054974  -0.094548
 Sum of Mulliken charges =  -0.00000   1.00000

 Dipole moment (field-independent basis, Debye):
    X=              0.2474    Y=              1.5251    Z=              0.1999  Tot=              1.5579
                          Isotropic Fermi Contact Couplings
        Atom                 a.u.       MegaHertz       Gauss      10(-4) cm-1
     1  C(13)              0.23971     269.47527      96.15548      89.88728
     2  O(17)              0.05742     -34.80758     -12.42021     -11.61056
     3  H(1)              -0.00249     -11.11223      -3.96512      -3.70664
     4  H(1)              -0.02012     -89.93099     -32.08961     -29.99775
     5  H(1)              -0.01844     -82.43119     -29.41350     -27.49608
 --------------------------------------------------------
       Center         ----  Spin Dipole Couplings  ----
                      3XX-RR        3YY-RR        3ZZ-RR

 Normal termination of Gaussian 16 at Tue Apr  8 22:31:41 2025.
