 Gaussian 16, Revision C.01,

 ----------------------------------------------------------------------
 #t hf aug-cc-pvdz symm=none int=(grid=ultrafine) guess=(read,tcheck) s
 table=opt
 ----------------------------------------------------------------------
 -----
 title
 -----
 Symbolic Z-matrix:
 Charge =  0 Multiplicity = 2

 SCF Done:  E(UHF) =  -550.735167017     A.U. after   21 cycles
 Normal termination of Gaussian 16 at Tue Apr  8 23:13:25 2025.
 Gaussian 16:  ES64L-G16RevC.01  3-Jul-2019

 ----------------------------------------------------------------------
 #t hf aug-cc-pvdz iop(5/13=1,5/36=2,99/5=2) pseudo=read geom=check gue
 ss=(read,tcheck) scf=(maxcycle=1)
 ----------------------------------------------------------------------
 -----
 title
 -----
 Structure from the checkpoint file:  "BDE49_expt_819_mol2.chk"
 Charge =  0 Multiplicity = 2

                         Standard orientation:
 ---------------------------------------------------------------------
 Center     Atomic      Atomic             Coordinates (Angstroms)
 Number     Number       Type             X           Y           Z
 ---------------------------------------------------------------------
      1         15           0        2.557425   -0.287838   -0.021462
      2          6           0        0.761168   -0.157426    0.469922
      3          1           0        2.299184   -0.555718   -1.397785
      4          6           0       -0.049800    0.871392   -0.331439
      5          1           0        0.739132    0.092215    1.535814
      6          1           0        0.307995   -1.150383    0.367827
      7          6           0       -1.513926    1.003524    0.146172
      8          1           0       -0.043597    0.604033   -1.391678
      9          1           0        0.412774    1.859275   -0.250507
     10          6           0       -2.278056   -0.232704   -0.008557
     11          1           0       -2.021115    1.792116   -0.417968
     12          1           0       -1.544457    1.296940    1.200501
     13          7           0       -2.861087   -1.218517   -0.140124
 ---------------------------------------------------------------------

 SCF Done:  E(UHF) =  -550.992000297     A.U. after    2 cycles

 The electronic state is 2-A.
 Alpha  occ. eigenvalues --  -84.28680 -15.51508 -11.29836 -11.28440 -11.27384
 Alpha  occ. eigenvalues --  -11.25990  -6.75839  -4.28458  -4.27860  -4.27318
 Alpha  occ. eigenvalues --   -1.23712  -1.11523  -1.01103  -0.88655  -0.80065
 Alpha  occ. eigenvalues --   -0.72166  -0.66019  -0.63804  -0.60600  -0.60123
 Alpha  occ. eigenvalues --   -0.54952  -0.53065  -0.50150  -0.49308  -0.47359
 Alpha  occ. eigenvalues --   -0.39008  -0.33213
 Alpha virt. eigenvalues --    0.02847   0.03667   0.04227   0.04815   0.06231
 Alpha virt. eigenvalues --    0.06267   0.07170   0.08872   0.09770   0.10798
 Alpha virt. eigenvalues --    0.11864   0.12314   0.13209   0.13980   0.14613

  Beta  occ. eigenvalues --  -84.27999 -15.51483 -11.29826 -11.28457 -11.27293
  Beta  occ. eigenvalues --  -11.26133  -6.74976  -4.27347  -4.26915  -4.25118
  Beta  occ. eigenvalues --   -1.23676  -1.11315  -1.00413  -0.87350  -0.75436
  Beta  occ. eigenvalues --   -0.72151  -0.65679  -0.63549  -0.60260  -0.59944
  Beta  occ. eigenvalues --   -0.54525  -0.52765  -0.49975  -0.49227  -0.46957
  Beta  occ. eigenvalues --   -0.36938
  Beta virt. eigenvalues --    0.02388   0.03324   0.03816   0.04390   0.05504
  Beta virt. eigenvalues --    0.06256   0.06971   0.07325   0.09279   0.09993
  Beta virt. eigenvalues --    0.10994   0.11952   0.12660   0.13619   0.14282

 Mulliken charges and spin densities:
               1          2
     1  P    0.369641   1.283807
     2  C   -0.711491  -0.123461
     3  H    0.160583  -0.176514
     4  C   -0.374102   0.026043
     5  H    0.135170  -0.002132
     6  H    0.201493   0.004001
     7  C   -0.066949   0.002313
     8  H    0.168401  -0.003413
     9  H    0.171655  -0.008049
    10  C   -1.367830  -0.009571
    11  H    0.227968  -0.000619
    12  H    0.235057  -0.000072
    13  N    0.850403   0.007666
 Sum of Mulliken charges =  -0.00000   1.00000

 Dipole moment (field-independent basis, Debye):
    X=              1.8175    Y=              3.8614    Z=              0.4010  Tot=              4.2865
                          Isotropic Fermi Contact Couplings
        Atom                 a.u.       MegaHertz       Gauss      10(-4) cm-1
     1  P(31)              0.19824     359.03569     128.11286     119.76142
     2  C(13)             -0.02690     -30.23702     -10.78932     -10.08598
     3  H(1)              -0.01376     -61.48508     -21.93940     -20.50921
     4  C(13)              0.02586      29.07605      10.37506       9.69873
     5  H(1)               0.00047       2.12240       0.75732       0.70796
     6  H(1)               0.01049      46.89686      16.73396      15.64311
     7  C(13)              0.00140       1.57857       0.56327       0.52656
     8  H(1)              -0.00045      -2.00477      -0.71535      -0.66872

 Normal termination of Gaussian 16 at Tue Apr  8 23:13:30 2025.
