 Gaussian 16, Revision C.01,

 ----------------------------------------------------------------------
 #t hf aug-cc-pvdz symm=none int=(grid=ultrafine) guess=(read,tcheck) s
 table=(opt,rrhf)
 ----------------------------------------------------------------------
 -----
 title
 -----
 Symbolic Z-matrix:
 Charge =  0 Multiplicity = 1

 SCF Done:  E(RHF) =  -687.617069918     A.U. after   12 cycles
 Normal termination of Gaussian 16 at Tue Apr  8 23:42:13 2025.
 Gaussian 16:  ES64L-G16RevC.01  3-Jul-2019

 ----------------------------------------------------------------------
 #t hf aug-cc-pvdz iop(5/13=1,5/36=2,99/5=2) pseudo=read geom=check gue
 ss=(read,tcheck) scf=(maxcycle=1)
 ----------------------------------------------------------------------
 -----
 title
 -----
 Structure from the checkpoint file:  "BDE49_nonexpt_1673_mol1.chk"
 Charge =  0 Multiplicity = 1

                         Standard orientation:
 ---------------------------------------------------------------------
 Center     Atomic      Atomic             Coordinates (Angstroms)
 Number     Number       Type             X           Y           Z
 ---------------------------------------------------------------------
      1         14           0        1.447355    0.188923   -0.006807
      2         15           0       -0.666829   -0.673443   -0.096284
      3          7           0       -1.692900    0.704711    0.071228
      4          1           0       -2.141760    0.981978   -0.789950
      5          1           0       -1.371114    1.510550    0.591272
      6          1           0       -0.663057   -1.123924    1.249894
      7          1           0        1.763814    0.807814   -1.316874
      8          1           0        2.424804   -0.892631    0.269627
      9          1           0        1.577084    1.239957    1.036994
 ---------------------------------------------------------------------

 SCF Done:  E(RHF) =  -687.759183381     A.U. after    2 cycles

 The electronic state is 1-A.
 Alpha  occ. eigenvalues --  -84.28716 -69.53542 -15.50198  -6.75586  -6.20670
 Alpha  occ. eigenvalues --   -4.28232  -4.27639  -4.27162  -3.96013  -3.95995
 Alpha  occ. eigenvalues --   -3.95980  -1.16608  -0.85062  -0.73047  -0.70472
 Alpha  occ. eigenvalues --   -0.57614  -0.52834  -0.49866  -0.48922  -0.40315
 Alpha  occ. eigenvalues --   -0.33401
 Alpha virt. eigenvalues --    0.03377   0.04358   0.05177   0.05793   0.06887
 Alpha virt. eigenvalues --    0.07563   0.08408   0.08744   0.09180   0.09950
 Alpha virt. eigenvalues --    0.11634   0.13522   0.15142   0.16225   0.16866

 Mulliken charges:
               1
     1  Si   0.938531
     2  P   -0.479481
     3  N   -0.225388
     4  H    0.041014
     5  H    0.000853
     6  H    0.292509
     7  H   -0.201852
     8  H   -0.189310
     9  H   -0.176875
 Sum of Mulliken charges =  -0.00000

 Dipole moment (field-independent basis, Debye):
    X=              0.2352    Y=              0.9791    Z=             -0.1299  Tot=              1.0153

 Test job not archived.
 1\1\GINC-SE229\SP\RHF\Aug-CC-pVDZ\H6N1P1Si1\OHZDE\08-Apr-2025\0\\#t hf
  aug-cc-pvdz iop(5/13=1,5/36=2,99/5=2) pseudo=read geom=check guess=(r
 ead,tcheck) scf=(maxcycle=1)\\title\\0,1\Si,0,1.447355,0.188923,-0.006
 807\P,0,-0.666829,-0.673443,-0.096284\N,0,-1.6929,0.704711,0.071228\H,
 0,-2.14176,0.981978,-0.78995\H,0,-1.371114,1.51055,0.591272\H,0,-0.663
 057,-1.123924,1.249894\H,0,1.763814,0.807814,-1.316874\H,0,2.424804,-0
 .892631,0.269627\H,0,1.577084,1.239957,1.036994\\Version=ES64L-G16RevC
 .01\State=1-A\HF=-687.7591834\RMSD=1.975e-02\Dipole=0.0925343,0.385206

 Normal termination of Gaussian 16 at Tue Apr  8 23:42:17 2025.
