 Gaussian 16, Revision C.01,

 ----------------------------------------------------------------------
 #t hf aug-cc-pvdz symm=none int=(grid=ultrafine) guess=(read,tcheck) s
 table=(opt,rrhf)
 ----------------------------------------------------------------------
 -----
 title
 -----
 Symbolic Z-matrix:
 Charge =  0 Multiplicity = 1

 SCF Done:  E(RHF) =  -610.264676363     A.U. after   14 cycles
 Normal termination of Gaussian 16 at Wed Apr  9 00:21:36 2025.
 Gaussian 16:  ES64L-G16RevC.01  3-Jul-2019

 ----------------------------------------------------------------------
 #t hf aug-cc-pvdz iop(5/13=1,5/36=2,99/5=2) pseudo=read geom=check gue
 ss=(read,tcheck) scf=(maxcycle=1)
 ----------------------------------------------------------------------
 -----
 title
 -----
 Structure from the checkpoint file:  "BDE49_nonexpt_2646_mol1.chk"
 Charge =  0 Multiplicity = 1

                         Standard orientation:
 ---------------------------------------------------------------------
 Center     Atomic      Atomic             Coordinates (Angstroms)
 Number     Number       Type             X           Y           Z
 ---------------------------------------------------------------------
      1          9           0        1.660665    0.576116   -0.000001
      2         16           0        0.488734   -0.601443    0.000000
      3          6           0       -0.944701    0.460919    0.000001
      4          8           0       -2.055577    0.018082   -0.000001
      5          1           0       -0.652908    1.527872    0.000002
 ---------------------------------------------------------------------

 SCF Done:  E(RHF) =  -610.519815754     A.U. after    2 cycles

 The electronic state is 1-A.
 Alpha  occ. eigenvalues --  -94.07158 -26.50414 -20.59155 -11.40984  -8.34588
 Alpha  occ. eigenvalues --   -6.32349  -6.32060  -6.31782  -1.60615  -1.52895
 Alpha  occ. eigenvalues --   -1.07310  -0.85753  -0.73255  -0.70364  -0.68741
 Alpha  occ. eigenvalues --   -0.65852  -0.59144  -0.59085  -0.44864  -0.41919
 Alpha virt. eigenvalues --    0.03986   0.04946   0.06663   0.07624   0.10301
 Alpha virt. eigenvalues --    0.10667   0.11780   0.14270   0.15007   0.15659
 Alpha virt. eigenvalues --    0.21519   0.23281   0.24152   0.24841   0.27213

 Mulliken charges:
               1
     1  F   -0.669125
     2  S    1.011449
     3  C    0.299308
     4  O   -0.889448
     5  H    0.247816
 Sum of Mulliken charges =  -0.00000

 Dipole moment (field-independent basis, Debye):
    X=              0.8302    Y=              0.6885    Z=              0.0000  Tot=              1.0786

 Test job not archived.
 1\1\GINC-SE435\SP\RHF\Aug-CC-pVDZ\C1H1F1O1S1\OHZDE\09-Apr-2025\0\\#t h
 f aug-cc-pvdz iop(5/13=1,5/36=2,99/5=2) pseudo=read geom=check guess=(
 read,tcheck) scf=(maxcycle=1)\\title\\0,1\F,0,1.660665,0.576116,-0.000
 001\S,0,0.488734,-0.601443,0.\C,0,-0.944701,0.460919,0.000001\O,0,-2.0
 55577,0.018082,-0.000001\H,0,-0.652908,1.527872,0.000002\\Version=ES64
 L-G16RevC.01\State=1-A\HF=-610.5198158\RMSD=6.415e-03\Dipole=0.3266453
 ,0.2708664,0.0000018\Quadrupole=-3.997859,3.0152279,0.9826311,-1.52939
 35,-0.0000045,0.0000021\PG=C01 [X(C1H1F1O1S1)]\\@

 Normal termination of Gaussian 16 at Wed Apr  9 00:21:38 2025.
