 Gaussian 16, Revision C.01,

 ----------------------------------------------------------------------
 #t hf aug-cc-pvdz symm=none int=(grid=ultrafine) guess=(read,tcheck) s
 table=opt
 ----------------------------------------------------------------------
 -----
 title
 -----
 Symbolic Z-matrix:
 Charge =  0 Multiplicity = 2

 SCF Done:  E(UHF) =  -856.650709852     A.U. after   16 cycles
 Normal termination of Gaussian 16 at Tue Apr  8 23:54:28 2025.
 Gaussian 16:  ES64L-G16RevC.01  3-Jul-2019

 ----------------------------------------------------------------------
 #t hf aug-cc-pvdz iop(5/13=1,5/36=2,99/5=2) pseudo=read geom=check gue
 ss=(read,tcheck) scf=(maxcycle=1)
 ----------------------------------------------------------------------
 -----
 title
 -----
 Structure from the checkpoint file:  "BDE49_nonexpt_1954_mol2.chk"
 Charge =  0 Multiplicity = 2

                         Standard orientation:
 ---------------------------------------------------------------------
 Center     Atomic      Atomic             Coordinates (Angstroms)
 Number     Number       Type             X           Y           Z
 ---------------------------------------------------------------------
      1         14           0       -1.846009   -0.129226    0.054291
      2         15           0        0.413366   -0.060950   -0.116295
      3          1           0       -2.361880    0.756568    1.124036
      4          1           0       -2.470022    0.151445   -1.258055
      5          8           0        0.716011    1.516707   -0.170575
      6          1           0        1.652486    1.726718   -0.297136
      7          8           0        0.981882   -0.438145    1.357665
      8          1           0        1.329469   -1.339024    1.367582
      9          8           0        0.988805   -0.900099   -1.181099
 ---------------------------------------------------------------------

 SCF Done:  E(UHF) =  -856.946204817     A.U. after    2 cycles

 The electronic state is 2-A.
 Alpha  occ. eigenvalues --  -84.42700 -69.56795 -20.59743 -20.59350 -20.50592
 Alpha  occ. eigenvalues --   -6.88050  -6.24012  -4.42086  -4.41361  -4.40297
 Alpha  occ. eigenvalues --   -3.99966  -3.99054  -3.99005  -1.53249  -1.47344
 Alpha  occ. eigenvalues --   -1.38733  -0.87942  -0.76267  -0.73421  -0.67030
 Alpha  occ. eigenvalues --   -0.63294  -0.60146  -0.55355  -0.54824  -0.52414
 Alpha  occ. eigenvalues --   -0.49102  -0.45889  -0.42825  -0.36135
 Alpha virt. eigenvalues --    0.03205   0.04380   0.04777   0.06298   0.06895
 Alpha virt. eigenvalues --    0.07116   0.08816   0.10523   0.11004   0.12611
 Alpha virt. eigenvalues --    0.13843   0.15459   0.15894   0.16387   0.17248

  Beta  occ. eigenvalues --  -84.42688 -69.56208 -20.59664 -20.59381 -20.50605
  Beta  occ. eigenvalues --   -6.88030  -6.23128  -4.42059  -4.41345  -4.40286
  Beta  occ. eigenvalues --   -3.98637  -3.98589  -3.97714  -1.53166  -1.47288
  Beta  occ. eigenvalues --   -1.38769  -0.87082  -0.73955  -0.71446  -0.66960
  Beta  occ. eigenvalues --   -0.63054  -0.59941  -0.55269  -0.54789  -0.51732
  Beta  occ. eigenvalues --   -0.48891  -0.45683  -0.42059
  Beta virt. eigenvalues --    0.00506   0.03367   0.04540   0.05214   0.06421
  Beta virt. eigenvalues --    0.07350   0.07952   0.09160   0.10643   0.11155
  Beta virt. eigenvalues --    0.13554   0.14949   0.16305   0.17070   0.17838

 Mulliken charges and spin densities:
               1          2
     1  Si   0.733908   1.020206
     2  P    2.852578   0.005838
     3  H   -0.135672   0.003569
     4  H   -0.164403  -0.002234
     5  O   -1.244136  -0.030072
     6  H    0.332881   0.002713
     7  O   -1.267586  -0.003729
     8  H    0.342829   0.002144
     9  O   -1.450399   0.001565
 Sum of Mulliken charges =  -0.00000   1.00000

 Dipole moment (field-independent basis, Debye):
    X=             -0.5194    Y=              0.7630    Z=              1.9321  Tot=              2.1412
                          Isotropic Fermi Contact Couplings
        Atom                 a.u.       MegaHertz       Gauss      10(-4) cm-1
     1  Si(29)             0.57601    -511.91917    -182.66549    -170.75786
     2  P(31)              0.02454      44.43592      15.85584      14.82223
     3  H(1)               0.00054       2.43287       0.86811       0.81152
     4  H(1)              -0.00098      -4.37996      -1.56288      -1.46100
     5  O(17)              0.04295     -26.03485      -9.28988      -8.68429
     6  H(1)               0.00304      13.59410       4.85071       4.53450
     7  O(17)             -0.00588       3.56548       1.27225       1.18932
     8  H(1)               0.00023       1.05011       0.37471       0.35028

 Normal termination of Gaussian 16 at Tue Apr  8 23:54:31 2025.
