 Gaussian 16, Revision C.01,

 ----------------------------------------------------------------------
 #t hf aug-cc-pvdz symm=none int=(grid=ultrafine) guess=(read,tcheck) s
 table=(opt,rrhf)
 ----------------------------------------------------------------------
 -----
 title
 -----
 Symbolic Z-matrix:
 Charge =  0 Multiplicity = 1

 SCF Done:  E(RHF) =  -839.284504808     A.U. after   15 cycles
 Normal termination of Gaussian 16 at Tue Apr  8 23:10:24 2025.
 Gaussian 16:  ES64L-G16RevC.01  3-Jul-2019

 ----------------------------------------------------------------------
 #t hf aug-cc-pvdz iop(5/13=1,5/36=2,99/5=2) pseudo=read geom=check gue
 ss=(read,tcheck) scf=(maxcycle=1)
 ----------------------------------------------------------------------
 -----
 title
 -----
 Structure from the checkpoint file:  "BDE49_expt_635_mol1.chk"
 Charge =  0 Multiplicity = 1

                         Standard orientation:
 ---------------------------------------------------------------------
 Center     Atomic      Atomic             Coordinates (Angstroms)
 Number     Number       Type             X           Y           Z
 ---------------------------------------------------------------------
      1          6           0       -1.385642   -0.019376    0.002043
      2          6           0       -0.830716    1.258337   -0.003139
      3          6           0        0.549576    1.405557   -0.008773
      4          6           0       -0.574039   -1.145821    0.001321
      5          6           0        0.813001   -1.004809   -0.000373
      6          6           0        1.365549    0.271678    0.000645
      7          1           0       -1.472480    2.129682   -0.007278
      8          1           0        1.003891    2.388523   -0.018427
      9          1           0       -1.017464   -2.133097   -0.000464
     10          1           0        1.456875   -1.870985   -0.006752
     11          8           0        2.716470    0.542602    0.011879
     12          8           0        3.490125   -0.672075   -0.099877
     13          1           0        4.022666   -0.599130    0.704803
     14         17           0       -3.133683   -0.204271    0.004809
 ---------------------------------------------------------------------

 SCF Done:  E(RHF) =  -839.738685238     A.U. after    2 cycles

 The electronic state is 1-A.
 Alpha  occ. eigenvalues -- -105.57153 -20.64746 -20.64432 -11.32537 -11.30797
 Alpha  occ. eigenvalues --  -11.26787 -11.26715 -11.25979 -11.25757 -10.61941
 Alpha  occ. eigenvalues --   -7.78907  -7.78513  -7.78491  -1.62136  -1.33584
 Alpha  occ. eigenvalues --   -1.18436  -1.09201  -1.04357  -0.98095  -0.87434
 Alpha  occ. eigenvalues --   -0.82972  -0.74568  -0.74186  -0.69439  -0.66876
 Alpha  occ. eigenvalues --   -0.64297  -0.62687  -0.61590  -0.57311  -0.54858
 Alpha  occ. eigenvalues --   -0.54453  -0.52799  -0.50623  -0.46557  -0.46302
 Alpha  occ. eigenvalues --   -0.36975  -0.33238
 Alpha virt. eigenvalues --    0.03067   0.03798   0.04263   0.05450   0.06276
 Alpha virt. eigenvalues --    0.08733   0.09187   0.09555   0.10598   0.12294
 Alpha virt. eigenvalues --    0.12842   0.13267   0.13582   0.13947   0.14090

 Mulliken charges:
               1
     1  C   -0.190479
     2  C    0.528149
     3  C    0.200852
     4  C    0.317405
     5  C    0.160636
     6  C    1.403937
     7  H   -0.160553
     8  H   -0.246201
     9  H   -0.142437
    10  H   -0.204808
    11  O   -1.334802
    12  O   -0.443599
    13  H    0.441354
    14  Cl  -0.329455
 Sum of Mulliken charges =  -0.00000

 Dipole moment (field-independent basis, Debye):
    X=              2.1196    Y=             -0.1490    Z=              1.3088  Tot=              2.4955

 Test job not archived.
 1\1\GINC-SE453\SP\RHF\Aug-CC-pVDZ\C6H5Cl1O2\OHZDE\08-Apr-2025\0\\#t hf
  aug-cc-pvdz iop(5/13=1,5/36=2,99/5=2) pseudo=read geom=check guess=(r
 ead,tcheck) scf=(maxcycle=1)\\title\\0,1\C,0,-1.385642,-0.019376,0.002
 043\C,0,-0.830716,1.258337,-0.003139\C,0,0.549576,1.405557,-0.008773\C
 ,0,-0.574039,-1.145821,0.001321\C,0,0.813001,-1.004809,-0.000373\C,0,1
 .365549,0.271678,0.000645\H,0,-1.47248,2.129682,-0.007278\H,0,1.003891
 ,2.388523,-0.018427\H,0,-1.017464,-2.133097,-0.000464\H,0,1.456875,-1.
 870985,-0.006752\O,0,2.71647,0.542602,0.011879\O,0,3.490125,-0.672075,

 Normal termination of Gaussian 16 at Tue Apr  8 23:10:29 2025.
