 Gaussian 16, Revision C.01,

 ----------------------------------------------------------------------
 #t hf aug-cc-pvdz symm=none int=(grid=ultrafine) guess=(read,tcheck) s
 table=(opt,rrhf)
 ----------------------------------------------------------------------
 -----
 title
 -----
 Symbolic Z-matrix:
 Charge =  0 Multiplicity = 1

 SCF Done:  E(RHF) =  -515.803694762     A.U. after   12 cycles
 Normal termination of Gaussian 16 at Tue Apr  8 22:45:31 2025.
 Gaussian 16:  ES64L-G16RevC.01  3-Jul-2019

 ----------------------------------------------------------------------
 #t hf aug-cc-pvdz iop(5/13=1,5/36=2,99/5=2) pseudo=read geom=check gue
 ss=(read,tcheck) scf=(maxcycle=1)
 ----------------------------------------------------------------------
 -----
 title
 -----
 Structure from the checkpoint file:  "BDE49_expt_1562_mol1.chk"
 Charge =  0 Multiplicity = 1

                         Standard orientation:
 ---------------------------------------------------------------------
 Center     Atomic      Atomic             Coordinates (Angstroms)
 Number     Number       Type             X           Y           Z
 ---------------------------------------------------------------------
      1         16           0       -0.706743   -0.682544   -0.220488
      2          6           0       -1.495405    0.920961    0.135599
      3          1           0       -1.495962    1.125739    1.208159
      4          1           0       -2.527981    0.839848   -0.206411
      5          1           0       -1.014502    1.739459   -0.401273
      6          6           0        0.957752   -0.422443    0.499095
      7          6           0        1.848379    0.557317   -0.261676
      8          1           0        1.402876   -1.420600    0.503565
      9          1           0        0.836759   -0.121263    1.543591
     10          1           0        1.983387    0.238362   -1.297335
     11          1           0        2.834182    0.619745    0.210923
     12          1           0        1.424775    1.564409   -0.271522
 ---------------------------------------------------------------------

 SCF Done:  E(RHF) =  -515.999586924     A.U. after    2 cycles

 The electronic state is 1-A.
 Alpha  occ. eigenvalues --  -93.93524 -11.26608 -11.26104 -11.23389  -8.21592
 Alpha  occ. eigenvalues --   -6.19422  -6.19259  -6.19045  -1.09091  -1.00296
 Alpha  occ. eigenvalues --   -0.89690  -0.79876  -0.63589  -0.61255  -0.59131
 Alpha  occ. eigenvalues --   -0.56742  -0.54762  -0.52054  -0.48170  -0.43160
 Alpha  occ. eigenvalues --   -0.34198
 Alpha virt. eigenvalues --    0.03662   0.03922   0.04384   0.04831   0.06416
 Alpha virt. eigenvalues --    0.06977   0.07764   0.08626   0.10656   0.12606
 Alpha virt. eigenvalues --    0.13935   0.14634   0.15478   0.15791   0.16277

 Mulliken charges:
               1
     1  S    0.418252
     2  C   -0.699805
     3  H    0.174439
     4  H    0.139741
     5  H    0.203528
     6  C   -0.720529
     7  C   -0.362481
     8  H    0.194499
     9  H    0.197418
    10  H    0.182572
    11  H    0.145197
    12  H    0.127168
 Sum of Mulliken charges =   0.00000

 Dipole moment (field-independent basis, Debye):
    X=              0.8079    Y=              1.4687    Z=              0.8237  Tot=              1.8676

 Test job not archived.
 1\1\GINC-SE403\SP\RHF\Aug-CC-pVDZ\C3H8S1\OHZDE\08-Apr-2025\0\\#t hf au
 g-cc-pvdz iop(5/13=1,5/36=2,99/5=2) pseudo=read geom=check guess=(read
 ,tcheck) scf=(maxcycle=1)\\title\\0,1\S,0,-0.706743,-0.682544,-0.22048
 8\C,0,-1.495405,0.920961,0.135599\H,0,-1.495962,1.125739,1.208159\H,0,
 -2.527981,0.839848,-0.206411\H,0,-1.014502,1.739459,-0.401273\C,0,0.95
 7752,-0.422443,0.499095\C,0,1.848379,0.557317,-0.261676\H,0,1.402876,-
 1.4206,0.503565\H,0,0.836759,-0.121263,1.543591\H,0,1.983387,0.238362,
 -1.297335\H,0,2.834182,0.619745,0.210923\H,0,1.424775,1.564409,-0.2715

 Normal termination of Gaussian 16 at Tue Apr  8 22:45:35 2025.
