 Gaussian 16, Revision C.01,

 ----------------------------------------------------------------------
 #t hf aug-cc-pvdz symm=none int=(grid=ultrafine) guess=(read,tcheck) s
 table=(opt,rrhf)
 ----------------------------------------------------------------------
 -----
 title
 -----
 Symbolic Z-matrix:
 Charge =  0 Multiplicity = 1

 SCF Done:  E(RHF) =  -583.499593058     A.U. after   12 cycles
 Normal termination of Gaussian 16 at Wed Apr  9 00:45:34 2025.
 Gaussian 16:  ES64L-G16RevC.01  3-Jul-2019

 ----------------------------------------------------------------------
 #t hf aug-cc-pvdz iop(5/13=1,5/36=2,99/5=2) pseudo=read geom=check gue
 ss=(read,tcheck) scf=(maxcycle=1)
 ----------------------------------------------------------------------
 -----
 title
 -----
 Structure from the checkpoint file:  "BDE49_nonexpt_773_mol1.chk"
 Charge =  0 Multiplicity = 1

                         Standard orientation:
 ---------------------------------------------------------------------
 Center     Atomic      Atomic             Coordinates (Angstroms)
 Number     Number       Type             X           Y           Z
 ---------------------------------------------------------------------
      1         14           0        0.450572    1.233709   -0.140141
      2          5           0        1.765564   -0.321603   -0.027437
      3          8           0        2.917480   -0.323915    0.716202
      4          8           0        1.482940   -1.442541   -0.749895
      5          6           0       -1.319782    0.672478   -0.500880
      6          6           0       -1.903288   -0.310874    0.529546
      7          1           0       -1.323427    0.209295   -1.495163
      8          1           0       -1.958274    1.561162   -0.575760
      9          6           0       -3.340612   -0.736624    0.210867
     10          1           0       -1.875478    0.142506    1.527664
     11          1           0       -1.266565   -1.200983    0.578878
     12          1           0       -4.011744    0.127635    0.187254
     13          1           0       -3.724597   -1.437219    0.958227
     14          1           0       -3.396978   -1.226339   -0.766156
     15          1           0        3.052264    0.480686    1.223063
     16          1           0        2.161575   -2.122978   -0.646057
     17          1           0        0.894449    2.182286   -1.199525
     18          1           0        0.491668    2.001797    1.139079
 ---------------------------------------------------------------------

 SCF Done:  E(RHF) =  -583.840886054     A.U. after    2 cycles

 The electronic state is 1-A.
 Alpha  occ. eigenvalues --  -69.50621 -20.56563 -20.55845 -11.23091 -11.22064
 Alpha  occ. eigenvalues --  -11.21560  -7.64069  -6.17886  -3.93244  -3.93223
 Alpha  occ. eigenvalues --   -3.93190  -1.48541  -1.44102  -1.05483  -0.92709
 Alpha  occ. eigenvalues --   -0.80847  -0.78048  -0.74382  -0.69908  -0.63284
 Alpha  occ. eigenvalues --   -0.60924  -0.57681  -0.57306  -0.56087  -0.54679
 Alpha  occ. eigenvalues --   -0.54219  -0.49492  -0.48973  -0.47725  -0.46204
 Alpha  occ. eigenvalues --   -0.43395  -0.41168
 Alpha virt. eigenvalues --    0.03279   0.03755   0.03997   0.04144   0.05539
 Alpha virt. eigenvalues --    0.05970   0.06352   0.06926   0.07135   0.08650
 Alpha virt. eigenvalues --    0.09012   0.09147   0.10047   0.10501   0.10661

 Mulliken charges:
               1
     1  Si   0.640495
     2  B    1.621374
     3  O   -1.328701
     4  O   -1.288695
     5  C   -0.551876
     6  C   -0.358100
     7  H    0.139110
     8  H    0.044897
     9  C   -0.350520
    10  H    0.136514
    11  H    0.108147
    12  H    0.161366
    13  H    0.116788
    14  H    0.173975
    15  H    0.532390
    16  H    0.504432
    17  H   -0.215068
    18  H   -0.086529
 Sum of Mulliken charges =  -0.00000

 Dipole moment (field-independent basis, Debye):
    X=              0.4589    Y=             -0.0085    Z=              0.7507  Tot=              0.8799

 Test job not archived.
 1\1\GINC-SE097\SP\RHF\Aug-CC-pVDZ\C3H11B1O2Si1\OHZDE\09-Apr-2025\0\\#t
  hf aug-cc-pvdz iop(5/13=1,5/36=2,99/5=2) pseudo=read geom=check guess
 =(read,tcheck) scf=(maxcycle=1)\\title\\0,1\Si,0,0.450572,1.233709,-0.
 140141\B,0,1.765564,-0.321603,-0.027437\O,0,2.91748,-0.323915,0.716202
 \O,0,1.48294,-1.442541,-0.749895\C,0,-1.319782,0.672478,-0.50088\C,0,-
 1.903288,-0.310874,0.529546\H,0,-1.323427,0.209295,-1.495163\H,0,-1.95
 8274,1.561162,-0.57576\C,0,-3.340612,-0.736624,0.210867\H,0,-1.875478,
 0.142506,1.527664\H,0,-1.266565,-1.200983,0.578878\H,0,-4.011744,0.127

 Normal termination of Gaussian 16 at Wed Apr  9 00:45:42 2025.
