 Gaussian 16, Revision C.01,

 ----------------------------------------------------------------------
 #t hf aug-cc-pvdz symm=none int=(grid=ultrafine) guess=(read,tcheck) s
 table=(opt,rrhf)
 ----------------------------------------------------------------------
 -----
 title
 -----
 Symbolic Z-matrix:
 Charge =  0 Multiplicity = 1

 SCF Done:  E(RHF) =  -935.355637804     A.U. after   13 cycles
 Normal termination of Gaussian 16 at Tue Apr  8 23:40:43 2025.
 Gaussian 16:  ES64L-G16RevC.01  3-Jul-2019

 ----------------------------------------------------------------------
 #t hf aug-cc-pvdz iop(5/13=1,5/36=2,99/5=2) pseudo=read geom=check gue
 ss=(read,tcheck) scf=(maxcycle=1)
 ----------------------------------------------------------------------
 -----
 title
 -----
 Structure from the checkpoint file:  "BDE49_nonexpt_1634_mol1.chk"
 Charge =  0 Multiplicity = 1

                         Standard orientation:
 ---------------------------------------------------------------------
 Center     Atomic      Atomic             Coordinates (Angstroms)
 Number     Number       Type             X           Y           Z
 ---------------------------------------------------------------------
      1         14           0        0.795220   -1.133038   -0.266278
      2         15           0       -1.026755    0.207732   -0.020962
      3          8           0       -0.898332    1.590775   -0.523106
      4          8           0       -1.328819    0.040767    1.553701
      5          6           0        2.302301   -0.282098    0.472387
      6          6           0        2.693077    1.034262   -0.225257
      7          1           0        1.868272    1.750079   -0.217279
      8          1           0        2.967081    0.861449   -1.269802
      9          1           0        3.551291    1.497965    0.268673
     10          1           0        3.132396   -0.997697    0.435952
     11          1           0        2.100317   -0.108207    1.535011
     12          8           0       -2.293015   -0.570519   -0.682206
     13          1           0       -2.570847   -0.131858   -1.496239
     14          1           0       -2.027009    0.628677    1.873768
     15          1           0        0.929508   -1.318428   -1.730562
     16          1           0        0.506304   -2.436598    0.372888
 ---------------------------------------------------------------------

 SCF Done:  E(RHF) =  -935.746568028     A.U. after    2 cycles

 The electronic state is 1-A.
 Alpha  occ. eigenvalues --  -84.41409 -69.54629 -20.59032 -20.58614 -20.49914
 Alpha  occ. eigenvalues --  -11.23688 -11.23238  -6.86819  -6.21790  -4.40851
 Alpha  occ. eigenvalues --   -4.40167  -4.39162  -3.97148  -3.97093  -3.97068
 Alpha  occ. eigenvalues --   -1.52355  -1.46590  -1.37961  -1.03391  -0.87619
 Alpha  occ. eigenvalues --   -0.85049  -0.73482  -0.72195  -0.66370  -0.62812
 Alpha  occ. eigenvalues --   -0.61944  -0.59266  -0.58925  -0.54377  -0.54196
 Alpha  occ. eigenvalues --   -0.53249  -0.51032  -0.49555  -0.48364  -0.45389
 Alpha  occ. eigenvalues --   -0.44956  -0.40531
 Alpha virt. eigenvalues --    0.03339   0.03802   0.04109   0.04746   0.05715
 Alpha virt. eigenvalues --    0.06195   0.07107   0.07366   0.08267   0.09400
 Alpha virt. eigenvalues --    0.10084   0.11011   0.11912   0.12438   0.12881

 Mulliken charges:
               1
     1  Si   0.970994
     2  P    3.210920
     3  O   -1.573199
     4  O   -1.269965
     5  C   -0.673146
     6  C   -0.300603
     7  H    0.132480
     8  H    0.145089
     9  H    0.118295
    10  H    0.033340
    11  H    0.167989
    12  O   -1.328401
    13  H    0.324168
    14  H    0.313074
    15  H   -0.138112
    16  H   -0.132924
 Sum of Mulliken charges =  -0.00000

 Dipole moment (field-independent basis, Debye):
    X=              0.3297    Y=             -1.5653    Z=              0.4781  Tot=              1.6696

 Test job not archived.
 1\1\GINC-SE366\SP\RHF\Aug-CC-pVDZ\C2H9O3P1Si1\OHZDE\08-Apr-2025\0\\#t
 hf aug-cc-pvdz iop(5/13=1,5/36=2,99/5=2) pseudo=read geom=check guess=
 (read,tcheck) scf=(maxcycle=1)\\title\\0,1\Si,0,0.79522,-1.133038,-0.2
 66278\P,0,-1.026755,0.207732,-0.020962\O,0,-0.898332,1.590775,-0.52310
 6\O,0,-1.328819,0.040767,1.553701\C,0,2.302301,-0.282098,0.472387\C,0,
 2.693077,1.034262,-0.225257\H,0,1.868272,1.750079,-0.217279\H,0,2.9670
 81,0.861449,-1.269802\H,0,3.551291,1.497965,0.268673\H,0,3.132396,-0.9
 97697,0.435952\H,0,2.100317,-0.108207,1.535011\O,0,-2.293015,-0.570519

 Normal termination of Gaussian 16 at Tue Apr  8 23:40:48 2025.
