 Gaussian 16, Revision C.01,

 ----------------------------------------------------------------------
 #t hf aug-cc-pvdz symm=none int=(grid=ultrafine) guess=(read,tcheck) s
 table=opt
 ----------------------------------------------------------------------
 -----
 title
 -----
 Symbolic Z-matrix:
 Charge =  0 Multiplicity = 2

 SCF Done:  E(UHF) =  -1706.41822610     A.U. after   17 cycles
 Normal termination of Gaussian 16 at Tue Apr  8 23:46:21 2025.
 Gaussian 16:  ES64L-G16RevC.01  3-Jul-2019

 ----------------------------------------------------------------------
 #t hf aug-cc-pvdz iop(5/13=1,5/36=2,99/5=2) pseudo=read geom=check gue
 ss=(read,tcheck) scf=(maxcycle=1)
 ----------------------------------------------------------------------
 -----
 title
 -----
 Structure from the checkpoint file:  "BDE49_nonexpt_1767_mol2.chk"
 Charge =  0 Multiplicity = 2

                         Standard orientation:
 ---------------------------------------------------------------------
 Center     Atomic      Atomic             Coordinates (Angstroms)
 Number     Number       Type             X           Y           Z
 ---------------------------------------------------------------------
      1         14           0       -0.627083   -1.807782    0.000000
      2          6           0       -0.018143    0.014823   -0.000000
      3         17           0       -0.627083    0.857070    1.470890
      4         17           0       -0.627083    0.857070   -1.470890
      5         17           0        1.790426    0.057528   -0.000000
      6          1           0       -0.114194   -2.449173    1.232909
      7          1           0       -0.114194   -2.449173   -1.232909
 ---------------------------------------------------------------------

 SCF Done:  E(UHF) =  -1706.71132041     A.U. after    2 cycles

 The electronic state is 2-A'.
 Alpha  occ. eigenvalues -- -105.59760-105.59759-105.59687 -69.57938 -11.43410
 Alpha  occ. eigenvalues --  -10.64565 -10.64554 -10.64476  -7.81498  -7.81494
 Alpha  occ. eigenvalues --   -7.81460  -7.81084  -7.81083  -7.81079  -7.81077
 Alpha  occ. eigenvalues --   -7.81015  -7.80981  -6.24968  -4.00898  -4.00009
 Alpha  occ. eigenvalues --   -3.99953  -1.20098  -1.06746  -1.06705  -0.86713
 Alpha  occ. eigenvalues --   -0.74847  -0.63473  -0.63360  -0.60674  -0.53322
 Alpha  occ. eigenvalues --   -0.51785  -0.50972  -0.47759  -0.47230  -0.46075
 Alpha  occ. eigenvalues --   -0.44758  -0.37080
 Alpha virt. eigenvalues --    0.03464   0.05511   0.05618   0.05994   0.07506
 Alpha virt. eigenvalues --    0.08023   0.09081   0.10330   0.11133   0.13401
 Alpha virt. eigenvalues --    0.14139   0.14345   0.14791   0.16856   0.17377

  Beta  occ. eigenvalues -- -105.59761-105.59760-105.59631 -69.57344 -11.43391
  Beta  occ. eigenvalues --  -10.64566 -10.64555 -10.64415  -7.81510  -7.81506
  Beta  occ. eigenvalues --   -7.81319  -7.81083  -7.81081  -7.81075  -7.81073
  Beta  occ. eigenvalues --   -7.80947  -7.80910  -6.24053  -3.99602  -3.99556
  Beta  occ. eigenvalues --   -3.98666  -1.19934  -1.06744  -1.06411  -0.85362
  Beta  occ. eigenvalues --   -0.72077  -0.63385  -0.62966  -0.59514  -0.52573
  Beta  occ. eigenvalues --   -0.51336  -0.50596  -0.47456  -0.47135  -0.46012
  Beta  occ. eigenvalues --   -0.44112
  Beta virt. eigenvalues --    0.00648   0.03805   0.05578   0.05868   0.07176
  Beta virt. eigenvalues --    0.07969   0.08204   0.09267   0.10595   0.11267
  Beta virt. eigenvalues --    0.13814   0.14388   0.14803   0.15700   0.17981

 Mulliken charges and spin densities:
               1          2
     1  Si   0.949361   0.936647
     2  C   -1.016487  -0.032536
     3  Cl   0.107060   0.000602
     4  Cl   0.107060   0.000602
     5  Cl   0.092282   0.022503
     6  H   -0.119638   0.036091
     7  H   -0.119638   0.036091
 Sum of Mulliken charges =  -0.00000   1.00000

 Dipole moment (field-independent basis, Debye):
    X=             -0.5027    Y=             -1.6711    Z=              0.0000  Tot=              1.7451
                          Isotropic Fermi Contact Couplings
        Atom                 a.u.       MegaHertz       Gauss      10(-4) cm-1
     1  Si(29)             0.67374    -598.77250    -213.65692    -199.72901
     2  C(13)              0.01319      14.82791       5.29097       4.94606
     3  Cl(35)             0.00059       0.25856       0.09226       0.08625
     4  Cl(35)             0.00059       0.25856       0.09226       0.08625
     5  Cl(35)             0.03200      14.03012       5.00630       4.67994
     6  H(1)               0.00792      35.41231      12.63599      11.81228
     7  H(1)               0.00792      35.41231      12.63599      11.81228
 --------------------------------------------------------

 Normal termination of Gaussian 16 at Tue Apr  8 23:46:23 2025.
