 Gaussian 16, Revision C.01,

 ----------------------------------------------------------------------
 #t hf aug-cc-pvdz symm=none int=(grid=ultrafine) guess=(read,tcheck) s
 table=(opt,rrhf)
 ----------------------------------------------------------------------
 -----
 title
 -----
 Symbolic Z-matrix:
 Charge =  0 Multiplicity = 1

 SCF Done:  E(RHF) =  -861.757880014     A.U. after   18 cycles
 Normal termination of Gaussian 16 at Tue Apr  8 23:32:54 2025.
 Gaussian 16:  ES64L-G16RevC.01  3-Jul-2019

 ----------------------------------------------------------------------
 #t hf aug-cc-pvdz iop(5/13=1,5/36=2,99/5=2) pseudo=read geom=check gue
 ss=(read,tcheck) scf=(maxcycle=1)
 ----------------------------------------------------------------------
 -----
 title
 -----
 Structure from the checkpoint file:  "BDE49_nonexpt_1353_mol1.chk"
 Charge =  0 Multiplicity = 1

                         Standard orientation:
 ---------------------------------------------------------------------
 Center     Atomic      Atomic             Coordinates (Angstroms)
 Number     Number       Type             X           Y           Z
 ---------------------------------------------------------------------
      1          6           0       -0.998355    2.314266   -0.572094
      2          1           0       -1.856982    2.987857   -0.573219
      3          1           0       -0.544004    2.344067   -1.568370
      4          1           0       -0.255584    2.703089    0.128685
      5          9           0        1.601151   -1.509582   -1.183054
      6          8           0        1.871591    1.579300    1.049005
      7         15           0        1.143583    0.067918   -1.027751
      8          6           0        2.864308   -0.599825    1.266250
      9          1           0        3.294580   -0.202128    2.185952
     10          1           0        3.657475   -0.917927    0.583770
     11          1           0        2.260832   -1.486058    1.480361
     12          6           0       -0.539325   -0.186443   -0.325628
     13          6           0        2.013330    0.461166    0.612637
     14          6           0       -1.417633    0.910745   -0.203140
     15          6           0       -0.963634   -1.474405    0.022127
     16          1           0       -0.286713   -2.310528   -0.100988
     17          6           0       -3.122632   -0.611540    0.638749
     18          1           0       -4.129008   -0.766553    1.011190
     19          6           0       -2.703914    0.668872    0.286468
     20          1           0       -3.390159    1.503370    0.386577
     21          6           0       -2.251637   -1.688156    0.503134
     22          1           0       -2.570316   -2.690200    0.766725
 ---------------------------------------------------------------------

 SCF Done:  E(RHF) =  -862.322411387     A.U. after    2 cycles

 The electronic state is 1-A.
 Alpha  occ. eigenvalues --  -84.35187 -26.46721 -20.55706 -11.35645 -11.26619
 Alpha  occ. eigenvalues --  -11.26004 -11.25714 -11.25485 -11.25457 -11.24884
 Alpha  occ. eigenvalues --  -11.24741 -11.23664  -6.81544  -4.34566  -4.34155
 Alpha  occ. eigenvalues --   -4.33371  -1.57615  -1.49057  -1.17001  -1.05949
 Alpha  occ. eigenvalues --   -1.04005  -1.02587  -0.94789  -0.90344  -0.83484
 Alpha  occ. eigenvalues --   -0.81335  -0.75112  -0.71124  -0.68716  -0.67157
 Alpha  occ. eigenvalues --   -0.65554  -0.64794  -0.63912  -0.62202  -0.61377
 Alpha  occ. eigenvalues --   -0.59259  -0.59132  -0.58631  -0.56264  -0.55232
 Alpha  occ. eigenvalues --   -0.52042  -0.51483  -0.51026  -0.50687  -0.41386
 Alpha  occ. eigenvalues --   -0.38483  -0.34851  -0.32637
 Alpha virt. eigenvalues --    0.03175   0.03512   0.03913   0.04522   0.05078
 Alpha virt. eigenvalues --    0.05343   0.06342   0.06877   0.07072   0.08040
 Alpha virt. eigenvalues --    0.08243   0.09127   0.09459   0.10091   0.10808

 Mulliken charges:
               1
     1  C   -0.906691
     2  H   -0.011712
     3  H    0.359060
     4  H    0.278534
     5  F   -0.845730
     6  O   -1.333185
     7  P    1.526698
     8  C   -0.606695
     9  H    0.120721
    10  H    0.259110
    11  H    0.240876
    12  C    0.361006
    13  C    0.693089
    14  C   -0.013319
    15  C    0.067932
    16  H   -0.291588
    17  C   -0.012323
    18  H   -0.230378
    19  C    0.774243
    20  H   -0.300974
    21  C    0.091127
    22  H   -0.219799
 Sum of Mulliken charges =   0.00000

 Dipole moment (field-independent basis, Debye):
    X=             -0.9114    Y=             -1.2223    Z=              0.2520  Tot=              1.5454

 Test job not archived.
 1\1\GINC-SE424\SP\RHF\Aug-CC-pVDZ\C9H10F1O1P1\OHZDE\08-Apr-2025\0\\#t
 hf aug-cc-pvdz iop(5/13=1,5/36=2,99/5=2) pseudo=read geom=check guess=
 (read,tcheck) scf=(maxcycle=1)\\title\\0,1\C,0,-0.998355,2.314266,-0.5
 72094\H,0,-1.856982,2.987857,-0.573219\H,0,-0.544004,2.344067,-1.56837
 \H,0,-0.255584,2.703089,0.128685\F,0,1.601151,-1.509582,-1.183054\O,0,
 1.871591,1.5793,1.049005\P,0,1.143583,0.067918,-1.027751\C,0,2.864308,
 -0.599825,1.26625\H,0,3.29458,-0.202128,2.185952\H,0,3.657475,-0.91792
 7,0.58377\H,0,2.260832,-1.486058,1.480361\C,0,-0.539325,-0.186443,-0.3

 Normal termination of Gaussian 16 at Tue Apr  8 23:33:11 2025.
