 Gaussian 16, Revision C.01,

 ----------------------------------------------------------------------
 #t hf aug-cc-pvdz symm=none int=(grid=ultrafine) guess=(read,tcheck) s
 table=(opt,rrhf)
 ----------------------------------------------------------------------
 -----
 title
 -----
 Symbolic Z-matrix:
 Charge =  0 Multiplicity = 1

 SCF Done:  E(RHF) =  -1198.93272869     A.U. after   13 cycles
 Normal termination of Gaussian 16 at Wed Apr  9 00:16:33 2025.
 Gaussian 16:  ES64L-G16RevC.01  3-Jul-2019

 ----------------------------------------------------------------------
 #t hf aug-cc-pvdz iop(5/13=1,5/36=2,99/5=2) pseudo=read geom=check gue
 ss=(read,tcheck) scf=(maxcycle=1)
 ----------------------------------------------------------------------
 -----
 title
 -----
 Structure from the checkpoint file:  "BDE49_nonexpt_2535_mol1.chk"
 Charge =  0 Multiplicity = 1

                         Standard orientation:
 ---------------------------------------------------------------------
 Center     Atomic      Atomic             Coordinates (Angstroms)
 Number     Number       Type             X           Y           Z
 ---------------------------------------------------------------------
      1         17           0        1.656768   -0.419673   -0.000013
      2         16           0        0.031635    0.897211    0.000023
      3         15           0       -1.599743   -0.498170   -0.000103
      4          1           0       -2.338094    0.126470   -1.037290
      5          1           0       -2.336970    0.125149    1.038689
 ---------------------------------------------------------------------

 SCF Done:  E(RHF) =  -1199.11689715     A.U. after    2 cycles

 The electronic state is 1-A.
 Alpha  occ. eigenvalues -- -105.58718 -94.01672 -84.32528 -10.63401  -8.29455
 Alpha  occ. eigenvalues --   -7.80340  -7.79884  -7.79856  -6.79483  -6.27218
 Alpha  occ. eigenvalues --   -6.27003  -6.26710  -4.31546  -4.31426  -4.30933
 Alpha  occ. eigenvalues --   -1.11879  -0.97254  -0.82812  -0.55997  -0.55375
 Alpha  occ. eigenvalues --   -0.54803  -0.50910  -0.44801  -0.38175  -0.37979
 Alpha virt. eigenvalues --    0.03454   0.04063   0.05818   0.06282   0.09326
 Alpha virt. eigenvalues --    0.09697   0.11483   0.12826   0.13899   0.14021
 Alpha virt. eigenvalues --    0.15237   0.17318   0.17940   0.18678   0.19396

 Mulliken charges:
               1
     1  Cl  -0.243445
     2  S   -0.213876
     3  P   -0.558297
     4  H    0.507776
     5  H    0.507842
 Sum of Mulliken charges =  -0.00000

 Dipole moment (field-independent basis, Debye):
    X=             -2.5784    Y=             -0.1823    Z=              0.0002  Tot=              2.5849

 Test job not archived.
 1\1\GINC-SE128\SP\RHF\Aug-CC-pVDZ\Cl1H2P1S1\OHZDE\09-Apr-2025\0\\#t hf
  aug-cc-pvdz iop(5/13=1,5/36=2,99/5=2) pseudo=read geom=check guess=(r
 ead,tcheck) scf=(maxcycle=1)\\title\\0,1\Cl,0,1.656768,-0.419673,-0.00
 0013\S,0,0.031635,0.897211,0.000023\P,0,-1.599743,-0.49817,-0.000103\H
 ,0,-2.338094,0.12647,-1.03729\H,0,-2.33697,0.125149,1.038689\\Version=
 ES64L-G16RevC.01\State=1-A\HF=-1199.1168972\RMSD=2.553e-02\Dipole=-1.0
 144365,-0.0717061,0.0000772\Quadrupole=2.2365838,-1.3324792,-0.9041046
 ,-0.0977206,0.0001808,-0.0011493\PG=C01 [X(Cl1H2P1S1)]\\@

 Normal termination of Gaussian 16 at Wed Apr  9 00:16:35 2025.
