 Gaussian 16, Revision C.01,

 ----------------------------------------------------------------------
 #t hf aug-cc-pvdz symm=none int=(grid=ultrafine) guess=(read,tcheck) s
 table=(opt,rrhf)
 ----------------------------------------------------------------------
 -----
 title
 -----
 Symbolic Z-matrix:
 Charge =  0 Multiplicity = 1

 SCF Done:  E(RHF) =  -391.075991473     A.U. after   14 cycles
 Normal termination of Gaussian 16 at Tue Apr  8 23:37:34 2025.
 Gaussian 16:  ES64L-G16RevC.01  3-Jul-2019

 ----------------------------------------------------------------------
 #t hf aug-cc-pvdz iop(5/13=1,5/36=2,99/5=2) pseudo=read geom=check gue
 ss=(read,tcheck) scf=(maxcycle=1)
 ----------------------------------------------------------------------
 -----
 title
 -----
 Structure from the checkpoint file:  "BDE49_nonexpt_154_mol1.chk"
 Charge =  0 Multiplicity = 1

                         Standard orientation:
 ---------------------------------------------------------------------
 Center     Atomic      Atomic             Coordinates (Angstroms)
 Number     Number       Type             X           Y           Z
 ---------------------------------------------------------------------
      1          5           0        3.163483   -0.715049    0.815049
      2          5           0        2.196986   -0.483099   -0.483767
      3          6           0        0.845428    0.325878   -0.434897
      4          8           0        0.787080    1.511879   -0.582674
      5          8           0       -0.265989   -0.500261   -0.272945
      6          6           0       -1.483371   -0.026321    0.248867
      7          8           0       -1.550936    0.878663    1.017724
      8          6           0       -2.613879   -0.866928   -0.273268
      9          1           0       -2.711594   -0.711059   -1.350762
     10          1           0       -3.537639   -0.585182    0.227725
     11          1           0       -2.400086   -1.925657   -0.114423
     12          1           0        3.983169    0.089903    1.138617
     13          1           0        3.097901   -1.714244    1.466512
     14          1           0        2.515591   -0.881048   -1.565128
 ---------------------------------------------------------------------

 SCF Done:  E(RHF) =  -391.459650169     A.U. after    2 cycles

 The electronic state is 1-A.
 Alpha  occ. eigenvalues --  -20.61345 -20.55841 -20.55605 -11.41335 -11.39276
 Alpha  occ. eigenvalues --  -11.26739  -7.61799  -7.60750  -1.57126  -1.50230
 Alpha  occ. eigenvalues --   -1.46429  -1.05132  -0.92568  -0.80978  -0.74599
 Alpha  occ. eigenvalues --   -0.72063  -0.70642  -0.68520  -0.65431  -0.61255
 Alpha  occ. eigenvalues --   -0.60583  -0.59558  -0.56037  -0.53593  -0.51651
 Alpha  occ. eigenvalues --   -0.48657  -0.47340  -0.46748  -0.42527
 Alpha virt. eigenvalues --    0.02770   0.02906   0.03475   0.04144   0.04405
 Alpha virt. eigenvalues --    0.05346   0.05668   0.06115   0.07587   0.08058
 Alpha virt. eigenvalues --    0.08617   0.09262   0.09695   0.11435   0.12341

 Mulliken charges:
               1
     1  B   -0.731434
     2  B    0.002408
     3  C    1.498491
     4  O   -1.063449
     5  O   -1.217927
     6  C    1.747907
     7  O   -1.123477
     8  C   -0.622092
     9  H    0.248489
    10  H    0.188550
    11  H    0.240767
    12  H    0.293973
    13  H    0.320943
    14  H    0.216852
 Sum of Mulliken charges =  -0.00000

 Dipole moment (field-independent basis, Debye):
    X=             -0.0376    Y=             -3.9109    Z=             -1.1317  Tot=              4.0716

 Test job not archived.
 1\1\GINC-SE460\SP\RHF\Aug-CC-pVDZ\C3H6B2O3\OHZDE\08-Apr-2025\0\\#t hf
 aug-cc-pvdz iop(5/13=1,5/36=2,99/5=2) pseudo=read geom=check guess=(re
 ad,tcheck) scf=(maxcycle=1)\\title\\0,1\B,0,3.163483,-0.715049,0.81504
 9\B,0,2.196986,-0.483099,-0.483767\C,0,0.845428,0.325878,-0.434897\O,0
 ,0.78708,1.511879,-0.582674\O,0,-0.265989,-0.500261,-0.272945\C,0,-1.4
 83371,-0.026321,0.248867\O,0,-1.550936,0.878663,1.017724\C,0,-2.613879
 ,-0.866928,-0.273268\H,0,-2.711594,-0.711059,-1.350762\H,0,-3.537639,-
 0.585182,0.227725\H,0,-2.400086,-1.925657,-0.114423\H,0,3.983169,0.089

 Normal termination of Gaussian 16 at Tue Apr  8 23:37:38 2025.
