 Gaussian 16, Revision C.01,

 ----------------------------------------------------------------------
 #t hf aug-cc-pvdz symm=none int=(grid=ultrafine) guess=(read,tcheck) s
 table=(opt,rrhf)
 ----------------------------------------------------------------------
 -----
 title
 -----
 Symbolic Z-matrix:
 Charge =  0 Multiplicity = 1

 SCF Done:  E(RHF) =  -923.703687524     A.U. after   11 cycles

 1\1\GINC-SE252\Stability\RHF\Aug-CC-pVDZ\C1F6Si1\OHZDE\08-Apr-2025\0\\
 #t hf aug-cc-pvdz symm=none int=(grid=ultrafine) guess=(read,tcheck) s
 table=(opt,rrhf)\\title\\0,1\C,0,-1.068338,0.000019,0.000001\Si,0,0.83
 5616,0.000008,0.000006\F,0,1.359814,-0.010547,-1.484214\F,0,-1.555702,
 1.086171,-0.636812\F,0,1.359745,-1.280133,0.751226\F,0,-1.555688,0.008
 409,1.259049\F,0,1.35986,1.290636,0.732991\F,0,-1.555652,-1.09456,-0.6
 22251\\Version=ES64L-G16RevC.01\HF=-923.7036875\RMSD=6.334e-09\Dipole=
 0.2211289,0.0000484,0.0000206\Quadrupole=-0.1099407,0.0549334,0.055007

 Normal termination of Gaussian 16 at Tue Apr  8 23:49:24 2025.
 Gaussian 16:  ES64L-G16RevC.01  3-Jul-2019

 ----------------------------------------------------------------------
 #t hf aug-cc-pvdz iop(5/13=1,5/36=2,99/5=2) pseudo=read geom=check gue
 ss=(read,tcheck) scf=(maxcycle=1)
 ----------------------------------------------------------------------
 -----
 title
 -----
 Structure from the checkpoint file:  "BDE49_nonexpt_1836_mol1.chk"
 Charge =  0 Multiplicity = 1

                         Standard orientation:
 ---------------------------------------------------------------------
 Center     Atomic      Atomic             Coordinates (Angstroms)
 Number     Number       Type             X           Y           Z
 ---------------------------------------------------------------------
      1          6           0        1.068338    0.000019   -0.000001
      2         14           0       -0.835616    0.000008   -0.000006
      3          9           0       -1.359814   -0.038979    1.483740
      4          9           0        1.555702    1.073772    0.657503
      5          9           0       -1.359745   -1.265507   -0.775612
      6          9           0        1.555688    0.032527   -1.258657
      7          9           0       -1.359860    1.304441   -0.708131
      8          9           0        1.555652   -1.106280    0.601168
 ---------------------------------------------------------------------

 SCF Done:  E(RHF) =  -924.308325119     A.U. after    2 cycles

 The electronic state is 1-A.
 Alpha  occ. eigenvalues --  -69.72219 -26.53200 -26.53200 -26.53196 -26.51763
 Alpha  occ. eigenvalues --  -26.51763 -26.51761 -11.53633  -6.38128  -4.13454
 Alpha  occ. eigenvalues --   -4.13454  -4.13203  -1.73591  -1.65650  -1.63696
 Alpha  occ. eigenvalues --   -1.63696  -1.62462  -1.62462  -0.99278  -0.87869
 Alpha  occ. eigenvalues --   -0.83012  -0.83012  -0.81781  -0.76552  -0.76552
 Alpha  occ. eigenvalues --   -0.72024  -0.70916  -0.70915  -0.70362  -0.70362
 Alpha  occ. eigenvalues --   -0.67802  -0.67802  -0.65934  -0.65934  -0.65914
 Alpha  occ. eigenvalues --   -0.64399  -0.55015
 Alpha virt. eigenvalues --    0.05289   0.05747   0.05747   0.06244   0.10583
 Alpha virt. eigenvalues --    0.11748   0.11748   0.18392   0.18392   0.19152
 Alpha virt. eigenvalues --    0.19152   0.19818   0.23276   0.23730   0.24575

 Mulliken charges:
               1
     1  C    1.842518
     2  Si   2.872367
     3  F   -0.839895
     4  F   -0.731739
     5  F   -0.839889
     6  F   -0.731740
     7  F   -0.839884
     8  F   -0.731739
 Sum of Mulliken charges =  -0.00000

 Dipole moment (field-independent basis, Debye):
    X=             -0.5248    Y=              0.0001    Z=             -0.0000  Tot=              0.5248

 Test job not archived.
 1\1\GINC-SE252\SP\RHF\Aug-CC-pVDZ\C1F6Si1\OHZDE\08-Apr-2025\0\\#t hf a
 ug-cc-pvdz iop(5/13=1,5/36=2,99/5=2) pseudo=read geom=check guess=(rea
 d,tcheck) scf=(maxcycle=1)\\title\\0,1\C,0,-1.068338,0.000019,0.000001
 \Si,0,0.835616,0.000008,0.000006\F,0,1.359814,-0.010547,-1.484214\F,0,
 -1.555702,1.086171,-0.636812\F,0,1.359745,-1.280133,0.751226\F,0,-1.55
 5688,0.008409,1.259049\F,0,1.35986,1.290636,0.732991\F,0,-1.555652,-1.
 09456,-0.622251\\Version=ES64L-G16RevC.01\State=1-A\HF=-924.3083251\RM
 SD=2.685e-03\Dipole=0.2064855,0.0000427,0.0000186\Quadrupole=-0.060577

 Normal termination of Gaussian 16 at Tue Apr  8 23:49:27 2025.
