 Gaussian 16, Revision C.01,

 ----------------------------------------------------------------------
 #t hf aug-cc-pvdz symm=none int=(grid=ultrafine) guess=(read,tcheck) s
 table=(opt,rrhf)
 ----------------------------------------------------------------------
 -----
 title
 -----
 Symbolic Z-matrix:
 Charge =  0 Multiplicity = 1

 SCF Done:  E(RHF) =  -365.020963636     A.U. after   14 cycles
 Normal termination of Gaussian 16 at Wed Apr  9 00:40:30 2025.
 Gaussian 16:  ES64L-G16RevC.01  3-Jul-2019

 ----------------------------------------------------------------------
 #t hf aug-cc-pvdz iop(5/13=1,5/36=2,99/5=2) pseudo=read geom=check gue
 ss=(read,tcheck) scf=(maxcycle=1)
 ----------------------------------------------------------------------
 -----
 title
 -----
 Structure from the checkpoint file:  "BDE49_nonexpt_653_mol1.chk"
 Charge =  0 Multiplicity = 1

                         Standard orientation:
 ---------------------------------------------------------------------
 Center     Atomic      Atomic             Coordinates (Angstroms)
 Number     Number       Type             X           Y           Z
 ---------------------------------------------------------------------
      1          8           0       -0.204722   -0.662957   -0.208483
      2          5           0        1.020196   -0.026122   -0.008835
      3          8           0        1.151224    1.323142    0.093738
      4          8           0        2.082782   -0.869636    0.080612
      5          8           0       -1.248699    0.344122   -0.339281
      6          6           0       -2.403966   -0.217402    0.264049
      7          1           0       -3.180526    0.536224    0.117052
      8          1           0       -2.247827   -0.396117    1.332087
      9          1           0       -2.687193   -1.147133   -0.236022
     10          1           0        2.902203   -0.387519    0.222374
     11          1           0        0.291485    1.752203    0.011702
 ---------------------------------------------------------------------

 SCF Done:  E(RHF) =  -365.383797281     A.U. after    2 cycles

 The electronic state is 1-A.
 Alpha  occ. eigenvalues --  -20.63026 -20.60825 -20.56063 -20.55775 -11.30270
 Alpha  occ. eigenvalues --   -7.67345  -1.59732  -1.48326  -1.44888  -1.30816
 Alpha  occ. eigenvalues --   -0.93881  -0.77951  -0.75144  -0.71235  -0.68220
 Alpha  occ. eigenvalues --   -0.65674  -0.60984  -0.58754  -0.56468  -0.55426
 Alpha  occ. eigenvalues --   -0.53348  -0.50710  -0.49887  -0.44424
 Alpha virt. eigenvalues --    0.03453   0.04562   0.04842   0.05242   0.06690
 Alpha virt. eigenvalues --    0.07350   0.07513   0.09530   0.10670   0.13236
 Alpha virt. eigenvalues --    0.14273   0.15758   0.16989   0.18016   0.20592

 Mulliken charges:
               1
     1  O   -0.618135
     2  B    1.950073
     3  O   -1.106766
     4  O   -1.095030
     5  O   -0.880935
     6  C    0.427229
     7  H    0.049098
     8  H    0.116831
     9  H    0.133011
    10  H    0.424938
    11  H    0.599687
 Sum of Mulliken charges =  -0.00000

 Dipole moment (field-independent basis, Debye):
    X=             -1.5898    Y=              1.1841    Z=              0.8800  Tot=              2.1689

 Test job not archived.
 1\1\GINC-SE084\SP\RHF\Aug-CC-pVDZ\C1H5B1O4\OHZDE\09-Apr-2025\0\\#t hf
 aug-cc-pvdz iop(5/13=1,5/36=2,99/5=2) pseudo=read geom=check guess=(re
 ad,tcheck) scf=(maxcycle=1)\\title\\0,1\O,0,-0.204722,-0.662957,-0.208
 483\B,0,1.020196,-0.026122,-0.008835\O,0,1.151224,1.323142,0.093738\O,
 0,2.082782,-0.869636,0.080612\O,0,-1.248699,0.344122,-0.339281\C,0,-2.
 403966,-0.217402,0.264049\H,0,-3.180526,0.536224,0.117052\H,0,-2.24782
 7,-0.396117,1.332087\H,0,-2.687193,-1.147133,-0.236022\H,0,2.902203,-0
 .387519,0.222374\H,0,0.291485,1.752203,0.011702\\Version=ES64L-G16RevC

 Normal termination of Gaussian 16 at Wed Apr  9 00:40:35 2025.
