 Gaussian 16, Revision C.01,

 ----------------------------------------------------------------------
 #t hf aug-cc-pvdz symm=none int=(grid=ultrafine) guess=(read,tcheck) s
 table=opt
 ----------------------------------------------------------------------
 -----
 title
 -----
 Symbolic Z-matrix:
 Charge =  0 Multiplicity = 2

 SCF Done:  E(UHF) =  -607.581213742     A.U. after   20 cycles
 Normal termination of Gaussian 16 at Tue Apr  8 23:34:21 2025.
 Gaussian 16:  ES64L-G16RevC.01  3-Jul-2019

 ----------------------------------------------------------------------
 #t hf aug-cc-pvdz iop(5/13=1,5/36=2,99/5=2) pseudo=read geom=check gue
 ss=(read,tcheck) scf=(maxcycle=1)
 ----------------------------------------------------------------------
 -----
 title
 -----
 Structure from the checkpoint file:  "BDE49_nonexpt_1473_mol2.chk"
 Charge =  0 Multiplicity = 2

                         Standard orientation:
 ---------------------------------------------------------------------
 Center     Atomic      Atomic             Coordinates (Angstroms)
 Number     Number       Type             X           Y           Z
 ---------------------------------------------------------------------
      1          6           0        0.318096    0.164885   -0.000040
      2         15           0       -1.244156   -0.861840   -0.000016
      3          8           0        1.392160   -0.655479   -0.000005
      4          8           0        0.391205    1.370101   -0.000006
      5          6           0        2.679105   -0.005819    0.000028
      6          1           0        2.791019    0.617420    0.888743
      7          1           0        2.791067    0.617413   -0.888686
      8          1           0        3.410523   -0.810381    0.000051
      9          6           0       -2.429395    0.551029    0.000029
     10          1           0       -2.277217    1.180887    0.880680
     11          1           0       -3.449571    0.163801    0.000040
     12          1           0       -2.277247    1.180918   -0.880605
 ---------------------------------------------------------------------

 SCF Done:  E(UHF) =  -607.889187576     A.U. after    2 cycles

 The electronic state is 2-A.
 Alpha  occ. eigenvalues --  -84.29598 -20.59531 -20.54855 -11.38979 -11.30012
 Alpha  occ. eigenvalues --  -11.24496  -6.76827  -4.29228  -4.28964  -4.28398
 Alpha  occ. eigenvalues --   -1.54679  -1.45999  -1.01835  -0.97851  -0.85109
 Alpha  occ. eigenvalues --   -0.76720  -0.68787  -0.67543  -0.65812  -0.59810
 Alpha  occ. eigenvalues --   -0.59264  -0.56036  -0.55296  -0.51541  -0.46932
 Alpha  occ. eigenvalues --   -0.45234  -0.37833  -0.33528
 Alpha virt. eigenvalues --    0.03681   0.04172   0.05242   0.05386   0.06433
 Alpha virt. eigenvalues --    0.07070   0.07386   0.09738   0.10803   0.11871
 Alpha virt. eigenvalues --    0.12835   0.13357   0.15041   0.15275   0.15595

  Beta  occ. eigenvalues --  -84.28928 -20.59506 -20.54392 -11.39277 -11.30021
  Beta  occ. eigenvalues --  -11.24630  -6.75976  -4.28446  -4.28008  -4.25945
  Beta  occ. eigenvalues --   -1.54457  -1.45209  -1.00290  -0.97713  -0.83076
  Beta  occ. eigenvalues --   -0.75460  -0.68409  -0.67208  -0.64069  -0.59581
  Beta  occ. eigenvalues --   -0.57564  -0.55089  -0.55021  -0.51371  -0.45117
  Beta  occ. eigenvalues --   -0.44335  -0.36350
  Beta virt. eigenvalues --    0.02836   0.03707   0.04195   0.05413   0.05553
  Beta virt. eigenvalues --    0.06447   0.07123   0.07509   0.09822   0.12064
  Beta virt. eigenvalues --    0.12151   0.13180   0.14151   0.15070   0.15385

 Mulliken charges and spin densities:
               1          2
     1  C    0.817697  -0.174034
     2  P    1.213776   1.145788
     3  O   -1.073270   0.004990
     4  O   -1.023864   0.122177
     5  C    0.251304  -0.001054
     6  H    0.163969   0.000414
     7  H    0.163969   0.000414
     8  H    0.005666  -0.000268
     9  C   -0.806599  -0.121002
    10  H    0.107001   0.012250
    11  H    0.073353  -0.001924
    12  H    0.106999   0.012249
 Sum of Mulliken charges =  -0.00000   1.00000

 Dipole moment (field-independent basis, Debye):
    X=              0.1596    Y=             -0.6328    Z=              0.0000  Tot=              0.6526
                          Isotropic Fermi Contact Couplings
        Atom                 a.u.       MegaHertz       Gauss      10(-4) cm-1
     1  C(13)             -0.04789     -53.83990     -19.21141     -17.95906
     2  P(31)              0.20395     369.36722     131.79941     123.20764
     3  O(17)             -0.00534       3.23684       1.15498       1.07969
     4  O(17)              0.03467     -21.01747      -7.49956      -7.01067
     5  C(13)             -0.00150      -1.68582      -0.60154      -0.56233
     6  H(1)               0.00034       1.52283       0.54338       0.50796
     7  H(1)               0.00034       1.52300       0.54344       0.50802
     8  H(1)               0.00005       0.22666       0.08088       0.07561

 Normal termination of Gaussian 16 at Tue Apr  8 23:34:25 2025.
