 Gaussian 16, Revision C.01,

 ----------------------------------------------------------------------
 #t hf aug-cc-pvdz symm=none int=(grid=ultrafine) guess=(read,tcheck) s
 table=(opt,rrhf)
 ----------------------------------------------------------------------
 -----
 title
 -----
 Symbolic Z-matrix:
 Charge =  0 Multiplicity = 1

 SCF Done:  E(RHF) =  -687.466793138     A.U. after   17 cycles
 Normal termination of Gaussian 16 at Wed Apr  9 00:05:51 2025.
 Gaussian 16:  ES64L-G16RevC.01  3-Jul-2019

 ----------------------------------------------------------------------
 #t hf aug-cc-pvdz iop(5/13=1,5/36=2,99/5=2) pseudo=read geom=check gue
 ss=(read,tcheck) scf=(maxcycle=1)
 ----------------------------------------------------------------------
 -----
 title
 -----
 Structure from the checkpoint file:  "BDE49_nonexpt_2204_mol1.chk"
 Charge =  0 Multiplicity = 1

                         Standard orientation:
 ---------------------------------------------------------------------
 Center     Atomic      Atomic             Coordinates (Angstroms)
 Number     Number       Type             X           Y           Z
 ---------------------------------------------------------------------
      1          6           0        2.513747   -1.230757    0.000185
      2          6           0        2.307762    0.142391    0.000203
      3          6           0        1.008611    0.667881   -0.000029
      4          6           0        1.415899   -2.089311   -0.000024
      5          6           0        0.118902   -1.584750   -0.000261
      6          6           0       -0.097931   -0.205862   -0.000305
      7          1           0        1.566064   -3.162740   -0.000039
      8          1           0       -0.726816   -2.262783   -0.000449
      9          8           0       -1.330603    0.351722   -0.000430
     10         14           0       -2.861097   -0.314439    0.000249
     11          1           0        3.520961   -1.628164    0.000388
     12          6           0        0.801975    2.080873   -0.000011
     13          7           0        0.665023    3.227773    0.000007
     14          1           0        3.146501    0.827386    0.000387
     15          1           0       -3.773194    0.838797   -0.000328
     16          1           0       -3.050992   -1.150052    1.206306
     17          1           0       -3.051290   -1.151282   -1.204919
 ---------------------------------------------------------------------

 SCF Done:  E(RHF) =  -687.893594800     A.U. after    2 cycles

 The electronic state is 1-A.
 Alpha  occ. eigenvalues --  -69.58315 -20.58321 -15.50935 -11.35075 -11.28900
 Alpha  occ. eigenvalues --  -11.28267 -11.28038 -11.27962 -11.26695 -11.26147
 Alpha  occ. eigenvalues --   -6.24901  -4.00410  -4.00245  -4.00227  -1.50492
 Alpha  occ. eigenvalues --   -1.22976  -1.18279  -1.06840  -1.04232  -0.90242
 Alpha  occ. eigenvalues --   -0.88643  -0.79677  -0.77029  -0.70592  -0.69769
 Alpha  occ. eigenvalues --   -0.65845  -0.64404  -0.63350  -0.60320  -0.58301
 Alpha  occ. eigenvalues --   -0.56261  -0.55039  -0.53861  -0.50621  -0.49622
 Alpha  occ. eigenvalues --   -0.49008  -0.48719  -0.37724  -0.35020
 Alpha virt. eigenvalues --    0.02530   0.03010   0.03624   0.04962   0.05351
 Alpha virt. eigenvalues --    0.05536   0.05626   0.06659   0.08658   0.08672
 Alpha virt. eigenvalues --    0.09268   0.09887   0.10222   0.11029   0.11535

 Mulliken charges:
               1
     1  C    0.333260
     2  C    0.427967
     3  C    2.188401
     4  C   -0.146798
     5  C    0.479489
     6  C    1.242999
     7  H   -0.217488
     8  H   -0.332583
     9  O   -2.345477
    10  Si   1.204489
    11  H   -0.214914
    12  C   -3.029756
    13  N    1.028865
    14  H   -0.266521
    15  H   -0.132405
    16  H   -0.109762
    17  H   -0.109764
 Sum of Mulliken charges =  -0.00000

 Dipole moment (field-independent basis, Debye):
    X=             -0.0740    Y=             -6.1701    Z=              0.0008  Tot=              6.1706

 Test job not archived.
 1\1\GINC-SE424\SP\RHF\Aug-CC-pVDZ\C7H7N1O1Si1\OHZDE\09-Apr-2025\0\\#t
 hf aug-cc-pvdz iop(5/13=1,5/36=2,99/5=2) pseudo=read geom=check guess=
 (read,tcheck) scf=(maxcycle=1)\\title\\0,1\C,0,2.513747,-1.230757,0.00
 0185\C,0,2.307762,0.142391,0.000203\C,0,1.008611,0.667881,-0.000029\C,
 0,1.415899,-2.089311,-0.000024\C,0,0.118902,-1.58475,-0.000261\C,0,-0.
 097931,-0.205862,-0.000305\H,0,1.566064,-3.16274,-0.000039\H,0,-0.7268
 16,-2.262783,-0.000449\O,0,-1.330603,0.351722,-0.00043\Si,0,-2.861097,
 -0.314439,0.000249\H,0,3.520961,-1.628164,0.000388\C,0,0.801975,2.0808

 Normal termination of Gaussian 16 at Wed Apr  9 00:06:01 2025.
