 Gaussian 16, Revision C.01,

 ----------------------------------------------------------------------
 #t hf aug-cc-pvdz symm=none int=(grid=ultrafine) guess=(read,tcheck) s
 table=(opt,rrhf)
 ----------------------------------------------------------------------
 -----
 title
 -----
 Symbolic Z-matrix:
 Charge =  0 Multiplicity = 1

 SCF Done:  E(RHF) =  -475.587559199     A.U. after   12 cycles
 Normal termination of Gaussian 16 at Tue Apr  8 23:37:08 2025.
 Gaussian 16:  ES64L-G16RevC.01  3-Jul-2019

 ----------------------------------------------------------------------
 #t hf aug-cc-pvdz iop(5/13=1,5/36=2,99/5=2) pseudo=read geom=check gue
 ss=(read,tcheck) scf=(maxcycle=1)
 ----------------------------------------------------------------------
 -----
 title
 -----
 Structure from the checkpoint file:  "BDE49_nonexpt_1540_mol1.chk"
 Charge =  0 Multiplicity = 1

                         Standard orientation:
 ---------------------------------------------------------------------
 Center     Atomic      Atomic             Coordinates (Angstroms)
 Number     Number       Type             X           Y           Z
 ---------------------------------------------------------------------
      1          6           0       -0.990953    0.514958   -0.094269
      2          7           0        0.080079   -0.477489    0.009404
      3         15           0        1.737217   -0.062508    0.019644
      4          6           0       -2.363829   -0.128650    0.079229
      5          1           0       -0.949321    1.058835   -1.051478
      6          1           0       -0.827340    1.257866    0.692912
      7          1           0       -2.556683   -0.863203   -0.709566
      8          1           0       -3.153753    0.625181    0.028211
      9          1           0       -2.431055   -0.639305    1.042665
     10          1           0        1.730461    0.798980    1.149206
     11          1           0        1.800501    1.039718   -0.895386
     12          1           0       -0.102920   -1.315880   -0.526818
 ---------------------------------------------------------------------

 SCF Done:  E(RHF) =  -475.782107680     A.U. after    2 cycles

 The electronic state is 1-A.
 Alpha  occ. eigenvalues --  -84.28746 -15.49275 -11.26756 -11.23164  -6.75459
 Alpha  occ. eigenvalues --   -4.28413  -4.27561  -4.27234  -1.19483  -1.00862
 Alpha  occ. eigenvalues --   -0.86235  -0.83004  -0.66837  -0.63216  -0.60882
 Alpha  occ. eigenvalues --   -0.55356  -0.53514  -0.51097  -0.49291  -0.40962
 Alpha  occ. eigenvalues --   -0.34568
 Alpha virt. eigenvalues --    0.03749   0.04559   0.04596   0.04974   0.06085
 Alpha virt. eigenvalues --    0.06830   0.07675   0.08714   0.10131   0.10829
 Alpha virt. eigenvalues --    0.11913   0.13100   0.15291   0.16000   0.16473

 Mulliken charges:
               1
     1  C   -0.523224
     2  N    0.053862
     3  P   -0.335693
     4  C   -0.379612
     5  H    0.084732
     6  H    0.080526
     7  H    0.119657
     8  H    0.157112
     9  H    0.187999
    10  H    0.219069
    11  H    0.269281
    12  H    0.066292
 Sum of Mulliken charges =   0.00000

 Dipole moment (field-independent basis, Debye):
    X=             -1.1739    Y=              0.4592    Z=             -0.6624  Tot=              1.4239

 Test job not archived.
 1\1\GINC-SE329\SP\RHF\Aug-CC-pVDZ\C2H8N1P1\OHZDE\08-Apr-2025\0\\#t hf
 aug-cc-pvdz iop(5/13=1,5/36=2,99/5=2) pseudo=read geom=check guess=(re
 ad,tcheck) scf=(maxcycle=1)\\title\\0,1\C,0,-0.990953,0.514958,-0.0942
 69\N,0,0.080079,-0.477489,0.009404\P,0,1.737217,-0.062508,0.019644\C,0
 ,-2.363829,-0.12865,0.079229\H,0,-0.949321,1.058835,-1.051478\H,0,-0.8
 2734,1.257866,0.692912\H,0,-2.556683,-0.863203,-0.709566\H,0,-3.153753
 ,0.625181,0.028211\H,0,-2.431055,-0.639305,1.042665\H,0,1.730461,0.798
 98,1.149206\H,0,1.800501,1.039718,-0.895386\H,0,-0.10292,-1.31588,-0.5

 Normal termination of Gaussian 16 at Tue Apr  8 23:37:12 2025.
