 Gaussian 16, Revision C.01,

 ----------------------------------------------------------------------
 #t hf aug-cc-pvdz symm=none int=(grid=ultrafine) guess=(read,tcheck) s
 table=(opt,rrhf)
 ----------------------------------------------------------------------
 -----
 title
 -----
 Symbolic Z-matrix:
 Charge =  0 Multiplicity = 1

 SCF Done:  E(RHF) =  -647.931462196     A.U. after   16 cycles
 Normal termination of Gaussian 16 at Tue Apr  8 22:49:41 2025.
 Gaussian 16:  ES64L-G16RevC.01  3-Jul-2019

 ----------------------------------------------------------------------
 #t hf aug-cc-pvdz iop(5/13=1,5/36=2,99/5=2) pseudo=read geom=check gue
 ss=(read,tcheck) scf=(maxcycle=1)
 ----------------------------------------------------------------------
 -----
 title
 -----
 Structure from the checkpoint file:  "BDE49_expt_1456_mol1.chk"
 Charge =  0 Multiplicity = 1

                         Standard orientation:
 ---------------------------------------------------------------------
 Center     Atomic      Atomic             Coordinates (Angstroms)
 Number     Number       Type             X           Y           Z
 ---------------------------------------------------------------------
      1          8           0        0.429048    0.409954    0.122333
      2          6           0       -0.432525   -0.612546   -0.172886
      3          6           0        1.812472    0.226502    0.071932
      4          8           0       -0.079113   -1.717566   -0.491304
      5          6           0       -1.851050   -0.175208   -0.051593
      6          6           0        2.451042   -0.839849    0.698300
      7          6           0        2.537874    1.222588   -0.572945
      8          6           0        3.928107    1.150885   -0.594497
      9          6           0        4.584034    0.088210    0.023075
     10          6           0        3.842221   -0.900948    0.665883
     11          1           0        4.346573   -1.730366    1.148327
     12          1           0        1.873783   -1.610851    1.187901
     13          1           0        4.496028    1.926225   -1.095739
     14          1           0        5.666080    0.030993    0.004363
     15          1           0        2.006253    2.039326   -1.045702
     16          6           0       -2.212319    1.114897    0.353039
     17          6           0       -2.844660   -1.111928   -0.357943
     18          6           0       -4.185997   -0.761985   -0.262057
     19          6           0       -4.543424    0.524267    0.142025
     20          6           0       -3.556622    1.459868    0.449358
     21          1           0       -1.441257    1.835325    0.590085
     22          1           0       -3.835119    2.459034    0.764061
     23          1           0       -2.543734   -2.104760   -0.668104
     24          1           0       -4.952897   -1.489680   -0.501072
     25          1           0       -5.590122    0.797126    0.217503
 ---------------------------------------------------------------------

 SCF Done:  E(RHF) =  -648.583128044     A.U. after    2 cycles

 The electronic state is 1-A.
 Alpha  occ. eigenvalues --  -20.60306 -20.54011 -11.40252 -11.31260 -11.26383
 Alpha  occ. eigenvalues --  -11.26370 -11.26292 -11.26048 -11.25528 -11.25453
 Alpha  occ. eigenvalues --  -11.25001 -11.24910 -11.24703 -11.24574 -11.24376
 Alpha  occ. eigenvalues --   -1.55395  -1.46435  -1.17511  -1.15857  -1.05980
 Alpha  occ. eigenvalues --   -1.03353  -1.02620  -1.01748  -0.91217  -0.86035
 Alpha  occ. eigenvalues --   -0.85163  -0.83701  -0.79038  -0.75010  -0.71930
 Alpha  occ. eigenvalues --   -0.69678  -0.68636  -0.67219  -0.65237  -0.64410
 Alpha  occ. eigenvalues --   -0.63243  -0.61830  -0.61550  -0.60499  -0.58220
 Alpha  occ. eigenvalues --   -0.54014  -0.53608  -0.53043  -0.51948  -0.51577
 Alpha  occ. eigenvalues --   -0.50968  -0.47498  -0.45154  -0.36434  -0.35944
 Alpha  occ. eigenvalues --   -0.35164  -0.33982
 Alpha virt. eigenvalues --    0.02980   0.03363   0.03624   0.04037   0.04196
 Alpha virt. eigenvalues --    0.05372   0.05595   0.06094   0.06381   0.06911
 Alpha virt. eigenvalues --    0.08642   0.09628   0.09749   0.10026   0.10683

 Mulliken charges:
               1
     1  O   -2.029261
     2  C    0.462482
     3  C    1.929074
     4  O   -1.338635
     5  C    2.098380
     6  C   -0.015372
     7  C    0.061514
     8  C    0.484384
     9  C    0.151962
    10  C    0.469887
    11  H   -0.226220
    12  H   -0.344296
    13  H   -0.212722
    14  H   -0.221110
    15  H   -0.281743
    16  C    0.124525
    17  C   -0.346332
    18  C    0.342833
    19  C   -0.047911
    20  C    0.221502
    21  H   -0.276362
    22  H   -0.235376
    23  H   -0.341492
    24  H   -0.216142
    25  H   -0.213569
 Sum of Mulliken charges =  -0.00000

 Dipole moment (field-independent basis, Debye):
    X=             -1.1406    Y=              1.7107    Z=              0.5554  Tot=              2.1298

 Test job not archived.
 1\1\GINC-SE082\SP\RHF\Aug-CC-pVDZ\C13H10O2\OHZDE\08-Apr-2025\0\\#t hf
 aug-cc-pvdz iop(5/13=1,5/36=2,99/5=2) pseudo=read geom=check guess=(re
 ad,tcheck) scf=(maxcycle=1)\\title\\0,1\O,0,-0.429048,-0.409954,0.1223
 33\C,0,0.432525,0.612546,-0.172886\C,0,-1.812472,-0.226502,0.071932\O,
 0,0.079113,1.717566,-0.491304\C,0,1.85105,0.175208,-0.051593\C,0,-2.45
 1042,0.839849,0.6983\C,0,-2.537874,-1.222588,-0.572945\C,0,-3.928107,-
 1.150885,-0.594497\C,0,-4.584034,-0.08821,0.023075\C,0,-3.842221,0.900
 948,0.665883\H,0,-4.346573,1.730366,1.148327\H,0,-1.873783,1.610851,1.

 Normal termination of Gaussian 16 at Tue Apr  8 22:50:05 2025.
