 Gaussian 16, Revision C.01,

 ----------------------------------------------------------------------
 #t hf aug-cc-pvdz symm=none int=(grid=ultrafine) guess=(read,tcheck) s
 table=(opt,rrhf)
 ----------------------------------------------------------------------
 -----
 title
 -----
 Symbolic Z-matrix:
 Charge =  0 Multiplicity = 1

 SCF Done:  E(RHF) =  -197.408083440     A.U. after   12 cycles
 Normal termination of Gaussian 16 at Wed Apr  9 00:37:59 2025.
 Gaussian 16:  ES64L-G16RevC.01  3-Jul-2019

 ----------------------------------------------------------------------
 #t hf aug-cc-pvdz iop(5/13=1,5/36=2,99/5=2) pseudo=read geom=check gue
 ss=(read,tcheck) scf=(maxcycle=1)
 ----------------------------------------------------------------------
 -----
 title
 -----
 Structure from the checkpoint file:  "BDE49_nonexpt_578_mol1.chk"
 Charge =  0 Multiplicity = 1

                         Standard orientation:
 ---------------------------------------------------------------------
 Center     Atomic      Atomic             Coordinates (Angstroms)
 Number     Number       Type             X           Y           Z
 ---------------------------------------------------------------------
      1          5           0        2.055401    0.382192   -0.159853
      2          6           0       -0.315118   -0.261866    0.531304
      3          6           0       -1.481645   -0.486712   -0.399425
      4          6           0       -1.076275    0.914721   -0.002707
      5          1           0       -0.586652    1.524359   -0.750511
      6          1           0       -1.707455    1.464346    0.684597
      7          1           0       -2.393764   -0.904270    0.009804
      8          1           0       -1.248781   -0.798791   -1.410565
      9          7           0        1.026899   -0.524874    0.069732
     10          1           0       -0.482008   -0.512538    1.575760
     11          1           0        1.863610    1.548881   -0.013832
     12          1           0        3.114034   -0.043369   -0.509196
     13          1           0        1.213947   -1.512314   -0.049953
 ---------------------------------------------------------------------

 SCF Done:  E(RHF) =  -197.622079577     A.U. after    2 cycles

 The electronic state is 1-A.
 Alpha  occ. eigenvalues --  -15.49831 -11.27235 -11.23735 -11.23641  -7.57447
 Alpha  occ. eigenvalues --   -1.21461  -1.10789  -0.83831  -0.83348  -0.74154
 Alpha  occ. eigenvalues --   -0.70980  -0.66599  -0.59634  -0.55693  -0.52673
 Alpha  occ. eigenvalues --   -0.49334  -0.46749  -0.43658  -0.40910
 Alpha virt. eigenvalues --    0.03564   0.03994   0.04437   0.04689   0.05588
 Alpha virt. eigenvalues --    0.05875   0.05994   0.06855   0.07462   0.10589
 Alpha virt. eigenvalues --    0.11831   0.12845   0.13153   0.13962   0.14535

 Mulliken charges:
               1
     1  B   -0.646712
     2  C   -0.439423
     3  C    0.165595
     4  C    0.160479
     5  H   -0.110370
     6  H   -0.079959
     7  H   -0.108080
     8  H   -0.080295
     9  N    0.741675
    10  H   -0.111070
    11  H    0.173442
    12  H    0.259661
    13  H    0.075057
 Sum of Mulliken charges =  -0.00000

 Dipole moment (field-independent basis, Debye):
    X=             -1.2098    Y=             -0.8895    Z=              0.2741  Tot=              1.5264

 Test job not archived.
 1\1\GINC-SE458\SP\RHF\Aug-CC-pVDZ\C3H8B1N1\OHZDE\09-Apr-2025\0\\#t hf
 aug-cc-pvdz iop(5/13=1,5/36=2,99/5=2) pseudo=read geom=check guess=(re
 ad,tcheck) scf=(maxcycle=1)\\title\\0,1\B,0,2.055401,0.382192,-0.15985
 3\C,0,-0.315118,-0.261866,0.531304\C,0,-1.481645,-0.486712,-0.399425\C
 ,0,-1.076275,0.914721,-0.002707\H,0,-0.586652,1.524359,-0.750511\H,0,-
 1.707455,1.464346,0.684597\H,0,-2.393764,-0.90427,0.009804\H,0,-1.2487
 81,-0.798791,-1.410565\N,0,1.026899,-0.524874,0.069732\H,0,-0.482008,-
 0.512538,1.57576\H,0,1.86361,1.548881,-0.013832\H,0,3.114034,-0.043369

 Normal termination of Gaussian 16 at Wed Apr  9 00:38:02 2025.
