 Gaussian 16, Revision C.01,

 ----------------------------------------------------------------------
 #t hf aug-cc-pvdz symm=none int=(grid=ultrafine) guess=(read,tcheck) s
 table=(opt,rrhf)
 ----------------------------------------------------------------------
 -----
 title
 -----
 Symbolic Z-matrix:
 Charge =  0 Multiplicity = 1

 SCF Done:  E(RHF) =  -309.451564894     A.U. after   12 cycles
 Normal termination of Gaussian 16 at Wed Apr  9 00:37:04 2025.
 Gaussian 16:  ES64L-G16RevC.01  3-Jul-2019

 ----------------------------------------------------------------------
 #t hf aug-cc-pvdz iop(5/13=1,5/36=2,99/5=2) pseudo=read geom=check gue
 ss=(read,tcheck) scf=(maxcycle=1)
 ----------------------------------------------------------------------
 -----
 title
 -----
 Structure from the checkpoint file:  "BDE49_nonexpt_551_mol1.chk"
 Charge =  0 Multiplicity = 1

                         Standard orientation:
 ---------------------------------------------------------------------
 Center     Atomic      Atomic             Coordinates (Angstroms)
 Number     Number       Type             X           Y           Z
 ---------------------------------------------------------------------
      1          7           0       -0.202384   -0.586093    0.328453
      2          5           0        1.055666   -0.029575    0.021536
      3          8           0        1.170261    1.348089   -0.054919
      4          8           0        2.109755   -0.905138   -0.181612
      5          6           0       -1.439615    0.143527    0.558144
      6          6           0       -2.481628   -0.070467   -0.543972
      7          1           0       -2.745225   -1.129039   -0.636225
      8          1           0       -2.094587    0.264616   -1.509663
      9          1           0       -3.399758    0.484784   -0.327244
     10          1           0       -1.187014    1.202805    0.627957
     11          1           0       -1.869619   -0.143595    1.526625
     12          1           0        2.054915    1.666134   -0.241020
     13          1           0        2.943773   -0.485682   -0.398986
     14          1           0       -0.276794   -1.591467    0.358927
 ---------------------------------------------------------------------

 SCF Done:  E(RHF) =  -309.772932959     A.U. after    2 cycles

 The electronic state is 1-A.
 Alpha  occ. eigenvalues --  -20.54921 -20.54741 -15.46725 -11.25393 -11.21840
 Alpha  occ. eigenvalues --   -7.63521  -1.46906  -1.43051  -1.17820  -0.99383
 Alpha  occ. eigenvalues --   -0.84526  -0.78057  -0.72889  -0.66782  -0.63761
 Alpha  occ. eigenvalues --   -0.61168  -0.59636  -0.57325  -0.54327  -0.52071
 Alpha  occ. eigenvalues --   -0.51446  -0.49054  -0.48745  -0.40471
 Alpha virt. eigenvalues --    0.02872   0.04437   0.04988   0.05002   0.05825
 Alpha virt. eigenvalues --    0.06312   0.06488   0.07523   0.09068   0.10180
 Alpha virt. eigenvalues --    0.10540   0.11337   0.14135   0.15274   0.16221

 Mulliken charges:
               1
     1  N    0.433893
     2  B    1.395090
     3  O   -1.059671
     4  O   -1.145574
     5  C   -0.679071
     6  C   -0.374166
     7  H    0.151668
     8  H    0.123685
     9  H    0.154075
    10  H    0.058494
    11  H    0.088055
    12  H    0.442137
    13  H    0.412175
    14  H   -0.000791
 Sum of Mulliken charges =  -0.00000

 Dipole moment (field-independent basis, Debye):
    X=              1.1782    Y=              0.6404    Z=             -0.3202  Tot=              1.3787

 Test job not archived.
 1\1\GINC-SE455\SP\RHF\Aug-CC-pVDZ\C2H8B1N1O2\OHZDE\09-Apr-2025\0\\#t h
 f aug-cc-pvdz iop(5/13=1,5/36=2,99/5=2) pseudo=read geom=check guess=(
 read,tcheck) scf=(maxcycle=1)\\title\\0,1\N,0,-0.202384,-0.586093,0.32
 8453\B,0,1.055666,-0.029575,0.021536\O,0,1.170261,1.348089,-0.054919\O
 ,0,2.109755,-0.905138,-0.181612\C,0,-1.439615,0.143527,0.558144\C,0,-2
 .481628,-0.070467,-0.543972\H,0,-2.745225,-1.129039,-0.636225\H,0,-2.0
 94587,0.264616,-1.509663\H,0,-3.399758,0.484784,-0.327244\H,0,-1.18701
 4,1.202805,0.627957\H,0,-1.869619,-0.143595,1.526625\H,0,2.054915,1.66

 Normal termination of Gaussian 16 at Wed Apr  9 00:37:08 2025.
