 Gaussian 16, Revision C.01,

 ----------------------------------------------------------------------
 #t hf aug-cc-pvdz symm=none int=(grid=ultrafine) guess=(read,tcheck) s
 table=(opt,rrhf)
 ----------------------------------------------------------------------
 -----
 title
 -----
 Symbolic Z-matrix:
 Charge =  0 Multiplicity = 1

 SCF Done:  E(RHF) =  -611.923077997     A.U. after   14 cycles
 Normal termination of Gaussian 16 at Wed Apr  9 00:08:03 2025.
 Gaussian 16:  ES64L-G16RevC.01  3-Jul-2019

 ----------------------------------------------------------------------
 #t hf aug-cc-pvdz iop(5/13=1,5/36=2,99/5=2) pseudo=read geom=check gue
 ss=(read,tcheck) scf=(maxcycle=1)
 ----------------------------------------------------------------------
 -----
 title
 -----
 Structure from the checkpoint file:  "BDE49_nonexpt_2255_mol1.chk"
 Charge =  0 Multiplicity = 1

                         Standard orientation:
 ---------------------------------------------------------------------
 Center     Atomic      Atomic             Coordinates (Angstroms)
 Number     Number       Type             X           Y           Z
 ---------------------------------------------------------------------
      1          6           0        1.675251    0.000000    0.368683
      2          8           0       -0.948800   -0.000000   -0.714692
      3          7           0       -2.341949   -0.000001   -0.824299
      4          8           0       -2.905965    0.000003    0.213189
      5          6           0        2.083454    1.275169   -0.394255
      6         14           0       -0.149146   -0.000003    0.814657
      7          6           0        2.083457   -1.275166   -0.394258
      8          1           0        3.160788   -1.278205   -0.589326
      9          1           0        1.571376   -1.336153   -1.358403
     10          1           0        1.846553   -2.182863    0.167986
     11          1           0        1.846547    2.182864    0.167991
     12          1           0        1.571372    1.336158   -1.358400
     13          1           0        3.160784    1.278212   -0.589323
     14          1           0        2.195830    0.000000    1.337940
     15          1           0       -0.543211    1.215243    1.558722
     16          1           0       -0.543209   -1.215252    1.558718
 ---------------------------------------------------------------------

 SCF Done:  E(RHF) =  -612.281198485     A.U. after    2 cycles

 The electronic state is 1-A.
 Alpha  occ. eigenvalues --  -69.56609 -20.63997 -20.59612 -15.73022 -11.23864
 Alpha  occ. eigenvalues --  -11.23660 -11.23650  -6.23311  -3.98756  -3.98593
 Alpha  occ. eigenvalues --   -3.98592  -1.67268  -1.47216  -1.07126  -0.98086
 Alpha  occ. eigenvalues --   -0.94065  -0.82808  -0.78059  -0.75549  -0.69808
 Alpha  occ. eigenvalues --   -0.68758  -0.63133  -0.60408  -0.58129  -0.55421
 Alpha  occ. eigenvalues --   -0.53617  -0.53013  -0.49931  -0.49492  -0.47159
 Alpha  occ. eigenvalues --   -0.46726  -0.43636
 Alpha virt. eigenvalues --    0.03289   0.04027   0.04118   0.04740   0.06295
 Alpha virt. eigenvalues --    0.06478   0.06608   0.07198   0.07425   0.07599
 Alpha virt. eigenvalues --    0.09966   0.10289   0.11562   0.12804   0.14041

 Mulliken charges:
               1
     1  C   -0.949824
     2  O   -1.678832
     3  N    1.680857
     4  O   -0.969994
     5  C   -0.164996
     6  Si   1.528523
     7  C   -0.164997
     8  H    0.138756
     9  H    0.173708
    10  H    0.103477
    11  H    0.103478
    12  H    0.173709
    13  H    0.138753
    14  H    0.148824
    15  H   -0.130720
    16  H   -0.130721
 Sum of Mulliken charges =  -0.00000

 Dipole moment (field-independent basis, Debye):
    X=              2.3206    Y=             -0.0000    Z=              1.2790  Tot=              2.6498

 Test job not archived.
 1\1\GINC-SE105\SP\RHF\Aug-CC-pVDZ\C3H9N1O2Si1\OHZDE\09-Apr-2025\0\\#t
 hf aug-cc-pvdz iop(5/13=1,5/36=2,99/5=2) pseudo=read geom=check guess=
 (read,tcheck) scf=(maxcycle=1)\\title\\0,1\C,0,-1.675251,0.,0.368683\O
 ,0,0.9488,0.,-0.714692\N,0,2.341949,0.000001,-0.824299\O,0,2.905965,-0
 .000003,0.213189\C,0,-2.083454,-1.275169,-0.394255\Si,0,0.149146,0.000
 003,0.814657\C,0,-2.083457,1.275166,-0.394258\H,0,-3.160788,1.278205,-
 0.589326\H,0,-1.571376,1.336153,-1.358403\H,0,-1.846553,2.182863,0.167
 986\H,0,-1.846547,-2.182864,0.167991\H,0,-1.571372,-1.336158,-1.3584\H

 Normal termination of Gaussian 16 at Wed Apr  9 00:08:10 2025.
