 Gaussian 16, Revision C.01,

 ----------------------------------------------------------------------
 #t hf aug-cc-pvdz symm=none int=(grid=ultrafine) guess=(read,tcheck) s
 table=opt
 ----------------------------------------------------------------------
 -----
 title
 -----
 Symbolic Z-matrix:
 Charge =  0 Multiplicity = 2

 SCF Done:  E(UHF) =  -937.249335092     A.U. after   20 cycles
 Normal termination of Gaussian 16 at Tue Apr  8 23:45:20 2025.
 Gaussian 16:  ES64L-G16RevC.01  3-Jul-2019

 ----------------------------------------------------------------------
 #t hf aug-cc-pvdz iop(5/13=1,5/36=2,99/5=2) pseudo=read geom=check gue
 ss=(read,tcheck) scf=(maxcycle=1)
 ----------------------------------------------------------------------
 -----
 title
 -----
 Structure from the checkpoint file:  "BDE49_nonexpt_1761_mol2.chk"
 Charge =  0 Multiplicity = 2

                         Standard orientation:
 ---------------------------------------------------------------------
 Center     Atomic      Atomic             Coordinates (Angstroms)
 Number     Number       Type             X           Y           Z
 ---------------------------------------------------------------------
      1          6           0        1.320077    0.027129   -0.020523
      2          8           0        2.294956   -0.624090   -0.305910
      3         14           0       -0.357657   -0.838745    0.307465
      4          8           0        1.337003    1.360705    0.172333
      5         17           0       -1.989031    0.357509   -0.153547
      6          1           0        2.250291    1.663930    0.029898
      7          1           0       -0.405695   -2.054846   -0.532354
 ---------------------------------------------------------------------

 SCF Done:  E(UHF) =  -937.534340281     A.U. after    2 cycles

 The electronic state is 2-A.
 Alpha  occ. eigenvalues -- -105.57822 -69.61412 -20.61912 -20.56722 -11.40420
 Alpha  occ. eigenvalues --  -10.62803  -7.79728  -7.79428  -7.79335  -6.28155
 Alpha  occ. eigenvalues --   -4.03978  -4.03216  -4.03065  -1.56511  -1.47562
 Alpha  occ. eigenvalues --   -1.07563  -0.89834  -0.76978  -0.72622  -0.66860
 Alpha  occ. eigenvalues --   -0.64533  -0.57812  -0.55690  -0.51590  -0.50456
 Alpha  occ. eigenvalues --   -0.49626  -0.44998  -0.37008
 Alpha virt. eigenvalues --    0.03607   0.04660   0.05033   0.05905   0.06667
 Alpha virt. eigenvalues --    0.08655   0.11180   0.11934   0.12391   0.12891
 Alpha virt. eigenvalues --    0.14133   0.14491   0.16363   0.17714   0.18684

  Beta  occ. eigenvalues -- -105.57729 -69.60821 -20.61934 -20.56392 -11.40401
  Beta  occ. eigenvalues --  -10.62702  -7.79583  -7.79282  -7.79152  -6.27232
  Beta  occ. eigenvalues --   -4.02831  -4.02681  -4.01812  -1.56346  -1.47009
  Beta  occ. eigenvalues --   -1.06688  -0.88897  -0.74738  -0.72367  -0.65379
  Beta  occ. eigenvalues --   -0.63999  -0.57209  -0.54531  -0.49704  -0.49029
  Beta  occ. eigenvalues --   -0.48788  -0.43967
  Beta virt. eigenvalues --   -0.00144   0.03693   0.05040   0.05456   0.06274
  Beta virt. eigenvalues --    0.06988   0.09581   0.11929   0.12240   0.12897
  Beta virt. eigenvalues --    0.14277   0.15233   0.16441   0.16873   0.18195

 Mulliken charges and spin densities:
               1          2
     1  C    1.218226  -0.021981
     2  O   -0.991779   0.074679
     3  Si   1.099619   0.835939
     4  O   -1.016603   0.001049
     5  Cl  -0.512508   0.041425
     6  H    0.344216   0.000175
     7  H   -0.141171   0.068714
 Sum of Mulliken charges =   0.00000   1.00000

 Dipole moment (field-independent basis, Debye):
    X=              0.1584    Y=              0.3457    Z=              0.5623  Tot=              0.6788
                          Isotropic Fermi Contact Couplings
        Atom                 a.u.       MegaHertz       Gauss      10(-4) cm-1
     1  C(13)              0.02312      25.98655       9.27265       8.66818
     2  O(17)              0.02634     -15.96518      -5.69677      -5.32541
     3  Si(29)             0.74186    -659.30910    -235.25788    -219.92184
     4  O(17)             -0.00191       1.15932       0.41368       0.38671
     5  Cl(35)             0.05359      23.49774       8.38458       7.83800
     6  H(1)               0.00026       1.15276       0.41133       0.38452
     7  H(1)               0.01248      55.78723      19.90627      18.60862
 --------------------------------------------------------

 Normal termination of Gaussian 16 at Tue Apr  8 23:45:23 2025.
