 Gaussian 16, Revision C.01,

 ----------------------------------------------------------------------
 #t hf aug-cc-pvdz symm=none int=(grid=ultrafine) guess=(read,tcheck) s
 table=(opt,rrhf)
 ----------------------------------------------------------------------
 -----
 title
 -----
 Symbolic Z-matrix:
 Charge =  0 Multiplicity = 1

 SCF Done:  E(RHF) =  -727.867370758     A.U. after   11 cycles
 Normal termination of Gaussian 16 at Wed Apr  9 00:14:34 2025.
 Gaussian 16:  ES64L-G16RevC.01  3-Jul-2019

 ----------------------------------------------------------------------
 #t hf aug-cc-pvdz iop(5/13=1,5/36=2,99/5=2) pseudo=read geom=check gue
 ss=(read,tcheck) scf=(maxcycle=1)
 ----------------------------------------------------------------------
 -----
 title
 -----
 Structure from the checkpoint file:  "BDE49_nonexpt_2490_mol1.chk"
 Charge =  0 Multiplicity = 1

                         Standard orientation:
 ---------------------------------------------------------------------
 Center     Atomic      Atomic             Coordinates (Angstroms)
 Number     Number       Type             X           Y           Z
 ---------------------------------------------------------------------
      1         16           0        1.435758   -0.355989   -0.000003
      2         14           0       -0.492857    0.643543    0.000003
      3          6           0       -1.798681   -0.697843    0.000001
      4          1           0       -1.711680   -1.331120   -0.886310
      5          1           0       -2.796141   -0.248957    0.000008
      6          1           0       -1.711672   -1.331131    0.886304
      7          1           0        2.163944    0.774845   -0.000004
      8          1           0       -0.612247    1.504828   -1.199433
      9          1           0       -0.612244    1.504822    1.199443
 ---------------------------------------------------------------------

 SCF Done:  E(RHF) =  -728.010947668     A.U. after    2 cycles

 The electronic state is 1-A.
 Alpha  occ. eigenvalues --  -93.94207 -69.55553 -11.22974  -8.22491  -6.22377
 Alpha  occ. eigenvalues --   -6.20314  -6.20200  -6.19980  -3.97781  -3.97683
 Alpha  occ. eigenvalues --   -3.97659  -1.00760  -0.95828  -0.70971  -0.58828
 Alpha  occ. eigenvalues --   -0.58212  -0.54497  -0.49489  -0.47292  -0.44861
 Alpha  occ. eigenvalues --   -0.37801
 Alpha virt. eigenvalues --    0.03496   0.04115   0.04712   0.05086   0.06992
 Alpha virt. eigenvalues --    0.07661   0.08331   0.09484   0.10650   0.11656
 Alpha virt. eigenvalues --    0.12993   0.14775   0.15629   0.15930   0.16728

 Mulliken charges:
               1
     1  S   -0.871582
     2  Si   1.462516
     3  C   -0.617599
     4  H    0.084300
     5  H   -0.008163
     6  H    0.084301
     7  H    0.274296
     8  H   -0.204035
     9  H   -0.204035
 Sum of Mulliken charges =   0.00000

 Dipole moment (field-independent basis, Debye):
    X=             -1.1586    Y=              0.7694    Z=              0.0000  Tot=              1.3908

 Test job not archived.
 1\1\GINC-SE455\SP\RHF\Aug-CC-pVDZ\C1H6S1Si1\OHZDE\09-Apr-2025\0\\#t hf
  aug-cc-pvdz iop(5/13=1,5/36=2,99/5=2) pseudo=read geom=check guess=(r
 ead,tcheck) scf=(maxcycle=1)\\title\\0,1\S,0,1.435758,-0.35599,-0.0000
 03\Si,0,-0.492857,0.643543,0.000003\C,0,-1.798681,-0.697842,0.000001\H
 ,0,-1.71168,-1.33112,-0.88631\H,0,-2.796141,-0.248956,0.000008\H,0,-1.
 711672,-1.331131,0.886304\H,0,2.163944,0.774844,-0.000004\H,0,-0.61224
 6,1.504828,-1.199433\H,0,-0.612243,1.504822,1.199443\\Version=ES64L-G1
 6RevC.01\State=1-A\HF=-728.0109477\RMSD=5.142e-03\Dipole=-0.4558321,0.

 Normal termination of Gaussian 16 at Wed Apr  9 00:14:36 2025.
