 Gaussian 16, Revision C.01,

 ----------------------------------------------------------------------
 #t hf aug-cc-pvdz symm=none int=(grid=ultrafine) guess=(read,tcheck) s
 table=(opt,rrhf)
 ----------------------------------------------------------------------
 -----
 title
 -----
 Symbolic Z-matrix:
 Charge =  0 Multiplicity = 1

 SCF Done:  E(RHF) =  -785.840252206     A.U. after   14 cycles
 Normal termination of Gaussian 16 at Tue Apr  8 23:26:41 2025.
 Gaussian 16:  ES64L-G16RevC.01  3-Jul-2019

 ----------------------------------------------------------------------
 #t hf aug-cc-pvdz iop(5/13=1,5/36=2,99/5=2) pseudo=read geom=check gue
 ss=(read,tcheck) scf=(maxcycle=1)
 ----------------------------------------------------------------------
 -----
 title
 -----
 Structure from the checkpoint file:  "BDE49_nonexpt_1211_mol1.chk"
 Charge =  0 Multiplicity = 1

                         Standard orientation:
 ---------------------------------------------------------------------
 Center     Atomic      Atomic             Coordinates (Angstroms)
 Number     Number       Type             X           Y           Z
 ---------------------------------------------------------------------
      1          6           0       -1.798492   -0.579836    0.255063
      2          8           0       -0.938949   -0.065937   -0.800209
      3         16           0        0.627120   -0.698813   -0.860233
      4          6           0        1.564753    0.619391    0.019701
      5          6           0       -2.274525   -1.987104   -0.084592
      6          6           0        1.534393    1.927995   -0.768332
      7          1           0       -1.424937   -2.662332   -0.207472
      8          1           0       -2.849612   -1.979143   -1.014419
      9          1           0        0.509096    2.210285   -1.011538
     10          1           0        2.088826    1.826989   -1.705244
     11          6           0       -2.948603    0.418619    0.384124
     12          1           0       -1.221381   -0.600257    1.188896
     13          6           0       -2.523020    1.810368    0.855511
     14          1           0       -3.678977   -0.004515    1.082860
     15          1           0       -3.448195    0.487118   -0.588442
     16          1           0       -2.038465    1.765197    1.836224
     17          1           0       -3.387016    2.474136    0.943762
     18          1           0       -1.821223    2.262336    0.152731
     19          6           0        2.995640    0.099597    0.248425
     20          1           0        1.074619    0.756098    0.989246
     21          6           0        3.129783   -0.990445    1.316466
     22          1           0        3.609247    0.962164    0.532267
     23          1           0        3.406998   -0.253700   -0.705548
     24          1           0        2.770329   -0.633297    2.286391
     25          1           0        4.175108   -1.285921    1.438216
     26          1           0        2.555985   -1.882617    1.058322
     27          1           0       -2.908227   -2.382619    0.714382
     28          1           0        1.985936    2.737066   -0.183429
 ---------------------------------------------------------------------

 SCF Done:  E(RHF) =  -786.321828780     A.U. after    2 cycles

 The electronic state is 1-A.
 Alpha  occ. eigenvalues --  -93.97815 -20.56092 -11.28920 -11.26892 -11.24186
 Alpha  occ. eigenvalues --  -11.22964 -11.22775 -11.22675 -11.22305 -11.22226
 Alpha  occ. eigenvalues --   -8.25293  -6.23136  -6.22893  -6.22672  -1.44934
 Alpha  occ. eigenvalues --   -1.11055  -1.06979  -1.00094  -0.98619  -0.93939
 Alpha  occ. eigenvalues --   -0.87399  -0.85801  -0.79806  -0.77047  -0.67358
 Alpha  occ. eigenvalues --   -0.64387  -0.61954  -0.61563  -0.60313  -0.60059
 Alpha  occ. eigenvalues --   -0.58466  -0.57714  -0.55655  -0.54069  -0.53097
 Alpha  occ. eigenvalues --   -0.51834  -0.51166  -0.50404  -0.49598  -0.49296
 Alpha  occ. eigenvalues --   -0.48071  -0.47490  -0.45632  -0.40123  -0.34605
 Alpha virt. eigenvalues --    0.03127   0.03396   0.03515   0.04193   0.04825
 Alpha virt. eigenvalues --    0.05292   0.05472   0.06120   0.06405   0.07274
 Alpha virt. eigenvalues --    0.07767   0.07962   0.08552   0.09320   0.09761

 Mulliken charges:
               1
     1  C    0.225778
     2  O   -1.498900
     3  S    0.787780
     4  C   -0.881839
     5  C   -0.362574
     6  C   -0.349373
     7  H    0.161026
     8  H    0.260725
     9  H    0.100202
    10  H    0.248242
    11  C   -0.288166
    12  H    0.161070
    13  C   -0.196330
    14  H    0.166611
    15  H    0.138527
    16  H    0.132440
    17  H    0.125719
    18  H    0.142844
    19  C    0.039807
    20  H    0.091386
    21  C   -0.344149
    22  H    0.168542
    23  H    0.159659
    24  H    0.168290
    25  H    0.107807
    26  H    0.186951
    27  H    0.195558
    28  H    0.152366
 Sum of Mulliken charges =  -0.00000

 Dipole moment (field-independent basis, Debye):
    X=              0.2293    Y=              0.5078    Z=              1.8903  Tot=              1.9707

 Test job not archived.
 1\1\GINC-SE009\SP\RHF\Aug-CC-pVDZ\C8H18O1S1\OHZDE\08-Apr-2025\0\\#t hf
  aug-cc-pvdz iop(5/13=1,5/36=2,99/5=2) pseudo=read geom=check guess=(r
 ead,tcheck) scf=(maxcycle=1)\\title\\0,1\C,0,-1.798492,-0.579836,0.255
 063\O,0,-0.938949,-0.065937,-0.800209\S,0,0.62712,-0.698813,-0.860233\
 C,0,1.564753,0.619391,0.019701\C,0,-2.274525,-1.987104,-0.084592\C,0,1
 .534393,1.927995,-0.768332\H,0,-1.424937,-2.662332,-0.207472\H,0,-2.84
 9612,-1.979143,-1.014419\H,0,0.509096,2.210285,-1.011538\H,0,2.088826,
 1.826989,-1.705244\C,0,-2.948603,0.418619,0.384124\H,0,-1.221381,-0.60

 Normal termination of Gaussian 16 at Tue Apr  8 23:27:03 2025.
