 Gaussian 16, Revision C.01,

 ----------------------------------------------------------------------
 #t hf aug-cc-pvdz symm=none int=(grid=ultrafine) guess=(read,tcheck) s
 table=(opt,rrhf)
 ----------------------------------------------------------------------
 -----
 title
 -----
 Symbolic Z-matrix:
 Charge =  0 Multiplicity = 1

 SCF Done:  E(RHF) =  -345.990589594     A.U. after   14 cycles

 1\1\GINC-SE070\Stability\RHF\Aug-CC-pVDZ\C5H12O2\OHZDE\08-Apr-2025\0\\
 #t hf aug-cc-pvdz symm=none int=(grid=ultrafine) guess=(read,tcheck) s
 table=(opt,rrhf)\\title\\0,1\O,0,2.808763,0.246142,0.067075\O,0,1.5042
 27,-0.391446,0.059684\H,0,3.178253,-0.10803,-0.753395\C,0,0.535555,0.6
 43242,-0.095095\C,0,-0.865099,0.012499,-0.00361\C,0,-1.048419,-1.03361
 ,-1.118783\H,0,-0.91828,-0.581379,-2.107215\H,0,-2.052989,-1.464721,-1
 .077985\H,0,-0.324932,-1.845247,-1.0213\C,0,-1.888227,1.14835,-0.18588
 1\H,0,-1.776207,1.635702,-1.159298\H,0,-1.77941,1.912103,0.590095\H,0,

 Normal termination of Gaussian 16 at Tue Apr  8 22:55:28 2025.
 Gaussian 16:  ES64L-G16RevC.01  3-Jul-2019

 ----------------------------------------------------------------------
 #t hf aug-cc-pvdz iop(5/13=1,5/36=2,99/5=2) pseudo=read geom=check gue
 ss=(read,tcheck) scf=(maxcycle=1)
 ----------------------------------------------------------------------
 -----
 title
 -----
 Structure from the checkpoint file:  "BDE49_expt_1849_mol1.chk"
 Charge =  0 Multiplicity = 1

                         Standard orientation:
 ---------------------------------------------------------------------
 Center     Atomic      Atomic             Coordinates (Angstroms)
 Number     Number       Type             X           Y           Z
 ---------------------------------------------------------------------
      1          8           0        2.808763    0.246142    0.067075
      2          8           0        1.504227   -0.391446    0.059684
      3          1           0        3.178253   -0.108030   -0.753395
      4          6           0        0.535555    0.643242   -0.095095
      5          6           0       -0.865099    0.012499   -0.003610
      6          6           0       -1.048419   -1.033610   -1.118783
      7          1           0       -0.918280   -0.581379   -2.107215
      8          1           0       -2.052989   -1.464721   -1.077985
      9          1           0       -0.324932   -1.845247   -1.021300
     10          6           0       -1.888227    1.148350   -0.185881
     11          1           0       -1.776207    1.635702   -1.159298
     12          1           0       -1.779410    1.912103    0.590095
     13          1           0       -2.906720    0.754513   -0.125459
     14          6           0       -1.057888   -0.643910    1.375844
     15          1           0       -0.325216   -1.435604    1.541039
     16          1           0       -2.058974   -1.077796    1.456359
     17          1           0       -0.944851    0.091050    2.178748
     18          1           0        0.675001    1.134497   -1.067490
     19          1           0        0.674876    1.387916    0.696981
 ---------------------------------------------------------------------

 SCF Done:  E(RHF) =  -346.355542404     A.U. after    2 cycles

 The electronic state is 1-A.
 Alpha  occ. eigenvalues --  -20.61091 -20.60653 -11.28454 -11.24718 -11.22782
 Alpha  occ. eigenvalues --  -11.22202 -11.21957  -1.57705  -1.29119  -1.10115
 Alpha  occ. eigenvalues --   -0.93845  -0.93425  -0.91296  -0.75237  -0.71434
 Alpha  occ. eigenvalues --   -0.66081  -0.65286  -0.62845  -0.59182  -0.59039
 Alpha  occ. eigenvalues --   -0.56476  -0.54415  -0.53261  -0.52183  -0.49047
 Alpha  occ. eigenvalues --   -0.47510  -0.46777  -0.46428  -0.43665
 Alpha virt. eigenvalues --    0.03530   0.03704   0.03994   0.04366   0.05952
 Alpha virt. eigenvalues --    0.06445   0.06664   0.06864   0.07256   0.09178
 Alpha virt. eigenvalues --    0.09658   0.09836   0.12508   0.13958   0.14546

 Mulliken charges:
               1
     1  O   -0.490399
     2  O   -0.811884
     3  H    0.397255
     4  C    1.341184
     5  C   -3.440468
     6  C    0.275267
     7  H    0.206609
     8  H    0.197758
     9  H    0.218928
    10  C    0.323938
    11  H    0.195528
    12  H    0.198528
    13  H    0.192808
    14  C    0.280441
    15  H    0.235062
    16  H    0.198770
    17  H    0.200584
    18  H    0.129223
    19  H    0.150868
 Sum of Mulliken charges =   0.00000

 Dipole moment (field-independent basis, Debye):
    X=             -0.7794    Y=              0.4028    Z=             -1.4564  Tot=              1.7003

 Test job not archived.
 1\1\GINC-SE070\SP\RHF\Aug-CC-pVDZ\C5H12O2\OHZDE\08-Apr-2025\0\\#t hf a
 ug-cc-pvdz iop(5/13=1,5/36=2,99/5=2) pseudo=read geom=check guess=(rea
 d,tcheck) scf=(maxcycle=1)\\title\\0,1\O,0,2.808763,0.246142,0.067075\
 O,0,1.504227,-0.391446,0.059684\H,0,3.178253,-0.10803,-0.753395\C,0,0.
 535555,0.643242,-0.095095\C,0,-0.865099,0.012499,-0.00361\C,0,-1.04841
 9,-1.03361,-1.118783\H,0,-0.91828,-0.581379,-2.107215\H,0,-2.052989,-1
 .464721,-1.077985\H,0,-0.324932,-1.845247,-1.0213\C,0,-1.888227,1.1483
 5,-0.185881\H,0,-1.776207,1.635702,-1.159298\H,0,-1.77941,1.912103,0.5

 Normal termination of Gaussian 16 at Tue Apr  8 22:55:35 2025.
