 Gaussian 16, Revision C.01,

 ----------------------------------------------------------------------
 #t hf aug-cc-pvdz symm=none int=(grid=ultrafine) guess=(read,tcheck) s
 table=opt
 ----------------------------------------------------------------------
 -----
 title
 -----
 Symbolic Z-matrix:
 Charge =  0 Multiplicity = 2

 SCF Done:  E(UHF) =  -921.375334366     A.U. after   19 cycles
 Normal termination of Gaussian 16 at Tue Apr  8 23:22:09 2025.
 Gaussian 16:  ES64L-G16RevC.01  3-Jul-2019

 ----------------------------------------------------------------------
 #t hf aug-cc-pvdz iop(5/13=1,5/36=2,99/5=2) pseudo=read geom=check gue
 ss=(read,tcheck) scf=(maxcycle=1)
 ----------------------------------------------------------------------
 -----
 title
 -----
 Structure from the checkpoint file:  "BDE49_nonexpt_1203_mol3.chk"
 Charge =  0 Multiplicity = 2

                         Standard orientation:
 ---------------------------------------------------------------------
 Center     Atomic      Atomic             Coordinates (Angstroms)
 Number     Number       Type             X           Y           Z
 ---------------------------------------------------------------------
      1         16           0       -2.585523   -0.491936   -0.000044
      2          6           0       -1.035184    0.312898   -0.000002
      3          8           0       -0.926506    1.501955    0.000037
      4          6           0        1.309884   -0.139039    0.000010
      5          9           0        2.081706   -1.219363   -0.000015
      6          9           0        1.577643    0.586730    1.084045
      7          9           0        1.577668    0.586798   -1.083973
      8          8           0       -0.000118   -0.596912   -0.000019
 ---------------------------------------------------------------------

 SCF Done:  E(UHF) =  -921.908243186     A.U. after    2 cycles

 The electronic state is 2-A.
 Alpha  occ. eigenvalues --  -94.03627 -26.53853 -26.53575 -26.53571 -20.66589
 Alpha  occ. eigenvalues --  -20.59182 -11.60758 -11.47091  -8.31772  -6.30949
 Alpha  occ. eigenvalues --   -6.29146  -6.28818  -1.76651  -1.65260  -1.64988
 Alpha  occ. eigenvalues --   -1.60775  -1.52406  -1.12967  -1.00458  -0.90962
 Alpha  occ. eigenvalues --   -0.85929  -0.85781  -0.77866  -0.73277  -0.73114
 Alpha  occ. eigenvalues --   -0.70562  -0.69236  -0.68104  -0.66231  -0.65390
 Alpha  occ. eigenvalues --   -0.64821  -0.60826  -0.54664  -0.52607  -0.48233
 Alpha  occ. eigenvalues --   -0.44830
 Alpha virt. eigenvalues --    0.05452   0.08158   0.08389   0.08612   0.09402
 Alpha virt. eigenvalues --    0.10576   0.10868   0.12862   0.13307   0.14165
 Alpha virt. eigenvalues --    0.14903   0.17841   0.20624   0.21907   0.21933

  Beta  occ. eigenvalues --  -94.02690 -26.53853 -26.53575 -26.53571 -20.66562
  Beta  occ. eigenvalues --  -20.59019 -11.60742 -11.47208  -8.30693  -6.28654
  Beta  occ. eigenvalues --   -6.28235  -6.26780  -1.76643  -1.65259  -1.64986
  Beta  occ. eigenvalues --   -1.60661  -1.52057  -1.07719  -0.98190  -0.90174
  Beta  occ. eigenvalues --   -0.85924  -0.85536  -0.77448  -0.73115  -0.72348
  Beta  occ. eigenvalues --   -0.70177  -0.68224  -0.68090  -0.65907  -0.65358
  Beta  occ. eigenvalues --   -0.64819  -0.60082  -0.54515  -0.48335  -0.42538
  Beta virt. eigenvalues --   -0.04082   0.05669   0.08253   0.08384   0.08857
  Beta virt. eigenvalues --    0.09824   0.10472   0.12040   0.12992   0.13503
  Beta virt. eigenvalues --    0.14560   0.14933   0.18513   0.21573   0.22172

 Mulliken charges and spin densities:
               1          2
     1  S    0.435347   1.094696
     2  C    0.811505  -0.079342
     3  O   -0.882106   0.017126
     4  C    2.793381  -0.004871
     5  F   -0.660973  -0.001137
     6  F   -0.662056   0.000158
     7  F   -0.662055   0.000158
     8  O   -1.173042  -0.026788
 Sum of Mulliken charges =  -0.00000   1.00000

 Dipole moment (field-independent basis, Debye):
    X=             -1.1336    Y=             -1.5967    Z=             -0.0001  Tot=              1.9582
                          Isotropic Fermi Contact Couplings
        Atom                 a.u.       MegaHertz       Gauss      10(-4) cm-1
     1  S(33)              0.21663      74.40642      26.55006      24.81931
     2  C(13)             -0.02219     -24.94682      -8.90165      -8.32136
     3  O(17)              0.01872     -11.34755      -4.04909      -3.78514
     4  C(13)              0.00325       3.65212       1.30317       1.21822
     5  F(19)             -0.00017      -0.69554      -0.24819      -0.23201
     6  F(19)             -0.00012      -0.50693      -0.18089      -0.16910
     7  F(19)             -0.00012      -0.50693      -0.18089      -0.16909
     8  O(17)              0.01772     -10.74362      -3.83359      -3.58368

 Normal termination of Gaussian 16 at Tue Apr  8 23:22:13 2025.
