 Gaussian 16, Revision C.01,

 ----------------------------------------------------------------------
 #t hf aug-cc-pvdz symm=none int=(grid=ultrafine) guess=(read,tcheck) s
 table=(opt,rrhf)
 ----------------------------------------------------------------------
 -----
 title
 -----
 Symbolic Z-matrix:
 Charge =  0 Multiplicity = 1

 SCF Done:  E(RHF) =  -468.285798584     A.U. after   11 cycles
 Normal termination of Gaussian 16 at Tue Apr  8 23:55:22 2025.
 Gaussian 16:  ES64L-G16RevC.01  3-Jul-2019

 ----------------------------------------------------------------------
 #t hf aug-cc-pvdz iop(5/13=1,5/36=2,99/5=2) pseudo=read geom=check gue
 ss=(read,tcheck) scf=(maxcycle=1)
 ----------------------------------------------------------------------
 -----
 title
 -----
 Structure from the checkpoint file:  "BDE49_nonexpt_1973_mol1.chk"
 Charge =  0 Multiplicity = 1

                         Standard orientation:
 ---------------------------------------------------------------------
 Center     Atomic      Atomic             Coordinates (Angstroms)
 Number     Number       Type             X           Y           Z
 ---------------------------------------------------------------------
      1         14           0        0.259288    0.255676    0.000000
      2          6           0        0.259288   -0.777155    1.552298
      3          9           0       -1.081296    1.169120   -0.000000
      4          1           0       -0.596510   -1.457960    1.577103
      5          1           0        0.217544   -0.147059    2.444854
      6          6           0        0.259288   -0.777155   -1.552298
      7          1           0       -0.596510   -1.457960   -1.577103
      8          1           0        1.171417   -1.379983   -1.610331
      9          1           0        0.217544   -0.147059   -2.444854
     10          1           0        1.171417   -1.379983    1.610331
     11          1           0        1.405279    1.194315    0.000000
 ---------------------------------------------------------------------

 SCF Done:  E(RHF) =  -468.503111488     A.U. after    2 cycles

 The electronic state is 1-A'.
 Alpha  occ. eigenvalues --  -69.56386 -26.43323 -11.22211 -11.22209  -6.22997
 Alpha  occ. eigenvalues --   -3.98437  -3.98213  -3.98208  -1.54324  -0.97617
 Alpha  occ. eigenvalues --   -0.94329  -0.73076  -0.63511  -0.62632  -0.60477
 Alpha  occ. eigenvalues --   -0.57741  -0.56136  -0.55997  -0.55440  -0.46245
 Alpha  occ. eigenvalues --   -0.45669
 Alpha virt. eigenvalues --    0.03375   0.04253   0.04516   0.04893   0.07021
 Alpha virt. eigenvalues --    0.07344   0.07585   0.08404   0.09713   0.09955
 Alpha virt. eigenvalues --    0.14424   0.15136   0.16241   0.16409   0.16784

 Mulliken charges:
               1
     1  Si   2.243749
     2  C   -0.606480
     3  F   -0.885779
     4  H    0.067789
     5  H   -0.035644
     6  C   -0.606480
     7  H    0.067789
     8  H    0.038434
     9  H   -0.035644
    10  H    0.038434
    11  H   -0.286168
 Sum of Mulliken charges =  -0.00000

 Dipole moment (field-independent basis, Debye):
    X=              1.1319    Y=             -1.5636    Z=             -0.0000  Tot=              1.9303

 Test job not archived.
 1\1\GINC-SE249\SP\RHF\Aug-CC-pVDZ\C2H7F1Si1\OHZDE\08-Apr-2025\0\\#t hf
  aug-cc-pvdz iop(5/13=1,5/36=2,99/5=2) pseudo=read geom=check guess=(r
 ead,tcheck) scf=(maxcycle=1)\\title\\0,1\Si,0,0.259288,0.255676,0.\C,0
 ,0.259288,-0.777155,1.552298\F,0,-1.081296,1.16912,0.\H,0,-0.59651,-1.
 45796,1.577103\H,0,0.217544,-0.147059,2.444854\C,0,0.259288,-0.777155,
 -1.552298\H,0,-0.59651,-1.45796,-1.577103\H,0,1.171417,-1.379983,-1.61
 0331\H,0,0.217544,-0.147059,-2.444854\H,0,1.171417,-1.379983,1.610331\
 H,0,1.405279,1.194315,0.\\Version=ES64L-G16RevC.01\State=1-A'\HF=-468.

 Normal termination of Gaussian 16 at Tue Apr  8 23:55:25 2025.
