 Gaussian 16, Revision C.01,

 ----------------------------------------------------------------------
 #t hf aug-cc-pvdz symm=none int=(grid=ultrafine) guess=(read,tcheck) s
 table=(opt,rrhf)
 ----------------------------------------------------------------------
 -----
 title
 -----
 Symbolic Z-matrix:
 Charge =  0 Multiplicity = 1

 SCF Done:  E(RHF) =  -385.338009904     A.U. after   11 cycles
 Normal termination of Gaussian 16 at Tue Apr  8 23:56:19 2025.
 Gaussian 16:  ES64L-G16RevC.01  3-Jul-2019

 ----------------------------------------------------------------------
 #t hf aug-cc-pvdz iop(5/13=1,5/36=2,99/5=2) pseudo=read geom=check gue
 ss=(read,tcheck) scf=(maxcycle=1)
 ----------------------------------------------------------------------
 -----
 title
 -----
 Structure from the checkpoint file:  "BDE49_nonexpt_2011_mol1.chk"
 Charge =  0 Multiplicity = 1

                         Standard orientation:
 ---------------------------------------------------------------------
 Center     Atomic      Atomic             Coordinates (Angstroms)
 Number     Number       Type             X           Y           Z
 ---------------------------------------------------------------------
      1          7           0        0.484146    0.541387   -0.066060
      2         14           0       -1.109883   -0.103721    0.004343
      3          6           0        1.704198   -0.255778    0.017658
      4          1           0        0.611562    1.502779    0.215423
      5          1           0        1.544184   -1.221252   -0.470665
      6          1           0        2.031938   -0.456112    1.047439
      7          1           0        2.526046    0.237829   -0.510118
      8          1           0       -1.256238   -1.145080   -1.041587
      9          1           0       -2.041077    1.021373   -0.240926
     10          1           0       -1.492262   -0.742482    1.296108
 ---------------------------------------------------------------------

 SCF Done:  E(RHF) =  -385.477896081     A.U. after    2 cycles

 The electronic state is 1-A.
 Alpha  occ. eigenvalues --  -69.53586 -15.47551 -11.26396  -6.20398  -3.95824
 Alpha  occ. eigenvalues --   -3.95788  -3.95726  -1.16937  -0.91633  -0.75498
 Alpha  occ. eigenvalues --   -0.66565  -0.60686  -0.59274  -0.52551  -0.49142
 Alpha  occ. eigenvalues --   -0.48152  -0.40214
 Alpha virt. eigenvalues --    0.03462   0.04744   0.05141   0.05393   0.06372
 Alpha virt. eigenvalues --    0.06915   0.07171   0.08431   0.09084   0.11064
 Alpha virt. eigenvalues --    0.12907   0.15031   0.15922   0.16365   0.17258

 Mulliken charges:
               1
     1  N    0.053040
     2  Si   0.676869
     3  C   -0.490138
     4  H   -0.013008
     5  H    0.051382
     6  H    0.136827
     7  H    0.077806
     8  H   -0.151399
     9  H   -0.139355
    10  H   -0.202024
 Sum of Mulliken charges =  -0.00000

 Dipole moment (field-independent basis, Debye):
    X=              0.9516    Y=              0.3238    Z=              0.4587  Tot=              1.1048

 Test job not archived.
 1\1\GINC-SE335\SP\RHF\Aug-CC-pVDZ\C1H7N1Si1\OHZDE\08-Apr-2025\0\\#t hf
  aug-cc-pvdz iop(5/13=1,5/36=2,99/5=2) pseudo=read geom=check guess=(r
 ead,tcheck) scf=(maxcycle=1)\\title\\0,1\N,0,0.484146,0.541387,-0.0660
 6\Si,0,-1.109883,-0.103721,0.004343\C,0,1.704198,-0.255778,0.017658\H,
 0,0.611562,1.502779,0.215423\H,0,1.544184,-1.221252,-0.470665\H,0,2.03
 1938,-0.456112,1.047439\H,0,2.526046,0.237829,-0.510118\H,0,-1.256238,
 -1.14508,-1.041587\H,0,-2.041077,1.021373,-0.240926\H,0,-1.492262,-0.7
 42482,1.296108\\Version=ES64L-G16RevC.01\State=1-A\HF=-385.4778961\RMS

 Normal termination of Gaussian 16 at Tue Apr  8 23:56:22 2025.
