 Gaussian 16, Revision C.01,

 ----------------------------------------------------------------------
 #t hf aug-cc-pvdz symm=none int=(grid=ultrafine) guess=(read,tcheck) s
 table=opt
 ----------------------------------------------------------------------
 -----
 title
 -----
 Symbolic Z-matrix:
 Charge =  0 Multiplicity = 2

 SCF Done:  E(UHF) =  -423.748142012     A.U. after   16 cycles
 Normal termination of Gaussian 16 at Tue Apr  8 23:51:28 2025.
 Gaussian 16:  ES64L-G16RevC.01  3-Jul-2019

 ----------------------------------------------------------------------
 #t hf aug-cc-pvdz iop(5/13=1,5/36=2,99/5=2) pseudo=read geom=check gue
 ss=(read,tcheck) scf=(maxcycle=1)
 ----------------------------------------------------------------------
 -----
 title
 -----
 Structure from the checkpoint file:  "BDE49_nonexpt_1902_mol2.chk"
 Charge =  0 Multiplicity = 2

                         Standard orientation:
 ---------------------------------------------------------------------
 Center     Atomic      Atomic             Coordinates (Angstroms)
 Number     Number       Type             X           Y           Z
 ---------------------------------------------------------------------
      1         14           0        0.273464   -1.383611    0.000000
      2          7           0       -0.122236    0.307329    0.000000
      3          1           0       -0.362040   -1.957411    1.222868
      4          1           0       -0.362040   -1.957411   -1.222868
      5          6           0       -0.122236    1.102622   -1.218452
      6          1           0       -1.011156    1.745798   -1.252383
      7          1           0       -0.142610    0.454643   -2.096390
      8          1           0        0.762804    1.750861   -1.289546
      9          6           0       -0.122236    1.102622    1.218452
     10          1           0       -0.142610    0.454643    2.096390
     11          1           0       -1.011156    1.745798    1.252383
     12          1           0        0.762804    1.750861    1.289546
 ---------------------------------------------------------------------

 SCF Done:  E(UHF) =  -423.923228988     A.U. after    2 cycles

 The electronic state is 2-A'.
 Alpha  occ. eigenvalues --  -69.53988 -15.48858 -11.26279 -11.26273  -6.20838
 Alpha  occ. eigenvalues --   -3.96612  -3.95915  -3.95899  -1.20717  -0.96630
 Alpha  occ. eigenvalues --   -0.87924  -0.74112  -0.65048  -0.64061  -0.61834
 Alpha  occ. eigenvalues --   -0.55558  -0.53724  -0.51671  -0.48375  -0.43636
 Alpha  occ. eigenvalues --   -0.31055
 Alpha virt. eigenvalues --    0.03574   0.04867   0.04897   0.05190   0.06132
 Alpha virt. eigenvalues --    0.06156   0.06947   0.07538   0.08213   0.10046
 Alpha virt. eigenvalues --    0.10819   0.13322   0.14183   0.14752   0.15323

  Beta  occ. eigenvalues --  -69.53526 -15.48089 -11.26335 -11.26329  -6.20114
  Beta  occ. eigenvalues --   -3.95672  -3.95628  -3.94824  -1.19153  -0.96619
  Beta  occ. eigenvalues --   -0.87207  -0.72028  -0.63752  -0.63333  -0.59910
  Beta  occ. eigenvalues --   -0.55507  -0.53644  -0.50825  -0.46855  -0.38547
  Beta virt. eigenvalues --    0.03172   0.03813   0.04892   0.05108   0.05713
  Beta virt. eigenvalues --    0.06238   0.06251   0.06992   0.08531   0.09762
  Beta virt. eigenvalues --    0.10190   0.11049   0.13636   0.14774   0.14829

 Mulliken charges and spin densities:
               1          2
     1  Si   0.182104   0.836858
     2  N    0.344079   0.065283
     3  H   -0.053468   0.060012
     4  H   -0.053468   0.060012
     5  C   -0.546975  -0.019129
     6  H    0.167098   0.005182
     7  H   -0.032411   0.002333
     8  H    0.202665   0.000531
     9  C   -0.546975  -0.019129
    10  H   -0.032411   0.002333
    11  H    0.167098   0.005182
    12  H    0.202665   0.000531
 Sum of Mulliken charges =  -0.00000   1.00000

 Dipole moment (field-independent basis, Debye):
    X=             -0.0103    Y=              1.1601    Z=             -0.0000  Tot=              1.1602
                          Isotropic Fermi Contact Couplings
        Atom                 a.u.       MegaHertz       Gauss      10(-4) cm-1
     1  Si(29)             0.58878    -523.26843    -186.71519    -174.54356
     2  N(14)              0.09701      31.34541      11.18482      10.45570
     3  H(1)               0.01635      73.08176      26.07739      24.37745
     4  H(1)               0.01635      73.08176      26.07739      24.37745
     5  C(13)             -0.00897     -10.08694      -3.59927      -3.36464
     6  H(1)               0.00162       7.24764       2.58614       2.41755
     7  H(1)               0.00023       1.01634       0.36266       0.33902
     8  H(1)               0.00096       4.29342       1.53200       1.43213

 Normal termination of Gaussian 16 at Tue Apr  8 23:51:31 2025.
