 Gaussian 16, Revision C.01,

 ----------------------------------------------------------------------
 #t hf aug-cc-pvdz symm=none int=(grid=ultrafine) guess=(read,tcheck) s
 table=(opt,rrhf)
 ----------------------------------------------------------------------
 -----
 title
 -----
 Symbolic Z-matrix:
 Charge =  0 Multiplicity = 1

 SCF Done:  E(RHF) =  -1161.09930888     A.U. after   14 cycles
 Normal termination of Gaussian 16 at Tue Apr  8 23:42:05 2025.
 Gaussian 16:  ES64L-G16RevC.01  3-Jul-2019

 ----------------------------------------------------------------------
 #t hf aug-cc-pvdz iop(5/13=1,5/36=2,99/5=2) pseudo=read geom=check gue
 ss=(read,tcheck) scf=(maxcycle=1)
 ----------------------------------------------------------------------
 -----
 title
 -----
 Structure from the checkpoint file:  "BDE49_nonexpt_1646_mol1.chk"
 Charge =  0 Multiplicity = 1

                         Standard orientation:
 ---------------------------------------------------------------------
 Center     Atomic      Atomic             Coordinates (Angstroms)
 Number     Number       Type             X           Y           Z
 ---------------------------------------------------------------------
      1          7           0       -1.929691   -0.324837   -0.003153
      2          9           0       -1.992321   -0.412490   -1.422572
      3          9           0       -1.631326   -1.661042    0.381122
      4         14           0       -0.372988    0.598442    0.319613
      5          6           0       -0.148073    0.586620    2.167512
      6          1           0       -1.020245    1.018462    2.665900
      7          1           0        0.732454    1.177440    2.434285
      8          1           0        0.001217   -0.429961    2.534763
      9          6           0       -0.641961    2.278143   -0.442660
     10          1           0       -1.506648    2.770285    0.011139
     11          1           0       -0.816500    2.203605   -1.517945
     12          1           0        0.238192    2.905637   -0.279727
     13         15           0        1.370016   -0.522452   -0.756628
     14          9           0        2.414572    0.722604   -0.516124
     15          9           0        1.796982   -1.438139    0.524173
 ---------------------------------------------------------------------

 SCF Done:  E(RHF) =  -1161.67526306     A.U. after    2 cycles

 The electronic state is 1-A.
 Alpha  occ. eigenvalues --  -84.41043 -69.58443 -26.50555 -26.50549 -26.48491
 Alpha  occ. eigenvalues --  -26.48393 -15.68725 -11.24940 -11.24683  -6.86726
 Alpha  occ. eigenvalues --   -6.25459  -4.39403  -4.38786  -4.37821  -4.00770
 Alpha  occ. eigenvalues --   -4.00660  -4.00636  -1.65212  -1.61416  -1.57507
 Alpha  occ. eigenvalues --   -1.57423  -1.10137  -0.99722  -0.96945  -0.87732
 Alpha  occ. eigenvalues --   -0.79540  -0.75133  -0.74445  -0.70780  -0.70418
 Alpha  occ. eigenvalues --   -0.68893  -0.65963  -0.65346  -0.64785  -0.62184
 Alpha  occ. eigenvalues --   -0.61411  -0.60912  -0.60062  -0.58513  -0.58194
 Alpha  occ. eigenvalues --   -0.57416  -0.52025  -0.49808  -0.49303  -0.35987
 Alpha virt. eigenvalues --    0.02900   0.04146   0.04666   0.05238   0.06388
 Alpha virt. eigenvalues --    0.06600   0.07153   0.07757   0.08913   0.09286
 Alpha virt. eigenvalues --    0.10363   0.11340   0.12584   0.12936   0.14166

 Mulliken charges:
               1
     1  N    1.226969
     2  F   -0.668682
     3  F   -0.660650
     4  Si   1.645173
     5  C   -0.585575
     6  H    0.048538
     7  H    0.002374
     8  H    0.023478
     9  C   -0.581464
    10  H    0.015304
    11  H    0.014511
    12  H    0.017491
    13  P    1.074515
    14  F   -0.772195
    15  F   -0.799788
 Sum of Mulliken charges =  -0.00000

 Dipole moment (field-independent basis, Debye):
    X=              0.4114    Y=              2.6062    Z=              0.7642  Tot=              2.7469

 Test job not archived.
 1\1\GINC-SE150\SP\RHF\Aug-CC-pVDZ\C2H6F4N1P1Si1\OHZDE\08-Apr-2025\0\\#
 t hf aug-cc-pvdz iop(5/13=1,5/36=2,99/5=2) pseudo=read geom=check gues
 s=(read,tcheck) scf=(maxcycle=1)\\title\\0,1\N,0,-1.929691,-0.324836,-
 0.003153\F,0,-1.992321,-0.412489,-1.422572\F,0,-1.631327,-1.661041,0.3
 81122\Si,0,-0.372988,0.598442,0.319613\C,0,-0.148073,0.58662,2.167512\
 H,0,-1.020245,1.018462,2.6659\H,0,0.732454,1.17744,2.434285\H,0,0.0012
 17,-0.429961,2.534763\C,0,-0.64196,2.278143,-0.44266\H,0,-1.506647,2.7
 70286,0.011139\H,0,-0.816499,2.203605,-1.517945\H,0,0.238193,2.905637,

 Normal termination of Gaussian 16 at Tue Apr  8 23:42:13 2025.
