 Gaussian 16, Revision C.01,

 ----------------------------------------------------------------------
 #t hf aug-cc-pvdz symm=none int=(grid=ultrafine) guess=(read,tcheck) s
 table=(opt,rrhf)
 ----------------------------------------------------------------------
 -----
 title
 -----
 Symbolic Z-matrix:
 Charge =  0 Multiplicity = 1

 SCF Done:  E(RHF) =  -173.230451792     A.U. after   13 cycles
 Normal termination of Gaussian 16 at Wed Apr  9 00:37:52 2025.
 Gaussian 16:  ES64L-G16RevC.01  3-Jul-2019

 ----------------------------------------------------------------------
 #t hf aug-cc-pvdz iop(5/13=1,5/36=2,99/5=2) pseudo=read geom=check gue
 ss=(read,tcheck) scf=(maxcycle=1)
 ----------------------------------------------------------------------
 -----
 title
 -----
 Structure from the checkpoint file:  "BDE49_nonexpt_571_mol1.chk"
 Charge =  0 Multiplicity = 1

                         Standard orientation:
 ---------------------------------------------------------------------
 Center     Atomic      Atomic             Coordinates (Angstroms)
 Number     Number       Type             X           Y           Z
 ---------------------------------------------------------------------
      1          5           0       -1.678377    0.409888    0.000002
      2          6           0        0.730582   -0.081559   -0.000018
      3          7           0        1.840861    0.236800    0.000017
      4          7           0       -0.563185   -0.462746   -0.000005
      5          1           0       -1.485522    1.578378   -0.000003
      6          1           0       -2.754702   -0.089389    0.000015
      7          1           0       -0.695108   -1.467448    0.000004
 ---------------------------------------------------------------------

 SCF Done:  E(RHF) =  -173.404064866     A.U. after    2 cycles

 The electronic state is 1-A.
 Alpha  occ. eigenvalues --  -15.57769 -15.51536 -11.32145  -7.63700  -1.29333
 Alpha  occ. eigenvalues --   -1.21872  -0.87007  -0.81811  -0.63193  -0.62304
 Alpha  occ. eigenvalues --   -0.61114  -0.52689  -0.50935  -0.47160
 Alpha virt. eigenvalues --    0.02474   0.03509   0.04190   0.04480   0.08117
 Alpha virt. eigenvalues --    0.09344   0.10105   0.10584   0.12220   0.12408
 Alpha virt. eigenvalues --    0.13427   0.14336   0.15598   0.17699   0.18904

 Mulliken charges:
               1
     1  B   -0.471358
     2  C   -1.262687
     3  N    0.739528
     4  N    0.336454
     5  H    0.175853
     6  H    0.324949
     7  H    0.157261
 Sum of Mulliken charges =   0.00000

 Dipole moment (field-independent basis, Debye):
    X=             -4.1906    Y=             -1.9216    Z=             -0.0001  Tot=              4.6102

 Test job not archived.
 1\1\GINC-SE284\SP\RHF\Aug-CC-pVDZ\C1H3B1N2\OHZDE\09-Apr-2025\0\\#t hf
 aug-cc-pvdz iop(5/13=1,5/36=2,99/5=2) pseudo=read geom=check guess=(re
 ad,tcheck) scf=(maxcycle=1)\\title\\0,1\B,0,-1.678377,0.409888,0.00000
 2\C,0,0.730582,-0.081559,-0.000018\N,0,1.840861,0.2368,0.000017\N,0,-0
 .563185,-0.462746,-0.000005\H,0,-1.485522,1.578378,-0.000003\H,0,-2.75
 4702,-0.089389,0.000015\H,0,-0.695108,-1.467448,0.000004\\Version=ES64
 L-G16RevC.01\State=1-A\HF=-173.4040649\RMSD=2.021e-02\Dipole=-1.648699
 7,-0.7560174,-0.0000232\Quadrupole=-4.3028972,3.0798437,1.2230534,-0.4

 Normal termination of Gaussian 16 at Wed Apr  9 00:37:56 2025.
