 Gaussian 16, Revision C.01,

 ----------------------------------------------------------------------
 #t hf aug-cc-pvdz symm=none int=(grid=ultrafine) guess=(read,tcheck) s
 table=(opt,rrhf)
 ----------------------------------------------------------------------
 -----
 title
 -----
 Symbolic Z-matrix:
 Charge =  0 Multiplicity = 1

 SCF Done:  E(RHF) =  -1115.33109257     A.U. after   13 cycles
 Normal termination of Gaussian 16 at Wed Apr  9 00:03:47 2025.
 Gaussian 16:  ES64L-G16RevC.01  3-Jul-2019

 ----------------------------------------------------------------------
 #t hf aug-cc-pvdz iop(5/13=1,5/36=2,99/5=2) pseudo=read geom=check gue
 ss=(read,tcheck) scf=(maxcycle=1)
 ----------------------------------------------------------------------
 -----
 title
 -----
 Structure from the checkpoint file:  "BDE49_nonexpt_217_mol1.chk"
 Charge =  0 Multiplicity = 1

                         Standard orientation:
 ---------------------------------------------------------------------
 Center     Atomic      Atomic             Coordinates (Angstroms)
 Number     Number       Type             X           Y           Z
 ---------------------------------------------------------------------
      1         17           0       -1.237390    1.732729    0.158001
      2         17           0       -1.909188   -1.183340   -0.222437
      3          5           0       -0.686394    0.074019    0.026159
      4          6           0        0.839465   -0.309407    0.098903
      5          7           0        1.632020    0.660429   -0.174627
      6          6           0        3.067780    0.475987   -0.247997
      7          1           0        3.528546    1.112417    0.515223
      8          1           0        3.408084    0.864402   -1.212707
      9          1           0        3.433296   -0.549416   -0.127904
     10          6           0        1.261633   -1.738466    0.409187
     11          1           0        0.433933   -2.314338    0.820914
     12          1           0        2.084024   -1.761033    1.127657
     13          1           0        1.598507   -2.253428   -0.496731
 ---------------------------------------------------------------------

 SCF Done:  E(RHF) =  -1115.68746299     A.U. after    2 cycles

 The electronic state is 1-A.
 Alpha  occ. eigenvalues -- -105.57580-105.56744 -15.52206 -11.28482 -11.26683
 Alpha  occ. eigenvalues --  -11.24962 -10.62600 -10.61769  -7.79490  -7.79217
 Alpha  occ. eigenvalues --   -7.79173  -7.78669  -7.78383  -7.78327  -7.71286
 Alpha  occ. eigenvalues --   -1.24374  -1.10599  -1.05430  -1.01689  -0.96409
 Alpha  occ. eigenvalues --   -0.79034  -0.70709  -0.65649  -0.64654  -0.62510
 Alpha  occ. eigenvalues --   -0.58298  -0.57464  -0.56555  -0.55477  -0.52527
 Alpha  occ. eigenvalues --   -0.48483  -0.47329  -0.45782  -0.44026  -0.43345
 Alpha virt. eigenvalues --    0.03132   0.03874   0.04259   0.04476   0.05003
 Alpha virt. eigenvalues --    0.06048   0.06105   0.06439   0.06991   0.07856
 Alpha virt. eigenvalues --    0.09669   0.12601   0.13380   0.13934   0.15024

 Mulliken charges:
               1
     1  Cl  -0.288166
     2  Cl  -0.335822
     3  B    0.704478
     4  C   -0.904951
     5  N    0.778086
     6  C   -0.319353
     7  H    0.141656
     8  H    0.127007
     9  H    0.105512
    10  C   -0.492977
    11  H    0.019235
    12  H    0.209783
    13  H    0.255512
 Sum of Mulliken charges =  -0.00000

 Dipole moment (field-independent basis, Debye):
    X=              2.2045    Y=             -2.1842    Z=              0.4561  Tot=              3.1367

 Test job not archived.
 1\1\GINC-SE367\SP\RHF\Aug-CC-pVDZ\C3H6B1Cl2N1\OHZDE\09-Apr-2025\0\\#t
 hf aug-cc-pvdz iop(5/13=1,5/36=2,99/5=2) pseudo=read geom=check guess=
 (read,tcheck) scf=(maxcycle=1)\\title\\0,1\Cl,0,-1.23739,1.732729,0.15
 8001\Cl,0,-1.909188,-1.18334,-0.222437\B,0,-0.686394,0.074019,0.026159
 \C,0,0.839465,-0.309407,0.098903\N,0,1.63202,0.660429,-0.174627\C,0,3.
 06778,0.475987,-0.247997\H,0,3.528546,1.112417,0.515223\H,0,3.408084,0
 .864402,-1.212707\H,0,3.433296,-0.549416,-0.127904\C,0,1.261633,-1.738
 466,0.409187\H,0,0.433933,-2.314338,0.820914\H,0,2.084024,-1.761033,1.

 Normal termination of Gaussian 16 at Wed Apr  9 00:03:52 2025.
