 Gaussian 16, Revision C.01,

 ----------------------------------------------------------------------
 #t hf aug-cc-pvdz symm=none int=(grid=ultrafine) guess=(read,tcheck) s
 table=(opt,rrhf)
 ----------------------------------------------------------------------
 -----
 title
 -----
 Symbolic Z-matrix:
 Charge =  0 Multiplicity = 1

 SCF Done:  E(RHF) =  -454.677083833     A.U. after   15 cycles
 Normal termination of Gaussian 16 at Wed Apr  9 00:39:54 2025.
 Gaussian 16:  ES64L-G16RevC.01  3-Jul-2019

 ----------------------------------------------------------------------
 #t hf aug-cc-pvdz iop(5/13=1,5/36=2,99/5=2) pseudo=read geom=check gue
 ss=(read,tcheck) scf=(maxcycle=1)
 ----------------------------------------------------------------------
 -----
 title
 -----
 Structure from the checkpoint file:  "BDE49_nonexpt_636_mol1.chk"
 Charge =  0 Multiplicity = 1

                         Standard orientation:
 ---------------------------------------------------------------------
 Center     Atomic      Atomic             Coordinates (Angstroms)
 Number     Number       Type             X           Y           Z
 ---------------------------------------------------------------------
      1          7           0       -1.304104   -0.070845    0.000001
      2          8           0       -0.071524   -0.745498   -0.000044
      3          5           0        1.183722   -0.057651   -0.000061
      4          8           0       -1.300110    1.146930    0.000059
      5          8           0       -2.242308   -0.805626    0.000020
      6          8           0        1.355992    1.277744   -0.000009
      7          8           0        2.211687   -0.934346    0.000008
      8          1           0        3.063590   -0.486907    0.000053
      9          1           0        0.516634    1.757438   -0.000019
 ---------------------------------------------------------------------

 SCF Done:  E(RHF) =  -455.112886598     A.U. after    2 cycles

 The electronic state is 1-A.
 Alpha  occ. eigenvalues --  -20.66097 -20.64452 -20.63613 -20.58600 -20.58597
 Alpha  occ. eigenvalues --  -15.88767  -7.72026  -1.75938  -1.58083  -1.55097
 Alpha  occ. eigenvalues --   -1.50191  -1.47789  -1.01047  -0.87990  -0.82577
 Alpha  occ. eigenvalues --   -0.81559  -0.78697  -0.74988  -0.70471  -0.63187
 Alpha  occ. eigenvalues --   -0.59596  -0.57838  -0.55459  -0.55360  -0.52886
 Alpha  occ. eigenvalues --   -0.52466  -0.50280
 Alpha virt. eigenvalues --    0.03644   0.03741   0.04968   0.05585   0.05711
 Alpha virt. eigenvalues --    0.07670   0.09391   0.14204   0.15522   0.17442
 Alpha virt. eigenvalues --    0.17851   0.18224   0.18824   0.19746   0.20744

 Mulliken charges:
               1
     1  N    2.877817
     2  O   -1.318183
     3  B    1.705834
     4  O   -1.154098
     5  O   -1.126572
     6  O   -1.117713
     7  O   -0.981516
     8  H    0.420087
     9  H    0.694343
 Sum of Mulliken charges =  -0.00000

 Dipole moment (field-independent basis, Debye):
    X=              1.9443    Y=              1.1290    Z=             -0.0002  Tot=              2.2483

 Test job not archived.
 1\1\GINC-SE339\SP\RHF\Aug-CC-pVDZ\B1H2N1O5\OHZDE\09-Apr-2025\0\\#t hf
 aug-cc-pvdz iop(5/13=1,5/36=2,99/5=2) pseudo=read geom=check guess=(re
 ad,tcheck) scf=(maxcycle=1)\\title\\0,1\N,0,-1.304104,-0.070845,0.0000
 01\O,0,-0.071524,-0.745498,-0.000044\B,0,1.183722,-0.057651,-0.000061\
 O,0,-1.30011,1.14693,0.000059\O,0,-2.242308,-0.805626,0.00002\O,0,1.35
 5992,1.277744,-0.000009\O,0,2.211687,-0.934346,0.000008\H,0,3.06359,-0
 .486907,0.000053\H,0,0.516634,1.757438,-0.000019\\Version=ES64L-G16Rev
 C.01\State=1-A\HF=-455.1128866\RMSD=1.550e-02\Dipole=0.7649499,0.44418

 Normal termination of Gaussian 16 at Wed Apr  9 00:39:57 2025.
