 Gaussian 16, Revision C.01,

 ----------------------------------------------------------------------
 #t hf aug-cc-pvdz symm=none int=(grid=ultrafine) guess=(read,tcheck) s
 table=opt
 ----------------------------------------------------------------------
 -----
 title
 -----
 Symbolic Z-matrix:
 Charge =  0 Multiplicity = 2

 SCF Done:  E(UHF) =  -554.291469768     A.U. after   16 cycles
 Normal termination of Gaussian 16 at Tue Apr  8 23:58:31 2025.
 Gaussian 16:  ES64L-G16RevC.01  3-Jul-2019

 ----------------------------------------------------------------------
 #t hf aug-cc-pvdz iop(5/13=1,5/36=2,99/5=2) pseudo=read geom=check gue
 ss=(read,tcheck) scf=(maxcycle=1)
 ----------------------------------------------------------------------
 -----
 title
 -----
 Structure from the checkpoint file:  "BDE49_nonexpt_2067_mol2.chk"
 Charge =  0 Multiplicity = 2

                         Standard orientation:
 ---------------------------------------------------------------------
 Center     Atomic      Atomic             Coordinates (Angstroms)
 Number     Number       Type             X           Y           Z
 ---------------------------------------------------------------------
      1         14           0       -1.557450    0.074826   -0.140849
      2          6           0        0.373949    0.012370    0.004511
      3          8           0        0.960232    1.283443    0.086171
      4          1           0        0.761398    1.737395   -0.739951
      5          8           0        0.861210   -0.711684   -1.097139
      6          1           0        1.825864   -0.743839   -0.998384
      7          8           0        0.763683   -0.586879    1.217151
      8          1           0        0.494999   -1.511317    1.170294
      9          1           0       -2.100552    0.826137    1.017398
     10          1           0       -2.102113   -1.309197   -0.153994
 ---------------------------------------------------------------------

 SCF Done:  E(UHF) =  -554.583176885     A.U. after    2 cycles

 The electronic state is 2-A.
 Alpha  occ. eigenvalues --  -69.54889 -20.57607 -20.57392 -20.57345 -11.40036
 Alpha  occ. eigenvalues --   -6.22075  -3.98035  -3.97106  -3.97093  -1.55150
 Alpha  occ. eigenvalues --   -1.44858  -1.44713  -0.90676  -0.80677  -0.73945
 Alpha  occ. eigenvalues --   -0.67769  -0.65259  -0.62688  -0.61934  -0.53715
 Alpha  occ. eigenvalues --   -0.51868  -0.50133  -0.47938  -0.43573  -0.34865
 Alpha virt. eigenvalues --    0.03269   0.04452   0.04501   0.05443   0.06536
 Alpha virt. eigenvalues --    0.07577   0.08343   0.09665   0.11906   0.13960
 Alpha virt. eigenvalues --    0.14837   0.15181   0.16158   0.17953   0.19150

  Beta  occ. eigenvalues --  -69.54325 -20.57609 -20.57364 -20.57215 -11.39968
  Beta  occ. eigenvalues --   -6.21220  -3.96718  -3.96715  -3.95842  -1.55015
  Beta  occ. eigenvalues --   -1.44860  -1.44416  -0.90039  -0.79783  -0.71890
  Beta  occ. eigenvalues --   -0.67595  -0.64620  -0.62163  -0.61006  -0.53092
  Beta  occ. eigenvalues --   -0.51705  -0.49302  -0.47672  -0.42251
  Beta virt. eigenvalues --    0.01558   0.03459   0.04575   0.05166   0.05982
  Beta virt. eigenvalues --    0.06840   0.08082   0.08837   0.09977   0.12086
  Beta virt. eigenvalues --    0.14503   0.15778   0.16181   0.17154   0.19369

 Mulliken charges and spin densities:
               1          2
     1  Si   0.651747   0.955191
     2  C    2.627523  -0.003900
     3  O   -1.319293   0.004402
     4  H    0.302604   0.001634
     5  O   -1.123543  -0.005324
     6  H    0.176716  -0.001893
     7  O   -1.292993   0.017104
     8  H    0.289475  -0.011983
     9  H   -0.150061   0.022117
    10  H   -0.162177   0.022651
 Sum of Mulliken charges =  -0.00000   1.00000

 Dipole moment (field-independent basis, Debye):
    X=             -0.3436    Y=             -0.7167    Z=             -1.2200  Tot=              1.4561
                          Isotropic Fermi Contact Couplings
        Atom                 a.u.       MegaHertz       Gauss      10(-4) cm-1
     1  Si(29)             0.57607    -511.97018    -182.68369    -170.77487
     2  C(13)              0.01557      17.50442       6.24601       5.83885
     3  O(17)             -0.00285       1.72914       0.61700       0.57678
     4  H(1)              -0.00013      -0.56923      -0.20311      -0.18987
     5  O(17)             -0.00614       3.72222       1.32818       1.24160
     6  H(1)              -0.00058      -2.57585      -0.91913      -0.85921
     7  O(17)              0.02065     -12.51655      -4.46622      -4.17507
     8  H(1)              -0.00076      -3.40315      -1.21433      -1.13517

 Normal termination of Gaussian 16 at Tue Apr  8 23:58:34 2025.
