 Gaussian 16, Revision C.01,

 ----------------------------------------------------------------------
 #t hf aug-cc-pvdz symm=none int=(grid=ultrafine) guess=(read,tcheck) s
 table=(opt,rrhf)
 ----------------------------------------------------------------------
 -----
 title
 -----
 Symbolic Z-matrix:
 Charge =  0 Multiplicity = 1

 SCF Done:  E(RHF) =  -646.930085753     A.U. after   15 cycles
 Normal termination of Gaussian 16 at Tue Apr  8 23:35:34 2025.
 Gaussian 16:  ES64L-G16RevC.01  3-Jul-2019

 ----------------------------------------------------------------------
 #t hf aug-cc-pvdz iop(5/13=1,5/36=2,99/5=2) pseudo=read geom=check gue
 ss=(read,tcheck) scf=(maxcycle=1)
 ----------------------------------------------------------------------
 -----
 title
 -----
 Structure from the checkpoint file:  "BDE49_nonexpt_1484_mol1.chk"
 Charge =  0 Multiplicity = 1

                         Standard orientation:
 ---------------------------------------------------------------------
 Center     Atomic      Atomic             Coordinates (Angstroms)
 Number     Number       Type             X           Y           Z
 ---------------------------------------------------------------------
      1          6           0        2.179226   -1.011172   -0.105180
      2          6           0        0.810274   -1.271027   -0.081617
      3          6           0        2.639811    0.301406   -0.029724
      4          6           0        1.728131    1.352087    0.072260
      5          6           0        0.360953    1.092892    0.112514
      6          6           0       -0.108545   -0.223328    0.043696
      7         15           0       -1.905646   -0.627755    0.074681
      8          8           0       -2.594610    0.877362   -0.190707
      9          1           0       -3.038610    0.883778   -1.043768
     10          1           0        2.883239   -1.830879   -0.196476
     11          1           0        0.456046   -2.294079   -0.167510
     12          1           0        3.704195    0.506180   -0.058588
     13          1           0        2.084095    2.375264    0.125126
     14          1           0       -0.352287    1.905186    0.189708
     15          1           0       -2.054213   -0.593170    1.485256
 ---------------------------------------------------------------------

 SCF Done:  E(RHF) =  -647.286412727     A.U. after    2 cycles

 The electronic state is 1-A.
 Alpha  occ. eigenvalues --  -84.31611 -20.56685 -11.25057 -11.24848 -11.24780
 Alpha  occ. eigenvalues --  -11.24728 -11.24655 -11.24573  -6.78061  -4.31134
 Alpha  occ. eigenvalues --   -4.30560  -4.29936  -1.45220  -1.15820  -1.02845
 Alpha  occ. eigenvalues --   -1.02063  -0.87691  -0.83882  -0.80066  -0.71314
 Alpha  occ. eigenvalues --   -0.66552  -0.64284  -0.62956  -0.60349  -0.58503
 Alpha  occ. eigenvalues --   -0.57557  -0.52188  -0.51432  -0.50815  -0.45298
 Alpha  occ. eigenvalues --   -0.37176  -0.34983  -0.32283
 Alpha virt. eigenvalues --    0.03547   0.03741   0.03950   0.04951   0.05585
 Alpha virt. eigenvalues --    0.06137   0.07796   0.08489   0.09267   0.09569
 Alpha virt. eigenvalues --    0.10698   0.11520   0.12597   0.13683   0.13990

 Mulliken charges:
               1
     1  C    0.523753
     2  C   -0.420636
     3  C   -0.005491
     4  C    0.524687
     5  C   -0.182928
     6  C    0.417466
     7  P    0.799996
     8  O   -1.265720
     9  H    0.447842
    10  H   -0.209939
    11  H   -0.240126
    12  H   -0.208685
    13  H   -0.213504
    14  H   -0.287594
    15  H    0.320882
 Sum of Mulliken charges =  -0.00000

 Dipole moment (field-independent basis, Debye):
    X=              0.4622    Y=             -0.0864    Z=             -0.7860  Tot=              0.9159

 Test job not archived.
 1\1\GINC-SE106\SP\RHF\Aug-CC-pVDZ\C6H7O1P1\OHZDE\08-Apr-2025\0\\#t hf
 aug-cc-pvdz iop(5/13=1,5/36=2,99/5=2) pseudo=read geom=check guess=(re
 ad,tcheck) scf=(maxcycle=1)\\title\\0,1\C,0,2.179226,-1.011172,-0.1051
 8\C,0,0.810274,-1.271027,-0.081617\C,0,2.639811,0.301405,-0.029724\C,0
 ,1.728131,1.352087,0.07226\C,0,0.360953,1.092892,0.112514\C,0,-0.10854
 5,-0.223328,0.043696\P,0,-1.905646,-0.627755,0.074681\O,0,-2.59461,0.8
 77363,-0.190707\H,0,-3.03861,0.883779,-1.043768\H,0,2.883239,-1.83088,
 -0.196476\H,0,0.456045,-2.294079,-0.16751\H,0,3.704195,0.506179,-0.058

 Normal termination of Gaussian 16 at Tue Apr  8 23:35:40 2025.
