 Gaussian 16, Revision C.01,

 ----------------------------------------------------------------------
 #t hf aug-cc-pvdz symm=none int=(grid=ultrafine) guess=(read,tcheck) s
 table=(opt,rrhf)
 ----------------------------------------------------------------------
 -----
 title
 -----
 Symbolic Z-matrix:
 Charge =  0 Multiplicity = 1

 SCF Done:  E(RHF) =  -686.764502598     A.U. after   14 cycles
 Normal termination of Gaussian 16 at Tue Apr  8 22:49:32 2025.
 Gaussian 16:  ES64L-G16RevC.01  3-Jul-2019

 ----------------------------------------------------------------------
 #t hf aug-cc-pvdz iop(5/13=1,5/36=2,99/5=2) pseudo=read geom=check gue
 ss=(read,tcheck) scf=(maxcycle=1)
 ----------------------------------------------------------------------
 -----
 title
 -----
 Structure from the checkpoint file:  "BDE49_expt_1715_mol1.chk"
 Charge =  0 Multiplicity = 1

                         Standard orientation:
 ---------------------------------------------------------------------
 Center     Atomic      Atomic             Coordinates (Angstroms)
 Number     Number       Type             X           Y           Z
 ---------------------------------------------------------------------
      1          6           0        1.003517   -0.115348    0.056075
      2          8           0        1.800782   -0.871896   -0.430087
      3          6           0       -0.310845   -0.550915    0.674331
      4          8           0        1.185315    1.214986    0.146666
      5         17           0       -1.724222    0.096985   -0.245718
      6          1           0       -0.397125   -0.177220    1.693278
      7          1           0       -0.368380   -1.634200    0.647475
      8          1           0        2.032478    1.415541   -0.278609
 ---------------------------------------------------------------------

 SCF Done:  E(RHF) =  -687.064771796     A.U. after    2 cycles

 The electronic state is 1-A.
 Alpha  occ. eigenvalues -- -105.57943 -20.61987 -20.56250 -11.42044 -11.33547
 Alpha  occ. eigenvalues --  -10.62708  -7.79657  -7.79258  -7.79245  -1.56998
 Alpha  occ. eigenvalues --   -1.47668  -1.13140  -0.97754  -0.84464  -0.73309
 Alpha  occ. eigenvalues --   -0.71620  -0.66455  -0.63586  -0.60691  -0.57246
 Alpha  occ. eigenvalues --   -0.49660  -0.49300  -0.46495  -0.45023
 Alpha virt. eigenvalues --    0.03352   0.04347   0.05386   0.07172   0.09963
 Alpha virt. eigenvalues --    0.10969   0.11736   0.13107   0.13799   0.14322
 Alpha virt. eigenvalues --    0.15359   0.16186   0.17907   0.18235   0.18774

 Mulliken charges:
               1
     1  C    2.007627
     2  O   -1.104662
     3  C   -0.695904
     4  O   -1.113685
     5  Cl  -0.013867
     6  H    0.295037
     7  H    0.274698
     8  H    0.350757
 Sum of Mulliken charges =  -0.00000

 Dipole moment (field-independent basis, Debye):
    X=              0.5263    Y=              0.6537    Z=              1.5425  Tot=              1.7560

 Test job not archived.
 1\1\GINC-SE367\SP\RHF\Aug-CC-pVDZ\C2H3Cl1O2\OHZDE\08-Apr-2025\0\\#t hf
  aug-cc-pvdz iop(5/13=1,5/36=2,99/5=2) pseudo=read geom=check guess=(r
 ead,tcheck) scf=(maxcycle=1)\\title\\0,1\C,0,1.003517,-0.115348,0.0560
 75\O,0,1.800782,-0.871895,-0.430087\C,0,-0.310845,-0.550915,0.674331\O
 ,0,1.185315,1.214986,0.146666\Cl,0,-1.724222,0.096984,-0.245718\H,0,-0
 .397125,-0.17722,1.693278\H,0,-0.368379,-1.6342,0.647475\H,0,2.032478,
 1.415542,-0.278609\\Version=ES64L-G16RevC.01\State=1-A\HF=-687.0647718
 \RMSD=8.982e-03\Dipole=0.207044,0.2571767,0.6068675\Quadrupole=-1.2855

 Normal termination of Gaussian 16 at Tue Apr  8 22:49:34 2025.
