 Gaussian 16, Revision C.01,

 ----------------------------------------------------------------------
 #t hf aug-cc-pvdz symm=none int=(grid=ultrafine) guess=(read,tcheck) s
 table=(opt,rrhf)
 ----------------------------------------------------------------------
 -----
 title
 -----
 Symbolic Z-matrix:
 Charge =  0 Multiplicity = 1

 SCF Done:  E(RHF) =  -554.847615253     A.U. after   13 cycles

 1\1\GINC-SE334\Stability\RHF\Aug-CC-pVDZ\C4H10S1\OHZDE\08-Apr-2025\0\\
 #t hf aug-cc-pvdz symm=none int=(grid=ultrafine) guess=(read,tcheck) s
 table=(opt,rrhf)\\title\\0,1\S,0,1.032759,-1.168519,-0.106747\C,0,0.23
 6444,0.443241,0.362209\C,0,1.237885,1.545265,0.007047\H,0,0.138511,-1.
 986067,0.472363\H,0,0.834162,2.5211,0.291636\H,0,1.435139,1.564642,-1.
 068819\C,0,-1.122587,0.670173,-0.312369\H,0,0.105598,0.419098,1.447622
 \C,0,-2.226736,-0.307633,0.094016\H,0,-1.440586,1.689594,-0.057411\H,0
 ,-0.985001,0.647044,-1.39862\H,0,-2.361829,-0.325702,1.180415\H,0,-2.0

 Normal termination of Gaussian 16 at Tue Apr  8 22:45:45 2025.
 Gaussian 16:  ES64L-G16RevC.01  3-Jul-2019

 ----------------------------------------------------------------------
 #t hf aug-cc-pvdz iop(5/13=1,5/36=2,99/5=2) pseudo=read geom=check gue
 ss=(read,tcheck) scf=(maxcycle=1)
 ----------------------------------------------------------------------
 -----
 title
 -----
 Structure from the checkpoint file:  "BDE49_expt_1550_mol1.chk"
 Charge =  0 Multiplicity = 1

                         Standard orientation:
 ---------------------------------------------------------------------
 Center     Atomic      Atomic             Coordinates (Angstroms)
 Number     Number       Type             X           Y           Z
 ---------------------------------------------------------------------
      1         16           0        1.032759   -1.168519   -0.106747
      2          6           0        0.236444    0.443241    0.362209
      3          6           0        1.237885    1.545265    0.007047
      4          1           0        0.138511   -1.986067    0.472363
      5          1           0        0.834162    2.521100    0.291636
      6          1           0        1.435139    1.564642   -1.068819
      7          6           0       -1.122587    0.670173   -0.312369
      8          1           0        0.105598    0.419098    1.447622
      9          6           0       -2.226736   -0.307633    0.094016
     10          1           0       -1.440586    1.689594   -0.057411
     11          1           0       -0.985001    0.647044   -1.398620
     12          1           0       -2.361829   -0.325702    1.180415
     13          1           0       -2.006894   -1.325158   -0.237921
     14          1           0       -3.181477   -0.018614   -0.352563
     15          1           0        2.188194    1.404095    0.525828
 ---------------------------------------------------------------------

 SCF Done:  E(RHF) =  -555.085477140     A.U. after    2 cycles

 The electronic state is 1-A.
 Alpha  occ. eigenvalues --  -93.94064 -11.27587 -11.23822 -11.23564 -11.22961
 Alpha  occ. eigenvalues --   -8.22142  -6.19992  -6.19844  -6.19627  -1.11144
 Alpha  occ. eigenvalues --   -1.00896  -0.96315  -0.87106  -0.78058  -0.65203
 Alpha  occ. eigenvalues --   -0.61840  -0.60237  -0.58838  -0.53723  -0.52233
 Alpha  occ. eigenvalues --   -0.50385  -0.49007  -0.48540  -0.44194  -0.36015
 Alpha virt. eigenvalues --    0.03600   0.03815   0.03939   0.04705   0.06280
 Alpha virt. eigenvalues --    0.06544   0.06635   0.07145   0.09339   0.09833
 Alpha virt. eigenvalues --    0.10644   0.12907   0.13488   0.14265   0.15254

 Mulliken charges:
               1
     1  S   -0.048388
     2  C   -0.769981
     3  C   -0.261240
     4  H    0.334145
     5  H    0.167721
     6  H    0.212866
     7  C   -0.286389
     8  H    0.083678
     9  C   -0.303536
    10  H    0.160243
    11  H    0.135590
    12  H    0.162744
    13  H    0.159568
    14  H    0.118939
    15  H    0.134041
 Sum of Mulliken charges =   0.00000

 Dipole moment (field-independent basis, Debye):
    X=             -1.3908    Y=              1.1582    Z=              0.7165  Tot=              1.9465

 Test job not archived.
 1\1\GINC-SE334\SP\RHF\Aug-CC-pVDZ\C4H10S1\OHZDE\08-Apr-2025\0\\#t hf a
 ug-cc-pvdz iop(5/13=1,5/36=2,99/5=2) pseudo=read geom=check guess=(rea
 d,tcheck) scf=(maxcycle=1)\\title\\0,1\S,0,1.032759,-1.168519,-0.10674
 7\C,0,0.236444,0.443241,0.362209\C,0,1.237885,1.545265,0.007047\H,0,0.
 138511,-1.986067,0.472363\H,0,0.834162,2.5211,0.291636\H,0,1.435139,1.
 564642,-1.068819\C,0,-1.122587,0.670173,-0.312369\H,0,0.105598,0.41909
 8,1.447622\C,0,-2.226736,-0.307633,0.094016\H,0,-1.440586,1.689594,-0.
 057411\H,0,-0.985001,0.647044,-1.39862\H,0,-2.361829,-0.325702,1.18041

 Normal termination of Gaussian 16 at Tue Apr  8 22:45:49 2025.
