 Gaussian 16, Revision C.01,

 ----------------------------------------------------------------------
 #t hf aug-cc-pvdz symm=none int=(grid=ultrafine) guess=(read,tcheck) s
 table=opt
 ----------------------------------------------------------------------
 -----
 title
 -----
 Symbolic Z-matrix:
 Charge =  0 Multiplicity = 2

 SCF Done:  E(UHF) =  -204.026346646     A.U. after   18 cycles
 Normal termination of Gaussian 16 at Tue Apr  8 23:35:15 2025.
 Gaussian 16:  ES64L-G16RevC.01  3-Jul-2019

 ----------------------------------------------------------------------
 #t hf aug-cc-pvdz iop(5/13=1,5/36=2,99/5=2) pseudo=read geom=check gue
 ss=(read,tcheck) scf=(maxcycle=1)
 ----------------------------------------------------------------------
 -----
 title
 -----
 Structure from the checkpoint file:  "BDE49_nonexpt_148_mol2.chk"
 Charge =  0 Multiplicity = 2

                         Standard orientation:
 ---------------------------------------------------------------------
 Center     Atomic      Atomic             Coordinates (Angstroms)
 Number     Number       Type             X           Y           Z
 ---------------------------------------------------------------------
      1          5           0        0.552036    1.730146   -0.000017
      2          5           0        0.472421    0.119591   -0.000118
      3          8           0       -0.646978   -0.668879   -0.000135
      4          6           0        1.874418   -0.633560   -0.000277
      5          1           0        2.754143    0.016360   -0.000728
      6          1           0        1.939840   -1.281940   -0.881966
      7          1           0        1.940357   -1.281368    0.881796
      8          6           0       -1.948581   -0.095132    0.000409
      9          1           0       -2.675268   -0.908441   -0.003291
     10          1           0       -2.106825    0.523031   -0.890572
     11          1           0       -2.108744    0.516633    0.895422
     12          1           0        0.755016    2.890227    0.000305
 ---------------------------------------------------------------------

 SCF Done:  E(UHF) =  -204.237609081     A.U. after    2 cycles

 The electronic state is 2-A.
 Alpha  occ. eigenvalues --  -20.54231 -11.28973 -11.19890  -7.61718  -7.59353
 Alpha  occ. eigenvalues --   -1.45466  -0.96336  -0.92167  -0.74901  -0.67973
 Alpha  occ. eigenvalues --   -0.63796  -0.62765  -0.58005  -0.54873  -0.53003
 Alpha  occ. eigenvalues --   -0.50232  -0.46595  -0.43270  -0.31077
 Alpha virt. eigenvalues --    0.02735   0.03242   0.04084   0.04755   0.05718
 Alpha virt. eigenvalues --    0.06403   0.07158   0.07350   0.07722   0.08024
 Alpha virt. eigenvalues --    0.10071   0.10778   0.11085   0.11570   0.12607

  Beta  occ. eigenvalues --  -20.54070 -11.28984 -11.19935  -7.60480  -7.59391
  Beta  occ. eigenvalues --   -1.45084  -0.96241  -0.92110  -0.72079  -0.65455
  Beta  occ. eigenvalues --   -0.63174  -0.62339  -0.57487  -0.54456  -0.52894
  Beta  occ. eigenvalues --   -0.50217  -0.45460  -0.42398
  Beta virt. eigenvalues --    0.02934   0.03274   0.03490   0.04126   0.05897
  Beta virt. eigenvalues --    0.06445   0.06510   0.07204   0.08038   0.08212
  Beta virt. eigenvalues --    0.09101   0.10121   0.11169   0.11711   0.11988

 Mulliken charges and spin densities:
               1          2
     1  B   -1.232157   0.862784
     2  B    1.793907   0.156660
     3  O   -1.298723   0.031825
     4  C   -0.502808  -0.023664
     5  H   -0.136518  -0.005482
     6  H    0.031136   0.010672
     7  H    0.031382   0.010685
     8  C    0.424501  -0.000150
     9  H   -0.018098  -0.001332
    10  H    0.162968  -0.004133
    11  H    0.163858  -0.004106
    12  H    0.580551  -0.033757
 Sum of Mulliken charges =  -0.00000   1.00000

 Dipole moment (field-independent basis, Debye):
    X=             -0.8481    Y=              1.2461    Z=              0.0009  Tot=              1.5074
                          Isotropic Fermi Contact Couplings
        Atom                 a.u.       MegaHertz       Gauss      10(-4) cm-1
     1  B(11)              0.07524     107.91509      38.50679      35.99660
     2  B(11)             -0.02080     -29.83161     -10.64466      -9.95075
     3  O(17)              0.01605      -9.72995      -3.47189      -3.24556
     4  C(13)             -0.00916     -10.30207      -3.67603      -3.43640
     5  H(1)              -0.00010      -0.42873      -0.15298      -0.14301
     6  H(1)               0.00283      12.63983       4.51020       4.21619
     7  H(1)               0.00283      12.64734       4.51288       4.21870
     8  C(13)             -0.00211      -2.37674      -0.84808      -0.79280

 Normal termination of Gaussian 16 at Tue Apr  8 23:35:19 2025.
