 Gaussian 16, Revision C.01,

 ----------------------------------------------------------------------
 #t hf aug-cc-pvdz symm=none int=(grid=ultrafine) guess=(read,tcheck) s
 table=(opt,rrhf)
 ----------------------------------------------------------------------
 -----
 title
 -----
 Symbolic Z-matrix:
 Charge =  0 Multiplicity = 1

 SCF Done:  E(RHF) =  -421.556888370     A.U. after   15 cycles

 1\1\GINC-SE455\Stability\RHF\Aug-CC-pVDZ\C9H10O1\OHZDE\08-Apr-2025\0\\
 #t hf aug-cc-pvdz symm=none int=(grid=ultrafine) guess=(read,tcheck) s
 table=(opt,rrhf)\\title\\0,1\C,0,2.396894,-1.079624,-0.105262\C,0,1.10
 2001,-1.219312,0.392095\C,0,2.874058,0.177096,-0.467185\C,0,2.049047,1
 .292812,-0.329284\C,0,0.756881,1.152112,0.167396\C,0,0.268466,-0.10701
 8,0.536949\H,0,0.739749,-2.20135,0.679235\H,0,2.413239,2.275272,-0.608
 378\H,0,0.114746,2.020565,0.266904\H,0,3.031911,-1.952815,-0.206101\H,
 0,3.881368,0.287944,-0.852262\C,0,-2.176524,0.104941,-0.006419\O,0,-2.

 Normal termination of Gaussian 16 at Tue Apr  8 22:36:52 2025.
 Gaussian 16:  ES64L-G16RevC.01  3-Jul-2019

 ----------------------------------------------------------------------
 #t hf aug-cc-pvdz iop(5/13=1,5/36=2,99/5=2) pseudo=read geom=check gue
 ss=(read,tcheck) scf=(maxcycle=1)
 ----------------------------------------------------------------------
 -----
 title
 -----
 Structure from the checkpoint file:  "BDE49_expt_1096_mol1.chk"
 Charge =  0 Multiplicity = 1

                         Standard orientation:
 ---------------------------------------------------------------------
 Center     Atomic      Atomic             Coordinates (Angstroms)
 Number     Number       Type             X           Y           Z
 ---------------------------------------------------------------------
      1          6           0        2.396894   -1.079624   -0.105262
      2          6           0        1.102001   -1.219312    0.392095
      3          6           0        2.874058    0.177096   -0.467185
      4          6           0        2.049047    1.292812   -0.329284
      5          6           0        0.756881    1.152112    0.167396
      6          6           0        0.268466   -0.107018    0.536949
      7          1           0        0.739749   -2.201350    0.679235
      8          1           0        2.413239    2.275272   -0.608378
      9          1           0        0.114746    2.020565    0.266904
     10          1           0        3.031911   -1.952815   -0.206101
     11          1           0        3.881368    0.287944   -0.852262
     12          6           0       -2.176524    0.104941   -0.006419
     13          8           0       -2.661212    1.211411   -0.067566
     14          6           0       -2.529257   -0.989121   -0.993503
     15          1           0       -1.624304   -1.447248   -1.402238
     16          1           0       -3.139986   -0.580293   -1.797206
     17          1           0       -3.087747   -1.779212   -0.479781
     18          6           0       -1.146048   -0.246303    1.073033
     19          1           0       -1.306812    0.440926    1.906521
     20          1           0       -1.305573   -1.268571    1.426907
 ---------------------------------------------------------------------

 SCF Done:  E(RHF) =  -421.991586937     A.U. after    2 cycles

 The electronic state is 1-A.
 Alpha  occ. eigenvalues --  -20.53616 -11.34205 -11.25984 -11.25376 -11.24956
 Alpha  occ. eigenvalues --  -11.24868 -11.24813 -11.24666 -11.24522 -11.24438
 Alpha  occ. eigenvalues --   -1.47121  -1.16558  -1.07532  -1.02193  -1.01525
 Alpha  occ. eigenvalues --   -0.95520  -0.84290  -0.82470  -0.75230  -0.71294
 Alpha  occ. eigenvalues --   -0.67032  -0.65469  -0.64911  -0.63123  -0.61638
 Alpha  occ. eigenvalues --   -0.60372  -0.58016  -0.56168  -0.55009  -0.51820
 Alpha  occ. eigenvalues --   -0.51145  -0.50496  -0.48783  -0.41412  -0.35165
 Alpha  occ. eigenvalues --   -0.34276
 Alpha virt. eigenvalues --    0.02984   0.03222   0.03894   0.04033   0.04937
 Alpha virt. eigenvalues --    0.05360   0.06446   0.07057   0.07902   0.08154
 Alpha virt. eigenvalues --    0.09599   0.09893   0.09950   0.11400   0.12894

 Mulliken charges:
               1
     1  C    0.147746
     2  C    0.264767
     3  C    0.119824
     4  C    0.112934
     5  C    0.041746
     6  C    1.011874
     7  H   -0.338096
     8  H   -0.235289
     9  H   -0.321620
    10  H   -0.234023
    11  H   -0.216069
    12  C    1.313736
    13  O   -1.427714
    14  C   -0.626657
    15  H    0.233274
    16  H    0.118603
    17  H    0.261986
    18  C   -0.421210
    19  H    0.090907
    20  H    0.103280
 Sum of Mulliken charges =  -0.00000

 Dipole moment (field-independent basis, Debye):
    X=              1.3469    Y=             -2.6279    Z=              0.0829  Tot=              2.9542

 Test job not archived.
 1\1\GINC-SE455\SP\RHF\Aug-CC-pVDZ\C9H10O1\OHZDE\08-Apr-2025\0\\#t hf a
 ug-cc-pvdz iop(5/13=1,5/36=2,99/5=2) pseudo=read geom=check guess=(rea
 d,tcheck) scf=(maxcycle=1)\\title\\0,1\C,0,2.396894,-1.079624,-0.10526
 2\C,0,1.102001,-1.219312,0.392095\C,0,2.874058,0.177096,-0.467185\C,0,
 2.049047,1.292812,-0.329284\C,0,0.756881,1.152112,0.167396\C,0,0.26846
 6,-0.107018,0.536949\H,0,0.739749,-2.20135,0.679235\H,0,2.413239,2.275
 272,-0.608378\H,0,0.114746,2.020565,0.266904\H,0,3.031911,-1.952815,-0
 .206101\H,0,3.881368,0.287944,-0.852262\C,0,-2.176524,0.104941,-0.0064

 Normal termination of Gaussian 16 at Tue Apr  8 22:37:01 2025.
