 Gaussian 16, Revision C.01,

 ----------------------------------------------------------------------
 #t hf aug-cc-pvdz symm=none int=(grid=ultrafine) guess=(read,tcheck) s
 table=(opt,rrhf)
 ----------------------------------------------------------------------
 -----
 title
 -----
 Symbolic Z-matrix:
 Charge =  0 Multiplicity = 1

 SCF Done:  E(RHF) =  -1643.78886516     A.U. after   12 cycles
 Normal termination of Gaussian 16 at Tue Apr  8 23:48:25 2025.
 Gaussian 16:  ES64L-G16RevC.01  3-Jul-2019

 ----------------------------------------------------------------------
 #t hf aug-cc-pvdz iop(5/13=1,5/36=2,99/5=2) pseudo=read geom=check gue
 ss=(read,tcheck) scf=(maxcycle=1)
 ----------------------------------------------------------------------
 -----
 title
 -----
 Structure from the checkpoint file:  "BDE49_nonexpt_1811_mol1.chk"
 Charge =  0 Multiplicity = 1

                         Standard orientation:
 ---------------------------------------------------------------------
 Center     Atomic      Atomic             Coordinates (Angstroms)
 Number     Number       Type             X           Y           Z
 ---------------------------------------------------------------------
      1          6           0        0.476678    0.946226    0.000000
      2         14           0       -0.359263   -0.766988    0.000000
      3         17           0        2.264625    0.766383    0.000000
      4          9           0        0.112850    1.658127    1.091343
      5          9           0        0.112850    1.658127   -1.091343
      6         17           0       -2.375978   -0.580662    0.000000
      7          9           0        0.112850   -1.552393    1.286037
      8          9           0        0.112850   -1.552393   -1.286037
 ---------------------------------------------------------------------

 SCF Done:  E(RHF) =  -1644.36590288     A.U. after    2 cycles

 The electronic state is 1-A'.
 Alpha  occ. eigenvalues -- -105.60999-105.60978 -69.71493 -26.53008 -26.53006
 Alpha  occ. eigenvalues --  -26.51031 -26.51030 -11.50875 -10.66047 -10.65872
 Alpha  occ. eigenvalues --   -7.82932  -7.82807  -7.82589  -7.82581  -7.82393
 Alpha  occ. eigenvalues --   -7.82383  -6.37305  -4.12694  -4.12609  -4.12433
 Alpha  occ. eigenvalues --   -1.70207  -1.63853  -1.63098  -1.61599  -1.13671
 Alpha  occ. eigenvalues --   -1.11125  -0.95123  -0.84874  -0.80013  -0.79045
 Alpha  occ. eigenvalues --   -0.77196  -0.74667  -0.71975  -0.70543  -0.69149
 Alpha  occ. eigenvalues --   -0.68217  -0.66398  -0.65094  -0.63826  -0.61342
 Alpha  occ. eigenvalues --   -0.54180  -0.53002  -0.52680  -0.50874  -0.48985
 Alpha virt. eigenvalues --    0.05023   0.05779   0.06000   0.06258   0.09123
 Alpha virt. eigenvalues --    0.10857   0.11720   0.11835   0.12770   0.13889
 Alpha virt. eigenvalues --    0.14840   0.15376   0.17232   0.18553   0.19031

 Mulliken charges:
               1
     1  C    1.111388
     2  Si   2.627969
     3  Cl  -0.161479
     4  F   -0.694054
     5  F   -0.694054
     6  Cl  -0.437356
     7  F   -0.876207
     8  F   -0.876207
 Sum of Mulliken charges =  -0.00000

 Dipole moment (field-independent basis, Debye):
    X=             -0.5388    Y=             -0.2846    Z=              0.0000  Tot=              0.6094

 Test job not archived.
 1\1\GINC-SE253\SP\RHF\Aug-CC-pVDZ\C1Cl2F4Si1\OHZDE\08-Apr-2025\0\\#t h
 f aug-cc-pvdz iop(5/13=1,5/36=2,99/5=2) pseudo=read geom=check guess=(
 read,tcheck) scf=(maxcycle=1)\\title\\0,1\C,0,0.476678,0.946226,0.\Si,
 0,-0.359263,-0.766988,0.\Cl,0,2.264625,0.766383,0.\F,0,0.11285,1.65812
 7,1.091343\F,0,0.11285,1.658127,-1.091343\Cl,0,-2.375978,-0.580662,0.\
 F,0,0.11285,-1.552393,1.286037\F,0,0.11285,-1.552393,-1.286037\\Versio
 n=ES64L-G16RevC.01\State=1-A'\HF=-1644.3659029\RMSD=2.856e-03\Dipole=-
 0.2119907,-0.1119618,0.\Quadrupole=2.1939866,-1.0441729,-1.1498138,0.3

 Normal termination of Gaussian 16 at Tue Apr  8 23:48:29 2025.
