 Gaussian 16, Revision C.01,

 ----------------------------------------------------------------------
 #t hf aug-cc-pvdz symm=none int=(grid=ultrafine) guess=(read,tcheck) s
 table=(opt,rrhf)
 ----------------------------------------------------------------------
 -----
 title
 -----
 Symbolic Z-matrix:
 Charge =  0 Multiplicity = 1

 SCF Done:  E(RHF) =  -281.549386811     A.U. after   15 cycles
 Normal termination of Gaussian 16 at Tue Apr  8 22:38:24 2025.
 Gaussian 16:  ES64L-G16RevC.01  3-Jul-2019

 ----------------------------------------------------------------------
 #t hf aug-cc-pvdz iop(5/13=1,5/36=2,99/5=2) pseudo=read geom=check gue
 ss=(read,tcheck) scf=(maxcycle=1)
 ----------------------------------------------------------------------
 -----
 title
 -----
 Structure from the checkpoint file:  "BDE49_expt_1239_mol1.chk"
 Charge =  0 Multiplicity = 1

                         Standard orientation:
 ---------------------------------------------------------------------
 Center     Atomic      Atomic             Coordinates (Angstroms)
 Number     Number       Type             X           Y           Z
 ---------------------------------------------------------------------
      1          6           0        0.745687   -0.645215    0.000108
      2          7           0       -0.562399    0.032539    0.000362
      3          8           0       -1.538593   -0.706824   -0.000212
      4          8           0       -0.594558    1.253943   -0.000180
      5          6           0        1.869460    0.051292    0.000001
      6          1           0        0.640450   -1.719814    0.000035
      7          1           0        1.844470    1.133439    0.000092
      8          1           0        2.826206   -0.454808   -0.000172
 ---------------------------------------------------------------------

 SCF Done:  E(RHF) =  -281.824455071     A.U. after    2 cycles

 The electronic state is 1-A.
 Alpha  occ. eigenvalues --  -20.59687 -20.59291 -15.79472 -11.32420 -11.30259
 Alpha  occ. eigenvalues --   -1.67334  -1.51182  -1.15720  -1.00187  -0.84354
 Alpha  occ. eigenvalues --   -0.77895  -0.75173  -0.74839  -0.68058  -0.60970
 Alpha  occ. eigenvalues --   -0.50282  -0.49274  -0.45460  -0.44600
 Alpha virt. eigenvalues --    0.02350   0.02869   0.04343   0.05014   0.09934
 Alpha virt. eigenvalues --    0.10458   0.10499   0.11328   0.13739   0.14855
 Alpha virt. eigenvalues --    0.16070   0.17275   0.17809   0.18512   0.20339

 Mulliken charges:
               1
     1  C    0.111654
     2  N    2.441381
     3  O   -1.355339
     4  O   -1.295387
     5  C    0.096572
     6  H   -0.034005
     7  H    0.041645
     8  H   -0.006521
 Sum of Mulliken charges =  -0.00000

 Dipole moment (field-independent basis, Debye):
    X=              4.1627    Y=             -1.1882    Z=              0.0005  Tot=              4.3289

 Test job not archived.
 1\1\GINC-SE363\SP\RHF\Aug-CC-pVDZ\C2H3N1O2\OHZDE\08-Apr-2025\0\\#t hf
 aug-cc-pvdz iop(5/13=1,5/36=2,99/5=2) pseudo=read geom=check guess=(re
 ad,tcheck) scf=(maxcycle=1)\\title\\0,1\C,0,0.745687,-0.645215,0.00010
 8\N,0,-0.562399,0.032539,0.000362\O,0,-1.538593,-0.706824,-0.000212\O,
 0,-0.594558,1.253943,-0.00018\C,0,1.86946,0.051292,0.000001\H,0,0.6404
 5,-1.719814,0.000035\H,0,1.84447,1.133439,0.000092\H,0,2.826206,-0.454
 808,-0.000172\\Version=ES64L-G16RevC.01\State=1-A\HF=-281.8244551\RMSD
 =2.239e-02\Dipole=1.637713,-0.4674878,0.0002153\Quadrupole=1.2238191,-

 Normal termination of Gaussian 16 at Tue Apr  8 22:38:26 2025.
