 Gaussian 16, Revision C.01,

 ----------------------------------------------------------------------
 #t hf aug-cc-pvdz symm=none int=(grid=ultrafine) guess=(read,tcheck) s
 table=opt
 ----------------------------------------------------------------------
 -----
 title
 -----
 Symbolic Z-matrix:
 Charge =  0 Multiplicity = 2

 SCF Done:  E(UHF) =  -152.249799118     A.U. after   18 cycles
 Normal termination of Gaussian 16 at Tue Apr  8 22:36:21 2025.
 Gaussian 16:  ES64L-G16RevC.01  3-Jul-2019

 ----------------------------------------------------------------------
 #t hf aug-cc-pvdz iop(5/13=1,5/36=2,99/5=2) pseudo=read geom=check gue
 ss=(read,tcheck) scf=(maxcycle=1)
 ----------------------------------------------------------------------
 -----
 title
 -----
 Structure from the checkpoint file:  "BDE49_expt_1144_mol2.chk"
 Charge =  0 Multiplicity = 2

                         Standard orientation:
 ---------------------------------------------------------------------
 Center     Atomic      Atomic             Coordinates (Angstroms)
 Number     Number       Type             X           Y           Z
 ---------------------------------------------------------------------
      1          8           0        0.330924    0.758236    0.031073
      2          6           0       -0.795230   -0.192202    0.017780
      3          6           0        0.594748   -0.567445   -0.159744
      4          1           0       -1.442893   -0.112156   -0.849887
      5          1           0       -1.294924   -0.287434    0.978649
      6          1           0        1.293314   -1.108416    0.474441
 ---------------------------------------------------------------------

 SCF Done:  E(UHF) =  -152.402564026     A.U. after    2 cycles

 The electronic state is 2-A.
 Alpha  occ. eigenvalues --  -20.58292 -11.31534 -11.30853  -1.52274  -0.95696
 Alpha  occ. eigenvalues --   -0.86681  -0.71803  -0.67933  -0.57047  -0.51770
 Alpha  occ. eigenvalues --   -0.47840  -0.38111
 Alpha virt. eigenvalues --    0.03708   0.04444   0.05016   0.08628   0.10480
 Alpha virt. eigenvalues --    0.11378   0.12521   0.15670   0.17028   0.17950
 Alpha virt. eigenvalues --    0.20781   0.22517   0.24374   0.25704   0.29584

  Beta  occ. eigenvalues --  -20.57692 -11.31000 -11.28929  -1.50561  -0.93840
  Beta  occ. eigenvalues --   -0.81837  -0.69270  -0.64600  -0.55987  -0.47181
  Beta  occ. eigenvalues --   -0.45981
  Beta virt. eigenvalues --    0.03739   0.04493   0.04956   0.08064   0.08766
  Beta virt. eigenvalues --    0.11409   0.12004   0.14616   0.16423   0.17311
  Beta virt. eigenvalues --    0.18094   0.20929   0.23791   0.25004   0.26523

 Mulliken charges and spin densities:
               1          2
     1  O   -1.007242   0.061357
     2  C    0.520246  -0.127163
     3  C    0.421417   1.076885
     4  H    0.081581  -0.009031
     5  H    0.012049   0.003655
     6  H   -0.028051  -0.005703
 Sum of Mulliken charges =  -0.00000   1.00000

 Dipole moment (field-independent basis, Debye):
    X=             -0.9899    Y=             -1.5324    Z=              0.5253  Tot=              1.8984
                          Isotropic Fermi Contact Couplings
        Atom                 a.u.       MegaHertz       Gauss      10(-4) cm-1
     1  O(17)              0.06367     -38.59556     -13.77185     -12.87409
     2  C(13)             -0.02072     -23.29279      -8.31145      -7.76964
     3  C(13)              0.40654     457.02753     163.07879     152.44797
     4  H(1)               0.00313      13.98177       4.98904       4.66382
     5  H(1)               0.00239      10.67468       3.80899       3.56069
     6  H(1)               0.00676      30.20641      10.77840      10.07578
 --------------------------------------------------------
       Center         ----  Spin Dipole Couplings  ----

 Normal termination of Gaussian 16 at Tue Apr  8 22:36:23 2025.
