 Gaussian 16, Revision C.01,

 ----------------------------------------------------------------------
 #t hf aug-cc-pvdz symm=none int=(grid=ultrafine) guess=(read,tcheck) s
 table=(opt,rrhf)
 ----------------------------------------------------------------------
 -----
 title
 -----
 Symbolic Z-matrix:
 Charge =  0 Multiplicity = 1

 SCF Done:  E(RHF) =  -167.791131706     A.U. after   13 cycles
 Normal termination of Gaussian 16 at Tue Apr  8 23:05:40 2025.
 Gaussian 16:  ES64L-G16RevC.01  3-Jul-2019

 ----------------------------------------------------------------------
 #t hf aug-cc-pvdz iop(5/13=1,5/36=2,99/5=2) pseudo=read geom=check gue
 ss=(read,tcheck) scf=(maxcycle=1)
 ----------------------------------------------------------------------
 -----
 title
 -----
 Structure from the checkpoint file:  "BDE49_expt_404_mol1.chk"
 Charge =  0 Multiplicity = 1

                         Standard orientation:
 ---------------------------------------------------------------------
 Center     Atomic      Atomic             Coordinates (Angstroms)
 Number     Number       Type             X           Y           Z
 ---------------------------------------------------------------------
      1          7           0       -1.158273   -0.122680   -0.000002
      2          6           0        0.044436    0.020519    0.000001
      3          1           0       -1.836398    0.620485    0.000023
      4          8           0        1.209712    0.014395   -0.000002
 ---------------------------------------------------------------------

 SCF Done:  E(RHF) =  -167.953858290     A.U. after    2 cycles

 The electronic state is 1-A.
 Alpha  occ. eigenvalues --  -20.61306 -15.53711 -11.42740  -1.55963  -1.27661
 Alpha  occ. eigenvalues --   -0.85324  -0.74234  -0.66894  -0.66244  -0.51206
 Alpha  occ. eigenvalues --   -0.47992
 Alpha virt. eigenvalues --    0.02765   0.08841   0.09375   0.09709   0.10717
 Alpha virt. eigenvalues --    0.14774   0.17484   0.17608   0.17850   0.21341
 Alpha virt. eigenvalues --    0.25740   0.27827   0.29004   0.29799   0.32686

 Mulliken charges:
               1
     1  N    0.460170
     2  C    0.070860
     3  H    0.134875
     4  O   -0.665904
 Sum of Mulliken charges =  -0.00000

 Dipole moment (field-independent basis, Debye):
    X=             -1.2666    Y=              1.5475    Z=              0.0001  Tot=              1.9997

 Test job not archived.
 1\1\GINC-SE334\SP\RHF\Aug-CC-pVDZ\C1H1N1O1\OHZDE\08-Apr-2025\0\\#t hf
 aug-cc-pvdz iop(5/13=1,5/36=2,99/5=2) pseudo=read geom=check guess=(re
 ad,tcheck) scf=(maxcycle=1)\\title\\0,1\N,0,-1.158273,-0.12268,-0.0000
 02\C,0,0.044436,0.020519,0.000001\H,0,-1.836398,0.620485,0.000023\O,0,
 1.209712,0.014395,-0.000002\\Version=ES64L-G16RevC.01\State=1-A\HF=-16
 7.9538583\RMSD=1.614e-02\Dipole=-0.4983213,0.6088145,0.0000211\Quadrup
 ole=-0.4168782,0.6203699,-0.2034917,-2.2060877,-0.0000695,0.0000303\PG
 =C01 [X(C1H1N1O1)]\\@

 Normal termination of Gaussian 16 at Tue Apr  8 23:05:41 2025.
