 Gaussian 16, Revision C.01,

 ----------------------------------------------------------------------
 #t hf aug-cc-pvdz symm=none int=(grid=ultrafine) guess=(read,tcheck) s
 table=(opt,rrhf)
 ----------------------------------------------------------------------
 -----
 title
 -----
 Symbolic Z-matrix:
 Charge =  0 Multiplicity = 1

 SCF Done:  E(RHF) =  -805.937523466     A.U. after   12 cycles
 Normal termination of Gaussian 16 at Wed Apr  9 00:14:55 2025.
 Gaussian 16:  ES64L-G16RevC.01  3-Jul-2019

 ----------------------------------------------------------------------
 #t hf aug-cc-pvdz iop(5/13=1,5/36=2,99/5=2) pseudo=read geom=check gue
 ss=(read,tcheck) scf=(maxcycle=1)
 ----------------------------------------------------------------------
 -----
 title
 -----
 Structure from the checkpoint file:  "BDE49_nonexpt_2471_mol1.chk"
 Charge =  0 Multiplicity = 1

                         Standard orientation:
 ---------------------------------------------------------------------
 Center     Atomic      Atomic             Coordinates (Angstroms)
 Number     Number       Type             X           Y           Z
 ---------------------------------------------------------------------
      1         16           0        1.832926    0.000097   -0.690827
      2         14           0        0.455101   -0.000139    0.994261
      3          1           0        2.942184   -0.000026    0.069336
      4          6           0       -1.312901   -0.000043    0.323814
      5          6           0       -1.648349   -1.274433   -0.473251
      6          1           0       -1.060432   -1.336553   -1.393693
      7          1           0       -2.705551   -1.281302   -0.758928
      8          1           0       -1.454894   -2.182380    0.104502
      9          6           0       -1.648343    1.274565   -0.472903
     10          1           0       -1.060426    1.336934   -1.393327
     11          1           0       -1.454883    2.182354    0.105099
     12          1           0       -2.705545    1.281518   -0.758577
     13          1           0       -1.929982   -0.000166    1.234546
     14          1           0        0.694427    1.201446    1.829499
     15          1           0        0.694426   -1.201960    1.829160
 ---------------------------------------------------------------------

 SCF Done:  E(RHF) =  -806.167659249     A.U. after    2 cycles

 The electronic state is 1-A.
 Alpha  occ. eigenvalues --  -93.94067 -69.54992 -11.23579 -11.23346 -11.23338
 Alpha  occ. eigenvalues --   -8.22333  -6.21867  -6.20160  -6.20046  -6.19827
 Alpha  occ. eigenvalues --   -3.97253  -3.97141  -3.97139  -1.06800  -0.99833
 Alpha  occ. eigenvalues --   -0.93710  -0.82119  -0.70473  -0.63135  -0.59657
 Alpha  occ. eigenvalues --   -0.57642  -0.55084  -0.54868  -0.50466  -0.49709
 Alpha  occ. eigenvalues --   -0.48773  -0.44603  -0.42718  -0.37611
 Alpha virt. eigenvalues --    0.03353   0.04047   0.04236   0.04344   0.06203
 Alpha virt. eigenvalues --    0.06488   0.06520   0.07153   0.07842   0.09661
 Alpha virt. eigenvalues --    0.10071   0.10099   0.11581   0.12284   0.13903

 Mulliken charges:
               1
     1  S   -0.900494
     2  Si   1.086096
     3  H    0.237843
     4  C   -0.900897
     5  C   -0.208736
     6  H    0.178421
     7  H    0.140947
     8  H    0.116475
     9  C   -0.208737
    10  H    0.178418
    11  H    0.116479
    12  H    0.140947
    13  H    0.216708
    14  H   -0.096734
    15  H   -0.096734
 Sum of Mulliken charges =   0.00000

 Dipole moment (field-independent basis, Debye):
    X=             -0.9220    Y=             -0.0002    Z=              1.1272  Tot=              1.4563

 Test job not archived.
 1\1\GINC-SE038\SP\RHF\Aug-CC-pVDZ\C3H10S1Si1\OHZDE\09-Apr-2025\0\\#t h
 f aug-cc-pvdz iop(5/13=1,5/36=2,99/5=2) pseudo=read geom=check guess=(
 read,tcheck) scf=(maxcycle=1)\\title\\0,1\S,0,1.832926,0.000097,-0.690
 827\Si,0,0.455101,-0.000139,0.994261\H,0,2.942184,-0.000025,0.069336\C
 ,0,-1.312901,-0.000043,0.323814\C,0,-1.648349,-1.274433,-0.473251\H,0,
 -1.060432,-1.336553,-1.393693\H,0,-2.705551,-1.281302,-0.758928\H,0,-1
 .454894,-2.18238,0.104502\C,0,-1.648343,1.274565,-0.472903\H,0,-1.0604
 26,1.336934,-1.393327\H,0,-1.454883,2.182354,0.105099\H,0,-2.705545,1.

 Normal termination of Gaussian 16 at Wed Apr  9 00:15:02 2025.
