 Gaussian 16, Revision C.01,

 ----------------------------------------------------------------------
 #t hf aug-cc-pvdz symm=none int=(grid=ultrafine) guess=(read,tcheck) s
 table=(opt,rrhf)
 ----------------------------------------------------------------------
 -----
 title
 -----
 Symbolic Z-matrix:
 Charge =  0 Multiplicity = 1

 SCF Done:  E(RHF) =  -1175.19449663     A.U. after   13 cycles
 Normal termination of Gaussian 16 at Wed Apr  9 00:19:45 2025.
 Gaussian 16:  ES64L-G16RevC.01  3-Jul-2019

 ----------------------------------------------------------------------
 #t hf aug-cc-pvdz iop(5/13=1,5/36=2,99/5=2) pseudo=read geom=check gue
 ss=(read,tcheck) scf=(maxcycle=1)
 ----------------------------------------------------------------------
 -----
 title
 -----
 Structure from the checkpoint file:  "BDE49_nonexpt_258_mol1.chk"
 Charge =  0 Multiplicity = 1

                         Standard orientation:
 ---------------------------------------------------------------------
 Center     Atomic      Atomic             Coordinates (Angstroms)
 Number     Number       Type             X           Y           Z
 ---------------------------------------------------------------------
      1          9           0        1.790802    0.000039   -1.304785
      2          6           0        1.705816   -0.000112    1.076831
      3          6           0        2.563638   -0.000067   -0.162778
      4          1           0        3.203515   -0.890532   -0.163520
      5          1           0        3.203582    0.890349   -0.163407
      6          7           0        0.456248   -0.000080    1.075756
      7          5           0       -0.689282   -0.000020    0.298548
      8         17           0       -1.474939    1.532999   -0.131106
      9         17           0       -1.475145   -1.532895   -0.131193
     10          1           0        2.263058   -0.000208    2.021732
 ---------------------------------------------------------------------

 SCF Done:  E(RHF) =  -1175.59408195     A.U. after    2 cycles

 The electronic state is 1-A.
 Alpha  occ. eigenvalues -- -105.56236-105.56236 -26.47955 -15.52245 -11.36060
 Alpha  occ. eigenvalues --  -11.34803 -10.61254 -10.61216  -7.78147  -7.78124
 Alpha  occ. eigenvalues --   -7.77836  -7.77833  -7.77813  -7.77803  -7.71874
 Alpha  occ. eigenvalues --   -1.60367  -1.26521  -1.09275  -1.04477  -1.02901
 Alpha  occ. eigenvalues --   -0.89869  -0.76596  -0.74459  -0.72937  -0.67552
 Alpha  occ. eigenvalues --   -0.63539  -0.60727  -0.59280  -0.56614  -0.52785
 Alpha  occ. eigenvalues --   -0.49373  -0.48890  -0.46682  -0.44862  -0.44856
 Alpha virt. eigenvalues --    0.02466   0.04127   0.04194   0.06106   0.06778
 Alpha virt. eigenvalues --    0.06831   0.07314   0.07349   0.10207   0.11964
 Alpha virt. eigenvalues --    0.12297   0.13327   0.13426   0.13841   0.15315

 Mulliken charges:
               1
     1  F   -0.762445
     2  C   -1.319986
     3  C    0.807878
     4  H    0.186795
     5  H    0.186793
     6  N    1.280720
     7  B    0.385636
     8  Cl  -0.353856
     9  Cl  -0.353834
    10  H   -0.057701
 Sum of Mulliken charges =   0.00000

 Dipole moment (field-independent basis, Debye):
    X=              4.8260    Y=             -0.0004    Z=              1.3693  Tot=              5.0165

 Test job not archived.
 1\1\GINC-SE179\SP\RHF\Aug-CC-pVDZ\C2H3B1Cl2F1N1\OHZDE\09-Apr-2025\0\\#
 t hf aug-cc-pvdz iop(5/13=1,5/36=2,99/5=2) pseudo=read geom=check gues
 s=(read,tcheck) scf=(maxcycle=1)\\title\\0,1\F,0,1.790802,0.000039,-1.
 304785\C,0,1.705816,-0.000112,1.076831\C,0,2.563638,-0.000066,-0.16277
 8\H,0,3.203515,-0.890531,-0.16352\H,0,3.203582,0.89035,-0.163407\N,0,0
 .456248,-0.00008,1.075756\B,0,-0.689282,-0.00002,0.298548\Cl,0,-1.4749
 39,1.532999,-0.131106\Cl,0,-1.475144,-1.532895,-0.131193\H,0,2.263058,
 -0.000207,2.021732\\Version=ES64L-G16RevC.01\State=1-A\HF=-1175.594082

 Normal termination of Gaussian 16 at Wed Apr  9 00:19:49 2025.
