 Gaussian 16, Revision C.01,

 ----------------------------------------------------------------------
 #t hf aug-cc-pvdz symm=none int=(grid=ultrafine) guess=(read,tcheck) s
 table=(opt,rrhf)
 ----------------------------------------------------------------------
 -----
 title
 -----
 Symbolic Z-matrix:
 Charge =  0 Multiplicity = 1

 SCF Done:  E(RHF) =  -1021.26641380     A.U. after   13 cycles
 Normal termination of Gaussian 16 at Tue Apr  8 23:55:21 2025.
 Gaussian 16:  ES64L-G16RevC.01  3-Jul-2019

 ----------------------------------------------------------------------
 #t hf aug-cc-pvdz iop(5/13=1,5/36=2,99/5=2) pseudo=read geom=check gue
 ss=(read,tcheck) scf=(maxcycle=1)
 ----------------------------------------------------------------------
 -----
 title
 -----
 Structure from the checkpoint file:  "BDE49_nonexpt_196_mol1.chk"
 Charge =  0 Multiplicity = 1

                         Standard orientation:
 ---------------------------------------------------------------------
 Center     Atomic      Atomic             Coordinates (Angstroms)
 Number     Number       Type             X           Y           Z
 ---------------------------------------------------------------------
      1         17           0       -1.780704   -0.641314   -0.000349
      2         17           0        0.233041    1.617796   -0.000241
      3          5           0       -0.090516   -0.121628    0.001188
      4          6           0        1.032540   -1.171760    0.000477
      5          6           0        2.339068   -0.874742    0.000153
      6          1           0        0.741114   -2.219743    0.000245
      7          1           0        2.688919    0.152567    0.000363
      8          1           0        3.103177   -1.645871   -0.000304
 ---------------------------------------------------------------------

 SCF Done:  E(RHF) =  -1021.52420682     A.U. after    2 cycles

 The electronic state is 1-A.
 Alpha  occ. eigenvalues -- -105.57250-105.57198 -11.28248 -11.24428 -10.62277
 Alpha  occ. eigenvalues --  -10.62215  -7.79169  -7.79110  -7.78882  -7.78848
 Alpha  occ. eigenvalues --   -7.78833  -7.78788  -7.71047  -1.11251  -1.05989
 Alpha  occ. eigenvalues --   -1.05127  -0.83128  -0.70424  -0.66012  -0.62356
 Alpha  occ. eigenvalues --   -0.56642  -0.53547  -0.52997  -0.47483  -0.47474
 Alpha  occ. eigenvalues --   -0.46098  -0.40994
 Alpha virt. eigenvalues --    0.03339   0.03950   0.04374   0.04923   0.05360
 Alpha virt. eigenvalues --    0.06833   0.07368   0.08524   0.12331   0.13676
 Alpha virt. eigenvalues --    0.13853   0.14349   0.15954   0.16017   0.16962

 Mulliken charges:
               1
     1  Cl  -0.306340
     2  Cl  -0.311705
     3  B    0.588702
     4  C    0.404387
     5  C   -0.206982
     6  H   -0.087234
     7  H   -0.027684
     8  H   -0.053145
 Sum of Mulliken charges =   0.00000

 Dipole moment (field-independent basis, Debye):
    X=              2.1253    Y=             -1.1410    Z=              0.0020  Tot=              2.4122

 Test job not archived.
 1\1\GINC-SE096\SP\RHF\Aug-CC-pVDZ\C2H3B1Cl2\OHZDE\08-Apr-2025\0\\#t hf
  aug-cc-pvdz iop(5/13=1,5/36=2,99/5=2) pseudo=read geom=check guess=(r
 ead,tcheck) scf=(maxcycle=1)\\title\\0,1\Cl,0,1.780704,-0.641314,0.000
 349\Cl,0,-0.233041,1.617796,0.000241\B,0,0.090516,-0.121628,-0.001188\
 C,0,-1.03254,-1.17176,-0.000477\C,0,-2.339068,-0.874742,-0.000153\H,0,
 -0.741115,-2.219743,-0.000245\H,0,-2.688919,0.152567,-0.000363\H,0,-3.
 103177,-1.64587,0.000304\\Version=ES64L-G16RevC.01\State=1-A\HF=-1021.
 5242068\RMSD=1.365e-02\Dipole=-0.8361579,-0.4489233,-0.0007756\Quadrup

 Normal termination of Gaussian 16 at Tue Apr  8 23:55:24 2025.
