 Gaussian 16, Revision C.01,

 ----------------------------------------------------------------------
 #t hf aug-cc-pvdz symm=none int=(grid=ultrafine) guess=(read,tcheck) s
 table=opt
 ----------------------------------------------------------------------
 -----
 title
 -----
 Symbolic Z-matrix:
 Charge =  0 Multiplicity = 2

 SCF Done:  E(UHF) =  -404.564663918     A.U. after   15 cycles
 Normal termination of Gaussian 16 at Tue Apr  8 23:50:18 2025.
 Gaussian 16:  ES64L-G16RevC.01  3-Jul-2019

 ----------------------------------------------------------------------
 #t hf aug-cc-pvdz iop(5/13=1,5/36=2,99/5=2) pseudo=read geom=check gue
 ss=(read,tcheck) scf=(maxcycle=1)
 ----------------------------------------------------------------------
 -----
 title
 -----
 Structure from the checkpoint file:  "BDE49_nonexpt_1884_mol2.chk"
 Charge =  0 Multiplicity = 2

                         Standard orientation:
 ---------------------------------------------------------------------
 Center     Atomic      Atomic             Coordinates (Angstroms)
 Number     Number       Type             X           Y           Z
 ---------------------------------------------------------------------
      1         14           0       -1.113731    0.110732    0.110225
      2          8           0        0.400043   -0.523867   -0.082051
      3          1           0       -1.232337    1.387774   -0.660551
      4          1           0       -2.042695   -0.915176   -0.428693
      5          6           0        1.629851    0.182514    0.015375
      6          1           0        2.408469   -0.439168   -0.429467
      7          1           0        1.889049    0.374838    1.061855
      8          1           0        1.590307    1.137333   -0.522141
 ---------------------------------------------------------------------

 SCF Done:  E(UHF) =  -404.712674636     A.U. after    2 cycles

 The electronic state is 2-A.
 Alpha  occ. eigenvalues --  -69.56486 -20.54594 -11.29520  -6.23152  -3.98997
 Alpha  occ. eigenvalues --   -3.98297  -3.98157  -1.44768  -0.94374  -0.74604
 Alpha  occ. eigenvalues --   -0.64270  -0.63313  -0.60944  -0.50907  -0.48805
 Alpha  occ. eigenvalues --   -0.46125  -0.32963
 Alpha virt. eigenvalues --    0.03651   0.04610   0.05258   0.05558   0.06836
 Alpha virt. eigenvalues --    0.07935   0.08258   0.09355   0.12579   0.13811
 Alpha virt. eigenvalues --    0.15429   0.15897   0.17032   0.18219   0.19960

  Beta  occ. eigenvalues --  -69.55969 -20.54148 -11.29544  -6.22339  -3.97995
  Beta  occ. eigenvalues --   -3.97838  -3.97044  -1.43667  -0.94178  -0.71906
  Beta  occ. eigenvalues --   -0.63240  -0.62883  -0.58970  -0.49904  -0.46118
  Beta  occ. eigenvalues --   -0.45011
  Beta virt. eigenvalues --    0.02827   0.03843   0.04934   0.05313   0.06531
  Beta virt. eigenvalues --    0.07078   0.08320   0.09499   0.09997   0.12954
  Beta virt. eigenvalues --    0.14446   0.16215   0.16272   0.17425   0.19770

 Mulliken charges and spin densities:
               1          2
     1  Si   1.206167   0.860390
     2  O   -1.464960   0.036225
     3  H   -0.184079   0.059535
     4  H   -0.175938   0.041116
     5  C    0.391241  -0.003262
     6  H    0.032523  -0.001272
     7  H    0.106085   0.001423
     8  H    0.088960   0.005845
 Sum of Mulliken charges =  -0.00000   1.00000

 Dipole moment (field-independent basis, Debye):
    X=              0.7962    Y=              0.8936    Z=              0.1117  Tot=              1.2021
                          Isotropic Fermi Contact Couplings
        Atom                 a.u.       MegaHertz       Gauss      10(-4) cm-1
     1  Si(29)             0.64600    -574.11515    -204.85856    -191.50420
     2  O(17)              0.04867     -29.50494     -10.52810      -9.84179
     3  H(1)               0.01620      72.40119      25.83455      24.15044
     4  H(1)               0.01403      62.71331      22.37767      20.91891
     5  C(13)             -0.00345      -3.87891      -1.38409      -1.29386
     6  H(1)               0.00005       0.23896       0.08527       0.07971
     7  H(1)               0.00017       0.74786       0.26686       0.24946
     8  H(1)               0.00016       0.72850       0.25995       0.24300

 Normal termination of Gaussian 16 at Tue Apr  8 23:50:20 2025.
