 Gaussian 16, Revision C.01,

 ----------------------------------------------------------------------
 #t hf aug-cc-pvdz symm=none int=(grid=ultrafine) guess=(read,tcheck) s
 table=(opt,rrhf)
 ----------------------------------------------------------------------
 -----
 title
 -----
 Symbolic Z-matrix:
 Charge =  0 Multiplicity = 1

 SCF Done:  E(RHF) =  -480.790165359     A.U. after   15 cycles
 Normal termination of Gaussian 16 at Wed Apr  9 00:41:54 2025.
 Gaussian 16:  ES64L-G16RevC.01  3-Jul-2019

 ----------------------------------------------------------------------
 #t hf aug-cc-pvdz iop(5/13=1,5/36=2,99/5=2) pseudo=read geom=check gue
 ss=(read,tcheck) scf=(maxcycle=1)
 ----------------------------------------------------------------------
 -----
 title
 -----
 Structure from the checkpoint file:  "BDE49_nonexpt_669_mol1.chk"
 Charge =  0 Multiplicity = 1

                         Standard orientation:
 ---------------------------------------------------------------------
 Center     Atomic      Atomic             Coordinates (Angstroms)
 Number     Number       Type             X           Y           Z
 ---------------------------------------------------------------------
      1          6           0       -2.993333    0.296052    0.061475
      2          6           0       -2.553212   -1.008792    0.275961
      3          6           0       -1.200367   -1.318738    0.177505
      4          6           0       -2.066820    1.286997   -0.254660
      5          6           0       -0.709720    0.989055   -0.358065
      6          6           0       -0.280029   -0.319022   -0.135245
      7          1           0       -4.046982    0.537493    0.138553
      8          1           0       -3.263554   -1.790482    0.520815
      9          1           0       -0.839593   -2.327727    0.337066
     10          1           0       -2.398370    2.305209   -0.425274
     11          1           0        0.010085    1.760573   -0.593229
     12          8           0        1.035981   -0.708728   -0.265625
     13          5           0        2.167929    0.006437    0.046614
     14          8           0        3.382288   -0.572706   -0.202159
     15          1           0        3.291957   -1.449863   -0.585735
     16          8           0        2.111352    1.253950    0.592808
     17          1           0        2.990729    1.599166    0.772712
 ---------------------------------------------------------------------

 SCF Done:  E(RHF) =  -481.273593654     A.U. after    2 cycles

 The electronic state is 1-A.
 Alpha  occ. eigenvalues --  -20.56796 -20.56318 -20.56216 -11.30967 -11.24603
 Alpha  occ. eigenvalues --  -11.24567 -11.23869 -11.23808 -11.23713  -7.67897
 Alpha  occ. eigenvalues --   -1.51545  -1.46803  -1.44961  -1.15102  -1.02035
 Alpha  occ. eigenvalues --   -1.01224  -0.85789  -0.84051  -0.77954  -0.74779
 Alpha  occ. eigenvalues --   -0.74198  -0.68729  -0.66361  -0.62903  -0.61690
 Alpha  occ. eigenvalues --   -0.60185  -0.57782  -0.56996  -0.56304  -0.53770
 Alpha  occ. eigenvalues --   -0.52352  -0.50192  -0.49641  -0.48286  -0.34808
 Alpha  occ. eigenvalues --   -0.32917
 Alpha virt. eigenvalues --    0.03308   0.03762   0.03826   0.04700   0.05122
 Alpha virt. eigenvalues --    0.05265   0.07130   0.07759   0.08237   0.09173
 Alpha virt. eigenvalues --    0.10084   0.10864   0.11460   0.12889   0.13807

 Mulliken charges:
               1
     1  C   -0.002892
     2  C    0.627913
     3  C   -0.356512
     4  C    0.588743
     5  C   -0.052783
     6  C    2.082580
     7  H   -0.217254
     8  H   -0.210400
     9  H   -0.259141
    10  H   -0.218568
    11  H   -0.359656
    12  O   -1.960346
    13  B    1.846286
    14  O   -1.247756
    15  H    0.525370
    16  O   -1.260449
    17  H    0.474863
 Sum of Mulliken charges =  -0.00000

 Dipole moment (field-independent basis, Debye):
    X=              0.4237    Y=             -0.2453    Z=             -0.1180  Tot=              0.5036

 Test job not archived.
 1\1\GINC-SE329\SP\RHF\Aug-CC-pVDZ\C6H7B1O3\OHZDE\09-Apr-2025\0\\#t hf
 aug-cc-pvdz iop(5/13=1,5/36=2,99/5=2) pseudo=read geom=check guess=(re
 ad,tcheck) scf=(maxcycle=1)\\title\\0,1\C,0,-2.993333,0.296052,0.06147
 5\C,0,-2.553212,-1.008792,0.275961\C,0,-1.200367,-1.318738,0.177505\C,
 0,-2.06682,1.286997,-0.25466\C,0,-0.70972,0.989055,-0.358065\C,0,-0.28
 0029,-0.319022,-0.135245\H,0,-4.046982,0.537493,0.138553\H,0,-3.263554
 ,-1.790482,0.520815\H,0,-0.839593,-2.327727,0.337066\H,0,-2.39837,2.30
 5209,-0.425274\H,0,0.010085,1.760573,-0.593229\O,0,1.035981,-0.708728,

 Normal termination of Gaussian 16 at Wed Apr  9 00:42:03 2025.
