 Gaussian 16, Revision C.01,

 ----------------------------------------------------------------------
 #t hf aug-cc-pvdz symm=none int=(grid=ultrafine) guess=(read,tcheck) s
 table=(opt,rrhf)
 ----------------------------------------------------------------------
 -----
 title
 -----
 Symbolic Z-matrix:
 Charge =  0 Multiplicity = 1

 SCF Done:  E(RHF) =  -562.808745638     A.U. after   12 cycles

 1\1\GINC-SE342\Stability\RHF\Aug-CC-pVDZ\F2O1Si1\OHZDE\08-Apr-2025\0\\
 #t hf aug-cc-pvdz symm=none int=(grid=ultrafine) guess=(read,tcheck) s
 table=(opt,rrhf)\\title\\0,1\Si,0,0.,0.,0.133438\O,0,0.,0.,1.637552\F,
 0,0.,1.244535,-0.831586\F,0,0.,-1.244535,-0.831586\\Version=ES64L-G16R
 evC.01\HF=-562.8087456\RMSD=9.960e-09\Dipole=0.,0.,-1.0412562\Quadrupo
 le=4.5411308,0.1537263,-4.6948571,0.,0.,0.\PG=Unknown\\@
 The archive entry for this job was punched.

 Normal termination of Gaussian 16 at Tue Apr  8 23:55:17 2025.
 Gaussian 16:  ES64L-G16RevC.01  3-Jul-2019

 ----------------------------------------------------------------------
 #t hf aug-cc-pvdz iop(5/13=1,5/36=2,99/5=2) pseudo=read geom=check gue
 ss=(read,tcheck) scf=(maxcycle=1)
 ----------------------------------------------------------------------
 -----
 title
 -----
 Structure from the checkpoint file:  "BDE49_nonexpt_1989_mol1.chk"
 Charge =  0 Multiplicity = 1

                         Standard orientation:
 ---------------------------------------------------------------------
 Center     Atomic      Atomic             Coordinates (Angstroms)
 Number     Number       Type             X           Y           Z
 ---------------------------------------------------------------------
      1         14           0        0.000000   -0.000000    0.133438
      2          8           0        0.000000   -0.000000    1.637552
      3          9           0        0.000000    1.244535   -0.831586
      4          9           0       -0.000000   -1.244535   -0.831586
 ---------------------------------------------------------------------

 SCF Done:  E(RHF) =  -563.085686539     A.U. after    2 cycles

 The electronic state is 1-A1.
 Alpha  occ. eigenvalues --  -69.70018 -26.53207 -26.53205 -20.54040  -6.36307
 Alpha  occ. eigenvalues --   -4.11607  -4.11557  -4.11508  -1.65966  -1.63200
 Alpha  occ. eigenvalues --   -1.38039  -0.83287  -0.76139  -0.73139  -0.72824
 Alpha  occ. eigenvalues --   -0.69361  -0.67872  -0.57632  -0.49299  -0.49270
 Alpha virt. eigenvalues --    0.02144   0.04182   0.05927   0.06459   0.11782
 Alpha virt. eigenvalues --    0.12469   0.19748   0.20559   0.21803   0.24423
 Alpha virt. eigenvalues --    0.24635   0.24961   0.28483   0.28751   0.28751

 Mulliken charges:
               1
     1  Si   2.610507
     2  O   -1.179484
     3  F   -0.715511
     4  F   -0.715511
 Sum of Mulliken charges =   0.00000

 Dipole moment (field-independent basis, Debye):
    X=              0.0000    Y=             -0.0000    Z=             -2.6480  Tot=              2.6480

 Test job not archived.
 1\1\GINC-SE342\SP\RHF\Aug-CC-pVDZ\F2O1Si1\OHZDE\08-Apr-2025\0\\#t hf a
 ug-cc-pvdz iop(5/13=1,5/36=2,99/5=2) pseudo=read geom=check guess=(rea
 d,tcheck) scf=(maxcycle=1)\\title\\0,1\Si,0,0.,0.,0.133438\O,0,0.,0.,1
 .637552\F,0,0.,1.244535,-0.831586\F,0,0.,-1.244535,-0.831586\\Version=
 ES64L-G16RevC.01\State=1-A1\HF=-563.0856865\RMSD=4.621e-03\Dipole=0.,0
 .,-1.0418188\Quadrupole=4.1996372,0.2282951,-4.4279323,0.,0.,0.\PG=C02
 V [C2(Si1O1),SGV(F2)]\\@

 Normal termination of Gaussian 16 at Tue Apr  8 23:55:18 2025.
