 Gaussian 16, Revision C.01,

 ----------------------------------------------------------------------
 #t hf aug-cc-pvdz symm=none int=(grid=ultrafine) guess=(read,tcheck) s
 table=(opt,rrhf)
 ----------------------------------------------------------------------
 -----
 title
 -----
 Symbolic Z-matrix:
 Charge =  0 Multiplicity = 1

 SCF Done:  E(RHF) =  -2723.92166469     A.U. after   12 cycles
 Normal termination of Gaussian 16 at Tue Apr  8 23:49:36 2025.
 Gaussian 16:  ES64L-G16RevC.01  3-Jul-2019

 ----------------------------------------------------------------------
 #t hf aug-cc-pvdz iop(5/13=1,5/36=2,99/5=2) pseudo=read geom=check gue
 ss=(read,tcheck) scf=(maxcycle=1)
 ----------------------------------------------------------------------
 -----
 title
 -----
 Structure from the checkpoint file:  "BDE49_nonexpt_1858_mol1.chk"
 Charge =  0 Multiplicity = 1

                         Standard orientation:
 ---------------------------------------------------------------------
 Center     Atomic      Atomic             Coordinates (Angstroms)
 Number     Number       Type             X           Y           Z
 ---------------------------------------------------------------------
      1          6           0       -1.102197   -0.000001   -0.398146
      2         14           0        0.768768    0.000000    0.050314
      3         17           0        0.982492    0.000000    2.077355
      4         17           0        1.618240    1.668882   -0.761232
      5         17           0       -1.907252   -1.470390    0.236291
      6         17           0       -1.907253    1.470389    0.236291
      7         17           0        1.618242   -1.668882   -0.761232
      8          9           0       -1.225059   -0.000001   -1.753618
 ---------------------------------------------------------------------

 SCF Done:  E(RHF) =  -2724.45929454     A.U. after    2 cycles

 The electronic state is 1-A.
 Alpha  occ. eigenvalues -- -105.60905-105.60904-105.60215-105.60039-105.60039
 Alpha  occ. eigenvalues --  -69.70362 -26.52390 -11.47996 -10.65744 -10.65733
 Alpha  occ. eigenvalues --  -10.65236 -10.65065 -10.65058  -7.82684  -7.82681
 Alpha  occ. eigenvalues --   -7.82260  -7.82260  -7.82252  -7.82251  -7.82133
 Alpha  occ. eigenvalues --   -7.81958  -7.81953  -7.81789  -7.81780  -7.81614
 Alpha  occ. eigenvalues --   -7.81614  -7.81606  -7.81603  -6.36080  -4.11458
 Alpha  occ. eigenvalues --   -4.11454  -4.11306  -1.65845  -1.17878  -1.13199
 Alpha  occ. eigenvalues --   -1.08920  -1.08365  -1.07761  -0.90804  -0.79032
 Alpha  occ. eigenvalues --   -0.73622  -0.72870  -0.69889  -0.61518  -0.61157
 Alpha  occ. eigenvalues --   -0.59951  -0.58049  -0.53777  -0.53073  -0.52898
 Alpha  occ. eigenvalues --   -0.52023  -0.51265  -0.50097  -0.49677  -0.49016
 Alpha  occ. eigenvalues --   -0.47690  -0.46823
 Alpha virt. eigenvalues --    0.04911   0.05928   0.05933   0.06167   0.08112
 Alpha virt. eigenvalues --    0.09095   0.10162   0.11095   0.11376   0.11927
 Alpha virt. eigenvalues --    0.12734   0.13034   0.14038   0.15728   0.15898

 Mulliken charges:
               1
     1  C    0.207659
     2  Si   2.030881
     3  Cl  -0.500474
     4  Cl  -0.487455
     5  Cl  -0.047383
     6  Cl  -0.047383
     7  Cl  -0.487455
     8  F   -0.668390
 Sum of Mulliken charges =  -0.00000

 Dipole moment (field-independent basis, Debye):
    X=              0.4297    Y=             -0.0000    Z=              0.3753  Tot=              0.5705

 Test job not archived.
 1\1\GINC-SE455\SP\RHF\Aug-CC-pVDZ\C1Cl5F1Si1\OHZDE\08-Apr-2025\0\\#t h
 f aug-cc-pvdz iop(5/13=1,5/36=2,99/5=2) pseudo=read geom=check guess=(
 read,tcheck) scf=(maxcycle=1)\\title\\0,1\C,0,-1.102197,0.,-0.398146\S
 i,0,0.768768,0.,0.050314\Cl,0,0.982492,0.,2.077355\Cl,0,1.618241,1.668
 882,-0.761232\Cl,0,-1.907253,-1.470389,0.236291\Cl,0,-1.907253,1.47039
 ,0.236291\Cl,0,1.618241,-1.668882,-0.761232\F,0,-1.225059,0.,-1.753618
 \\Version=ES64L-G16RevC.01\State=1-A\HF=-2724.4592945\RMSD=3.097e-03\D
 ipole=0.1690712,-0.0000011,0.1476357\Quadrupole=-0.3430244,0.9541107,-

 Normal termination of Gaussian 16 at Tue Apr  8 23:49:41 2025.
