 Gaussian 16, Revision C.01,

 ----------------------------------------------------------------------
 #t hf aug-cc-pvdz symm=none int=(grid=ultrafine) guess=(read,tcheck) s
 table=(opt,rrhf)
 ----------------------------------------------------------------------
 -----
 title
 -----
 Symbolic Z-matrix:
 Charge =  0 Multiplicity = 1

 SCF Done:  E(RHF) =  -217.283775466     A.U. after   13 cycles
 Normal termination of Gaussian 16 at Wed Apr  9 00:26:47 2025.
 Gaussian 16:  ES64L-G16RevC.01  3-Jul-2019

 ----------------------------------------------------------------------
 #t hf aug-cc-pvdz iop(5/13=1,5/36=2,99/5=2) pseudo=read geom=check gue
 ss=(read,tcheck) scf=(maxcycle=1)
 ----------------------------------------------------------------------
 -----
 title
 -----
 Structure from the checkpoint file:  "BDE49_nonexpt_280_mol1.chk"
 Charge =  0 Multiplicity = 1

                         Standard orientation:
 ---------------------------------------------------------------------
 Center     Atomic      Atomic             Coordinates (Angstroms)
 Number     Number       Type             X           Y           Z
 ---------------------------------------------------------------------
      1          6           0        0.036972    0.388525    0.643239
      2          5           0       -1.235296    0.371717   -0.284206
      3          8           0       -2.220892   -0.524640   -0.030231
      4          6           0        1.320495    0.411401   -0.143939
      5          6           0        2.231661   -0.558103   -0.163244
      6          1           0        0.020460   -0.452561    1.343236
      7          1           0       -0.025941    1.310022    1.244961
      8          1           0        1.484378    1.294312   -0.759945
      9          1           0        2.115979   -1.460820    0.429248
     10          1           0        3.127492   -0.481820   -0.769164
     11          1           0       -2.961444   -0.459255   -0.640583
     12          1           0       -1.352077    1.137720   -1.201217
 ---------------------------------------------------------------------

 SCF Done:  E(RHF) =  -217.512465608     A.U. after    2 cycles

 The electronic state is 1-A.
 Alpha  occ. eigenvalues --  -20.56661 -11.24354 -11.22456 -11.21150  -7.61631
 Alpha  occ. eigenvalues --   -1.46653  -1.06512  -0.93817  -0.77516  -0.73955
 Alpha  occ. eigenvalues --   -0.66590  -0.63840  -0.59031  -0.56437  -0.54921
 Alpha  occ. eigenvalues --   -0.52034  -0.49191  -0.46408  -0.35903
 Alpha virt. eigenvalues --    0.03147   0.04020   0.04058   0.04444   0.06197
 Alpha virt. eigenvalues --    0.06528   0.07607   0.08310   0.09645   0.10455
 Alpha virt. eigenvalues --    0.11356   0.11882   0.13886   0.14060   0.15709

 Mulliken charges:
               1
     1  C   -0.465472
     2  B    0.976632
     3  O   -0.997956
     4  C    0.489235
     5  C   -0.146978
     6  H   -0.065999
     7  H    0.158229
     8  H   -0.209354
     9  H   -0.081659
    10  H   -0.093583
    11  H    0.520231
    12  H   -0.083327
 Sum of Mulliken charges =  -0.00000

 Dipole moment (field-independent basis, Debye):
    X=             -1.1102    Y=              0.6092    Z=             -0.7393  Tot=              1.4664

 Test job not archived.
 1\1\GINC-SE072\SP\RHF\Aug-CC-pVDZ\C3H7B1O1\OHZDE\09-Apr-2025\0\\#t hf
 aug-cc-pvdz iop(5/13=1,5/36=2,99/5=2) pseudo=read geom=check guess=(re
 ad,tcheck) scf=(maxcycle=1)\\title\\0,1\C,0,0.036972,0.388525,0.643239
 \B,0,-1.235296,0.371717,-0.284206\O,0,-2.220892,-0.52464,-0.030231\C,0
 ,1.320495,0.411401,-0.143939\C,0,2.231661,-0.558103,-0.163244\H,0,0.02
 046,-0.452561,1.343236\H,0,-0.025941,1.310022,1.244961\H,0,1.484378,1.
 294312,-0.759945\H,0,2.115979,-1.46082,0.429248\H,0,3.127492,-0.48182,
 -0.769164\H,0,-2.961444,-0.459255,-0.640583\H,0,-1.352077,1.13772,-1.2

 Normal termination of Gaussian 16 at Wed Apr  9 00:26:50 2025.
