 Gaussian 16, Revision C.01,

 ----------------------------------------------------------------------
 #t hf aug-cc-pvdz symm=none int=(grid=ultrafine) guess=(read,tcheck) s
 table=(opt,rrhf)
 ----------------------------------------------------------------------
 -----
 title
 -----
 Symbolic Z-matrix:
 Charge =  0 Multiplicity = 1

 SCF Done:  E(RHF) =  -262.720875782     A.U. after   13 cycles
 Normal termination of Gaussian 16 at Tue Apr  8 22:37:28 2025.
 Gaussian 16:  ES64L-G16RevC.01  3-Jul-2019

 ----------------------------------------------------------------------
 #t hf aug-cc-pvdz iop(5/13=1,5/36=2,99/5=2) pseudo=read geom=check gue
 ss=(read,tcheck) scf=(maxcycle=1)
 ----------------------------------------------------------------------
 -----
 title
 -----
 Structure from the checkpoint file:  "BDE49_expt_1175_mol1.chk"
 Charge =  0 Multiplicity = 1

                         Standard orientation:
 ---------------------------------------------------------------------
 Center     Atomic      Atomic             Coordinates (Angstroms)
 Number     Number       Type             X           Y           Z
 ---------------------------------------------------------------------
      1          6           0       -1.879204   -0.160136   -0.000543
      2          7           0       -2.970627    0.208442    0.000232
      3          6           0        1.879209    0.160150    0.000556
      4          7           0        2.970618   -0.208471   -0.000256
      5          6           0        0.487732    0.601568   -0.000120
      6          6           0       -0.487728   -0.601554    0.000131
      7          1           0        0.313630    1.226082   -0.879955
      8          1           0        0.313108    1.226893    0.879033
      9          1           0       -0.313625   -1.226068    0.879966
     10          1           0       -0.313103   -1.226879   -0.879022
 ---------------------------------------------------------------------

 SCF Done:  E(RHF) =  -262.981664969     A.U. after    2 cycles

 The electronic state is 1-A.
 Alpha  occ. eigenvalues --  -15.53610 -15.53610 -11.32974 -11.32949 -11.30385
 Alpha  occ. eigenvalues --  -11.30380  -1.25952  -1.25466  -1.13874  -0.99266
 Alpha  occ. eigenvalues --   -0.76745  -0.71533  -0.71128  -0.63867  -0.62763
 Alpha  occ. eigenvalues --   -0.61477  -0.61222  -0.53234  -0.51874  -0.51184
 Alpha  occ. eigenvalues --   -0.50664
 Alpha virt. eigenvalues --    0.02640   0.03632   0.03897   0.05369   0.05783
 Alpha virt. eigenvalues --    0.09419   0.09945   0.10933   0.11090   0.11095
 Alpha virt. eigenvalues --    0.12365   0.13471   0.14193   0.14659   0.15465

 Mulliken charges:
               1
     1  C   -1.581225
     2  N    0.926789
     3  C   -1.581220
     4  N    0.926787
     5  C    0.183683
     6  C    0.183677
     7  H    0.235436
     8  H    0.235316
     9  H    0.235436
    10  H    0.235321
 Sum of Mulliken charges =  -0.00000

 Dipole moment (field-independent basis, Debye):
    X=              0.0000    Y=              0.0001    Z=              0.0001  Tot=              0.0001

 Test job not archived.
 1\1\GINC-SE219\SP\RHF\Aug-CC-pVDZ\C4H4N2\OHZDE\08-Apr-2025\0\\#t hf au
 g-cc-pvdz iop(5/13=1,5/36=2,99/5=2) pseudo=read geom=check guess=(read
 ,tcheck) scf=(maxcycle=1)\\title\\0,1\C,0,-1.879204,-0.160136,-0.00054
 3\N,0,-2.970627,0.208442,0.000232\C,0,1.879209,0.16015,0.000556\N,0,2.
 970618,-0.208471,-0.000256\C,0,0.487732,0.601568,-0.00012\C,0,-0.48772
 8,-0.601554,0.000131\H,0,0.31363,1.226082,-0.879955\H,0,0.313108,1.226
 893,0.879033\H,0,-0.313625,-1.226068,0.879966\H,0,-0.313103,-1.226879,
 -0.879022\\Version=ES64L-G16RevC.01\State=1-A\HF=-262.981665\RMSD=3.00

 Normal termination of Gaussian 16 at Tue Apr  8 22:37:31 2025.
