 Gaussian 16, Revision C.01,

 ----------------------------------------------------------------------
 #t hf aug-cc-pvdz symm=none int=(grid=ultrafine) guess=(read,tcheck) s
 table=(opt,rrhf)
 ----------------------------------------------------------------------
 -----
 title
 -----
 Symbolic Z-matrix:
 Charge =  0 Multiplicity = 1

 SCF Done:  E(RHF) =  -924.489600009     A.U. after   15 cycles
 Normal termination of Gaussian 16 at Wed Apr  9 00:05:24 2025.
 Gaussian 16:  ES64L-G16RevC.01  3-Jul-2019

 ----------------------------------------------------------------------
 #t hf aug-cc-pvdz iop(5/13=1,5/36=2,99/5=2) pseudo=read geom=check gue
 ss=(read,tcheck) scf=(maxcycle=1)
 ----------------------------------------------------------------------
 -----
 title
 -----
 Structure from the checkpoint file:  "BDE49_nonexpt_2124_mol1.chk"
 Charge =  0 Multiplicity = 1

                         Standard orientation:
 ---------------------------------------------------------------------
 Center     Atomic      Atomic             Coordinates (Angstroms)
 Number     Number       Type             X           Y           Z
 ---------------------------------------------------------------------
      1          7           0       -0.349811   -0.971604   -0.127830
      2          7           0        0.301200   -0.068715   -0.705795
      3         14           0       -2.155929   -0.804432   -0.100102
      4          6           0       -2.797953    0.738421   -0.962037
      5          6           0       -2.514335    2.073640   -0.250737
      6          1           0       -3.877496    0.605395   -1.109091
      7          1           0       -2.356021    0.753082   -1.964767
      8          1           0       -1.439377    2.240649   -0.154993
      9          1           0       -2.950621    2.100693    0.752109
     10         14           0        2.103941   -0.262678   -0.759051
     11          6           0        2.818104    1.311458   -0.010423
     12          6           0        2.578071    1.493315    1.499077
     13          1           0        2.395399    2.157377   -0.564154
     14          1           0        3.893931    1.321715   -0.224777
     15          1           0        3.029274    0.684104    2.080040
     16          1           0        1.510611    1.510770    1.735724
     17          6           0       -2.649067   -0.927610    1.705521
     18          1           0       -2.301812   -0.062572    2.277125
     19          1           0       -2.220597   -1.825768    2.157286
     20          1           0       -3.737076   -0.983547    1.805477
     21          6           0        2.697954   -1.830633    0.073618
     22          1           0        2.454964   -1.832461    1.138961
     23          1           0        3.781503   -1.937777   -0.035180
     24          1           0        2.218639   -2.704977   -0.373201
     25          1           0        3.008106    2.432178    1.859669
     26          1           0       -2.932006    2.916694   -0.809180
     27          1           0        2.403043   -0.285542   -2.213558
     28          1           0       -2.609002   -2.019784   -0.824084
 ---------------------------------------------------------------------

 SCF Done:  E(RHF) =  -924.927766333     A.U. after    2 cycles

 The electronic state is 1-A.
 Alpha  occ. eigenvalues --  -69.52788 -69.52759 -15.53654 -15.53083 -11.23147
 Alpha  occ. eigenvalues --  -11.22638 -11.21960 -11.21667 -11.21607 -11.21273
 Alpha  occ. eigenvalues --   -6.19774  -6.19743  -3.95121  -3.95099  -3.95065
 Alpha  occ. eigenvalues --   -3.95046  -3.95040  -3.95024  -1.31259  -1.02754
 Alpha  occ. eigenvalues --   -1.02369  -0.95924  -0.94980  -0.90695  -0.85088
 Alpha  occ. eigenvalues --   -0.84210  -0.72952  -0.67833  -0.61979  -0.61855
 Alpha  occ. eigenvalues --   -0.60133  -0.59448  -0.59278  -0.58701  -0.55668
 Alpha  occ. eigenvalues --   -0.55317  -0.54820  -0.54591  -0.54203  -0.52321
 Alpha  occ. eigenvalues --   -0.51741  -0.50027  -0.49629  -0.46031  -0.45041
 Alpha  occ. eigenvalues --   -0.43140  -0.42897  -0.36449
 Alpha virt. eigenvalues --    0.03363   0.03632   0.03858   0.04011   0.04384
 Alpha virt. eigenvalues --    0.04514   0.04653   0.05339   0.05427   0.06887
 Alpha virt. eigenvalues --    0.07529   0.07751   0.07924   0.08239   0.08460

 Mulliken charges:
               1
     1  N   -0.398212
     2  N   -0.594578
     3  Si   1.839201
     4  C   -0.627717
     5  C   -0.379384
     6  H    0.018887
     7  H    0.102555
     8  H    0.156175
     9  H    0.132357
    10  Si   1.757252
    11  C   -0.539807
    12  C   -0.356930
    13  H    0.037043
    14  H    0.049143
    15  H    0.132574
    16  H    0.149498
    17  C   -0.621824
    18  H    0.108563
    19  H   -0.032926
    20  H    0.006966
    21  C   -0.663130
    22  H    0.132979
    23  H    0.006306
    24  H   -0.010576
    25  H    0.086854
    26  H    0.094866
    27  H   -0.271176
    28  H   -0.314961
 Sum of Mulliken charges =  -0.00000

 Dipole moment (field-independent basis, Debye):
    X=              0.1125    Y=              0.5962    Z=              0.8108  Tot=              1.0127

 Test job not archived.
 1\1\GINC-SE102\SP\RHF\Aug-CC-pVDZ\C6H18N2Si2\OHZDE\09-Apr-2025\0\\#t h
 f aug-cc-pvdz iop(5/13=1,5/36=2,99/5=2) pseudo=read geom=check guess=(
 read,tcheck) scf=(maxcycle=1)\\title\\0,1\N,0,-0.349811,-0.971604,-0.1
 2783\N,0,0.3012,-0.068715,-0.705795\Si,0,-2.155929,-0.804432,-0.100102
 \C,0,-2.797953,0.738421,-0.962037\C,0,-2.514335,2.07364,-0.250737\H,0,
 -3.877496,0.605395,-1.109091\H,0,-2.356021,0.753082,-1.964767\H,0,-1.4
 39377,2.240649,-0.154993\H,0,-2.950621,2.100693,0.752109\Si,0,2.103941
 ,-0.262678,-0.759051\C,0,2.818104,1.311458,-0.010423\C,0,2.578071,1.49

 Normal termination of Gaussian 16 at Wed Apr  9 00:05:47 2025.
