 Gaussian 16, Revision C.01,

 ----------------------------------------------------------------------
 #t hf aug-cc-pvdz symm=none int=(grid=ultrafine) guess=(read,tcheck) s
 table=(opt,rrhf)
 ----------------------------------------------------------------------
 -----
 title
 -----
 Symbolic Z-matrix:
 Charge =  0 Multiplicity = 1

 SCF Done:  E(RHF) =  -811.182324061     A.U. after   11 cycles

 1\1\GINC-SE072\Stability\RHF\Aug-CC-pVDZ\B1F5Si1\OHZDE\09-Apr-2025\0\\
 #t hf aug-cc-pvdz symm=none int=(grid=ultrafine) guess=(read,tcheck) s
 table=(opt,rrhf)\\title\\0,1\F,0,-2.031655,1.131955,-0.000005\F,0,-2.0
 14739,-1.129916,0.00002\B,0,-1.345952,0.006672,-0.000008\Si,0,0.674968
 ,0.003562,-0.000004\F,0,1.239367,-0.74283,-1.28114\F,0,1.265471,1.4743
 15,-0.000034\F,0,1.239358,-0.742772,1.281169\\Version=ES64L-G16RevC.01
 \HF=-811.1823241\RMSD=3.038e-09\Dipole=-0.3331601,0.0186527,-0.0000191
 \Quadrupole=-1.2243783,-0.9166319,2.1410102,-0.0240133,0.0000849,0.000

 Normal termination of Gaussian 16 at Wed Apr  9 00:30:46 2025.
 Gaussian 16:  ES64L-G16RevC.01  3-Jul-2019

 ----------------------------------------------------------------------
 #t hf aug-cc-pvdz iop(5/13=1,5/36=2,99/5=2) pseudo=read geom=check gue
 ss=(read,tcheck) scf=(maxcycle=1)
 ----------------------------------------------------------------------
 -----
 title
 -----
 Structure from the checkpoint file:  "BDE49_nonexpt_359_mol1.chk"
 Charge =  0 Multiplicity = 1

                         Standard orientation:
 ---------------------------------------------------------------------
 Center     Atomic      Atomic             Coordinates (Angstroms)
 Number     Number       Type             X           Y           Z
 ---------------------------------------------------------------------
      1          9           0       -2.031655    1.131955   -0.000005
      2          9           0       -2.014739   -1.129916    0.000020
      3          5           0       -1.345952    0.006672   -0.000008
      4         14           0        0.674968    0.003562   -0.000004
      5          9           0        1.239367   -0.742830   -1.281140
      6          9           0        1.265471    1.474315   -0.000034
      7          9           0        1.239358   -0.742772    1.281169
 ---------------------------------------------------------------------

 SCF Done:  E(RHF) =  -811.683427956     A.U. after    2 cycles

 The electronic state is 1-A.
 Alpha  occ. eigenvalues --  -69.69008 -26.51442 -26.51437 -26.49546 -26.49545
 Alpha  occ. eigenvalues --  -26.49464  -7.76334  -6.34946  -4.10244  -4.10242
 Alpha  occ. eigenvalues --   -4.09953  -1.66685  -1.63314  -1.62735  -1.60060
 Alpha  occ. eigenvalues --   -1.60005  -0.85693  -0.82795  -0.77871  -0.76176
 Alpha  occ. eigenvalues --   -0.74406  -0.74198  -0.72557  -0.70265  -0.68253
 Alpha  occ. eigenvalues --   -0.68237  -0.66470  -0.66117  -0.65416  -0.65124
 Alpha  occ. eigenvalues --   -0.63695  -0.52323
 Alpha virt. eigenvalues --    0.03517   0.04369   0.05351   0.05651   0.07829
 Alpha virt. eigenvalues --    0.08063   0.08167   0.08696   0.14483   0.16883
 Alpha virt. eigenvalues --    0.19207   0.19772   0.23115   0.23851   0.24381

 Mulliken charges:
               1
     1  F   -0.671781
     2  F   -0.677003
     3  B    0.979385
     4  Si   2.869099
     5  F   -0.825997
     6  F   -0.847708
     7  F   -0.825995
 Sum of Mulliken charges =  -0.00000

 Dipole moment (field-independent basis, Debye):
    X=             -0.8341    Y=              0.0426    Z=             -0.0000  Tot=              0.8352

 Test job not archived.
 1\1\GINC-SE072\SP\RHF\Aug-CC-pVDZ\B1F5Si1\OHZDE\09-Apr-2025\0\\#t hf a
 ug-cc-pvdz iop(5/13=1,5/36=2,99/5=2) pseudo=read geom=check guess=(rea
 d,tcheck) scf=(maxcycle=1)\\title\\0,1\F,0,-2.031655,1.131955,-0.00000
 5\F,0,-2.014739,-1.129916,0.00002\B,0,-1.345952,0.006672,-0.000008\Si,
 0,0.674968,0.003562,-0.000004\F,0,1.239367,-0.74283,-1.28114\F,0,1.265
 471,1.474315,-0.000034\F,0,1.239358,-0.742772,1.281169\\Version=ES64L-
 G16RevC.01\State=1-A\HF=-811.683428\RMSD=4.270e-03\Dipole=-0.3281508,0
 .016759,-0.0000167\Quadrupole=-1.0573261,-0.8085942,1.8659203,-0.02521

 Normal termination of Gaussian 16 at Wed Apr  9 00:30:48 2025.
