 Gaussian 16, Revision C.01,

 ----------------------------------------------------------------------
 #t hf aug-cc-pvdz symm=none int=(grid=ultrafine) guess=(read,tcheck) s
 table=(opt,rrhf)
 ----------------------------------------------------------------------
 -----
 title
 -----
 Symbolic Z-matrix:
 Charge =  0 Multiplicity = 1

 SCF Done:  E(RHF) =  -644.248403755     A.U. after   15 cycles
 Normal termination of Gaussian 16 at Tue Apr  8 23:08:59 2025.
 Gaussian 16:  ES64L-G16RevC.01  3-Jul-2019

 ----------------------------------------------------------------------
 #t hf aug-cc-pvdz iop(5/13=1,5/36=2,99/5=2) pseudo=read geom=check gue
 ss=(read,tcheck) scf=(maxcycle=1)
 ----------------------------------------------------------------------
 -----
 title
 -----
 Structure from the checkpoint file:  "BDE49_expt_545_mol1.chk"
 Charge =  0 Multiplicity = 1

                         Standard orientation:
 ---------------------------------------------------------------------
 Center     Atomic      Atomic             Coordinates (Angstroms)
 Number     Number       Type             X           Y           Z
 ---------------------------------------------------------------------
      1          6           0        0.000000    1.188923   -1.487067
      2          6           0        0.000000    1.213039   -0.129614
      3          7           0        0.000000    0.000000   -2.168181
      4          6           0       -0.000000   -1.188923   -1.487067
      5          6           0       -0.000000   -1.213039   -0.129614
      6          6           0        0.000000    0.000000    0.653696
      7          1           0        0.000000    0.000000   -3.175263
      8          1           0        0.000000    2.084547   -2.094227
      9          1           0        0.000000    2.163064    0.387008
     10         16           0        0.000000    0.000000    2.327810
     11          1           0       -0.000000   -2.163064    0.387008
     12          1           0       -0.000000   -2.084547   -2.094227
 ---------------------------------------------------------------------

 SCF Done:  E(RHF) =  -644.558776120     A.U. after    2 cycles

 The electronic state is 1-A1.
 Alpha  occ. eigenvalues --  -93.87752 -15.59600 -11.32852 -11.32833 -11.31078
 Alpha  occ. eigenvalues --  -11.25784 -11.25776  -8.15931  -6.13794  -6.13527
 Alpha  occ. eigenvalues --   -6.13387  -1.32876  -1.12974  -1.08235  -0.98940
 Alpha  occ. eigenvalues --   -0.90924  -0.84663  -0.82720  -0.72146  -0.68344
 Alpha  occ. eigenvalues --   -0.65651  -0.63923  -0.63657  -0.54776  -0.49133
 Alpha  occ. eigenvalues --   -0.46266  -0.40594  -0.31145  -0.29916
 Alpha virt. eigenvalues --    0.01029   0.03057   0.04048   0.04581   0.05487
 Alpha virt. eigenvalues --    0.06722   0.08855   0.09034   0.09555   0.10320
 Alpha virt. eigenvalues --    0.11343   0.11459   0.11890   0.12378   0.13219

 Mulliken charges:
               1
     1  C   -0.615554
     2  C    0.978448
     3  N    0.685947
     4  C   -0.615554
     5  C    0.978448
     6  C   -0.627317
     7  H    0.151138
     8  H   -0.262582
     9  H   -0.147644
    10  S   -0.115104
    11  H   -0.147644
    12  H   -0.262582
 Sum of Mulliken charges =  -0.00000

 Dipole moment (field-independent basis, Debye):
    X=              0.0000    Y=             -0.0000    Z=             -8.4310  Tot=              8.4310

 Test job not archived.
 1\1\GINC-SE174\SP\RHF\Aug-CC-pVDZ\C5H5N1S1\OHZDE\08-Apr-2025\0\\#t hf
 aug-cc-pvdz iop(5/13=1,5/36=2,99/5=2) pseudo=read geom=check guess=(re
 ad,tcheck) scf=(maxcycle=1)\\title\\0,1\C,0,0.,1.188923,-1.487067\C,0,
 0.,1.213039,-0.129614\N,0,0.,0.,-2.168181\C,0,0.,-1.188923,-1.487067\C
 ,0,0.,-1.213039,-0.129614\C,0,0.,0.,0.653696\H,0,0.,0.,-3.175263\H,0,0
 .,2.084547,-2.094227\H,0,0.,2.163064,0.387008\S,0,0.,0.,2.32781\H,0,0.
 ,-2.163064,0.387008\H,0,0.,-2.084547,-2.094227\\Version=ES64L-G16RevC.
 01\State=1-A1\HF=-644.5587761\RMSD=3.000e-02\Dipole=0.,0.,-3.3169948\Q

 Normal termination of Gaussian 16 at Tue Apr  8 23:09:03 2025.
