 Gaussian 16, Revision C.01,

 ----------------------------------------------------------------------
 #t hf aug-cc-pvdz symm=none int=(grid=ultrafine) guess=(read,tcheck) s
 table=(opt,rrhf)
 ----------------------------------------------------------------------
 -----
 title
 -----
 Symbolic Z-matrix:
 Charge =  0 Multiplicity = 1

 SCF Done:  E(RHF) =  -1336.24172587     A.U. after   13 cycles
 Normal termination of Gaussian 16 at Wed Apr  9 00:49:44 2025.
 Gaussian 16:  ES64L-G16RevC.01  3-Jul-2019

 ----------------------------------------------------------------------
 #t hf aug-cc-pvdz iop(5/13=1,5/36=2,99/5=2) pseudo=read geom=check gue
 ss=(read,tcheck) scf=(maxcycle=1)
 ----------------------------------------------------------------------
 -----
 title
 -----
 Structure from the checkpoint file:  "BDE49_nonexpt_889_mol1.chk"
 Charge =  0 Multiplicity = 1

                         Standard orientation:
 ---------------------------------------------------------------------
 Center     Atomic      Atomic             Coordinates (Angstroms)
 Number     Number       Type             X           Y           Z
 ---------------------------------------------------------------------
      1          6           0       -1.882133    0.120438   -0.154820
      2         16           0       -0.437610   -1.043670    0.046783
      3          5           0        1.056368   -0.036864   -0.041395
      4         16           0        2.682362   -0.842643    0.146431
      5         16           0        0.999988    1.764537   -0.327617
      6          6           0       -3.031158   -0.674269   -0.778355
      7          1           0       -3.336378   -1.500828   -0.130290
      8          1           0       -2.752664   -1.086757   -1.749738
      9          6           0       -2.269146    0.756351    1.180164
     10          1           0       -1.558607    0.889820   -0.858580
     11          1           0       -3.113464    1.438512    1.034367
     12          1           0       -1.444659    1.325868    1.611449
     13          1           0       -2.570154   -0.008081    1.901213
     14          1           0       -3.897372   -0.020565   -0.917468
     15          1           0        2.326868    1.981411   -0.340206
     16          1           0        2.243370   -2.101757    0.324727
 ---------------------------------------------------------------------

 SCF Done:  E(RHF) =  -1336.57773226     A.U. after    2 cycles

 The electronic state is 1-A.
 Alpha  occ. eigenvalues --  -93.96015 -93.95658 -93.94537 -11.28728 -11.24164
 Alpha  occ. eigenvalues --  -11.23807  -8.24311  -8.23942  -8.22875  -7.67593
 Alpha  occ. eigenvalues --   -6.22151  -6.22008  -6.21837  -6.21785  -6.21642
 Alpha  occ. eigenvalues --   -6.21467  -6.20680  -6.20517  -6.20387  -1.11521
 Alpha  occ. eigenvalues --   -1.05810  -1.00550  -0.97321  -0.94935  -0.80011
 Alpha  occ. eigenvalues --   -0.68143  -0.63800  -0.61661  -0.60080  -0.58141
 Alpha  occ. eigenvalues --   -0.55814  -0.53246  -0.51523  -0.51339  -0.48122
 Alpha  occ. eigenvalues --   -0.45735  -0.45476  -0.43001  -0.38092  -0.36534
 Alpha virt. eigenvalues --    0.03548   0.04043   0.04098   0.04206   0.05640
 Alpha virt. eigenvalues --    0.06132   0.06713   0.06963   0.07409   0.08536
 Alpha virt. eigenvalues --    0.09074   0.09845   0.10215   0.11261   0.12172

 Mulliken charges:
               1
     1  C   -1.151943
     2  S    0.030071
     3  B    1.157174
     4  S   -0.773967
     5  S   -0.613143
     6  C   -0.151557
     7  H    0.229313
     8  H    0.151767
     9  C   -0.300544
    10  H    0.179149
    11  H    0.161210
    12  H    0.109257
    13  H    0.224087
    14  H    0.185117
    15  H    0.287859
    16  H    0.276151
 Sum of Mulliken charges =  -0.00000

 Dipole moment (field-independent basis, Debye):
    X=             -1.4322    Y=              0.3881    Z=             -0.0666  Tot=              1.4853

 Test job not archived.
 1\1\GINC-SE072\SP\RHF\Aug-CC-pVDZ\C3H9B1S3\OHZDE\09-Apr-2025\0\\#t hf
 aug-cc-pvdz iop(5/13=1,5/36=2,99/5=2) pseudo=read geom=check guess=(re
 ad,tcheck) scf=(maxcycle=1)\\title\\0,1\C,0,-1.882133,0.120438,-0.1548
 2\S,0,-0.43761,-1.04367,0.046783\B,0,1.056368,-0.036864,-0.041395\S,0,
 2.682362,-0.842643,0.146431\S,0,0.999988,1.764537,-0.327617\C,0,-3.031
 158,-0.67427,-0.778355\H,0,-3.336378,-1.500829,-0.13029\H,0,-2.752664,
 -1.086757,-1.749738\C,0,-2.269146,0.756351,1.180164\H,0,-1.558607,0.88
 982,-0.85858\H,0,-3.113464,1.438511,1.034367\H,0,-1.444659,1.325868,1.

 Normal termination of Gaussian 16 at Wed Apr  9 00:49:51 2025.
