 Gaussian 16, Revision C.01,

 ----------------------------------------------------------------------
 #t hf aug-cc-pvdz symm=none int=(grid=ultrafine) guess=(read,tcheck) s
 table=(opt,rrhf)
 ----------------------------------------------------------------------
 -----
 title
 -----
 Symbolic Z-matrix:
 Charge =  0 Multiplicity = 1

 SCF Done:  E(RHF) =  -144.537669564     A.U. after   13 cycles
 Normal termination of Gaussian 16 at Wed Apr  9 00:40:49 2025.
 Gaussian 16:  ES64L-G16RevC.01  3-Jul-2019

 ----------------------------------------------------------------------
 #t hf aug-cc-pvdz iop(5/13=1,5/36=2,99/5=2) pseudo=read geom=check gue
 ss=(read,tcheck) scf=(maxcycle=1)
 ----------------------------------------------------------------------
 -----
 title
 -----
 Structure from the checkpoint file:  "BDE49_nonexpt_66_mol1.chk"
 Charge =  0 Multiplicity = 1

                         Standard orientation:
 ---------------------------------------------------------------------
 Center     Atomic      Atomic             Coordinates (Angstroms)
 Number     Number       Type             X           Y           Z
 ---------------------------------------------------------------------
      1          5           0       -1.892976   -0.376144   -0.139855
      2          5           0       -0.654973    0.586492    0.328697
      3          6           0        0.806335    0.450416   -0.224154
      4          7           0        1.589817   -0.532295    0.021562
      5          1           0        1.109412   -1.259765    0.562960
      6          1           0        1.239067    1.273142   -0.809758
      7          1           0       -0.828689    1.442820    1.151406
      8          1           0       -2.091006   -1.454118    0.338340
      9          1           0       -2.655774   -0.030249   -0.993172
 ---------------------------------------------------------------------

 SCF Done:  E(RHF) =  -144.685657879     A.U. after    2 cycles

 The electronic state is 1-A.
 Alpha  occ. eigenvalues --  -15.50498 -11.27859  -7.60006  -7.59966  -1.20806
 Alpha  occ. eigenvalues --   -0.86475  -0.77607  -0.69182  -0.62836  -0.58484
 Alpha  occ. eigenvalues --   -0.51145  -0.50319  -0.44698  -0.42741
 Alpha virt. eigenvalues --    0.02767   0.03086   0.03547   0.03586   0.05136
 Alpha virt. eigenvalues --    0.05973   0.06659   0.07831   0.07883   0.08951
 Alpha virt. eigenvalues --    0.09763   0.10774   0.12272   0.12891   0.13916

 Mulliken charges:
               1
     1  B   -0.582900
     2  B    0.146672
     3  C   -0.764724
     4  N    0.491562
     5  H    0.080558
     6  H   -0.091151
     7  H    0.196190
     8  H    0.286690
     9  H    0.237103
 Sum of Mulliken charges =   0.00000

 Dipole moment (field-independent basis, Debye):
    X=             -2.4802    Y=              0.9951    Z=              0.2518  Tot=              2.6842

 Test job not archived.
 1\1\GINC-SE338\SP\RHF\Aug-CC-pVDZ\C1H5B2N1\OHZDE\09-Apr-2025\0\\#t hf
 aug-cc-pvdz iop(5/13=1,5/36=2,99/5=2) pseudo=read geom=check guess=(re
 ad,tcheck) scf=(maxcycle=1)\\title\\0,1\B,0,-1.892976,-0.376144,-0.139
 855\B,0,-0.654973,0.586492,0.328697\C,0,0.806335,0.450416,-0.224154\N,
 0,1.589817,-0.532295,0.021562\H,0,1.109412,-1.259765,0.56296\H,0,1.239
 067,1.273142,-0.809758\H,0,-0.828689,1.44282,1.151406\H,0,-2.091006,-1
 .454118,0.33834\H,0,-2.655774,-0.030249,-0.993172\\Version=ES64L-G16Re
 vC.01\State=1-A\HF=-144.6856579\RMSD=1.816e-02\Dipole=-0.9757946,0.391

 Normal termination of Gaussian 16 at Wed Apr  9 00:40:51 2025.
