 Gaussian 16, Revision C.01,

 ----------------------------------------------------------------------
 #t hf aug-cc-pvdz symm=none int=(grid=ultrafine) guess=(read,tcheck) s
 table=opt
 ----------------------------------------------------------------------
 -----
 title
 -----
 Symbolic Z-matrix:
 Charge =  0 Multiplicity = 2

 SCF Done:  E(UHF) =  -446.782085939     A.U. after   15 cycles
 Normal termination of Gaussian 16 at Tue Apr  8 23:57:51 2025.
 Gaussian 16:  ES64L-G16RevC.01  3-Jul-2019

 ----------------------------------------------------------------------
 #t hf aug-cc-pvdz iop(5/13=1,5/36=2,99/5=2) pseudo=read geom=check gue
 ss=(read,tcheck) scf=(maxcycle=1)
 ----------------------------------------------------------------------
 -----
 title
 -----
 Structure from the checkpoint file:  "BDE49_nonexpt_2032_mol2.chk"
 Charge =  0 Multiplicity = 2

                         Standard orientation:
 ---------------------------------------------------------------------
 Center     Atomic      Atomic             Coordinates (Angstroms)
 Number     Number       Type             X           Y           Z
 ---------------------------------------------------------------------
      1         14           0       -1.106075   -1.174533    0.026410
      2          6           0       -0.179375    0.450105   -0.353155
      3          6           0        1.197928    0.539331    0.334916
      4          6           0       -1.067526    1.657860    0.014985
      5          1           0       -1.269017    1.690688    1.090247
      6          1           0       -2.029661    1.633663   -0.503080
      7          1           0       -0.568510    2.596445   -0.254828
      8          1           0       -0.018766    0.464851   -1.439600
      9          6           0        2.217275   -0.499841   -0.140024
     10          1           0        1.067277    0.457702    1.421260
     11          1           0        1.604785    1.543646    0.159203
     12          1           0        1.878968   -1.520923    0.062385
     13          1           0        3.179373   -0.364583    0.361320
     14          1           0        2.388966   -0.418980   -1.217901
     15          1           0       -1.342227   -1.313443    1.491398
     16          1           0       -2.415950   -1.210339   -0.680477
 ---------------------------------------------------------------------

 SCF Done:  E(UHF) =  -446.989847483     A.U. after    2 cycles

 The electronic state is 2-A.
 Alpha  occ. eigenvalues --  -69.52627 -11.23470 -11.23195 -11.23063 -11.22624
 Alpha  occ. eigenvalues --   -6.19785  -3.95743  -3.94832  -3.94805  -1.07919
 Alpha  occ. eigenvalues --   -0.98891  -0.86956  -0.80629  -0.71337  -0.62812
 Alpha  occ. eigenvalues --   -0.59701  -0.59353  -0.57223  -0.52919  -0.50557
 Alpha  occ. eigenvalues --   -0.49005  -0.48420  -0.46706  -0.42877  -0.32344
 Alpha virt. eigenvalues --    0.03669   0.03843   0.03960   0.04150   0.06106
 Alpha virt. eigenvalues --    0.06474   0.06505   0.06676   0.07641   0.09131
 Alpha virt. eigenvalues --    0.09705   0.10376   0.10590   0.11501   0.13717

  Beta  occ. eigenvalues --  -69.52070 -11.23478 -11.23117 -11.23009 -11.22601
  Beta  occ. eigenvalues --   -6.18944  -3.94450  -3.94427  -3.93568  -1.07706
  Beta  occ. eigenvalues --   -0.98664  -0.86782  -0.79783  -0.68430  -0.62142
  Beta  occ. eigenvalues --   -0.59350  -0.59119  -0.56623  -0.52760  -0.50352
  Beta  occ. eigenvalues --   -0.48625  -0.48000  -0.46319  -0.41870
  Beta virt. eigenvalues --    0.02721   0.03750   0.03871   0.04023   0.05514
  Beta virt. eigenvalues --    0.06360   0.06507   0.06594   0.07150   0.08197
  Beta virt. eigenvalues --    0.09271   0.09878   0.10614   0.10973   0.11681

 Mulliken charges and spin densities:
               1          2
     1  Si   0.392073   1.002582
     2  C   -0.860120  -0.026022
     3  C   -0.169386   0.004551
     4  C   -0.203184  -0.005750
     5  H    0.189264  -0.007171
     6  H    0.108036  -0.003908
     7  H    0.136574   0.008259
     8  H    0.200142  -0.004922
     9  C   -0.362121   0.014498
    10  H    0.130670  -0.001924
    11  H    0.154721  -0.001129
    12  H    0.176663  -0.011890
    13  H    0.120144   0.000197
    14  H    0.151499   0.001949
    15  H   -0.080973   0.004991
    16  H   -0.084002   0.025691
 Sum of Mulliken charges =  -0.00000   1.00000

 Dipole moment (field-independent basis, Debye):
    X=              0.5417    Y=              0.8191    Z=             -0.2078  Tot=              1.0037
                          Isotropic Fermi Contact Couplings
        Atom                 a.u.       MegaHertz       Gauss      10(-4) cm-1
     1  Si(29)             0.55549    -493.68207    -176.15804    -164.67461
     2  C(13)              0.00940      10.57226       3.77244       3.52653
     3  C(13)             -0.00160      -1.80333      -0.64347      -0.60153
     4  C(13)              0.02367      26.60546       9.49349       8.87463
     5  H(1)              -0.00015      -0.66894      -0.23870      -0.22314
     6  H(1)               0.00015       0.68625       0.24487       0.22891
     7  H(1)               0.00375      16.78146       5.98804       5.59769
     8  H(1)               0.00005       0.23502       0.08386       0.07839

 Normal termination of Gaussian 16 at Tue Apr  8 23:57:57 2025.
