 Gaussian 16, Revision C.01,

 ----------------------------------------------------------------------
 #t hf aug-cc-pvdz symm=none int=(grid=ultrafine) guess=(read,tcheck) s
 table=(opt,rrhf)
 ----------------------------------------------------------------------
 -----
 title
 -----
 Symbolic Z-matrix:
 Charge =  0 Multiplicity = 1

 SCF Done:  E(RHF) =  -474.909418037     A.U. after   14 cycles
 Normal termination of Gaussian 16 at Wed Apr  9 00:32:56 2025.
 Gaussian 16:  ES64L-G16RevC.01  3-Jul-2019

 ----------------------------------------------------------------------
 #t hf aug-cc-pvdz iop(5/13=1,5/36=2,99/5=2) pseudo=read geom=check gue
 ss=(read,tcheck) scf=(maxcycle=1)
 ----------------------------------------------------------------------
 -----
 title
 -----
 Structure from the checkpoint file:  "BDE49_nonexpt_38_mol1.chk"
 Charge =  0 Multiplicity = 1

                         Standard orientation:
 ---------------------------------------------------------------------
 Center     Atomic      Atomic             Coordinates (Angstroms)
 Number     Number       Type             X           Y           Z
 ---------------------------------------------------------------------
      1          5           0       -0.690203   -0.950117   -0.443412
      2          5           0        0.690283   -0.950294    0.443035
      3          6           0       -1.948281   -0.093908   -0.055964
      4          8           0       -2.835562   -0.400874    0.663660
      5          9           0       -1.928313    1.130884   -0.676648
      6          6           0        1.948345   -0.093888    0.055975
      7          8           0        2.835874   -0.400709   -0.663406
      8          9           0        1.927986    1.130918    0.676620
      9          1           0        0.807784   -1.657205    1.394829
     10          1           0       -0.808118   -1.657523   -1.394786
 ---------------------------------------------------------------------

 SCF Done:  E(RHF) =  -475.350437836     A.U. after    2 cycles

 The electronic state is 1-A.
 Alpha  occ. eigenvalues --  -26.50927 -26.50927 -20.59645 -20.59644 -11.44098
 Alpha  occ. eigenvalues --  -11.44098  -7.66333  -7.66298  -1.64594  -1.64572
 Alpha  occ. eigenvalues --   -1.53078  -1.52969  -0.94284  -0.91257  -0.81878
 Alpha  occ. eigenvalues --   -0.79027  -0.73032  -0.72981  -0.71454  -0.71215
 Alpha  occ. eigenvalues --   -0.70314  -0.64881  -0.60576  -0.59927  -0.57829
 Alpha  occ. eigenvalues --   -0.55446  -0.51692  -0.48759  -0.48054
 Alpha virt. eigenvalues --    0.00797   0.01826   0.03135   0.03313   0.05299
 Alpha virt. eigenvalues --    0.05594   0.06593   0.07342   0.07347   0.08422
 Alpha virt. eigenvalues --    0.10851   0.11875   0.12860   0.13123   0.13817

 Mulliken charges:
               1
     1  B    0.038553
     2  B    0.038684
     3  C    1.469144
     4  O   -1.038024
     5  F   -0.705693
     6  C    1.469093
     7  O   -1.038049
     8  F   -0.705661
     9  H    0.235979
    10  H    0.235973
 Sum of Mulliken charges =  -0.00000

 Dipole moment (field-independent basis, Debye):
    X=              0.0001    Y=             -2.0954    Z=             -0.0009  Tot=              2.0954

 Test job not archived.
 1\1\GINC-SE177\SP\RHF\Aug-CC-pVDZ\C2H2B2F2O2\OHZDE\09-Apr-2025\0\\#t h
 f aug-cc-pvdz iop(5/13=1,5/36=2,99/5=2) pseudo=read geom=check guess=(
 read,tcheck) scf=(maxcycle=1)\\title\\0,1\B,0,0.690203,-0.950117,0.443
 412\B,0,-0.690283,-0.950294,-0.443035\C,0,1.948281,-0.093908,0.055964\
 O,0,2.835562,-0.400874,-0.66366\F,0,1.928313,1.130884,0.676648\C,0,-1.
 948345,-0.093888,-0.055975\O,0,-2.835874,-0.400709,0.663406\F,0,-1.927
 986,1.130918,-0.67662\H,0,-0.807784,-1.657205,-1.394829\H,0,0.808118,-
 1.657523,1.394786\\Version=ES64L-G16RevC.01\State=1-A\HF=-475.3504378\

 Normal termination of Gaussian 16 at Wed Apr  9 00:33:01 2025.
