 Gaussian 16, Revision C.01,

 ----------------------------------------------------------------------
 #t hf aug-cc-pvdz symm=none int=(grid=ultrafine) guess=(read,tcheck) s
 table=opt
 ----------------------------------------------------------------------
 -----
 title
 -----
 Symbolic Z-matrix:
 Charge =  0 Multiplicity = 2

 SCF Done:  E(UHF) =  -497.461065838     A.U. after   19 cycles
 Normal termination of Gaussian 16 at Wed Apr  9 00:11:08 2025.
 Gaussian 16:  ES64L-G16RevC.01  3-Jul-2019

 ----------------------------------------------------------------------
 #t hf aug-cc-pvdz iop(5/13=1,5/36=2,99/5=2) pseudo=read geom=check gue
 ss=(read,tcheck) scf=(maxcycle=1)
 ----------------------------------------------------------------------
 -----
 title
 -----
 Structure from the checkpoint file:  "BDE49_nonexpt_2371_mol3.chk"
 Charge =  0 Multiplicity = 2

                         Standard orientation:
 ---------------------------------------------------------------------
 Center     Atomic      Atomic             Coordinates (Angstroms)
 Number     Number       Type             X           Y           Z
 ---------------------------------------------------------------------
      1         14           0        1.860311   -0.396254   -0.000002
      2          6           0        0.031746    0.241353    0.000034
      3          1           0        2.512013    0.168521   -1.209610
      4          1           0        2.512048    0.168505    1.209593
      5          8           0       -0.102988    1.457138   -0.000004
      6          7           0       -1.000016   -0.640510    0.000002
      7          6           0       -2.400468   -0.237058   -0.000013
      8          1           0       -0.770690   -1.622310   -0.000001
      9          1           0       -2.431334    0.851027   -0.000089
     10          1           0       -2.915015   -0.608683    0.890400
     11          1           0       -2.915024   -0.608812   -0.890367
 ---------------------------------------------------------------------

 SCF Done:  E(UHF) =  -497.700382034     A.U. after    2 cycles

 The electronic state is 2-A.
 Alpha  occ. eigenvalues --  -69.55266 -20.51612 -15.53652 -11.34951 -11.27505
 Alpha  occ. eigenvalues --   -6.22388  -3.98343  -3.97423  -3.97413  -1.45931
 Alpha  occ. eigenvalues --   -1.24319  -0.97990  -0.83394  -0.79473  -0.68318
 Alpha  occ. eigenvalues --   -0.65675  -0.64489  -0.56511  -0.55957  -0.55493
 Alpha  occ. eigenvalues --   -0.49576  -0.42737  -0.42017  -0.34484
 Alpha virt. eigenvalues --    0.02796   0.04198   0.04793   0.05175   0.05941
 Alpha virt. eigenvalues --    0.06438   0.06974   0.07736   0.09055   0.11776
 Alpha virt. eigenvalues --    0.12301   0.12945   0.13911   0.14017   0.14467

  Beta  occ. eigenvalues --  -69.54722 -20.51367 -15.53673 -11.34824 -11.27511
  Beta  occ. eigenvalues --   -6.21564  -3.97078  -3.97045  -3.96194  -1.45367
  Beta  occ. eigenvalues --   -1.24303  -0.97906  -0.82953  -0.76952  -0.67556
  Beta  occ. eigenvalues --   -0.64500  -0.64161  -0.56475  -0.55248  -0.54802
  Beta  occ. eigenvalues --   -0.48647  -0.41970  -0.39637
  Beta virt. eigenvalues --    0.01190   0.03383   0.04709   0.04887   0.05493
  Beta virt. eigenvalues --    0.06016   0.06589   0.07539   0.08235   0.09495
  Beta virt. eigenvalues --    0.11996   0.12502   0.13303   0.14361   0.14630

 Mulliken charges and spin densities:
               1          2
     1  Si   0.745152   0.886020
     2  C    0.099568   0.054827
     3  H   -0.188282   0.033730
     4  H   -0.188281   0.033725
     5  O   -1.116799   0.033199
     6  N    0.516712  -0.039400
     7  C   -0.312299  -0.007389
     8  H    0.109130   0.005050
     9  H    0.074528  -0.000245
    10  H    0.130295   0.000241
    11  H    0.130275   0.000241
 Sum of Mulliken charges =  -0.00000   1.00000

 Dipole moment (field-independent basis, Debye):
    X=             -0.9121    Y=             -3.3529    Z=              0.0000  Tot=              3.4747
                          Isotropic Fermi Contact Couplings
        Atom                 a.u.       MegaHertz       Gauss      10(-4) cm-1
     1  Si(29)             0.54594    -485.19416    -173.12934    -161.84335
     2  C(13)              0.03072      34.53315      12.32229      11.51902
     3  H(1)               0.00631      28.21097      10.06638       9.41017
     4  H(1)               0.00631      28.20581      10.06453       9.40844
     5  O(17)              0.03194     -19.36419      -6.90962      -6.45920
     6  N(14)             -0.01291      -4.17099      -1.48831      -1.39129
     7  C(13)             -0.00079      -0.88514      -0.31584      -0.29525
     8  H(1)              -0.00021      -0.93236      -0.33269      -0.31100

 1\1\GINC-SE094\SP\UHF\Aug-CC-pVDZ\C2H6N1O1Si1(2)\OHZDE\09-Apr-2025\0\\
 #t hf aug-cc-pvdz iop(5/13=1,5/36=2,99/5=2) pseudo=read geom=check gue
 ss=(read,tcheck) scf=(maxcycle=1)\\title\\0,2\Si,0,1.860311,-0.396254,
 -0.000002\C,0,0.031746,0.241353,0.000034\H,0,2.512013,0.168521,-1.2096
 1\H,0,2.512048,0.168505,1.209593\O,0,-0.102988,1.457138,-0.000004\N,0,
 -1.000016,-0.64051,0.000002\C,0,-2.400468,-0.237058,-0.000013\H,0,-0.7
 7069,-1.62231,-0.000001\H,0,-2.431334,0.851027,-0.000089\H,0,-2.915015
 ,-0.608683,0.8904\H,0,-2.915024,-0.608812,-0.890367\\Version=ES64L-G16

 Normal termination of Gaussian 16 at Wed Apr  9 00:11:12 2025.
