 Gaussian 16, Revision C.01,

 ----------------------------------------------------------------------
 #t hf aug-cc-pvdz symm=none int=(grid=ultrafine) guess=(read,tcheck) s
 table=(opt,rrhf)
 ----------------------------------------------------------------------
 -----
 title
 -----
 Symbolic Z-matrix:
 Charge =  0 Multiplicity = 1

 SCF Done:  E(RHF) =  -647.778383372     A.U. after   18 cycles
 Normal termination of Gaussian 16 at Tue Apr  8 23:35:14 2025.
 Gaussian 16:  ES64L-G16RevC.01  3-Jul-2019

 ----------------------------------------------------------------------
 #t hf aug-cc-pvdz iop(5/13=1,5/36=2,99/5=2) pseudo=read geom=check gue
 ss=(read,tcheck) scf=(maxcycle=1)
 ----------------------------------------------------------------------
 -----
 title
 -----
 Structure from the checkpoint file:  "BDE49_nonexpt_1465_mol1.chk"
 Charge =  0 Multiplicity = 1

                         Standard orientation:
 ---------------------------------------------------------------------
 Center     Atomic      Atomic             Coordinates (Angstroms)
 Number     Number       Type             X           Y           Z
 ---------------------------------------------------------------------
      1          6           0        2.526294    0.497529    0.002918
      2          6           0        2.340540   -0.887434    0.014585
      3          6           0        1.054749   -1.427598    0.004180
      4          6           0        1.433052    1.358340   -0.011300
      5          6           0        0.139161    0.827700    0.000203
      6          6           0       -0.044814   -0.574300    0.010486
      7          1           0        3.531440    0.904005    0.000406
      8          1           0        3.201268   -1.546515    0.023888
      9          1           0        0.920112   -2.503930   -0.007376
     10          1           0        1.581416    2.432922   -0.027731
     11          6           0       -1.120736    1.564859    0.011132
     12          6           0       -2.226396    0.794728    0.042218
     13          1           0       -1.142238    2.650001   -0.003642
     14         15           0       -1.826541   -0.976767   -0.113605
     15          1           0       -3.239404    1.175376    0.045515
     16          1           0       -2.065581   -1.383309    1.226492
 ---------------------------------------------------------------------

 SCF Done:  E(RHF) =  -648.135533032     A.U. after    2 cycles

 The electronic state is 1-A.
 Alpha  occ. eigenvalues --  -84.27705 -11.25637 -11.25390 -11.25126 -11.24961
 Alpha  occ. eigenvalues --  -11.24879 -11.24849 -11.24774 -11.24620  -6.74847
 Alpha  occ. eigenvalues --   -4.27798  -4.27530  -4.26717  -1.17526  -1.09778
 Alpha  occ. eigenvalues --   -1.02827  -0.98597  -0.90407  -0.84334  -0.79245
 Alpha  occ. eigenvalues --   -0.76564  -0.69117  -0.66834  -0.63829  -0.60763
 Alpha  occ. eigenvalues --   -0.60048  -0.55757  -0.54099  -0.51416  -0.48996
 Alpha  occ. eigenvalues --   -0.46585  -0.43155  -0.37440  -0.32388  -0.31043
 Alpha virt. eigenvalues --    0.03389   0.03480   0.03816   0.04669   0.05140
 Alpha virt. eigenvalues --    0.06343   0.07442   0.07565   0.08390   0.08813
 Alpha virt. eigenvalues --    0.10447   0.10757   0.11413   0.12639   0.13068

 Mulliken charges:
               1
     1  C   -0.003563
     2  C    0.174358
     3  C   -0.173441
     4  C    0.868394
     5  C    0.139743
     6  C    0.073076
     7  H   -0.233616
     8  H   -0.224506
     9  H   -0.240783
    10  H   -0.253380
    11  C   -0.405609
    12  C   -0.442459
    13  H   -0.241236
    14  P    0.602851
    15  H   -0.233155
    16  H    0.593326
 Sum of Mulliken charges =   0.00000

 Dipole moment (field-independent basis, Debye):
    X=              0.2929    Y=              0.5169    Z=              0.4035  Tot=              0.7181

 Test job not archived.
 1\1\GINC-SE058\SP\RHF\Aug-CC-pVDZ\C8H7P1\OHZDE\08-Apr-2025\0\\#t hf au
 g-cc-pvdz iop(5/13=1,5/36=2,99/5=2) pseudo=read geom=check guess=(read
 ,tcheck) scf=(maxcycle=1)\\title\\0,1\C,0,2.526294,0.497529,0.002918\C
 ,0,2.34054,-0.887434,0.014585\C,0,1.054749,-1.427598,0.00418\C,0,1.433
 052,1.35834,-0.0113\C,0,0.139161,0.8277,0.000203\C,0,-0.044814,-0.5743
 ,0.010486\H,0,3.53144,0.904005,0.000406\H,0,3.201268,-1.546515,0.02388
 8\H,0,0.920112,-2.50393,-0.007376\H,0,1.581416,2.432922,-0.027731\C,0,
 -1.120736,1.564859,0.011132\C,0,-2.226396,0.794728,0.042218\H,0,-1.142

 Normal termination of Gaussian 16 at Tue Apr  8 23:35:22 2025.
