 Gaussian 16, Revision C.01,

 ----------------------------------------------------------------------
 #t hf aug-cc-pvdz symm=none int=(grid=ultrafine) guess=(read,tcheck) s
 table=(opt,rrhf)
 ----------------------------------------------------------------------
 -----
 title
 -----
 Symbolic Z-matrix:
 Charge =  0 Multiplicity = 1

 SCF Done:  E(RHF) =  -1070.65737284     A.U. after   14 cycles
 Normal termination of Gaussian 16 at Wed Apr  9 00:12:37 2025.
 Gaussian 16:  ES64L-G16RevC.01  3-Jul-2019

 ----------------------------------------------------------------------
 #t hf aug-cc-pvdz iop(5/13=1,5/36=2,99/5=2) pseudo=read geom=check gue
 ss=(read,tcheck) scf=(maxcycle=1)
 ----------------------------------------------------------------------
 -----
 title
 -----
 Structure from the checkpoint file:  "BDE49_nonexpt_2427_mol1.chk"
 Charge =  0 Multiplicity = 1

                         Standard orientation:
 ---------------------------------------------------------------------
 Center     Atomic      Atomic             Coordinates (Angstroms)
 Number     Number       Type             X           Y           Z
 ---------------------------------------------------------------------
      1         14           0        2.552073   -0.858311   -0.000002
      2         14           0        1.143831    1.034793    0.000197
      3          1           0        3.963561   -0.403405    0.000867
      4          1           0        2.302690   -1.675720   -1.209663
      5          1           0        2.301557   -1.676830    1.208674
      6          7           0       -0.508614    0.533521   -0.000721
      7          1           0        1.357983    1.867260   -1.204447
      8          1           0        1.357012    1.866336    1.205664
      9          6           0       -1.624564    0.115877   -0.000241
     10         16           0       -3.107361   -0.429894    0.000166
 ---------------------------------------------------------------------

 SCF Done:  E(RHF) =  -1070.87124900     A.U. after    2 cycles

 The electronic state is 1-A.
 Alpha  occ. eigenvalues --  -93.94924 -69.58282 -69.54310 -15.53772 -11.39071
 Alpha  occ. eigenvalues --   -8.23216  -6.25007  -6.21535  -6.21115  -6.20669
 Alpha  occ. eigenvalues --   -6.20668  -4.00465  -4.00302  -4.00296  -3.96887
 Alpha  occ. eigenvalues --   -3.96884  -3.96879  -1.28357  -1.07313  -0.89151
 Alpha  occ. eigenvalues --   -0.76418  -0.65316  -0.61449  -0.61375  -0.60678
 Alpha  occ. eigenvalues --   -0.52227  -0.50724  -0.49604  -0.44432  -0.38389
 Alpha  occ. eigenvalues --   -0.37712
 Alpha virt. eigenvalues --    0.03397   0.03496   0.04398   0.05371   0.06242
 Alpha virt. eigenvalues --    0.07104   0.07296   0.07621   0.07656   0.08478
 Alpha virt. eigenvalues --    0.08868   0.08969   0.10471   0.11321   0.11985

 Mulliken charges:
               1
     1  Si   0.342810
     2  Si   0.484083
     3  H   -0.169289
     4  H   -0.133328
     5  H   -0.133350
     6  N    0.583058
     7  H   -0.086596
     8  H   -0.086722
     9  C   -1.095319
    10  S    0.294653
 Sum of Mulliken charges =  -0.00000

 Dipole moment (field-independent basis, Debye):
    X=              2.5476    Y=              0.4422    Z=              0.0008  Tot=              2.5857

 Test job not archived.
 1\1\GINC-SE333\SP\RHF\Aug-CC-pVDZ\C1H5N1S1Si2\OHZDE\09-Apr-2025\0\\#t
 hf aug-cc-pvdz iop(5/13=1,5/36=2,99/5=2) pseudo=read geom=check guess=
 (read,tcheck) scf=(maxcycle=1)\\title\\0,1\Si,0,2.552073,-0.858311,-0.
 000002\Si,0,1.143831,1.034793,0.000197\H,0,3.963561,-0.403405,0.000867
 \H,0,2.30269,-1.67572,-1.209663\H,0,2.301557,-1.67683,1.208674\N,0,-0.
 508614,0.533521,-0.000721\H,0,1.357983,1.86726,-1.204447\H,0,1.357012,
 1.866336,1.205664\C,0,-1.624564,0.115877,-0.000241\S,0,-3.107361,-0.42
 9894,0.000166\\Version=ES64L-G16RevC.01\State=1-A\HF=-1070.871249\RMSD

 Normal termination of Gaussian 16 at Wed Apr  9 00:12:41 2025.
