 Gaussian 16, Revision C.01,

 ----------------------------------------------------------------------
 #t hf aug-cc-pvdz symm=none int=(grid=ultrafine) guess=(read,tcheck) s
 table=(opt,rrhf)
 ----------------------------------------------------------------------
 -----
 title
 -----
 Symbolic Z-matrix:
 Charge =  0 Multiplicity = 1

 SCF Done:  E(RHF) =  -282.881316126     A.U. after   14 cycles
 Normal termination of Gaussian 16 at Tue Apr  8 22:37:26 2025.
 Gaussian 16:  ES64L-G16RevC.01  3-Jul-2019

 ----------------------------------------------------------------------
 #t hf aug-cc-pvdz iop(5/13=1,5/36=2,99/5=2) pseudo=read geom=check gue
 ss=(read,tcheck) scf=(maxcycle=1)
 ----------------------------------------------------------------------
 -----
 title
 -----
 Structure from the checkpoint file:  "BDE49_expt_1203_mol1.chk"
 Charge =  0 Multiplicity = 1

                         Standard orientation:
 ---------------------------------------------------------------------
 Center     Atomic      Atomic             Coordinates (Angstroms)
 Number     Number       Type             X           Y           Z
 ---------------------------------------------------------------------
      1          7           0       -1.927077    0.085225   -0.000001
      2          6           0       -0.743341   -0.756055    0.000004
      3          6           0        0.636144   -0.098973   -0.000039
      4          1           0       -0.760753   -1.419676   -0.869988
      5          1           0       -0.760728   -1.419628    0.870034
      6          8           0        1.676959   -0.703699    0.000014
      7          8           0        0.574583    1.255606    0.000008
      8          1           0        1.492129    1.567992    0.000032
      9          1           0       -1.925143    0.694803   -0.811052
     10          1           0       -1.925122    0.694845    0.811018
 ---------------------------------------------------------------------

 SCF Done:  E(RHF) =  -283.167726124     A.U. after    2 cycles

 The electronic state is 1-A.
 Alpha  occ. eigenvalues --  -20.61038 -20.54348 -15.50289 -11.39937 -11.28899
 Alpha  occ. eigenvalues --   -1.55526  -1.45941  -1.20108  -0.98390  -0.83712
 Alpha  occ. eigenvalues --   -0.72245  -0.71569  -0.70950  -0.63721  -0.61403
 Alpha  occ. eigenvalues --   -0.59281  -0.55479  -0.49958  -0.47896  -0.42770
 Alpha virt. eigenvalues --    0.03185   0.04521   0.05209   0.05479   0.07219
 Alpha virt. eigenvalues --    0.09470   0.11053   0.11379   0.12371   0.14416
 Alpha virt. eigenvalues --    0.16047   0.16052   0.17277   0.18161   0.19162

 Mulliken charges:
               1
     1  N    0.141516
     2  C   -0.967917
     3  C    1.988791
     4  H    0.253549
     5  H    0.253533
     6  O   -1.261585
     7  O   -1.226692
     8  H    0.370756
     9  H    0.224020
    10  H    0.224029
 Sum of Mulliken charges =  -0.00000

 Dipole moment (field-independent basis, Debye):
    X=             -0.4737    Y=              1.8707    Z=             -0.0001  Tot=              1.9297

 Test job not archived.
 1\1\GINC-SE458\SP\RHF\Aug-CC-pVDZ\C2H5N1O2\OHZDE\08-Apr-2025\0\\#t hf
 aug-cc-pvdz iop(5/13=1,5/36=2,99/5=2) pseudo=read geom=check guess=(re
 ad,tcheck) scf=(maxcycle=1)\\title\\0,1\N,0,-1.927077,0.085225,-0.0000
 01\C,0,-0.743341,-0.756055,0.000004\C,0,0.636144,-0.098973,-0.000039\H
 ,0,-0.760753,-1.419676,-0.869988\H,0,-0.760728,-1.419628,0.870034\O,0,
 1.676959,-0.703698,0.000014\O,0,0.574583,1.255606,0.000008\H,0,1.49212
 9,1.567993,0.000032\H,0,-1.925143,0.694803,-0.811052\H,0,-1.925122,0.6
 94845,0.811018\\Version=ES64L-G16RevC.01\State=1-A\HF=-283.1677261\RMS

 Normal termination of Gaussian 16 at Tue Apr  8 22:37:29 2025.
