 Gaussian 16, Revision C.01,

 ----------------------------------------------------------------------
 #t hf aug-cc-pvdz symm=none int=(grid=ultrafine) guess=(read,tcheck) s
 table=opt
 ----------------------------------------------------------------------
 -----
 title
 -----
 Symbolic Z-matrix:
 Charge =  0 Multiplicity = 2

 SCF Done:  E(UHF) =  -727.230193575     A.U. after   16 cycles
 Normal termination of Gaussian 16 at Tue Apr  8 23:47:16 2025.
 Gaussian 16:  ES64L-G16RevC.01  3-Jul-2019

 ----------------------------------------------------------------------
 #t hf aug-cc-pvdz iop(5/13=1,5/36=2,99/5=2) pseudo=read geom=check gue
 ss=(read,tcheck) scf=(maxcycle=1)
 ----------------------------------------------------------------------
 -----
 title
 -----
 Structure from the checkpoint file:  "BDE49_nonexpt_1799_mol2.chk"
 Charge =  0 Multiplicity = 2

                         Standard orientation:
 ---------------------------------------------------------------------
 Center     Atomic      Atomic             Coordinates (Angstroms)
 Number     Number       Type             X           Y           Z
 ---------------------------------------------------------------------
      1         14           0        1.401497    0.288089   -0.102843
      2          6           0       -1.666536    0.684314   -0.032827
      3         16           0       -0.485898   -0.724679    0.042119
      4          1           0       -2.660416    0.261612    0.111193
      5          1           0       -1.623030    1.172989   -1.005255
      6          1           0       -1.464189    1.402639    0.760987
      7          1           0        2.416794   -0.758453    0.181902
      8          1           0        1.483470    1.376937    0.914040
 ---------------------------------------------------------------------

 SCF Done:  E(UHF) =  -727.366912855     A.U. after    2 cycles

 The electronic state is 2-A.
 Alpha  occ. eigenvalues --  -93.94297 -69.56136 -11.27666  -8.22578  -6.23082
 Alpha  occ. eigenvalues --   -6.20421  -6.20247  -6.20071  -3.98899  -3.98141
 Alpha  occ. eigenvalues --   -3.98052  -1.06020  -0.89196  -0.72463  -0.60576
 Alpha  occ. eigenvalues --   -0.60333  -0.52923  -0.48583  -0.45123  -0.40005
 Alpha  occ. eigenvalues --   -0.32180
 Alpha virt. eigenvalues --    0.03524   0.04176   0.05224   0.05625   0.06322
 Alpha virt. eigenvalues --    0.07609   0.08343   0.09285   0.11648   0.13129
 Alpha virt. eigenvalues --    0.13184   0.14158   0.15509   0.16485   0.17174

  Beta  occ. eigenvalues --  -93.94184 -69.55596 -11.27677  -8.22446  -6.22243
  Beta  occ. eigenvalues --   -6.20256  -6.20117  -6.19755  -3.97794  -3.97706
  Beta  occ. eigenvalues --   -3.96877  -1.05486  -0.88621  -0.68452  -0.60349
  Beta  occ. eigenvalues --   -0.60085  -0.52073  -0.47833  -0.43207  -0.37021
  Beta virt. eigenvalues --    0.01876   0.03787   0.04433   0.05284   0.06170
  Beta virt. eigenvalues --    0.06550   0.08254   0.08814   0.09736   0.11985
  Beta virt. eigenvalues --    0.13417   0.13725   0.14915   0.16123   0.16946

 Mulliken charges and spin densities:
               1          2
     1  Si   0.856602   0.841777
     2  C   -0.676082  -0.010136
     3  S   -0.305691   0.081758
     4  H    0.162468  -0.003091
     5  H    0.168598   0.004156
     6  H    0.143235  -0.000363
     7  H   -0.188038   0.029379
     8  H   -0.161092   0.056520
 Sum of Mulliken charges =  -0.00000   1.00000

 Dipole moment (field-independent basis, Debye):
    X=             -0.4917    Y=              1.5523    Z=             -0.0682  Tot=              1.6297
                          Isotropic Fermi Contact Couplings
        Atom                 a.u.       MegaHertz       Gauss      10(-4) cm-1
     1  Si(29)             0.64828    -576.14484    -205.58280    -192.18123
     2  C(13)             -0.00028      -0.32034      -0.11431      -0.10685
     3  S(33)              0.04151      14.25695       5.08723       4.75561
     4  H(1)              -0.00024      -1.08776      -0.38814      -0.36284
     5  H(1)               0.00080       3.56623       1.27252       1.18957
     6  H(1)               0.00017       0.75748       0.27029       0.25267
     7  H(1)               0.00645      28.82484      10.28542       9.61493
     8  H(1)               0.01563      69.85626      24.92645      23.30154

 Normal termination of Gaussian 16 at Tue Apr  8 23:47:19 2025.
