 Gaussian 16, Revision C.01,

 ----------------------------------------------------------------------
 #t hf aug-cc-pvdz symm=none int=(grid=ultrafine) guess=(read,tcheck) s
 table=(opt,rrhf)
 ----------------------------------------------------------------------
 -----
 title
 -----
 Symbolic Z-matrix:
 Charge =  0 Multiplicity = 1

 SCF Done:  E(RHF) =  -1913.70550534     A.U. after   11 cycles
 Normal termination of Gaussian 16 at Tue Apr  8 22:47:31 2025.
 Gaussian 16:  ES64L-G16RevC.01  3-Jul-2019

 ----------------------------------------------------------------------
 #t hf aug-cc-pvdz iop(5/13=1,5/36=2,99/5=2) pseudo=read geom=check gue
 ss=(read,tcheck) scf=(maxcycle=1)
 ----------------------------------------------------------------------
 -----
 title
 -----
 Structure from the checkpoint file:  "BDE49_expt_1627_mol1.chk"
 Charge =  0 Multiplicity = 1

                         Standard orientation:
 ---------------------------------------------------------------------
 Center     Atomic      Atomic             Coordinates (Angstroms)
 Number     Number       Type             X           Y           Z
 ---------------------------------------------------------------------
      1          6           0        0.362572    0.564965    0.000000
      2          6           0       -0.362572   -0.564965    0.000000
      3         17           0        2.089916    0.558826    0.000000
      4         17           0       -0.362572    2.132739    0.000000
      5         17           0        0.362572   -2.132739    0.000000
      6         17           0       -2.089916   -0.558826    0.000000
 ---------------------------------------------------------------------

 SCF Done:  E(RHF) =  -1914.08040125     A.U. after    2 cycles

 The electronic state is 1-AG.
 Alpha  occ. eigenvalues -- -105.61177-105.61176-105.61176-105.61175 -11.40042
 Alpha  occ. eigenvalues --  -11.39931 -10.65992 -10.65990 -10.65987 -10.65987
 Alpha  occ. eigenvalues --   -7.82967  -7.82966  -7.82962  -7.82949  -7.82512
 Alpha  occ. eigenvalues --   -7.82512  -7.82504  -7.82503  -7.82499  -7.82498
 Alpha  occ. eigenvalues --   -7.82497  -7.82494  -1.24516  -1.15992  -1.10384
 Alpha  occ. eigenvalues --   -1.07341  -0.97904  -0.75735  -0.69407  -0.67908
 Alpha  occ. eigenvalues --   -0.62925  -0.59152  -0.54609  -0.52592  -0.51652
 Alpha  occ. eigenvalues --   -0.51121  -0.50343  -0.49681  -0.46346  -0.37826
 Alpha virt. eigenvalues --    0.05781   0.07249   0.07255   0.08598   0.09294
 Alpha virt. eigenvalues --    0.11156   0.11646   0.12391   0.13317   0.14628
 Alpha virt. eigenvalues --    0.14697   0.14939   0.16916   0.17221   0.17696

 Mulliken charges:
               1
     1  C    0.074549
     2  C    0.074549
     3  Cl  -0.037276
     4  Cl  -0.037274
     5  Cl  -0.037274
     6  Cl  -0.037276
 Sum of Mulliken charges =  -0.00000

 Dipole moment (field-independent basis, Debye):
    X=             -0.0000    Y=             -0.0000    Z=             -0.0000  Tot=              0.0000

 Test job not archived.
 1\1\GINC-SE093\SP\RHF\Aug-CC-pVDZ\C2Cl4\OHZDE\08-Apr-2025\0\\#t hf aug
 -cc-pvdz iop(5/13=1,5/36=2,99/5=2) pseudo=read geom=check guess=(read,
 tcheck) scf=(maxcycle=1)\\title\\0,1\C,0,-0.000001,-0.6713,0.\C,0,0.00
 0001,0.6713,0.\Cl,0,1.457043,-1.599081,0.\Cl,0,-1.457043,-1.599081,0.\
 Cl,0,1.457043,1.599081,0.\Cl,0,-1.457043,1.599081,0.\\Version=ES64L-G1
 6RevC.01\State=1-AG\HF=-1914.0804012\RMSD=9.523e-03\Dipole=0.,0.,0.\Qu
 adrupole=1.4438055,-0.1932988,-1.2505067,0.0000229,0.,0.\PG=C02H [SGH(
 C2Cl4)]\\@

 Normal termination of Gaussian 16 at Tue Apr  8 22:47:33 2025.
