 Gaussian 16, Revision C.01,

 ----------------------------------------------------------------------
 #t hf aug-cc-pvdz symm=none int=(grid=ultrafine) guess=(read,tcheck) s
 table=opt
 ----------------------------------------------------------------------
 -----
 title
 -----
 Symbolic Z-matrix:
 Charge =  0 Multiplicity = 2

 SCF Done:  E(UHF) =  -233.608605445     A.U. after   19 cycles
 Normal termination of Gaussian 16 at Wed Apr  9 00:33:45 2025.
 Gaussian 16:  ES64L-G16RevC.01  3-Jul-2019

 ----------------------------------------------------------------------
 #t hf aug-cc-pvdz iop(5/13=1,5/36=2,99/5=2) pseudo=read geom=check gue
 ss=(read,tcheck) scf=(maxcycle=1)
 ----------------------------------------------------------------------
 -----
 title
 -----
 Structure from the checkpoint file:  "BDE49_nonexpt_424_mol2.chk"
 Charge =  0 Multiplicity = 2

                         Standard orientation:
 ---------------------------------------------------------------------
 Center     Atomic      Atomic             Coordinates (Angstroms)
 Number     Number       Type             X           Y           Z
 ---------------------------------------------------------------------
      1          9           0        1.913617   -0.002003   -0.000002
      2          5           0        0.613101   -0.004470    0.000006
      3          7           0       -0.636896    0.052327   -0.000003
      4          7           0       -1.922816   -0.156819   -0.000000
      5          1           0       -2.370079    0.771812    0.000010
 ---------------------------------------------------------------------

 SCF Done:  E(UHF) =  -233.826680171     A.U. after    2 cycles

 The electronic state is 2-A.
 Alpha  occ. eigenvalues --  -26.52817 -15.57266 -15.52734  -7.70640  -1.65673
 Alpha  occ. eigenvalues --   -1.32616  -1.06195  -0.80955  -0.78534  -0.72424
 Alpha  occ. eigenvalues --   -0.71805  -0.65684  -0.64537  -0.42974  -0.41286
 Alpha virt. eigenvalues --    0.03271   0.05217   0.05306   0.05520   0.07247
 Alpha virt. eigenvalues --    0.14162   0.15917   0.17617   0.18057   0.18306
 Alpha virt. eigenvalues --    0.19354   0.20779   0.23267   0.23830   0.25001

  Beta  occ. eigenvalues --  -26.52711 -15.54139 -15.53270  -7.70179  -1.65431
  Beta  occ. eigenvalues --   -1.28508  -1.01265  -0.80541  -0.76567  -0.71481
  Beta  occ. eigenvalues --   -0.70886  -0.62101  -0.54149  -0.41879
  Beta virt. eigenvalues --    0.03400   0.05154   0.05238   0.05339   0.06133
  Beta virt. eigenvalues --    0.07331   0.14349   0.16340   0.18256   0.18520
  Beta virt. eigenvalues --    0.19414   0.20351   0.20890   0.24135   0.25205

 Mulliken charges and spin densities:
               1          2
     1  F   -0.781848   0.012303
     2  B    0.618493   0.253706
     3  N    0.033501  -0.134327
     4  N   -0.014447   0.939001
     5  H    0.144300  -0.070683
 Sum of Mulliken charges =  -0.00000   1.00000

 Dipole moment (field-independent basis, Debye):
    X=              1.2708    Y=              1.3750    Z=              0.0000  Tot=              1.8723
                          Isotropic Fermi Contact Couplings
        Atom                 a.u.       MegaHertz       Gauss      10(-4) cm-1
     1  F(19)              0.01173      49.36123      17.61331      16.46513
     2  B(11)              0.02533      36.33054      12.96364      12.11856
     3  N(14)             -0.15544     -50.22179     -17.92038     -16.75219
     4  N(14)              0.29059      93.89062      33.50251      31.31854
     5  H(1)              -0.02219     -99.17491     -35.38807     -33.08119
 --------------------------------------------------------
       Center         ----  Spin Dipole Couplings  ----
                      3XX-RR        3YY-RR        3ZZ-RR

 Normal termination of Gaussian 16 at Wed Apr  9 00:33:46 2025.
