 Gaussian 16, Revision C.01,

 ----------------------------------------------------------------------
 #t hf aug-cc-pvdz symm=none int=(grid=ultrafine) guess=(read,tcheck) s
 table=opt
 ----------------------------------------------------------------------
 -----
 title
 -----
 Symbolic Z-matrix:
 Charge =  0 Multiplicity = 2

 SCF Done:  E(UHF) =  -631.959476410     A.U. after   15 cycles

 1\1\GINC-SE084\Stability\UHF\Aug-CC-pVDZ\H4P1Si1\OHZDE\08-Apr-2025\0\\
 #t hf aug-cc-pvdz symm=none int=(grid=ultrafine) guess=(read,tcheck) s
 table=opt\\title\\0,2\Si,0,1.144602,0.014648,-0.091854\P,0,-1.129049,-
 0.110282,-0.032925\H,0,1.748357,1.172263,0.619299\H,0,1.734416,-1.2480
 05,0.418729\H,0,-1.317086,1.18972,-0.570698\H,0,-1.254368,0.335187,1.3
 12508\\Version=ES64L-G16RevC.01\HF=-631.9594764\S2=0.756094\S2-1=0.\S2
 A=0.750018\RMSD=7.547e-09\Dipole=0.1171218,0.25482,0.1244079\Quadrupol
 e=-0.6224369,-0.0379941,0.660431,-1.089838,-0.4348178,-0.4467169\PG=Un

 Normal termination of Gaussian 16 at Tue Apr  8 23:53:58 2025.
 Gaussian 16:  ES64L-G16RevC.01  3-Jul-2019

 ----------------------------------------------------------------------
 #t hf aug-cc-pvdz iop(5/13=1,5/36=2,99/5=2) pseudo=read geom=check gue
 ss=(read,tcheck) scf=(maxcycle=1)
 ----------------------------------------------------------------------
 -----
 title
 -----
 Structure from the checkpoint file:  "BDE49_nonexpt_1951_mol2.chk"
 Charge =  0 Multiplicity = 2

                         Standard orientation:
 ---------------------------------------------------------------------
 Center     Atomic      Atomic             Coordinates (Angstroms)
 Number     Number       Type             X           Y           Z
 ---------------------------------------------------------------------
      1         14           0        1.144602    0.014648   -0.091854
      2         15           0       -1.129049   -0.110282   -0.032925
      3          1           0        1.748357    1.172263    0.619299
      4          1           0        1.734416   -1.248005    0.418729
      5          1           0       -1.317086    1.189720   -0.570698
      6          1           0       -1.254368    0.335187    1.312508
 ---------------------------------------------------------------------

 SCF Done:  E(UHF) =  -632.037196857     A.U. after    2 cycles

 The electronic state is 2-A.
 Alpha  occ. eigenvalues --  -84.27444 -69.55149  -6.74678  -6.22254  -4.26847
 Alpha  occ. eigenvalues --   -4.26764  -4.26246  -3.98192  -3.97294  -3.97248
 Alpha  occ. eigenvalues --   -0.87855  -0.71726  -0.52240  -0.50847  -0.44974
 Alpha  occ. eigenvalues --   -0.35904  -0.33156
 Alpha virt. eigenvalues --    0.03762   0.04340   0.06001   0.06261   0.07952
 Alpha virt. eigenvalues --    0.08426   0.09323   0.10569   0.11290   0.12007
 Alpha virt. eigenvalues --    0.15123   0.15368   0.16893   0.18189   0.19158

  Beta  occ. eigenvalues --  -84.27441 -69.54578  -6.74669  -6.21394  -4.26854
  Beta  occ. eigenvalues --   -4.26737  -4.26266  -3.96884  -3.96848  -3.96001
  Beta  occ. eigenvalues --   -0.86904  -0.67422  -0.51332  -0.49884  -0.43929
  Beta  occ. eigenvalues --   -0.35316
  Beta virt. eigenvalues --    0.01873   0.04006   0.04576   0.06252   0.06838
  Beta virt. eigenvalues --    0.08163   0.09323   0.10058   0.10723   0.11773
  Beta virt. eigenvalues --    0.12288   0.16047   0.16490   0.18730   0.19797

 Mulliken charges and spin densities:
               1          2
     1  Si   0.799396   1.030424
     2  P   -1.144215  -0.024479
     3  H   -0.160766   0.002846
     4  H   -0.195871  -0.016206
     5  H    0.355599  -0.008567
     6  H    0.345857   0.015981
 Sum of Mulliken charges =  -0.00000   1.00000

 Dipole moment (field-independent basis, Debye):
    X=             -0.1256    Y=              0.3510    Z=              0.2375  Tot=              0.4420
                          Isotropic Fermi Contact Couplings
        Atom                 a.u.       MegaHertz       Gauss      10(-4) cm-1
     1  Si(29)             0.55484    -493.10322    -175.95149    -164.48153
     2  P(31)              0.02391      43.30470      15.45219      14.44489
     3  H(1)               0.00249      11.12831       3.97086       3.71201
     4  H(1)              -0.00210      -9.38309      -3.34812      -3.12986
     5  H(1)               0.00095       4.23635       1.51164       1.41310
     6  H(1)               0.01041      46.55308      16.61130      15.52844
 --------------------------------------------------------
       Center         ----  Spin Dipole Couplings  ----

 Normal termination of Gaussian 16 at Tue Apr  8 23:54:01 2025.
