 Gaussian 16, Revision C.01,

 ----------------------------------------------------------------------
 #t hf aug-cc-pvdz symm=none int=(grid=ultrafine) guess=(read,tcheck) s
 table=(opt,rrhf)
 ----------------------------------------------------------------------
 -----
 title
 -----
 Symbolic Z-matrix:
 Charge =  0 Multiplicity = 1

 SCF Done:  E(RHF) =  -701.411060429     A.U. after   16 cycles
 Normal termination of Gaussian 16 at Tue Apr  8 23:18:50 2025.
 Gaussian 16:  ES64L-G16RevC.01  3-Jul-2019

 ----------------------------------------------------------------------
 #t hf aug-cc-pvdz iop(5/13=1,5/36=2,99/5=2) pseudo=read geom=check gue
 ss=(read,tcheck) scf=(maxcycle=1)
 ----------------------------------------------------------------------
 -----
 title
 -----
 Structure from the checkpoint file:  "BDE49_nonexpt_1068_mol1.chk"
 Charge =  0 Multiplicity = 1

                         Standard orientation:
 ---------------------------------------------------------------------
 Center     Atomic      Atomic             Coordinates (Angstroms)
 Number     Number       Type             X           Y           Z
 ---------------------------------------------------------------------
      1         17           0        1.723008   -0.442052    0.036440
      2          8           0        0.547658    0.892594   -0.319442
      3          6           0       -1.540784    0.002408    0.021125
      4          8           0       -2.510763   -0.613773   -0.109073
      5          7           0       -0.620228    0.752839    0.383126
 ---------------------------------------------------------------------

 SCF Done:  E(RHF) =  -701.714107776     A.U. after    2 cycles

 The electronic state is 1-A.
 Alpha  occ. eigenvalues -- -105.64459 -20.70715 -20.66008 -15.60711 -11.46192
 Alpha  occ. eigenvalues --  -10.68663  -7.85609  -7.85076  -7.85050  -1.60472
 Alpha  occ. eigenvalues --   -1.55970  -1.24873  -1.05460  -0.82158  -0.77466
 Alpha  occ. eigenvalues --   -0.72862  -0.72372  -0.63850  -0.62744  -0.53983
 Alpha  occ. eigenvalues --   -0.50736  -0.47826  -0.46626
 Alpha virt. eigenvalues --    0.00767   0.05595   0.08400   0.08699   0.09162
 Alpha virt. eigenvalues --    0.11412   0.12211   0.13616   0.14086   0.16823
 Alpha virt. eigenvalues --    0.18214   0.19456   0.20531   0.24090   0.24617

 Mulliken charges:
               1
     1  Cl   0.306432
     2  O   -1.064967
     3  C    0.423651
     4  O   -0.661708
     5  N    0.996591
 Sum of Mulliken charges =  -0.00000

 Dipole moment (field-independent basis, Debye):
    X=             -0.2055    Y=             -0.8549    Z=             -0.5947  Tot=              1.0615

 Test job not archived.
 1\1\GINC-SE177\SP\RHF\Aug-CC-pVDZ\C1Cl1N1O2\OHZDE\08-Apr-2025\0\\#t hf
  aug-cc-pvdz iop(5/13=1,5/36=2,99/5=2) pseudo=read geom=check guess=(r
 ead,tcheck) scf=(maxcycle=1)\\title\\0,1\Cl,0,1.723008,-0.442052,0.036
 44\O,0,0.547658,0.892594,-0.319442\C,0,-1.540784,0.002408,0.021125\O,0
 ,-2.510763,-0.613773,-0.109073\N,0,-0.620228,0.752839,0.383126\\Versio
 n=ES64L-G16RevC.01\State=1-A\HF=-701.7141078\RMSD=1.199e-02\Dipole=-0.
 0808613,-0.3363349,-0.2339821\Quadrupole=0.4066527,-0.3753669,-0.03128
 58,-1.4571357,0.3195322,-0.7116019\PG=C01 [X(C1Cl1N1O2)]\\@

 Normal termination of Gaussian 16 at Tue Apr  8 23:18:53 2025.
