 Gaussian 16, Revision C.01,

 ----------------------------------------------------------------------
 #t hf aug-cc-pvdz symm=none int=(grid=ultrafine) guess=(read,tcheck) s
 table=(opt,rrhf)
 ----------------------------------------------------------------------
 -----
 title
 -----
 Symbolic Z-matrix:
 Charge =  0 Multiplicity = 1

 SCF Done:  E(RHF) =  -572.039554015     A.U. after   16 cycles
 Normal termination of Gaussian 16 at Tue Apr  8 23:27:20 2025.
 Gaussian 16:  ES64L-G16RevC.01  3-Jul-2019

 ----------------------------------------------------------------------
 #t hf aug-cc-pvdz iop(5/13=1,5/36=2,99/5=2) pseudo=read geom=check gue
 ss=(read,tcheck) scf=(maxcycle=1)
 ----------------------------------------------------------------------
 -----
 title
 -----
 Structure from the checkpoint file:  "BDE49_nonexpt_1292_mol1.chk"
 Charge =  0 Multiplicity = 1

                         Standard orientation:
 ---------------------------------------------------------------------
 Center     Atomic      Atomic             Coordinates (Angstroms)
 Number     Number       Type             X           Y           Z
 ---------------------------------------------------------------------
      1          6           0       -1.630600   -1.196658    0.000291
      2          6           0       -0.235474   -1.205629   -0.001550
      3          6           0        0.488295   -0.008243   -0.001212
      4          6           0       -2.318308    0.012538    0.001171
      5          6           0       -1.608034    1.213683    0.000443
      6          6           0       -0.216975    1.203489   -0.000505
      7          1           0       -2.175737   -2.133937    0.000316
      8          1           0        0.295577   -2.151496   -0.003706
      9          1           0        0.324415    2.143003   -0.000622
     10          1           0       -3.402496    0.022747    0.001985
     11          1           0       -2.140009    2.158709    0.000742
     12         15           0        2.336213   -0.120013   -0.002873
     13          1           0        2.590315    0.791532    1.055938
     14          1           0        2.591309    0.854542   -1.003393
 ---------------------------------------------------------------------

 SCF Done:  E(RHF) =  -572.323670569     A.U. after    2 cycles

 The electronic state is 1-A.
 Alpha  occ. eigenvalues --  -84.27499 -11.25362 -11.25149 -11.25106 -11.25070
 Alpha  occ. eigenvalues --  -11.24879 -11.24794  -6.74553  -4.27326  -4.26791
 Alpha  occ. eigenvalues --   -4.26590  -1.16026  -1.03085  -1.02278  -0.88153
 Alpha  occ. eigenvalues --   -0.84050  -0.80093  -0.71013  -0.64870  -0.64050
 Alpha  occ. eigenvalues --   -0.60525  -0.56847  -0.53578  -0.51162  -0.49189
 Alpha  occ. eigenvalues --   -0.47276  -0.35201  -0.35083  -0.34847
 Alpha virt. eigenvalues --    0.03434   0.03715   0.04027   0.05283   0.05784
 Alpha virt. eigenvalues --    0.06542   0.07611   0.08694   0.08991   0.09789
 Alpha virt. eigenvalues --    0.11228   0.11421   0.12667   0.13104   0.14303

 Mulliken charges:
               1
     1  C    0.494274
     2  C   -0.615865
     3  C    0.343682
     4  C   -0.012634
     5  C    0.570810
     6  C    0.148014
     7  H   -0.205695
     8  H   -0.219733
     9  H   -0.234409
    10  H   -0.206657
    11  H   -0.215621
    12  P   -0.643474
    13  H    0.402802
    14  H    0.394505
 Sum of Mulliken charges =  -0.00000

 Dipole moment (field-independent basis, Debye):
    X=             -0.9472    Y=              0.4649    Z=              0.0129  Tot=              1.0552

 Test job not archived.
 1\1\GINC-SE094\SP\RHF\Aug-CC-pVDZ\C6H7P1\OHZDE\08-Apr-2025\0\\#t hf au
 g-cc-pvdz iop(5/13=1,5/36=2,99/5=2) pseudo=read geom=check guess=(read
 ,tcheck) scf=(maxcycle=1)\\title\\0,1\C,0,-1.6306,-1.196658,0.000291\C
 ,0,-0.235474,-1.205629,-0.00155\C,0,0.488295,-0.008243,-0.001212\C,0,-
 2.318308,0.012538,0.001171\C,0,-1.608034,1.213683,0.000443\C,0,-0.2169
 75,1.203489,-0.000505\H,0,-2.175737,-2.133937,0.000316\H,0,0.295577,-2
 .151496,-0.003706\H,0,0.324415,2.143003,-0.000622\H,0,-3.402496,0.0227
 47,0.001985\H,0,-2.140009,2.158709,0.000742\P,0,2.336213,-0.120013,-0.

 Normal termination of Gaussian 16 at Tue Apr  8 23:27:25 2025.
