 Gaussian 16, Revision C.01,

 ----------------------------------------------------------------------
 #t hf aug-cc-pvdz symm=none int=(grid=ultrafine) guess=(read,tcheck) s
 table=opt
 ----------------------------------------------------------------------
 -----
 title
 -----
 Symbolic Z-matrix:
 Charge =  0 Multiplicity = 2

 SCF Done:  E(UHF) =  -266.247085196     A.U. after   18 cycles
 Normal termination of Gaussian 16 at Tue Apr  8 22:49:38 2025.
 Gaussian 16:  ES64L-G16RevC.01  3-Jul-2019

 ----------------------------------------------------------------------
 #t hf aug-cc-pvdz iop(5/13=1,5/36=2,99/5=2) pseudo=read geom=check gue
 ss=(read,tcheck) scf=(maxcycle=1)
 ----------------------------------------------------------------------
 -----
 title
 -----
 Structure from the checkpoint file:  "BDE49_expt_1717_mol2.chk"
 Charge =  0 Multiplicity = 2

                         Standard orientation:
 ---------------------------------------------------------------------
 Center     Atomic      Atomic             Coordinates (Angstroms)
 Number     Number       Type             X           Y           Z
 ---------------------------------------------------------------------
      1          6           0       -0.525448    0.125760   -0.000143
      2          8           0       -0.407930    1.336648    0.000056
      3          6           0       -1.786905   -0.581669    0.000029
      4          8           0        0.532776   -0.727218   -0.000050
      5          1           0       -1.819706   -1.662106    0.000022
      6          1           0       -2.696923    0.000505    0.000188
      7          6           0        1.824468   -0.101071    0.000040
      8          1           0        2.544631   -0.916467    0.000107
      9          1           0        1.950202    0.522270    0.887536
     10          1           0        1.950334    0.522243   -0.887457
 ---------------------------------------------------------------------

 SCF Done:  E(UHF) =  -266.513605749     A.U. after    2 cycles

 The electronic state is 2-A.
 Alpha  occ. eigenvalues --  -20.58715 -20.54909 -11.38393 -11.29563 -11.28265
 Alpha  occ. eigenvalues --   -1.54115  -1.45870  -1.05869  -0.94932  -0.78729
 Alpha  occ. eigenvalues --   -0.71409  -0.69169  -0.67500  -0.61775  -0.58655
 Alpha  occ. eigenvalues --   -0.58003  -0.53263  -0.47575  -0.46140  -0.41722
 Alpha virt. eigenvalues --    0.03626   0.04273   0.05008   0.06030   0.06371
 Alpha virt. eigenvalues --    0.09078   0.11239   0.12700   0.14078   0.14362
 Alpha virt. eigenvalues --    0.14946   0.15686   0.16055   0.17931   0.18410

  Beta  occ. eigenvalues --  -20.58719 -20.53638 -11.39050 -11.29570 -11.26032
  Beta  occ. eigenvalues --   -1.53549  -1.43694  -1.01493  -0.92060  -0.77968
  Beta  occ. eigenvalues --   -0.70375  -0.68170  -0.66809  -0.60721  -0.58042
  Beta  occ. eigenvalues --   -0.54319  -0.53020  -0.44660  -0.43306
  Beta virt. eigenvalues --    0.03676   0.03864   0.04347   0.05024   0.06208
  Beta virt. eigenvalues --    0.06380   0.09088   0.12738   0.13165   0.14145
  Beta virt. eigenvalues --    0.14442   0.15323   0.15934   0.16252   0.18055

 Mulliken charges and spin densities:
               1          2
     1  C    2.046223  -0.366006
     2  O   -1.159544   0.301984
     3  C   -0.266996   1.240347
     4  O   -1.243693   0.007640
     5  H   -0.032339  -0.091156
     6  H    0.006378  -0.088354
     7  C    0.318454  -0.005053
     8  H    0.003467  -0.000284
     9  H    0.164014   0.000440
    10  H    0.164037   0.000442
 Sum of Mulliken charges =  -0.00000   1.00000

 Dipole moment (field-independent basis, Debye):
    X=              0.1557    Y=             -1.8632    Z=             -0.0001  Tot=              1.8697
                          Isotropic Fermi Contact Couplings
        Atom                 a.u.       MegaHertz       Gauss      10(-4) cm-1
     1  C(13)             -0.08935    -100.45181     -35.84370     -33.50712
     2  O(17)              0.09650     -58.49862     -20.87376     -19.51304
     3  C(13)              0.18023     202.60940      72.29607      67.58322
     4  O(17)             -0.00916       5.55057       1.98058       1.85147
     5  H(1)              -0.02240    -100.11689     -35.72419     -33.39540
     6  H(1)              -0.02213     -98.91573     -35.29559     -32.99474
     7  C(13)             -0.00164      -1.83831      -0.65595      -0.61319
     8  H(1)               0.00012       0.55522       0.19812       0.18520

 Normal termination of Gaussian 16 at Tue Apr  8 22:49:41 2025.
