 Gaussian 16, Revision C.01,

 ----------------------------------------------------------------------
 #t hf aug-cc-pvdz symm=none int=(grid=ultrafine) guess=(read,tcheck) s
 table=(opt,rrhf)
 ----------------------------------------------------------------------
 -----
 title
 -----
 Symbolic Z-matrix:
 Charge =  0 Multiplicity = 1

 SCF Done:  E(RHF) =  -749.695975091     A.U. after   12 cycles
 Normal termination of Gaussian 16 at Tue Apr  8 23:42:15 2025.
 Gaussian 16:  ES64L-G16RevC.01  3-Jul-2019

 ----------------------------------------------------------------------
 #t hf aug-cc-pvdz iop(5/13=1,5/36=2,99/5=2) pseudo=read geom=check gue
 ss=(read,tcheck) scf=(maxcycle=1)
 ----------------------------------------------------------------------
 -----
 title
 -----
 Structure from the checkpoint file:  "BDE49_nonexpt_1668_mol1.chk"
 Charge =  0 Multiplicity = 1

                         Standard orientation:
 ---------------------------------------------------------------------
 Center     Atomic      Atomic             Coordinates (Angstroms)
 Number     Number       Type             X           Y           Z
 ---------------------------------------------------------------------
      1         15           0        1.960193    0.214507   -0.625329
      2         14           0        0.391011   -0.469514    0.894197
      3          6           0       -1.371648   -0.123472    0.277817
      4          6           0       -1.649638    1.381970    0.112908
      5          1           0       -1.040294    1.815941   -0.686652
      6          1           0       -1.442463    1.941340    1.029735
      7          6           0       -1.713807   -0.904834   -1.003467
      8          1           0       -2.698464    1.556004   -0.150512
      9          1           0       -2.017433   -0.497693    1.084780
     10          1           0       -2.757898   -0.738888   -1.290382
     11          1           0       -1.090196   -0.587241   -1.844894
     12          1           0       -1.573191   -1.981695   -0.875620
     13          1           0        3.049396   -0.097921    0.230274
     14          1           0        1.926222    1.578598   -0.232442
     15          1           0        0.589416    0.177642    2.216272
     16          1           0        0.588406   -1.932472    1.057075
 ---------------------------------------------------------------------

 SCF Done:  E(RHF) =  -749.912260334     A.U. after    2 cycles

 The electronic state is 1-A.
 Alpha  occ. eigenvalues --  -84.26111 -69.53133 -11.23385 -11.23187 -11.23108
 Alpha  occ. eigenvalues --   -6.73368  -6.20179  -4.25780  -4.25599  -4.25042
 Alpha  occ. eigenvalues --   -3.95517  -3.95481  -3.95450  -1.06388  -0.93602
 Alpha  occ. eigenvalues --   -0.86737  -0.81266  -0.69051  -0.62737  -0.59318
 Alpha  occ. eigenvalues --   -0.57445  -0.54796  -0.51088  -0.49707  -0.49316
 Alpha  occ. eigenvalues --   -0.47907  -0.44095  -0.40780  -0.34126
 Alpha virt. eigenvalues --    0.03479   0.04053   0.04266   0.04422   0.06172
 Alpha virt. eigenvalues --    0.06337   0.06523   0.06980   0.07757   0.09426
 Alpha virt. eigenvalues --    0.09905   0.10057   0.10408   0.11433   0.12099

 Mulliken charges:
               1
     1  P   -1.251213
     2  Si   0.915023
     3  C   -0.713614
     4  C   -0.246744
     5  H    0.178534
     6  H    0.122851
     7  C   -0.269824
     8  H    0.131617
     9  H    0.176244
    10  H    0.148019
    11  H    0.174510
    12  H    0.115561
    13  H    0.337814
    14  H    0.370459
    15  H   -0.086453
    16  H   -0.102785
 Sum of Mulliken charges =   0.00000

 Dipole moment (field-independent basis, Debye):
    X=             -0.8293    Y=              0.2294    Z=              0.2108  Tot=              0.8859

 Test job not archived.
 1\1\GINC-SE090\SP\RHF\Aug-CC-pVDZ\C3H11P1Si1\OHZDE\08-Apr-2025\0\\#t h
 f aug-cc-pvdz iop(5/13=1,5/36=2,99/5=2) pseudo=read geom=check guess=(
 read,tcheck) scf=(maxcycle=1)\\title\\0,1\P,0,-1.960193,0.214507,0.625
 329\Si,0,-0.391011,-0.469514,-0.894197\C,0,1.371648,-0.123472,-0.27781
 7\C,0,1.649638,1.38197,-0.112908\H,0,1.040294,1.815941,0.686652\H,0,1.
 442463,1.94134,-1.029735\C,0,1.713807,-0.904834,1.003467\H,0,2.698464,
 1.556004,0.150512\H,0,2.017433,-0.497693,-1.08478\H,0,2.757898,-0.7388
 88,1.290382\H,0,1.090196,-0.587241,1.844894\H,0,1.573191,-1.981695,0.8

 Normal termination of Gaussian 16 at Tue Apr  8 23:42:21 2025.
