 Gaussian 16, Revision C.01,

 ----------------------------------------------------------------------
 #t hf aug-cc-pvdz symm=none int=(grid=ultrafine) guess=(read,tcheck) s
 table=(opt,rrhf)
 ----------------------------------------------------------------------
 -----
 title
 -----
 Symbolic Z-matrix:
 Charge =  0 Multiplicity = 1

 SCF Done:  E(RHF) =  -504.747707358     A.U. after   15 cycles
 Normal termination of Gaussian 16 at Wed Apr  9 00:40:58 2025.
 Gaussian 16:  ES64L-G16RevC.01  3-Jul-2019

 ----------------------------------------------------------------------
 #t hf aug-cc-pvdz iop(5/13=1,5/36=2,99/5=2) pseudo=read geom=check gue
 ss=(read,tcheck) scf=(maxcycle=1)
 ----------------------------------------------------------------------
 -----
 title
 -----
 Structure from the checkpoint file:  "BDE49_nonexpt_631_mol1.chk"
 Charge =  0 Multiplicity = 1

                         Standard orientation:
 ---------------------------------------------------------------------
 Center     Atomic      Atomic             Coordinates (Angstroms)
 Number     Number       Type             X           Y           Z
 ---------------------------------------------------------------------
      1          9           0        0.070495    2.121833   -0.000002
      2          8           0        2.535241    0.836466    0.000002
      3          8           0        2.356158   -1.501737    0.000001
      4          6           0       -0.556708   -1.455476    0.000000
      5          1           0       -0.005235   -2.388046    0.000001
      6          6           0       -1.964140    0.948522   -0.000001
      7          1           0       -2.476985    1.902082   -0.000002
      8          6           0       -2.651525   -0.262274   -0.000001
      9          1           0       -3.735421   -0.261157   -0.000001
     10          6           0        0.175844   -0.255398    0.000000
     11          6           0       -1.947448   -1.466226    0.000000
     12          1           0       -2.483417   -2.408029    0.000000
     13          6           0       -0.580324    0.914332   -0.000001
     14          5           0        1.748464   -0.278684    0.000000
     15          1           0        3.315540   -1.418230    0.000002
     16          1           0        2.023360    1.651592    0.000003
 ---------------------------------------------------------------------

 SCF Done:  E(RHF) =  -505.246598473     A.U. after    2 cycles

 The electronic state is 1-A.
 Alpha  occ. eigenvalues --  -26.48978 -20.55440 -20.55408 -11.34738 -11.26734
 Alpha  occ. eigenvalues --  -11.26103 -11.25729 -11.25076 -11.23659  -7.64697
 Alpha  occ. eigenvalues --   -1.61433  -1.48035  -1.43806  -1.16956  -1.03943
 Alpha  occ. eigenvalues --   -1.02722  -0.86987  -0.85269  -0.78243  -0.74909
 Alpha  occ. eigenvalues --   -0.72721  -0.70675  -0.68488  -0.68348  -0.63411
 Alpha  occ. eigenvalues --   -0.62421  -0.60483  -0.57293  -0.57146  -0.55819
 Alpha  occ. eigenvalues --   -0.53019  -0.51804  -0.49247  -0.49016  -0.36452
 Alpha  occ. eigenvalues --   -0.35549
 Alpha virt. eigenvalues --    0.03187   0.03725   0.04153   0.05156   0.05178
 Alpha virt. eigenvalues --    0.05619   0.07088   0.07477   0.08253   0.09500
 Alpha virt. eigenvalues --    0.10356   0.10678   0.12471   0.13012   0.13748

 Mulliken charges:
               1
     1  F   -1.097399
     2  O   -1.495776
     3  O   -1.334695
     4  C    0.274112
     5  H   -0.330030
     6  C    0.082728
     7  H   -0.215614
     8  C    0.477604
     9  H   -0.205963
    10  C   -0.169724
    11  C    0.237206
    12  H   -0.207336
    13  C    1.491929
    14  B    1.306940
    15  H    0.487877
    16  H    0.698142
 Sum of Mulliken charges =  -0.00000

 Dipole moment (field-independent basis, Debye):
    X=             -1.4818    Y=             -0.1847    Z=              0.0000  Tot=              1.4932

 Test job not archived.
 1\1\GINC-SE222\SP\RHF\Aug-CC-pVDZ\C6H6B1F1O2\OHZDE\09-Apr-2025\0\\#t h
 f aug-cc-pvdz iop(5/13=1,5/36=2,99/5=2) pseudo=read geom=check guess=(
 read,tcheck) scf=(maxcycle=1)\\title\\0,1\F,0,-0.070495,2.121833,0.000
 002\O,0,-2.535241,0.836466,-0.000002\O,0,-2.356158,-1.501737,-0.000001
 \C,0,0.556708,-1.455476,0.\H,0,0.005235,-2.388046,-0.000001\C,0,1.9641
 4,0.948522,0.000001\H,0,2.476985,1.902082,0.000002\C,0,2.651525,-0.262
 274,0.000001\H,0,3.735421,-0.261156,0.000001\C,0,-0.175844,-0.255398,0
 .\C,0,1.947448,-1.466226,0.\H,0,2.483417,-2.408029,0.\C,0,0.580324,0.9

 Normal termination of Gaussian 16 at Wed Apr  9 00:41:06 2025.
