 Gaussian 16, Revision C.01,

 ----------------------------------------------------------------------
 #t hf aug-cc-pvdz symm=none int=(grid=ultrafine) guess=(read,tcheck) s
 table=(opt,rrhf)
 ----------------------------------------------------------------------
 -----
 title
 -----
 Symbolic Z-matrix:
 Charge =  0 Multiplicity = 1

 SCF Done:  E(RHF) =  -1045.17259819     A.U. after   15 cycles
 Normal termination of Gaussian 16 at Tue Apr  8 23:17:50 2025.
 Gaussian 16:  ES64L-G16RevC.01  3-Jul-2019

 ----------------------------------------------------------------------
 #t hf aug-cc-pvdz iop(5/13=1,5/36=2,99/5=2) pseudo=read geom=check gue
 ss=(read,tcheck) scf=(maxcycle=1)
 ----------------------------------------------------------------------
 -----
 title
 -----
 Structure from the checkpoint file:  "BDE49_nonexpt_1057_mol1.chk"
 Charge =  0 Multiplicity = 1

                         Standard orientation:
 ---------------------------------------------------------------------
 Center     Atomic      Atomic             Coordinates (Angstroms)
 Number     Number       Type             X           Y           Z
 ---------------------------------------------------------------------
      1         17           0       -2.124016   -0.172721    0.000000
      2          8           0       -0.458714   -0.666830   -0.000006
      3          6           0        0.438807    0.366321   -0.000012
      4          8           0        0.204939    1.528912   -0.000004
      5         16           0        2.051218   -0.431866    0.000008
      6          1           0        2.686136    0.751545    0.000024
 ---------------------------------------------------------------------

 SCF Done:  E(RHF) =  -1045.48188978     A.U. after    2 cycles

 The electronic state is 1-A.
 Alpha  occ. eigenvalues -- -105.65309 -94.00431 -20.67825 -20.58022 -11.45470
 Alpha  occ. eigenvalues --  -10.69457  -8.28574  -7.86457  -7.85852  -7.85840
 Alpha  occ. eigenvalues --   -6.26403  -6.26246  -6.26011  -1.58263  -1.50333
 Alpha  occ. eigenvalues --   -1.10935  -1.04497  -0.82844  -0.71927  -0.71523
 Alpha  occ. eigenvalues --   -0.69266  -0.58910  -0.57529  -0.56079  -0.50329
 Alpha  occ. eigenvalues --   -0.47709  -0.46629  -0.42314
 Alpha virt. eigenvalues --    0.03342   0.04591   0.07398   0.08643   0.10022
 Alpha virt. eigenvalues --    0.10213   0.11713   0.11749   0.14120   0.14979
 Alpha virt. eigenvalues --    0.15373   0.16415   0.16542   0.17862   0.21484

 Mulliken charges:
               1
     1  Cl   0.436794
     2  O   -0.973487
     3  C    1.010494
     4  O   -0.918696
     5  S    0.042829
     6  H    0.402067
 Sum of Mulliken charges =  -0.00000

 Dipole moment (field-independent basis, Debye):
    X=              0.9945    Y=             -0.5428    Z=              0.0000  Tot=              1.1330

 Test job not archived.
 1\1\GINC-SE253\SP\RHF\Aug-CC-pVDZ\C1H1Cl1O2S1\OHZDE\08-Apr-2025\0\\#t
 hf aug-cc-pvdz iop(5/13=1,5/36=2,99/5=2) pseudo=read geom=check guess=
 (read,tcheck) scf=(maxcycle=1)\\title\\0,1\Cl,0,-2.124016,-0.172721,0.
 \O,0,-0.458714,-0.66683,-0.000006\C,0,0.438807,0.366321,-0.000012\O,0,
 0.204939,1.528912,-0.000004\S,0,2.051218,-0.431866,0.000008\H,0,2.6861
 36,0.751545,0.000024\\Version=ES64L-G16RevC.01\State=1-A\HF=-1045.4818
 898\RMSD=6.520e-03\Dipole=0.391261,-0.2135371,0.0000026\Quadrupole=5.1
 909789,-3.6927967,-1.4981822,1.1777098,0.0000586,0.0000216\PG=C01 [X(C

 Normal termination of Gaussian 16 at Tue Apr  8 23:17:53 2025.
