 Gaussian 16, Revision C.01,

 ----------------------------------------------------------------------
 #t hf aug-cc-pvdz symm=none int=(grid=ultrafine) guess=(read,tcheck) s
 table=(opt,rrhf)
 ----------------------------------------------------------------------
 -----
 title
 -----
 Symbolic Z-matrix:
 Charge =  0 Multiplicity = 1

 SCF Done:  E(RHF) =  -951.875343087     A.U. after   16 cycles
 Normal termination of Gaussian 16 at Tue Apr  8 23:18:19 2025.
 Gaussian 16:  ES64L-G16RevC.01  3-Jul-2019

 ----------------------------------------------------------------------
 #t hf aug-cc-pvdz iop(5/13=1,5/36=2,99/5=2) pseudo=read geom=check gue
 ss=(read,tcheck) scf=(maxcycle=1)
 ----------------------------------------------------------------------
 -----
 title
 -----
 Structure from the checkpoint file:  "BDE49_expt_421_mol1.chk"
 Charge =  0 Multiplicity = 1

                         Standard orientation:
 ---------------------------------------------------------------------
 Center     Atomic      Atomic             Coordinates (Angstroms)
 Number     Number       Type             X           Y           Z
 ---------------------------------------------------------------------
      1          7           0       -0.234439    2.343441   -0.505109
      2          6           0       -1.941691    0.641970    0.303979
      3          6           0        1.786365    0.393897   -0.108465
      4          6           0        1.165424   -0.495681   -0.985796
      5          6           0        2.867981   -0.039730    0.665341
      6          6           0        1.619144   -1.808436   -1.081360
      7          6           0        2.703551   -2.240246   -0.319544
      8          6           0        3.327641   -1.348971    0.551494
      9          6           0       -2.805699    0.241365   -0.721095
     10          6           0       -1.582788   -0.292264    1.279337
     11          6           0       -2.063464   -1.598218    1.225542
     12          6           0       -2.913571   -1.988810    0.193111
     13          6           0       -3.285937   -1.064450   -0.781420
     14          1           0       -3.957548   -1.357733   -1.580810
     15          1           0       -3.114160    0.961139   -1.474104
     16          1           0       -1.773054   -2.311190    1.988984
     17          1           0       -3.289665   -3.004856    0.151756
     18          1           0       -0.915800    0.003941    2.081959
     19          1           0        0.320913   -0.171904   -1.581572
     20          1           0        1.122591   -2.495041   -1.758102
     21          1           0        3.055845   -3.262050   -0.400559
     22          1           0        4.167482   -1.675239    1.155164
     23          1           0        3.345864    0.644955    1.358571
     24         16           0        1.346156    2.135475    0.021497
     25          6           0       -1.403827    2.059847    0.339942
     26          1           0       -1.126851    2.331049    1.360273
     27          1           0       -2.192569    2.752173    0.024996
     28          1           0       -0.379242    2.251432   -1.501133
 ---------------------------------------------------------------------

 SCF Done:  E(RHF) =  -952.505721996     A.U. after    2 cycles

 The electronic state is 1-A.
 Alpha  occ. eigenvalues --  -93.97786 -15.51938 -11.27748 -11.26882 -11.24790
 Alpha  occ. eigenvalues --  -11.24732 -11.24576 -11.24542 -11.24514 -11.24485
 Alpha  occ. eigenvalues --  -11.24450 -11.24389 -11.24218 -11.24175 -11.24005
 Alpha  occ. eigenvalues --   -8.25428  -6.23276  -6.23035  -6.22846  -1.23147
 Alpha  occ. eigenvalues --   -1.16184  -1.15398  -1.05820  -1.02995  -1.01909
 Alpha  occ. eigenvalues --   -1.01795  -0.96257  -0.90001  -0.84007  -0.83714
 Alpha  occ. eigenvalues --   -0.81828  -0.80919  -0.72736  -0.71560  -0.68400
 Alpha  occ. eigenvalues --   -0.65738  -0.64902  -0.64785  -0.64335  -0.62114
 Alpha  occ. eigenvalues --   -0.60594  -0.60140  -0.59922  -0.56109  -0.53415
 Alpha  occ. eigenvalues --   -0.52805  -0.52097  -0.51139  -0.50639  -0.50165
 Alpha  occ. eigenvalues --   -0.48397  -0.41337  -0.40639  -0.35316  -0.34692
 Alpha  occ. eigenvalues --   -0.34334  -0.31033
 Alpha virt. eigenvalues --    0.02943   0.03087   0.03617   0.03948   0.04388
 Alpha virt. eigenvalues --    0.04870   0.05039   0.05599   0.06503   0.06791
 Alpha virt. eigenvalues --    0.07685   0.08203   0.08748   0.09641   0.09817

 Mulliken charges:
               1
     1  N    0.480902
     2  C    1.883941
     3  C    0.578370
     4  C    0.262163
     5  C   -0.087999
     6  C   -0.005645
     7  C    0.039650
     8  C    0.343213
     9  C   -0.031664
    10  C    0.414987
    11  C   -0.087935
    12  C    0.169224
    13  C    0.020207
    14  H   -0.243900
    15  H   -0.354084
    16  H   -0.290769
    17  H   -0.236254
    18  H   -0.392107
    19  H   -0.374350
    20  H   -0.287356
    21  H   -0.228747
    22  H   -0.224791
    23  H   -0.265463
    24  S    0.142188
    25  C   -1.338981
    26  H   -0.001615
    27  H    0.018613
    28  H    0.098202
 Sum of Mulliken charges =  -0.00000

 Dipole moment (field-independent basis, Debye):
    X=             -1.2355    Y=             -1.7357    Z=             -0.3276  Tot=              2.1555

 Test job not archived.
 1\1\GINC-SE108\SP\RHF\Aug-CC-pVDZ\C13H13N1S1\OHZDE\08-Apr-2025\0\\#t h
 f aug-cc-pvdz iop(5/13=1,5/36=2,99/5=2) pseudo=read geom=check guess=(
 read,tcheck) scf=(maxcycle=1)\\title\\0,1\N,0,-0.234439,2.343441,-0.50
 5109\C,0,-1.941691,0.64197,0.303979\C,0,1.786365,0.393897,-0.108465\C,
 0,1.165424,-0.495681,-0.985796\C,0,2.867981,-0.03973,0.665341\C,0,1.61
 9144,-1.808436,-1.08136\C,0,2.703551,-2.240246,-0.319544\C,0,3.327641,
 -1.348971,0.551494\C,0,-2.805699,0.241365,-0.721095\C,0,-1.582788,-0.2
 92264,1.279337\C,0,-2.063464,-1.598218,1.225542\C,0,-2.913571,-1.98881

 Normal termination of Gaussian 16 at Tue Apr  8 23:18:54 2025.
