 Gaussian 16, Revision C.01,

 ----------------------------------------------------------------------
 #t hf aug-cc-pvdz symm=none int=(grid=ultrafine) guess=(read,tcheck) s
 table=(opt,rrhf)
 ----------------------------------------------------------------------
 -----
 title
 -----
 Symbolic Z-matrix:
 Charge =  0 Multiplicity = 1

 SCF Done:  E(RHF) =  -754.923126990     A.U. after   15 cycles
 Normal termination of Gaussian 16 at Tue Apr  8 23:32:00 2025.
 Gaussian 16:  ES64L-G16RevC.01  3-Jul-2019

 ----------------------------------------------------------------------
 #t hf aug-cc-pvdz iop(5/13=1,5/36=2,99/5=2) pseudo=read geom=check gue
 ss=(read,tcheck) scf=(maxcycle=1)
 ----------------------------------------------------------------------
 -----
 title
 -----
 Structure from the checkpoint file:  "BDE49_nonexpt_1399_mol1.chk"
 Charge =  0 Multiplicity = 1

                         Standard orientation:
 ---------------------------------------------------------------------
 Center     Atomic      Atomic             Coordinates (Angstroms)
 Number     Number       Type             X           Y           Z
 ---------------------------------------------------------------------
      1          6           0        1.313352   -0.483755   -0.116141
      2         15           0        0.011924   -1.834847   -0.155255
      3          6           0       -1.294256   -0.520279    0.147119
      4          7           0       -0.706818    0.731165    0.098797
      5          7           0        0.692685    0.754790   -0.159320
      6          8           0       -2.487954   -0.702217    0.248252
      7          8           0        2.512869   -0.640281   -0.064091
      8          6           0        1.419667    1.930412    0.313925
      9          1           0        1.170505    2.808328   -0.282904
     10          1           0        2.477395    1.704366    0.199514
     11          1           0        1.198275    2.124695    1.368830
     12          6           0       -1.481612    1.890518   -0.329689
     13          1           0       -2.528600    1.612372   -0.228663
     14          1           0       -1.261785    2.136276   -1.373919
     15          1           0       -1.279489    2.756932    0.301832
     16          1           0        0.201539   -2.183343    1.203221
 ---------------------------------------------------------------------

 SCF Done:  E(RHF) =  -755.378780836     A.U. after    2 cycles

 The electronic state is 1-A.
 Alpha  occ. eigenvalues --  -84.31430 -20.54300 -20.54094 -15.58692 -15.58117
 Alpha  occ. eigenvalues --  -11.38665 -11.38631 -11.29206 -11.29103  -6.78684
 Alpha  occ. eigenvalues --   -4.31152  -4.31086  -4.30428  -1.49241  -1.48697
 Alpha  occ. eigenvalues --   -1.35934  -1.18341  -1.05337  -0.96383  -0.94358
 Alpha  occ. eigenvalues --   -0.86992  -0.75647  -0.72557  -0.72302  -0.67559
 Alpha  occ. eigenvalues --   -0.67204  -0.64218  -0.63089  -0.59773  -0.58420
 Alpha  occ. eigenvalues --   -0.57750  -0.56486  -0.55752  -0.49914  -0.46582
 Alpha  occ. eigenvalues --   -0.40385  -0.39860  -0.38653
 Alpha virt. eigenvalues --    0.02953   0.04197   0.04287   0.04413   0.05634
 Alpha virt. eigenvalues --    0.05968   0.07140   0.07312   0.08077   0.09126
 Alpha virt. eigenvalues --    0.09516   0.11222   0.12388   0.12654   0.13137

 Mulliken charges:
               1
     1  C    0.296714
     2  P    0.502583
     3  C    0.291720
     4  N    0.256442
     5  N    0.297129
     6  O   -1.196591
     7  O   -1.208114
     8  C   -0.283722
     9  H    0.153685
    10  H    0.020963
    11  H    0.208800
    12  C   -0.271551
    13  H   -0.002731
    14  H    0.212180
    15  H    0.178664
    16  H    0.543829
 Sum of Mulliken charges =  -0.00000

 Dipole moment (field-independent basis, Debye):
    X=              0.0161    Y=              2.3680    Z=              0.0783  Tot=              2.3693

 Test job not archived.
 1\1\GINC-SE339\SP\RHF\Aug-CC-pVDZ\C4H7N2O2P1\OHZDE\08-Apr-2025\0\\#t h
 f aug-cc-pvdz iop(5/13=1,5/36=2,99/5=2) pseudo=read geom=check guess=(
 read,tcheck) scf=(maxcycle=1)\\title\\0,1\C,0,1.313352,-0.483756,-0.11
 6141\P,0,0.011923,-1.834847,-0.155255\C,0,-1.294256,-0.520278,0.147119
 \N,0,-0.706818,0.731165,0.098797\N,0,0.692685,0.75479,-0.15932\O,0,-2.
 487955,-0.702216,0.248252\O,0,2.512869,-0.640282,-0.064091\C,0,1.41966
 8,1.930411,0.313925\H,0,1.170506,2.808327,-0.282904\H,0,2.477396,1.704
 365,0.199514\H,0,1.198276,2.124694,1.36883\C,0,-1.481611,1.890519,-0.3

 Normal termination of Gaussian 16 at Tue Apr  8 23:32:08 2025.
