 Gaussian 16, Revision C.01,

 ----------------------------------------------------------------------
 #t hf aug-cc-pvdz symm=none int=(grid=ultrafine) guess=(read,tcheck) s
 table=(opt,rrhf)
 ----------------------------------------------------------------------
 -----
 title
 -----
 Symbolic Z-matrix:
 Charge =  0 Multiplicity = 1

 SCF Done:  E(RHF) =  -362.054363820     A.U. after   12 cycles
 Normal termination of Gaussian 16 at Wed Apr  9 00:36:49 2025.
 Gaussian 16:  ES64L-G16RevC.01  3-Jul-2019

 ----------------------------------------------------------------------
 #t hf aug-cc-pvdz iop(5/13=1,5/36=2,99/5=2) pseudo=read geom=check gue
 ss=(read,tcheck) scf=(maxcycle=1)
 ----------------------------------------------------------------------
 -----
 title
 -----
 Structure from the checkpoint file:  "BDE49_nonexpt_545_mol1.chk"
 Charge =  0 Multiplicity = 1

                         Standard orientation:
 ---------------------------------------------------------------------
 Center     Atomic      Atomic             Coordinates (Angstroms)
 Number     Number       Type             X           Y           Z
 ---------------------------------------------------------------------
      1          1           0       -0.562202    2.112676    1.040566
      2          1           0       -0.562202    2.112676   -1.040566
      3          9           0        1.319096    0.010876    0.000000
      4          9           0       -0.454211   -0.679254    1.084503
      5          9           0       -0.454211   -0.679254   -1.084503
      6          6           0       -0.050101    0.018636   -0.000000
      7          5           0       -0.454211    1.558305   -0.000000
 ---------------------------------------------------------------------

 SCF Done:  E(RHF) =  -362.387957604     A.U. after    2 cycles

 The electronic state is 1-A'.
 Alpha  occ. eigenvalues --  -26.50488 -26.50285 -26.50282 -11.49867  -7.65321
 Alpha  occ. eigenvalues --   -1.70411  -1.60611  -1.60604  -0.97085  -0.84229
 Alpha  occ. eigenvalues --   -0.79951  -0.79856  -0.68873  -0.68180  -0.68151
 Alpha  occ. eigenvalues --   -0.63454  -0.63334  -0.61710  -0.54560  -0.52522
 Alpha virt. eigenvalues --    0.01777   0.04156   0.04373   0.05577   0.07563
 Alpha virt. eigenvalues --    0.09851   0.09852   0.12130   0.13428   0.15835
 Alpha virt. eigenvalues --    0.19506   0.21933   0.23471   0.24497   0.25056

 Mulliken charges:
               1
     1  H    0.141764
     2  H    0.141764
     3  F   -0.735386
     4  F   -0.732005
     5  F   -0.732005
     6  C    1.993493
     7  B   -0.077626
 Sum of Mulliken charges =   0.00000

 Dipole moment (field-independent basis, Debye):
    X=             -0.7854    Y=              1.9632    Z=              0.0000  Tot=              2.1144

 Test job not archived.
 1\1\GINC-SE329\SP\RHF\Aug-CC-pVDZ\C1H2B1F3\OHZDE\09-Apr-2025\0\\#t hf
 aug-cc-pvdz iop(5/13=1,5/36=2,99/5=2) pseudo=read geom=check guess=(re
 ad,tcheck) scf=(maxcycle=1)\\title\\0,1\H,0,-0.562202,2.112676,1.04056
 6\H,0,-0.562202,2.112676,-1.040566\F,0,1.319096,0.010876,0.\F,0,-0.454
 211,-0.679254,1.084503\F,0,-0.454211,-0.679254,-1.084503\C,0,-0.050101
 ,0.018636,0.\B,0,-0.454211,1.558305,0.\\Version=ES64L-G16RevC.01\State
 =1-A'\HF=-362.3879576\RMSD=3.509e-03\Dipole=-0.3090038,0.7723642,0.\Qu
 adrupole=0.3113411,0.8132858,-1.124627,-0.5634149,0.,0.\PG=CS [SG(C1B1

 Normal termination of Gaussian 16 at Wed Apr  9 00:36:50 2025.
