 Gaussian 16, Revision C.01,

 ----------------------------------------------------------------------
 #t hf aug-cc-pvdz symm=none int=(grid=ultrafine) guess=(read,tcheck) s
 table=(opt,rrhf)
 ----------------------------------------------------------------------
 -----
 title
 -----
 Symbolic Z-matrix:
 Charge =  0 Multiplicity = 1

 SCF Done:  E(RHF) =  -801.723384991     A.U. after   15 cycles
 Normal termination of Gaussian 16 at Tue Apr  8 23:19:18 2025.
 Gaussian 16:  ES64L-G16RevC.01  3-Jul-2019

 ----------------------------------------------------------------------
 #t hf aug-cc-pvdz iop(5/13=1,5/36=2,99/5=2) pseudo=read geom=check gue
 ss=(read,tcheck) scf=(maxcycle=1)
 ----------------------------------------------------------------------
 -----
 title
 -----
 Structure from the checkpoint file:  "BDE49_nonexpt_1074_mol1.chk"
 Charge =  0 Multiplicity = 1

                         Standard orientation:
 ---------------------------------------------------------------------
 Center     Atomic      Atomic             Coordinates (Angstroms)
 Number     Number       Type             X           Y           Z
 ---------------------------------------------------------------------
      1         17           0        2.144436   -0.561082    0.022206
      2          8           0        0.509622   -0.491837   -0.553300
      3          6           0       -0.396885    0.021932    0.463050
      4          8           0       -1.642521   -0.248980   -0.064027
      5          8           0       -0.235136    1.354838    0.695367
      6          6           0       -2.014317   -1.629897   -0.063365
      7          1           0       -3.055678   -1.663729   -0.378564
      8          1           0       -1.926669   -2.053193    0.944333
      9          1           0       -1.397247   -2.204827   -0.756237
     10          6           0       -0.478333    2.222644   -0.424565
     11          1           0       -0.185471    3.216181   -0.091179
     12          1           0       -1.535319    2.215885   -0.696144
     13          1           0        0.128190    1.925775   -1.282505
     14          1           0       -0.201725   -0.497948    1.407751
 ---------------------------------------------------------------------

 SCF Done:  E(RHF) =  -802.143336122     A.U. after    2 cycles

 The electronic state is 1-A.
 Alpha  occ. eigenvalues -- -105.61828 -20.62587 -20.57369 -20.56743 -11.41427
 Alpha  occ. eigenvalues --  -11.29935 -11.28629 -10.66044  -7.83028  -7.82501
 Alpha  occ. eigenvalues --   -7.82477  -1.55912  -1.46395  -1.45082  -1.03648
 Alpha  occ. eigenvalues --   -0.98799  -0.95302  -0.84717  -0.73992  -0.72114
 Alpha  occ. eigenvalues --   -0.71468  -0.64330  -0.62835  -0.60244  -0.59101
 Alpha  occ. eigenvalues --   -0.57964  -0.55676  -0.52224  -0.50145  -0.48238
 Alpha  occ. eigenvalues --   -0.45335  -0.45111  -0.44195
 Alpha virt. eigenvalues --    0.03633   0.04403   0.04692   0.05488   0.06536
 Alpha virt. eigenvalues --    0.06717   0.07207   0.07712   0.11190   0.11769
 Alpha virt. eigenvalues --    0.12785   0.13704   0.14860   0.15288   0.15619

 Mulliken charges:
               1
     1  Cl   0.245779
     2  O   -1.172921
     3  C    2.619646
     4  O   -1.350569
     5  O   -1.390008
     6  C    0.148797
     7  H    0.001182
     8  H    0.175801
     9  H    0.185467
    10  C    0.054514
    11  H   -0.018836
    12  H    0.185925
    13  H    0.195726
    14  H    0.119498
 Sum of Mulliken charges =  -0.00000

 Dipole moment (field-independent basis, Debye):
    X=             -1.4197    Y=             -0.6797    Z=              0.0427  Tot=              1.5746

 Test job not archived.
 1\1\GINC-SE227\SP\RHF\Aug-CC-pVDZ\C3H7Cl1O3\OHZDE\08-Apr-2025\0\\#t hf
  aug-cc-pvdz iop(5/13=1,5/36=2,99/5=2) pseudo=read geom=check guess=(r
 ead,tcheck) scf=(maxcycle=1)\\title\\0,1\Cl,0,2.144436,-0.561082,0.022
 206\O,0,0.509622,-0.491837,-0.5533\C,0,-0.396885,0.021932,0.46305\O,0,
 -1.642521,-0.24898,-0.064027\O,0,-0.235136,1.354838,0.695367\C,0,-2.01
 4317,-1.629897,-0.063365\H,0,-3.055678,-1.663729,-0.378564\H,0,-1.9266
 69,-2.053193,0.944333\H,0,-1.397247,-2.204827,-0.756237\C,0,-0.478333,
 2.222644,-0.424565\H,0,-0.185471,3.216181,-0.091179\H,0,-1.535319,2.21

 Normal termination of Gaussian 16 at Tue Apr  8 23:19:23 2025.
