 Gaussian 16, Revision C.01,

 ----------------------------------------------------------------------
 #t hf aug-cc-pvdz symm=none int=(grid=ultrafine) guess=(read,tcheck) s
 table=(opt,rrhf)
 ----------------------------------------------------------------------
 -----
 title
 -----
 Symbolic Z-matrix:
 Charge =  0 Multiplicity = 1

 SCF Done:  E(RHF) =  -663.502849458     A.U. after   14 cycles
 Normal termination of Gaussian 16 at Tue Apr  8 23:52:35 2025.
 Gaussian 16:  ES64L-G16RevC.01  3-Jul-2019

 ----------------------------------------------------------------------
 #t hf aug-cc-pvdz iop(5/13=1,5/36=2,99/5=2) pseudo=read geom=check gue
 ss=(read,tcheck) scf=(maxcycle=1)
 ----------------------------------------------------------------------
 -----
 title
 -----
 Structure from the checkpoint file:  "BDE49_nonexpt_1914_mol1.chk"
 Charge =  0 Multiplicity = 1

                         Standard orientation:
 ---------------------------------------------------------------------
 Center     Atomic      Atomic             Coordinates (Angstroms)
 Number     Number       Type             X           Y           Z
 ---------------------------------------------------------------------
      1         14           0        0.363964    1.107337    0.240731
      2          6           0       -0.624136   -0.304728    1.022730
      3          8           0       -1.451948   -1.013474    0.030865
      4          6           0       -2.564686   -0.439774   -0.275408
      5          7           0       -3.570409    0.055084   -0.564776
      6          8           0        1.586912    0.443239   -0.738540
      7          1           0        0.999788    1.891518    1.314404
      8          1           0       -0.436587    1.898968   -0.698330
      9          6           0        2.517699   -0.352361   -0.344271
     10          7           0        3.358264   -1.072525   -0.007008
     11          1           0       -1.264240    0.046970    1.837188
     12          1           0        0.037581   -1.075038    1.422090
 ---------------------------------------------------------------------

 SCF Done:  E(RHF) =  -663.893408361     A.U. after    2 cycles

 The electronic state is 1-A.
 Alpha  occ. eigenvalues --  -69.63147 -20.66694 -20.65594 -15.52575 -15.52354
 Alpha  occ. eigenvalues --  -11.36371 -11.35807 -11.35491  -6.29765  -4.05247
 Alpha  occ. eigenvalues --   -4.05067  -4.05053  -1.58969  -1.57989  -1.24633
 Alpha  occ. eigenvalues --   -1.24548  -1.03436  -0.90128  -0.82340  -0.75349
 Alpha  occ. eigenvalues --   -0.72576  -0.70354  -0.68730  -0.66372  -0.62657
 Alpha  occ. eigenvalues --   -0.62036  -0.60605  -0.55319  -0.55158  -0.50462
 Alpha  occ. eigenvalues --   -0.49837  -0.48834  -0.46651
 Alpha virt. eigenvalues --    0.02232   0.02965   0.03382   0.04415   0.06044
 Alpha virt. eigenvalues --    0.06606   0.07331   0.08590   0.09174   0.10393
 Alpha virt. eigenvalues --    0.11332   0.12144   0.12412   0.12632   0.13099

 Mulliken charges:
               1
     1  Si   1.717643
     2  C    0.024831
     3  O   -1.023719
     4  C   -0.433009
     5  N    0.712965
     6  O   -1.329727
     7  H   -0.144513
     8  H   -0.054720
     9  C   -0.305221
    10  N    0.655977
    11  H    0.131360
    12  H    0.048133
 Sum of Mulliken charges =   0.00000

 Dipole moment (field-independent basis, Debye):
    X=              0.1728    Y=              2.5733    Z=              2.5688  Tot=              3.6402

 Test job not archived.
 1\1\GINC-SE398\SP\RHF\Aug-CC-pVDZ\C3H4N2O2Si1\OHZDE\08-Apr-2025\0\\#t
 hf aug-cc-pvdz iop(5/13=1,5/36=2,99/5=2) pseudo=read geom=check guess=
 (read,tcheck) scf=(maxcycle=1)\\title\\0,1\Si,0,0.363964,1.107337,0.24
 0731\C,0,-0.624136,-0.304728,1.02273\O,0,-1.451948,-1.013474,0.030865\
 C,0,-2.564686,-0.439774,-0.275408\N,0,-3.570409,0.055084,-0.564776\O,0
 ,1.586912,0.443239,-0.73854\H,0,0.999788,1.891518,1.314404\H,0,-0.4365
 87,1.898968,-0.69833\C,0,2.517699,-0.352361,-0.344271\N,0,3.358264,-1.
 072525,-0.007008\H,0,-1.26424,0.04697,1.837188\H,0,0.037581,-1.075038,

 Normal termination of Gaussian 16 at Tue Apr  8 23:52:41 2025.
