 Gaussian 16, Revision C.01,

 ----------------------------------------------------------------------
 #t hf aug-cc-pvdz symm=none int=(grid=ultrafine) guess=(read,tcheck) s
 table=opt
 ----------------------------------------------------------------------
 -----
 title
 -----
 Symbolic Z-matrix:
 Charge =  0 Multiplicity = 2

 SCF Done:  E(UHF) =  -527.549432377     A.U. after   13 cycles
 Normal termination of Gaussian 16 at Tue Apr  8 23:45:15 2025.
 Gaussian 16:  ES64L-G16RevC.01  3-Jul-2019

 ----------------------------------------------------------------------
 #t hf aug-cc-pvdz iop(5/13=1,5/36=2,99/5=2) pseudo=read geom=check gue
 ss=(read,tcheck) scf=(maxcycle=1)
 ----------------------------------------------------------------------
 -----
 title
 -----
 Structure from the checkpoint file:  "BDE49_nonexpt_1757_mol2.chk"
 Charge =  0 Multiplicity = 2

                         Standard orientation:
 ---------------------------------------------------------------------
 Center     Atomic      Atomic             Coordinates (Angstroms)
 Number     Number       Type             X           Y           Z
 ---------------------------------------------------------------------
      1         14           0        0.096704    0.000000   -0.412509
      2          6           0       -1.689202   -0.000000    0.154622
      3          9           0        0.828259   -1.285520    0.223402
      4          9           0        0.828259    1.285520    0.223402
      5          1           0       -1.712371   -0.000004    1.249615
      6          1           0       -2.207468   -0.888665   -0.211734
      7          1           0       -2.207466    0.888669   -0.211727
 ---------------------------------------------------------------------

 SCF Done:  E(UHF) =  -527.802654977     A.U. after    2 cycles

 The electronic state is 2-A.
 Alpha  occ. eigenvalues --  -69.63344 -26.46209 -26.46208 -11.24816  -6.29569
 Alpha  occ. eigenvalues --   -4.05104  -4.04600  -4.04372  -1.58674  -1.56427
 Alpha  occ. eigenvalues --   -0.98590  -0.78146  -0.69960  -0.67336  -0.66691
 Alpha  occ. eigenvalues --   -0.63845  -0.61529  -0.59119  -0.58271  -0.54240
 Alpha  occ. eigenvalues --   -0.37288
 Alpha virt. eigenvalues --    0.03474   0.04745   0.04980   0.05593   0.08039
 Alpha virt. eigenvalues --    0.08175   0.11205   0.14150   0.15578   0.15644
 Alpha virt. eigenvalues --    0.16592   0.16601   0.20326   0.22428   0.24817

  Beta  occ. eigenvalues --  -69.62777 -26.45904 -26.45903 -11.24395  -6.28631
  Beta  occ. eigenvalues --   -4.04235  -4.04065  -4.03164  -1.57829  -1.55601
  Beta  occ. eigenvalues --   -0.97226  -0.76075  -0.68893  -0.66315  -0.65045
  Beta  occ. eigenvalues --   -0.62439  -0.61242  -0.58285  -0.58028  -0.51014
  Beta virt. eigenvalues --    0.01541   0.04445   0.04882   0.05379   0.06542
  Beta virt. eigenvalues --    0.08245   0.08977   0.11778   0.14752   0.15727
  Beta virt. eigenvalues --    0.16707   0.17555   0.19155   0.22594   0.22866

 Mulliken charges and spin densities:
               1          2
     1  Si   1.995612   0.891352
     2  C   -0.599954   0.143037
     3  F   -0.789529  -0.008456
     4  F   -0.789529  -0.008456
     5  H    0.093166  -0.003383
     6  H    0.045117  -0.007047
     7  H    0.045116  -0.007047
 Sum of Mulliken charges =  -0.00000   1.00000

 Dipole moment (field-independent basis, Debye):
    X=             -2.1455    Y=             -0.0000    Z=             -0.7131  Tot=              2.2609
                          Isotropic Fermi Contact Couplings
        Atom                 a.u.       MegaHertz       Gauss      10(-4) cm-1
     1  Si(29)             0.89200    -792.74447    -282.87094    -264.43109
     2  C(13)              0.08274      93.01013      33.18833      31.02484
     3  F(19)              0.05884     247.57345      88.34036      82.58161
     4  F(19)              0.05884     247.57344      88.34036      82.58161
     5  H(1)               0.00493      22.05709       7.87052       7.35745
     6  H(1)              -0.00257     -11.48209      -4.09710      -3.83001
     7  H(1)              -0.00257     -11.48211      -4.09710      -3.83002
 --------------------------------------------------------

 Normal termination of Gaussian 16 at Tue Apr  8 23:45:17 2025.
