 Gaussian 16, Revision C.01,

 ----------------------------------------------------------------------
 #t hf aug-cc-pvdz symm=none int=(grid=ultrafine) guess=(read,tcheck) s
 table=(opt,rrhf)
 ----------------------------------------------------------------------
 -----
 title
 -----
 Symbolic Z-matrix:
 Charge =  0 Multiplicity = 1

 SCF Done:  E(RHF) =  -1045.24317597     A.U. after   14 cycles
 Normal termination of Gaussian 16 at Wed Apr  9 00:16:35 2025.
 Gaussian 16:  ES64L-G16RevC.01  3-Jul-2019

 ----------------------------------------------------------------------
 #t hf aug-cc-pvdz iop(5/13=1,5/36=2,99/5=2) pseudo=read geom=check gue
 ss=(read,tcheck) scf=(maxcycle=1)
 ----------------------------------------------------------------------
 -----
 title
 -----
 Structure from the checkpoint file:  "BDE49_nonexpt_2551_mol1.chk"
 Charge =  0 Multiplicity = 1

                         Standard orientation:
 ---------------------------------------------------------------------
 Center     Atomic      Atomic             Coordinates (Angstroms)
 Number     Number       Type             X           Y           Z
 ---------------------------------------------------------------------
      1         17           0       -1.862036    0.305437    0.000511
      2         16           0       -0.235440   -0.948392   -0.000270
      3          6           0        1.095488    0.271896   -0.000694
      4          8           0        0.993699    1.458045   -0.000200
      5          8           0        2.240451   -0.438467    0.000106
      6          1           0        2.975524    0.193836    0.000552
 ---------------------------------------------------------------------

 SCF Done:  E(RHF) =  -1045.55913103     A.U. after    2 cycles

 The electronic state is 1-A.
 Alpha  occ. eigenvalues -- -105.60372 -94.04405 -20.64004 -20.57740 -11.45392
 Alpha  occ. eigenvalues --  -10.65082  -8.32193  -7.82034  -7.81549  -7.81518
 Alpha  occ. eigenvalues --   -6.29976  -6.29746  -6.29461  -1.58831  -1.49986
 Alpha  occ. eigenvalues --   -1.15394  -1.00373  -0.85027  -0.74432  -0.71178
 Alpha  occ. eigenvalues --   -0.67349  -0.61641  -0.56403  -0.54265  -0.51338
 Alpha  occ. eigenvalues --   -0.49633  -0.45980  -0.40425
 Alpha virt. eigenvalues --    0.02895   0.04474   0.07122   0.10228   0.10234
 Alpha virt. eigenvalues --    0.11209   0.12287   0.12452   0.13689   0.14590
 Alpha virt. eigenvalues --    0.14729   0.16260   0.16933   0.20843   0.22474

 Mulliken charges:
               1
     1  Cl  -0.203288
     2  S    0.509132
     3  C    1.189096
     4  O   -0.849675
     5  O   -1.015793
     6  H    0.370529
 Sum of Mulliken charges =  -0.00000

 Dipole moment (field-independent basis, Debye):
    X=              1.9861    Y=             -1.0267    Z=             -0.0002  Tot=              2.2357

 Test job not archived.
 1\1\GINC-SE074\SP\RHF\Aug-CC-pVDZ\C1H1Cl1O2S1\OHZDE\09-Apr-2025\0\\#t
 hf aug-cc-pvdz iop(5/13=1,5/36=2,99/5=2) pseudo=read geom=check guess=
 (read,tcheck) scf=(maxcycle=1)\\title\\0,1\Cl,0,-1.862036,0.305437,0.0
 00511\S,0,-0.23544,-0.948392,-0.00027\C,0,1.095488,0.271896,-0.000694\
 O,0,0.993699,1.458045,-0.0002\O,0,2.240451,-0.438467,0.000106\H,0,2.97
 5524,0.193836,0.000552\\Version=ES64L-G16RevC.01\State=1-A\HF=-1045.55
 9131\RMSD=6.713e-03\Dipole=0.781378,-0.4039228,-0.0000954\Quadrupole=5
 .2616331,-3.5956029,-1.6660303,0.4716511,0.0000988,0.0005922\PG=C01 [X

 Normal termination of Gaussian 16 at Wed Apr  9 00:16:37 2025.
