 Gaussian 16, Revision C.01,

 ----------------------------------------------------------------------
 #t hf aug-cc-pvdz symm=none int=(grid=ultrafine) guess=(read,tcheck) s
 table=opt
 ----------------------------------------------------------------------
 -----
 title
 -----
 Symbolic Z-matrix:
 Charge =  0 Multiplicity = 2

 SCF Done:  E(UHF) =  -251.894413219     A.U. after   16 cycles
 Normal termination of Gaussian 16 at Wed Apr  9 00:17:04 2025.
 Gaussian 16:  ES64L-G16RevC.01  3-Jul-2019

 ----------------------------------------------------------------------
 #t hf aug-cc-pvdz iop(5/13=1,5/36=2,99/5=2) pseudo=read geom=check gue
 ss=(read,tcheck) scf=(maxcycle=1)
 ----------------------------------------------------------------------
 -----
 title
 -----
 Structure from the checkpoint file:  "BDE49_nonexpt_254_mol2.chk"
 Charge =  0 Multiplicity = 2

                         Standard orientation:
 ---------------------------------------------------------------------
 Center     Atomic      Atomic             Coordinates (Angstroms)
 Number     Number       Type             X           Y           Z
 ---------------------------------------------------------------------
      1          7           0       -1.224748   -0.843617   -0.024809
      2          7           0        1.224747   -0.843618   -0.024809
      3          6           0       -1.274525    0.604675    0.210344
      4          6           0       -0.000000    1.265702   -0.329176
      5          6           0        1.274526    0.604674    0.210342
      6          5           0       -0.000001   -1.527159   -0.116611
      7          1           0       -2.109404   -1.321324   -0.051043
      8          1           0        2.109402   -1.321326   -0.051039
      9          1           0        2.146545    1.033368   -0.294759
     10          1           0        1.382737    0.826401    1.281949
     11          1           0        0.000001    2.328672   -0.069627
     12          1           0       -0.000000    1.190573   -1.421358
     13          1           0       -1.382734    0.826401    1.281951
     14          1           0       -2.146544    1.033371   -0.294756
 ---------------------------------------------------------------------

 SCF Done:  E(UHF) =  -252.157809526     A.U. after    2 cycles

 The electronic state is 2-A.
 Alpha  occ. eigenvalues --  -15.47222 -15.47203 -11.26401 -11.26382 -11.23262
 Alpha  occ. eigenvalues --   -7.59269  -1.20966  -1.15304  -1.02756  -0.90690
 Alpha  occ. eigenvalues --   -0.82507  -0.76257  -0.67767  -0.65775  -0.63081
 Alpha  occ. eigenvalues --   -0.62198  -0.59714  -0.54499  -0.52018  -0.48420
 Alpha  occ. eigenvalues --   -0.44274  -0.38710  -0.33010
 Alpha virt. eigenvalues --    0.03547   0.04148   0.04467   0.04566   0.05638
 Alpha virt. eigenvalues --    0.06207   0.06431   0.06492   0.06569   0.09429
 Alpha virt. eigenvalues --    0.09934   0.12503   0.13772   0.14049   0.15107

  Beta  occ. eigenvalues --  -15.47272 -15.47254 -11.26272 -11.26252 -11.23280
  Beta  occ. eigenvalues --   -7.57317  -1.20503  -1.15190  -1.02417  -0.90255
  Beta  occ. eigenvalues --   -0.81470  -0.75703  -0.66891  -0.65397  -0.62352
  Beta  occ. eigenvalues --   -0.61245  -0.59809  -0.54148  -0.51823  -0.48272
  Beta  occ. eigenvalues --   -0.44118  -0.39584
  Beta virt. eigenvalues --    0.03488   0.04154   0.04237   0.04574   0.05707
  Beta virt. eigenvalues --    0.05850   0.06395   0.06499   0.06728   0.09428
  Beta virt. eigenvalues --    0.09954   0.10401   0.13795   0.13855   0.15115

 Mulliken charges and spin densities:
               1          2
     1  N    0.530745  -0.043294
     2  N    0.530744  -0.043294
     3  C   -0.450030   0.012130
     4  C   -0.405274  -0.013470
     5  C   -0.450029   0.012130
     6  B   -0.427826   1.080981
     7  H    0.009999   0.002170
     8  H    0.009999   0.002170
     9  H    0.071004   0.000145
    10  H    0.107967  -0.003942
    11  H    0.147425   0.000900
    12  H    0.146302  -0.002825
    13  H    0.107967  -0.003942
    14  H    0.071006   0.000145
 Sum of Mulliken charges =  -0.00000   1.00000

 Dipole moment (field-independent basis, Debye):
    X=             -0.0000    Y=              1.8131    Z=              0.3070  Tot=              1.8389
                          Isotropic Fermi Contact Couplings
        Atom                 a.u.       MegaHertz       Gauss      10(-4) cm-1
     1  N(14)              0.03489      11.27470       4.02309       3.76083
     2  N(14)              0.03489      11.27473       4.02310       3.76084
     3  C(13)              0.02100      23.60701       8.42357       7.87445
     4  C(13)             -0.00381      -4.28023      -1.52729      -1.42773
     5  C(13)              0.02100      23.60698       8.42356       7.87444
     6  B(11)              0.37229     533.99497     190.54268     178.12155
     7  H(1)               0.00331      14.80605       5.28317       4.93877
     8  H(1)               0.00331      14.80601       5.28315       4.93875

 Normal termination of Gaussian 16 at Wed Apr  9 00:17:08 2025.
