 Gaussian 16, Revision C.01,

 ----------------------------------------------------------------------
 #t hf aug-cc-pvdz symm=none int=(grid=ultrafine) guess=(read,tcheck) s
 table=(opt,rrhf)
 ----------------------------------------------------------------------
 -----
 title
 -----
 Symbolic Z-matrix:
 Charge =  0 Multiplicity = 1

 SCF Done:  E(RHF) =  -666.119647702     A.U. after   15 cycles
 Normal termination of Gaussian 16 at Tue Apr  8 23:36:13 2025.
 Gaussian 16:  ES64L-G16RevC.01  3-Jul-2019

 ----------------------------------------------------------------------
 #t hf aug-cc-pvdz iop(5/13=1,5/36=2,99/5=2) pseudo=read geom=check gue
 ss=(read,tcheck) scf=(maxcycle=1)
 ----------------------------------------------------------------------
 -----
 title
 -----
 Structure from the checkpoint file:  "BDE49_nonexpt_1482_mol1.chk"
 Charge =  0 Multiplicity = 1

                         Standard orientation:
 ---------------------------------------------------------------------
 Center     Atomic      Atomic             Coordinates (Angstroms)
 Number     Number       Type             X           Y           Z
 ---------------------------------------------------------------------
      1          6           0        2.289772   -0.142965   -0.010038
      2          6           0        1.787379    1.161109   -0.007570
      3          6           0        0.421177    1.415239   -0.002444
      4          6           0        1.357288   -1.183539   -0.012571
      5          6           0       -0.013649   -0.947801   -0.007627
      6          6           0       -0.506628    0.363663   -0.001082
      7          1           0        2.476141    2.000387   -0.011743
      8          1           0        0.065809    2.441627   -0.004089
      9          1           0        1.706880   -2.211452   -0.020817
     10          1           0       -0.700703   -1.784902   -0.013194
     11          7           0       -1.879034    0.665399    0.001322
     12         15           0       -3.168263   -0.465057    0.005109
     13          1           0       -2.082017    1.653673    0.003722
     14          6           0        3.774857   -0.414814    0.017714
     15          1           0        4.333989    0.371543   -0.495813
     16          1           0        4.014690   -1.365322   -0.465312
     17          1           0        4.154249   -0.466430    1.044755
     18          1           0       -3.980526    0.088404   -1.022864
     19          1           0       -3.972495    0.085184    1.041183
 ---------------------------------------------------------------------

 SCF Done:  E(RHF) =  -666.503413809     A.U. after    2 cycles

 The electronic state is 1-A.
 Alpha  occ. eigenvalues --  -84.30254 -15.51223 -11.28482 -11.23785 -11.23677
 Alpha  occ. eigenvalues --  -11.23197 -11.23180 -11.22886 -11.22829  -6.76931
 Alpha  occ. eigenvalues --   -4.30007  -4.29041  -4.28857  -1.22824  -1.13586
 Alpha  occ. eigenvalues --   -1.02852  -1.01222  -0.93321  -0.87137  -0.83646
 Alpha  occ. eigenvalues --   -0.79349  -0.73073  -0.67020  -0.64469  -0.61491
 Alpha  occ. eigenvalues --   -0.59099  -0.58878  -0.58517  -0.57196  -0.54000
 Alpha  occ. eigenvalues --   -0.51151  -0.50402  -0.49215  -0.44286  -0.35955
 Alpha  occ. eigenvalues --   -0.34390  -0.29990
 Alpha virt. eigenvalues --    0.03186   0.03950   0.04031   0.04881   0.05224
 Alpha virt. eigenvalues --    0.05403   0.06731   0.07154   0.07696   0.08631
 Alpha virt. eigenvalues --    0.09395   0.09867   0.10989   0.11319   0.12496

 Mulliken charges:
               1
     1  C    0.335896
     2  C    0.515808
     3  C    0.195448
     4  C    0.553159
     5  C    0.880301
     6  C   -2.029632
     7  H   -0.305504
     8  H   -0.362518
     9  H   -0.303537
    10  H   -0.304317
    11  N    1.060672
    12  P   -0.386073
    13  H   -0.185791
    14  C   -0.715125
    15  H    0.122558
    16  H    0.110332
    17  H    0.262288
    18  H    0.277597
    19  H    0.278439
 Sum of Mulliken charges =  -0.00000

 Dipole moment (field-independent basis, Debye):
    X=             -0.4009    Y=              0.8383    Z=              0.0294  Tot=              0.9297

 Test job not archived.
 1\1\GINC-SE029\SP\RHF\Aug-CC-pVDZ\C7H10N1P1\OHZDE\08-Apr-2025\0\\#t hf
  aug-cc-pvdz iop(5/13=1,5/36=2,99/5=2) pseudo=read geom=check guess=(r
 ead,tcheck) scf=(maxcycle=1)\\title\\0,1\C,0,2.289772,-0.142965,-0.010
 038\C,0,1.787379,1.161109,-0.00757\C,0,0.421177,1.415239,-0.002444\C,0
 ,1.357288,-1.183539,-0.012571\C,0,-0.013649,-0.947801,-0.007627\C,0,-0
 .506628,0.363663,-0.001082\H,0,2.476141,2.000387,-0.011743\H,0,0.06580
 9,2.441627,-0.004089\H,0,1.70688,-2.211452,-0.020817\H,0,-0.700703,-1.
 784902,-0.013194\N,0,-1.879034,0.665399,0.001322\P,0,-3.168263,-0.4650

 Normal termination of Gaussian 16 at Tue Apr  8 23:36:23 2025.
