 Gaussian 16, Revision C.01,

 ----------------------------------------------------------------------
 #t hf aug-cc-pvdz symm=none int=(grid=ultrafine) guess=(read,tcheck) s
 table=(opt,rrhf)
 ----------------------------------------------------------------------
 -----
 title
 -----
 Symbolic Z-matrix:
 Charge =  0 Multiplicity = 1

 SCF Done:  E(RHF) =  -611.081514582     A.U. after   15 cycles
 Normal termination of Gaussian 16 at Tue Apr  8 23:29:55 2025.
 Gaussian 16:  ES64L-G16RevC.01  3-Jul-2019

 ----------------------------------------------------------------------
 #t hf aug-cc-pvdz iop(5/13=1,5/36=2,99/5=2) pseudo=read geom=check gue
 ss=(read,tcheck) scf=(maxcycle=1)
 ----------------------------------------------------------------------
 -----
 title
 -----
 Structure from the checkpoint file:  "BDE49_nonexpt_1337_mol1.chk"
 Charge =  0 Multiplicity = 1

                         Standard orientation:
 ---------------------------------------------------------------------
 Center     Atomic      Atomic             Coordinates (Angstroms)
 Number     Number       Type             X           Y           Z
 ---------------------------------------------------------------------
      1          6           0       -2.621115    0.232957    1.063006
      2         15           0       -1.915560   -0.253191   -0.595448
      3          1           0       -2.438494   -0.575626    1.773790
      4          1           0       -3.702578    0.355272    0.961794
      5          1           0       -2.188911    1.154209    1.457157
      6          6           0       -0.106729   -0.070362   -0.273104
      7          6           0        0.546387    1.169756   -0.236192
      8          6           0        0.649955   -1.229947   -0.060293
      9          6           0        2.016655   -1.153763    0.201314
     10          6           0        2.651814    0.085071    0.235836
     11          6           0        1.914344    1.246825    0.011774
     12          1           0        3.716781    0.145937    0.430110
     13          1           0        2.405217    2.213758    0.030718
     14          1           0       -0.017200    2.080940   -0.406020
     15          1           0        0.166076   -2.200168   -0.107745
     16          1           0        2.585669   -2.061803    0.367533
     17          1           0       -2.101015    1.002125   -1.229659
 ---------------------------------------------------------------------

 SCF Done:  E(RHF) =  -611.410182643     A.U. after    2 cycles

 The electronic state is 1-A.
 Alpha  occ. eigenvalues --  -84.26952 -11.24916 -11.24846 -11.24824 -11.24760
 Alpha  occ. eigenvalues --  -11.24663 -11.24601 -11.23664  -6.73970  -4.26895
 Alpha  occ. eigenvalues --   -4.26379  -4.25945  -1.15777  -1.03337  -1.02015
 Alpha  occ. eigenvalues --   -0.97456  -0.84922  -0.83778  -0.77703  -0.70358
 Alpha  occ. eigenvalues --   -0.64698  -0.63806  -0.60319  -0.58526  -0.57665
 Alpha  occ. eigenvalues --   -0.55396  -0.51990  -0.50854  -0.47241  -0.45908
 Alpha  occ. eigenvalues --   -0.35735  -0.34935  -0.32149
 Alpha virt. eigenvalues --    0.03436   0.03664   0.03910   0.04752   0.05064
 Alpha virt. eigenvalues --    0.05588   0.07062   0.07591   0.08594   0.09301
 Alpha virt. eigenvalues --    0.09480   0.09883   0.10435   0.11921   0.13078

 Mulliken charges:
               1
     1  C   -0.772132
     2  P    0.100377
     3  H    0.141736
     4  H    0.057959
     5  H    0.117535
     6  C    0.368101
     7  C    0.145709
     8  C   -0.387608
     9  C    0.381431
    10  C    0.114166
    11  C    0.452713
    12  H   -0.212151
    13  H   -0.216582
    14  H   -0.306616
    15  H   -0.222811
    16  H   -0.212179
    17  H    0.450352
 Sum of Mulliken charges =   0.00000

 Dipole moment (field-independent basis, Debye):
    X=              0.5153    Y=              0.6108    Z=              0.7964  Tot=              1.1282

 Test job not archived.
 1\1\GINC-SE150\SP\RHF\Aug-CC-pVDZ\C7H9P1\OHZDE\08-Apr-2025\0\\#t hf au
 g-cc-pvdz iop(5/13=1,5/36=2,99/5=2) pseudo=read geom=check guess=(read
 ,tcheck) scf=(maxcycle=1)\\title\\0,1\C,0,-2.621115,0.232957,1.063006\
 P,0,-1.91556,-0.253191,-0.595448\H,0,-2.438494,-0.575626,1.77379\H,0,-
 3.702578,0.355272,0.961794\H,0,-2.188911,1.154209,1.457157\C,0,-0.1067
 29,-0.070362,-0.273104\C,0,0.546387,1.169756,-0.236192\C,0,0.649955,-1
 .229947,-0.060293\C,0,2.016655,-1.153763,0.201314\C,0,2.651814,0.08507
 1,0.235836\C,0,1.914344,1.246825,0.011774\H,0,3.716781,0.145937,0.4301

 Normal termination of Gaussian 16 at Tue Apr  8 23:30:02 2025.
