 Gaussian 16, Revision C.01,

 ----------------------------------------------------------------------
 #t hf aug-cc-pvdz symm=none int=(grid=ultrafine) guess=(read,tcheck) s
 table=(opt,rrhf)
 ----------------------------------------------------------------------
 -----
 title
 -----
 Symbolic Z-matrix:
 Charge =  0 Multiplicity = 1

 SCF Done:  E(RHF) =  -846.346931752     A.U. after   13 cycles
 Normal termination of Gaussian 16 at Wed Apr  9 00:32:18 2025.
 Gaussian 16:  ES64L-G16RevC.01  3-Jul-2019

 ----------------------------------------------------------------------
 #t hf aug-cc-pvdz iop(5/13=1,5/36=2,99/5=2) pseudo=read geom=check gue
 ss=(read,tcheck) scf=(maxcycle=1)
 ----------------------------------------------------------------------
 -----
 title
 -----
 Structure from the checkpoint file:  "BDE49_nonexpt_376_mol1.chk"
 Charge =  0 Multiplicity = 1

                         Standard orientation:
 ---------------------------------------------------------------------
 Center     Atomic      Atomic             Coordinates (Angstroms)
 Number     Number       Type             X           Y           Z
 ---------------------------------------------------------------------
      1          9           0        1.731875    1.216417   -0.042464
      2          9           0        1.935106   -1.056831   -0.002937
      3          5           0        1.200083    0.021169   -0.023908
      4         16           0       -0.684555   -0.161331    0.047651
      5          8           0       -1.105112   -1.240996   -0.793741
      6          8           0       -1.045077   -0.066954    1.443655
      7          8           0       -1.183737    1.205098   -0.679869
      8          1           0       -1.378965    1.861992    0.005363
 ---------------------------------------------------------------------

 SCF Done:  E(RHF) =  -846.829228230     A.U. after    2 cycles

 The electronic state is 1-A.
 Alpha  occ. eigenvalues --  -94.25615 -26.54412 -26.54127 -20.64292 -20.58047
 Alpha  occ. eigenvalues --  -20.57642  -8.50514  -7.81120  -6.48633  -6.48500
 Alpha  occ. eigenvalues --   -6.48276  -1.69596  -1.65978  -1.63436  -1.51016
 Alpha  occ. eigenvalues --   -1.48452  -0.98759  -0.86549  -0.82215  -0.80990
 Alpha  occ. eigenvalues --   -0.76412  -0.75273  -0.71611  -0.70521  -0.69213
 Alpha  occ. eigenvalues --   -0.68764  -0.65564  -0.58545  -0.53972  -0.53117
 Alpha  occ. eigenvalues --   -0.50217  -0.48381
 Alpha virt. eigenvalues --    0.03189   0.04327   0.04566   0.05586   0.07838
 Alpha virt. eigenvalues --    0.08035   0.10941   0.12965   0.13328   0.16579
 Alpha virt. eigenvalues --    0.17211   0.18409   0.19750   0.21177   0.22379

 Mulliken charges:
               1
     1  F   -0.519581
     2  F   -0.645209
     3  B    1.539215
     4  S    3.249913
     5  O   -1.388917
     6  O   -1.383905
     7  O   -1.222356
     8  H    0.370840
 Sum of Mulliken charges =  -0.00000

 Dipole moment (field-independent basis, Debye):
    X=              1.7294    Y=              2.7838    Z=              0.0356  Tot=              3.2774

 Test job not archived.
 1\1\GINC-SE250\SP\RHF\Aug-CC-pVDZ\B1F2H1O3S1\OHZDE\09-Apr-2025\0\\#t h
 f aug-cc-pvdz iop(5/13=1,5/36=2,99/5=2) pseudo=read geom=check guess=(
 read,tcheck) scf=(maxcycle=1)\\title\\0,1\F,0,1.731875,1.216417,-0.042
 464\F,0,1.935106,-1.056831,-0.002937\B,0,1.200083,0.021169,-0.023908\S
 ,0,-0.684555,-0.161331,0.047651\O,0,-1.105112,-1.240996,-0.793741\O,0,
 -1.045077,-0.066954,1.443655\O,0,-1.183737,1.205098,-0.679869\H,0,-1.3
 78965,1.861992,0.005363\\Version=ES64L-G16RevC.01\State=1-A\HF=-846.82
 92282\RMSD=6.177e-03\Dipole=0.6804029,1.0952201,0.0140194\Quadrupole=0

 Normal termination of Gaussian 16 at Wed Apr  9 00:32:22 2025.
