 Gaussian 16, Revision C.01,

 ----------------------------------------------------------------------
 #t hf aug-cc-pvdz symm=none int=(grid=ultrafine) guess=(read,tcheck) s
 table=(opt,rrhf)
 ----------------------------------------------------------------------
 -----
 title
 -----
 Symbolic Z-matrix:
 Charge =  0 Multiplicity = 1

 SCF Done:  E(RHF) =  -1283.74671684     A.U. after   11 cycles
 Normal termination of Gaussian 16 at Tue Apr  8 23:47:23 2025.
 Gaussian 16:  ES64L-G16RevC.01  3-Jul-2019

 ----------------------------------------------------------------------
 #t hf aug-cc-pvdz iop(5/13=1,5/36=2,99/5=2) pseudo=read geom=check gue
 ss=(read,tcheck) scf=(maxcycle=1)
 ----------------------------------------------------------------------
 -----
 title
 -----
 Structure from the checkpoint file:  "BDE49_nonexpt_1800_mol1.chk"
 Charge =  0 Multiplicity = 1

                         Standard orientation:
 ---------------------------------------------------------------------
 Center     Atomic      Atomic             Coordinates (Angstroms)
 Number     Number       Type             X           Y           Z
 ---------------------------------------------------------------------
      1         14           0        0.549270    0.441138    0.000001
      2          6           0       -1.238155   -0.234964    0.000001
      3         17           0        1.902572   -1.062441   -0.000008
      4          9           0        0.731745    1.344430    1.283688
      5          9           0        0.731741    1.344441   -1.283679
      6          9           0       -1.476722   -0.994098   -1.090275
      7          9           0       -2.132777    0.776597    0.000008
      8          9           0       -1.476718   -0.994110    1.090269
 ---------------------------------------------------------------------

 SCF Done:  E(RHF) =  -1284.33848453     A.U. after    2 cycles

 The electronic state is 1-A.
 Alpha  occ. eigenvalues -- -105.61306 -69.71686 -26.52876 -26.52874 -26.52817
 Alpha  occ. eigenvalues --  -26.51227 -26.51226 -11.53245 -10.66380  -7.83264
 Alpha  occ. eigenvalues --   -7.82920  -7.82912  -6.37522  -4.12903  -4.12825
 Alpha  occ. eigenvalues --   -4.12645  -1.73250  -1.64035  -1.63371  -1.63298
 Alpha  occ. eigenvalues --   -1.61772  -1.11558  -0.98648  -0.86709  -0.82667
 Alpha  occ. eigenvalues --   -0.82613  -0.80093  -0.74916  -0.72422  -0.70734
 Alpha  occ. eigenvalues --   -0.70541  -0.70231  -0.68400  -0.66645  -0.65808
 Alpha  occ. eigenvalues --   -0.65562  -0.64090  -0.62541  -0.54995  -0.53000
 Alpha  occ. eigenvalues --   -0.52075
 Alpha virt. eigenvalues --    0.05051   0.05729   0.05886   0.06203   0.10283
 Alpha virt. eigenvalues --    0.11343   0.12045   0.12708   0.14619   0.14784
 Alpha virt. eigenvalues --    0.16621   0.18039   0.19531   0.20030   0.21662

 Mulliken charges:
               1
     1  Si   2.502281
     2  C    1.828026
     3  Cl  -0.438044
     4  F   -0.849203
     5  F   -0.849203
     6  F   -0.729405
     7  F   -0.735048
     8  F   -0.729405
 Sum of Mulliken charges =  -0.00000

 Dipole moment (field-independent basis, Debye):
    X=              0.9300    Y=             -0.2439    Z=              0.0000  Tot=              0.9615

 Test job not archived.
 1\1\GINC-SE435\SP\RHF\Aug-CC-pVDZ\C1Cl1F5Si1\OHZDE\08-Apr-2025\0\\#t h
 f aug-cc-pvdz iop(5/13=1,5/36=2,99/5=2) pseudo=read geom=check guess=(
 read,tcheck) scf=(maxcycle=1)\\title\\0,1\Si,0,0.54927,0.441138,0.0000
 01\C,0,-1.238155,-0.234964,0.000001\Cl,0,1.902572,-1.062441,-0.000008\
 F,0,0.731745,1.34443,1.283688\F,0,0.731741,1.344441,-1.283679\F,0,-1.4
 76722,-0.994098,-1.090275\F,0,-2.132777,0.776597,0.000008\F,0,-1.47671
 8,-0.99411,1.090269\\Version=ES64L-G16RevC.01\State=1-A\HF=-1284.33848
 45\RMSD=2.692e-03\Dipole=0.3659095,-0.0959444,0.0000002\Quadrupole=0.3

 Normal termination of Gaussian 16 at Tue Apr  8 23:47:26 2025.
