 Gaussian 16, Revision C.01,

 ----------------------------------------------------------------------
 #t hf aug-cc-pvdz symm=none int=(grid=ultrafine) guess=(read,tcheck) s
 table=(opt,rrhf)
 ----------------------------------------------------------------------
 -----
 title
 -----
 Symbolic Z-matrix:
 Charge =  0 Multiplicity = 1

 SCF Done:  E(RHF) =  -691.115786336     A.U. after   13 cycles
 Normal termination of Gaussian 16 at Tue Apr  8 23:09:09 2025.
 Gaussian 16:  ES64L-G16RevC.01  3-Jul-2019

 ----------------------------------------------------------------------
 #t hf aug-cc-pvdz iop(5/13=1,5/36=2,99/5=2) pseudo=read geom=check gue
 ss=(read,tcheck) scf=(maxcycle=1)
 ----------------------------------------------------------------------
 -----
 title
 -----
 Structure from the checkpoint file:  "BDE49_expt_565_mol1.chk"
 Charge =  0 Multiplicity = 1

                         Standard orientation:
 ---------------------------------------------------------------------
 Center     Atomic      Atomic             Coordinates (Angstroms)
 Number     Number       Type             X           Y           Z
 ---------------------------------------------------------------------
      1          6           0        0.480185   -0.000039    0.890486
      2          6           0       -0.786153    0.000002    0.019640
      3          6           0       -0.896762    1.267744   -0.832334
      4          1           0       -0.865644    2.154368   -0.194858
      5          1           0       -1.847001    1.270588   -1.375839
      6          1           0       -0.089783    1.332395   -1.564729
      7          6           0       -0.896777   -1.267677   -0.832425
      8          1           0       -0.865674   -2.154349   -0.195015
      9          1           0       -0.089794   -1.332286   -1.564820
     10          1           0       -1.847012   -1.270468   -1.375939
     11          8           0       -1.811039   -0.000026    1.030929
     12          1           0       -2.663849   -0.000080    0.583918
     13         17           0        2.020857   -0.000000   -0.062761
     14          1           0        0.499768   -0.889132    1.517258
     15          1           0        0.499771    0.888999    1.517336
 ---------------------------------------------------------------------

 SCF Done:  E(RHF) =  -691.441093338     A.U. after    2 cycles

 The electronic state is 1-A.
 Alpha  occ. eigenvalues -- -105.55489 -20.55786 -11.31184 -11.30105 -11.23463
 Alpha  occ. eigenvalues --  -11.23433 -10.60290  -7.77229  -7.76873  -7.76861
 Alpha  occ. eigenvalues --   -1.45968  -1.11916  -1.03845  -0.95458  -0.92295
 Alpha  occ. eigenvalues --   -0.77956  -0.68351  -0.66059  -0.65552  -0.59318
 Alpha  occ. eigenvalues --   -0.59112  -0.54926  -0.54292  -0.52483  -0.52264
 Alpha  occ. eigenvalues --   -0.50688  -0.45247  -0.44047  -0.44037
 Alpha virt. eigenvalues --    0.03199   0.04146   0.04337   0.04682   0.06334
 Alpha virt. eigenvalues --    0.06662   0.07116   0.07702   0.09502   0.09650
 Alpha virt. eigenvalues --    0.12437   0.13599   0.15022   0.15344   0.15518

 Mulliken charges:
               1
     1  C   -0.385073
     2  C   -0.169807
     3  C    0.009727
     4  H    0.221087
     5  H    0.148466
     6  H    0.261711
     7  C    0.009733
     8  H    0.221089
     9  H    0.261703
    10  H    0.148456
    11  O   -1.387954
    12  H    0.282279
    13  Cl  -0.080605
    14  H    0.229592
    15  H    0.229595
 Sum of Mulliken charges =  -0.00000

 Dipole moment (field-independent basis, Debye):
    X=             -2.1826    Y=             -0.0001    Z=             -0.7522  Tot=              2.3086

 Test job not archived.
 1\1\GINC-SE095\SP\RHF\Aug-CC-pVDZ\C4H9Cl1O1\OHZDE\08-Apr-2025\0\\#t hf
  aug-cc-pvdz iop(5/13=1,5/36=2,99/5=2) pseudo=read geom=check guess=(r
 ead,tcheck) scf=(maxcycle=1)\\title\\0,1\C,0,0.480185,-0.000039,0.8904
 86\C,0,-0.786153,0.000002,0.01964\C,0,-0.896762,1.267744,-0.832334\H,0
 ,-0.865644,2.154368,-0.194858\H,0,-1.847001,1.270588,-1.375839\H,0,-0.
 089783,1.332395,-1.564729\C,0,-0.896777,-1.267677,-0.832425\H,0,-0.865
 674,-2.154349,-0.195015\H,0,-0.089794,-1.332286,-1.56482\H,0,-1.847012
 ,-1.270468,-1.375939\O,0,-1.811039,-0.000026,1.030929\H,0,-2.663849,-0

 Normal termination of Gaussian 16 at Tue Apr  8 23:09:14 2025.
