 Gaussian 16, Revision C.01,

 ----------------------------------------------------------------------
 #t hf aug-cc-pvdz symm=none int=(grid=ultrafine) guess=(read,tcheck) s
 table=(opt,rrhf)
 ----------------------------------------------------------------------
 -----
 title
 -----
 Symbolic Z-matrix:
 Charge =  0 Multiplicity = 1

 SCF Done:  E(RHF) =  -1061.49071662     A.U. after   12 cycles
 Normal termination of Gaussian 16 at Tue Apr  8 23:49:34 2025.
 Gaussian 16:  ES64L-G16RevC.01  3-Jul-2019

 ----------------------------------------------------------------------
 #t hf aug-cc-pvdz iop(5/13=1,5/36=2,99/5=2) pseudo=read geom=check gue
 ss=(read,tcheck) scf=(maxcycle=1)
 ----------------------------------------------------------------------
 -----
 title
 -----
 Structure from the checkpoint file:  "BDE49_nonexpt_183_mol1.chk"
 Charge =  0 Multiplicity = 1

                         Standard orientation:
 ---------------------------------------------------------------------
 Center     Atomic      Atomic             Coordinates (Angstroms)
 Number     Number       Type             X           Y           Z
 ---------------------------------------------------------------------
      1         17           0       -0.951898    1.650787   -0.000173
      2         17           0       -2.029938   -1.168446   -0.000249
      3          5           0       -0.627901   -0.085536    0.000476
      4          6           0        0.813740   -0.682474    0.000309
      5          6           0        2.008224    0.283556    0.000223
      6          1           0        0.875205   -1.361491    0.864376
      7          6           0        3.356905   -0.441289    0.000073
      8          1           0        1.945518    0.940677    0.873512
      9          1           0        1.945352    0.940730   -0.873015
     10          1           0        3.464299   -1.079165    0.882998
     11          1           0        4.187966    0.268929    0.000016
     12          1           0        0.875047   -1.361444   -0.863807
     13          1           0        3.464132   -1.079111   -0.882913
 ---------------------------------------------------------------------

 SCF Done:  E(RHF) =  -1061.80014561     A.U. after    2 cycles

 The electronic state is 1-A.
 Alpha  occ. eigenvalues -- -105.57388-105.57165 -11.24124 -11.23351 -11.23112
 Alpha  occ. eigenvalues --  -10.62410 -10.62176  -7.79302  -7.79072  -7.79027
 Alpha  occ. eigenvalues --   -7.78980  -7.78794  -7.78753  -7.70964  -1.11275
 Alpha  occ. eigenvalues --   -1.06593  -1.05335  -0.94799  -0.82539  -0.68803
 Alpha  occ. eigenvalues --   -0.64734  -0.61204  -0.60053  -0.56308  -0.55659
 Alpha  occ. eigenvalues --   -0.52040  -0.51435  -0.49333  -0.48950  -0.47265
 Alpha  occ. eigenvalues --   -0.46152  -0.45720
 Alpha virt. eigenvalues --    0.03628   0.03854   0.03926   0.04066   0.06441
 Alpha virt. eigenvalues --    0.06771   0.06786   0.07214   0.08766   0.09191
 Alpha virt. eigenvalues --    0.10014   0.10244   0.12138   0.14292   0.14598

 Mulliken charges:
               1
     1  Cl  -0.330383
     2  Cl  -0.388073
     3  B    0.669866
     4  C   -0.170940
     5  C   -0.406444
     6  H    0.165237
     7  C   -0.383584
     8  H    0.108357
     9  H    0.108378
    10  H    0.166985
    11  H    0.128495
    12  H    0.165119
    13  H    0.166986
 Sum of Mulliken charges =   0.00000

 Dipole moment (field-independent basis, Debye):
    X=              1.7689    Y=             -0.4928    Z=              0.0011  Tot=              1.8363

 Test job not archived.
 1\1\GINC-SE403\SP\RHF\Aug-CC-pVDZ\C3H7B1Cl2\OHZDE\08-Apr-2025\0\\#t hf
  aug-cc-pvdz iop(5/13=1,5/36=2,99/5=2) pseudo=read geom=check guess=(r
 ead,tcheck) scf=(maxcycle=1)\\title\\0,1\Cl,0,0.951898,1.650787,0.0001
 73\Cl,0,2.029938,-1.168446,0.000249\B,0,0.627901,-0.085536,-0.000476\C
 ,0,-0.81374,-0.682474,-0.000309\C,0,-2.008224,0.283556,-0.000223\H,0,-
 0.875205,-1.361491,-0.864376\C,0,-3.356905,-0.441289,-0.000073\H,0,-1.
 945518,0.940677,-0.873512\H,0,-1.945352,0.94073,0.873015\H,0,-3.464299
 ,-1.079165,-0.882998\H,0,-4.187966,0.268929,-0.000016\H,0,-0.875047,-1

 Normal termination of Gaussian 16 at Tue Apr  8 23:49:38 2025.
