 Gaussian 16, Revision C.01,

 ----------------------------------------------------------------------
 #t hf aug-cc-pvdz symm=none int=(grid=ultrafine) guess=(read,tcheck) s
 table=opt
 ----------------------------------------------------------------------
 -----
 title
 -----
 Symbolic Z-matrix:
 Charge =  0 Multiplicity = 2

 SCF Done:  E(UHF) =  -498.026933032     A.U. after   17 cycles

 1\1\GINC-SE454\Stability\UHF\Aug-CC-pVDZ\C4H10P1\OHZDE\08-Apr-2025\0\\
 #t hf aug-cc-pvdz symm=none int=(grid=ultrafine) guess=(read,tcheck) s
 table=opt\\title\\0,2\C,0,-0.317757,-0.002156,0.\C,0,-0.785656,-0.7532
 43,1.261529\H,0,-0.452958,-0.253756,2.175584\H,0,-0.409414,-1.779371,1
 .280683\H,0,-1.881367,-0.796616,1.285634\C,0,-0.785659,-0.753254,-1.26
 1521\H,0,-0.409417,-1.779382,-1.280668\H,0,-0.452962,-0.253775,-2.1755
 81\H,0,-1.881369,-0.796627,-1.285624\C,0,-0.893428,1.426926,-0.000005\
 H,0,-1.988334,1.39346,-0.000004\H,0,-0.576242,1.987481,-0.883973\H,0,-

 Normal termination of Gaussian 16 at Tue Apr  8 23:35:31 2025.
 Gaussian 16:  ES64L-G16RevC.01  3-Jul-2019

 ----------------------------------------------------------------------
 #t hf aug-cc-pvdz iop(5/13=1,5/36=2,99/5=2) pseudo=read geom=check gue
 ss=(read,tcheck) scf=(maxcycle=1)
 ----------------------------------------------------------------------
 -----
 title
 -----
 Structure from the checkpoint file:  "BDE49_nonexpt_1490_mol2.chk"
 Charge =  0 Multiplicity = 2

                         Standard orientation:
 ---------------------------------------------------------------------
 Center     Atomic      Atomic             Coordinates (Angstroms)
 Number     Number       Type             X           Y           Z
 ---------------------------------------------------------------------
      1          6           0       -0.317757   -0.002156    0.000000
      2          6           0       -0.785656   -0.753243    1.261529
      3          1           0       -0.452958   -0.253756    2.175584
      4          1           0       -0.409414   -1.779371    1.280683
      5          1           0       -1.881367   -0.796616    1.285634
      6          6           0       -0.785659   -0.753254   -1.261521
      7          1           0       -0.409417   -1.779382   -1.280668
      8          1           0       -0.452962   -0.253775   -2.175581
      9          1           0       -1.881369   -0.796627   -1.285624
     10          6           0       -0.893428    1.426926   -0.000005
     11          1           0       -1.988334    1.393460   -0.000004
     12          1           0       -0.576242    1.987481   -0.883973
     13          1           0       -0.576240    1.987488    0.883957
     14         15           0        1.567695    0.136695   -0.000002
     15          1           0        1.807883   -1.268964    0.000004
 ---------------------------------------------------------------------

 SCF Done:  E(UHF) =  -498.244455396     A.U. after    2 cycles

 The electronic state is 2-A.
 Alpha  occ. eigenvalues --  -84.27005 -11.25535 -11.23267 -11.23250 -11.23083
 Alpha  occ. eigenvalues --   -6.74165  -4.27054  -4.26366  -4.25850  -1.10149
 Alpha  occ. eigenvalues --   -0.94178  -0.94058  -0.85867  -0.72697  -0.61771
 Alpha  occ. eigenvalues --   -0.61211  -0.60754  -0.55548  -0.55444  -0.52825
 Alpha  occ. eigenvalues --   -0.48715  -0.48682  -0.44375  -0.36525  -0.31927
 Alpha virt. eigenvalues --    0.03737   0.04243   0.04357   0.04751   0.06461
 Alpha virt. eigenvalues --    0.06562   0.06683   0.07334   0.07523   0.09638
 Alpha virt. eigenvalues --    0.10672   0.11898   0.12513   0.13417   0.15095

  Beta  occ. eigenvalues --  -84.26322 -11.25683 -11.23194 -11.23177 -11.23073
  Beta  occ. eigenvalues --   -6.73300  -4.25823  -4.25454  -4.23735  -1.09821
  Beta  occ. eigenvalues --   -0.93994  -0.93900  -0.81669  -0.70945  -0.61625
  Beta  occ. eigenvalues --   -0.60866  -0.60059  -0.55305  -0.55109  -0.52775
  Beta  occ. eigenvalues --   -0.48606  -0.48368  -0.43608  -0.34806
  Beta virt. eigenvalues --    0.03351   0.03772   0.04252   0.04811   0.06029
  Beta virt. eigenvalues --    0.06498   0.06591   0.06735   0.07567   0.08298
  Beta virt. eigenvalues --    0.09643   0.10804   0.11976   0.13468   0.13560

 Mulliken charges and spin densities:
               1          2
     1  C   -1.822622  -0.125421
     2  C    0.029339   0.005629
     3  H    0.150427  -0.017598
     4  H    0.139141  -0.005223
     5  H    0.215024   0.006678
     6  C    0.029341   0.005629
     7  H    0.139140  -0.005223
     8  H    0.150428  -0.017598
     9  H    0.215022   0.006678
    10  C   -0.028584   0.027748
    11  H    0.213789  -0.001125
    12  H    0.153161  -0.006481
    13  H    0.153159  -0.006481
    14  P    0.131221   1.327359
    15  H    0.132013  -0.194570
 Sum of Mulliken charges =  -0.00000   1.00000

 Dipole moment (field-independent basis, Debye):
    X=             -1.0323    Y=             -0.3686    Z=              0.0000  Tot=              1.0962
                          Isotropic Fermi Contact Couplings
        Atom                 a.u.       MegaHertz       Gauss      10(-4) cm-1
     1  C(13)             -0.02635     -29.62768     -10.57189      -9.88273
     2  C(13)              0.02137      24.02756       8.57363       8.01473
     3  H(1)              -0.00007      -0.30843      -0.11006      -0.10288
     4  H(1)              -0.00022      -0.98038      -0.34983      -0.32702
     5  H(1)               0.00211       9.41851       3.36076       3.14168
     6  C(13)              0.02137      24.02751       8.57361       8.01471
     7  H(1)              -0.00022      -0.98039      -0.34983      -0.32702
     8  H(1)              -0.00007      -0.30844      -0.11006      -0.10289

 Normal termination of Gaussian 16 at Tue Apr  8 23:35:36 2025.
