 Gaussian 16, Revision C.01,

 ----------------------------------------------------------------------
 #t hf aug-cc-pvdz symm=none int=(grid=ultrafine) guess=(read,tcheck) s
 table=(opt,rrhf)
 ----------------------------------------------------------------------
 -----
 title
 -----
 Symbolic Z-matrix:
 Charge =  0 Multiplicity = 1

 SCF Done:  E(RHF) =  -330.916049455     A.U. after   15 cycles
 Normal termination of Gaussian 16 at Tue Apr  8 23:20:11 2025.
 Gaussian 16:  ES64L-G16RevC.01  3-Jul-2019

 ----------------------------------------------------------------------
 #t hf aug-cc-pvdz iop(5/13=1,5/36=2,99/5=2) pseudo=read geom=check gue
 ss=(read,tcheck) scf=(maxcycle=1)
 ----------------------------------------------------------------------
 -----
 title
 -----
 Structure from the checkpoint file:  "BDE49_nonexpt_1124_mol1.chk"
 Charge =  0 Multiplicity = 1

                         Standard orientation:
 ---------------------------------------------------------------------
 Center     Atomic      Atomic             Coordinates (Angstroms)
 Number     Number       Type             X           Y           Z
 ---------------------------------------------------------------------
      1          9           0        2.018342   -1.015755    0.309616
      2          8           0        1.659034    0.007971   -0.657223
      3          6           0        0.941712    0.991880    0.080832
      4          6           0       -0.408977    0.518471    0.602380
      5          1           0        1.582669    1.379200    0.879295
      6          6           0       -1.364259    0.040173   -0.495957
      7          1           0       -0.858121    1.350432    1.158950
      8          1           0       -0.237884   -0.283788    1.326531
      9          6           0       -2.700904   -0.461619    0.056099
     10          1           0       -0.876971   -0.756042   -1.066264
     11          1           0       -1.543377    0.860263   -1.202438
     12          1           0       -2.553889   -1.304011    0.738864
     13          1           0       -3.360203   -0.798001   -0.748258
     14          1           0       -3.224943    0.324819    0.608543
     15          1           0        0.829933    1.771726   -0.684104
 ---------------------------------------------------------------------

 SCF Done:  E(RHF) =  -331.254911919     A.U. after    2 cycles

 The electronic state is 1-A.
 Alpha  occ. eigenvalues --  -26.48941 -20.66843 -11.31071 -11.24207 -11.23509
 Alpha  occ. eigenvalues --  -11.22869  -1.64038  -1.36022  -1.08229  -0.98906
 Alpha  occ. eigenvalues --   -0.87883  -0.80926  -0.71262  -0.70450  -0.67234
 Alpha  occ. eigenvalues --   -0.63723  -0.61346  -0.59221  -0.57524  -0.54298
 Alpha  occ. eigenvalues --   -0.53128  -0.52089  -0.48736  -0.48414  -0.46419
 Alpha virt. eigenvalues --    0.03418   0.03752   0.03910   0.04996   0.06132
 Alpha virt. eigenvalues --    0.06625   0.07072   0.08084   0.09527   0.10874
 Alpha virt. eigenvalues --    0.12714   0.13506   0.14311   0.15694   0.15877

 Mulliken charges:
               1
     1  F   -0.452294
     2  O   -0.467026
     3  C    0.629382
     4  C   -0.367813
     5  H    0.140465
     6  C   -0.268469
     7  H    0.156216
     8  H    0.170535
     9  C   -0.376239
    10  H    0.148045
    11  H    0.116720
    12  H    0.172038
    13  H    0.119337
    14  H    0.164130
    15  H    0.114971
 Sum of Mulliken charges =  -0.00000

 Dipole moment (field-independent basis, Debye):
    X=             -1.6308    Y=              1.9848    Z=              0.4446  Tot=              2.6070

 Test job not archived.
 1\1\GINC-SE343\SP\RHF\Aug-CC-pVDZ\C4H9F1O1\OHZDE\08-Apr-2025\0\\#t hf
 aug-cc-pvdz iop(5/13=1,5/36=2,99/5=2) pseudo=read geom=check guess=(re
 ad,tcheck) scf=(maxcycle=1)\\title\\0,1\F,0,2.018342,-1.015755,0.30961
 6\O,0,1.659034,0.007971,-0.657223\C,0,0.941712,0.99188,0.080832\C,0,-0
 .408977,0.518471,0.60238\H,0,1.582669,1.3792,0.879295\C,0,-1.364259,0.
 040173,-0.495957\H,0,-0.858121,1.350432,1.15895\H,0,-0.237884,-0.28378
 8,1.326531\C,0,-2.700904,-0.461619,0.056099\H,0,-0.876971,-0.756042,-1
 .066264\H,0,-1.543377,0.860263,-1.202438\H,0,-2.553889,-1.304011,0.738

 Normal termination of Gaussian 16 at Tue Apr  8 23:20:15 2025.
