 Gaussian 16, Revision C.01,

 ----------------------------------------------------------------------
 #t hf aug-cc-pvdz symm=none int=(grid=ultrafine) guess=(read,tcheck) s
 table=(opt,rrhf)
 ----------------------------------------------------------------------
 -----
 title
 -----
 Symbolic Z-matrix:
 Charge =  0 Multiplicity = 1

 SCF Done:  E(RHF) =  -1152.59310101     A.U. after   15 cycles
 Normal termination of Gaussian 16 at Tue Apr  8 23:09:39 2025.
 Gaussian 16:  ES64L-G16RevC.01  3-Jul-2019

 ----------------------------------------------------------------------
 #t hf aug-cc-pvdz iop(5/13=1,5/36=2,99/5=2) pseudo=read geom=check gue
 ss=(read,tcheck) scf=(maxcycle=1)
 ----------------------------------------------------------------------
 -----
 title
 -----
 Structure from the checkpoint file:  "BDE49_expt_393_mol1.chk"
 Charge =  0 Multiplicity = 1

                         Standard orientation:
 ---------------------------------------------------------------------
 Center     Atomic      Atomic             Coordinates (Angstroms)
 Number     Number       Type             X           Y           Z
 ---------------------------------------------------------------------
      1          6           0        2.612762   -0.000000   -0.240838
      2         16           0        0.900408   -0.000000    0.543941
      3          9           0        2.764624   -1.087032   -1.007250
      4          9           0        3.533600   -0.000000    0.715448
      5          9           0        2.764624    1.087032   -1.007250
      6          8           0        0.777884    1.263855    1.228739
      7          8           0        0.777884   -1.263855    1.228739
      8          6           0       -1.605009    0.000000   -0.555032
      9          6           0       -2.282635    1.207151   -0.358840
     10          6           0       -2.282635   -1.207151   -0.358840
     11          6           0       -3.624137   -1.206083    0.010862
     12          6           0       -4.297164    0.000000    0.194888
     13          6           0       -3.624137    1.206083    0.010862
     14          1           0       -4.142620    2.146596    0.156687
     15          1           0       -1.758028    2.146273   -0.493507
     16          1           0       -1.758028   -2.146273   -0.493507
     17          1           0       -4.142620   -2.146596    0.156687
     18          1           0       -5.342503    0.000000    0.481668
     19          6           0       -0.153141    0.000000   -0.947877
     20          1           0        0.131030   -0.893229   -1.505280
     21          1           0        0.131030    0.893229   -1.505280
 ---------------------------------------------------------------------

 SCF Done:  E(RHF) =  -1153.38410471     A.U. after    2 cycles

 The electronic state is 1-A.
 Alpha  occ. eigenvalues --  -94.22119 -26.54419 -26.54417 -26.54154 -20.56510
 Alpha  occ. eigenvalues --  -20.56507 -11.56335 -11.31728 -11.27894 -11.26506
 Alpha  occ. eigenvalues --  -11.26498 -11.26227 -11.25991 -11.25980  -8.47483
 Alpha  occ. eigenvalues --   -6.45574  -6.45342  -6.45275  -1.75365  -1.65273
 Alpha  occ. eigenvalues --   -1.65177  -1.58333  -1.46638  -1.18555  -1.11264
 Alpha  occ. eigenvalues --   -1.04451  -1.03737  -0.98908  -0.91223  -0.85911
 Alpha  occ. eigenvalues --   -0.84954  -0.84626  -0.83558  -0.80907  -0.73481
 Alpha  occ. eigenvalues --   -0.72429  -0.72378  -0.69663  -0.69488  -0.67995
 Alpha  occ. eigenvalues --   -0.67353  -0.67232  -0.66125  -0.65736  -0.65458
 Alpha  occ. eigenvalues --   -0.62170  -0.61376  -0.60673  -0.54003  -0.53123
 Alpha  occ. eigenvalues --   -0.52498  -0.51875  -0.50930  -0.48902  -0.46185
 Alpha  occ. eigenvalues --   -0.36401  -0.36290
 Alpha virt. eigenvalues --    0.03017   0.03282   0.03440   0.04786   0.05037
 Alpha virt. eigenvalues --    0.07394   0.07612   0.07721   0.08271   0.09073
 Alpha virt. eigenvalues --    0.09553   0.10047   0.10941   0.11502   0.12625

 Mulliken charges:
               1
     1  C    2.105025
     2  S    3.634091
     3  F   -0.776726
     4  F   -0.711912
     5  F   -0.776726
     6  O   -1.637900
     7  O   -1.637900
     8  C    2.008100
     9  C    0.122729
    10  C    0.122729
    11  C    0.102341
    12  C    0.083007
    13  C    0.102341
    14  H   -0.224181
    15  H   -0.288783
    16  H   -0.288783
    17  H   -0.224181
    18  H   -0.207424
    19  C   -1.550634
    20  H    0.022395
    21  H    0.022395
 Sum of Mulliken charges =  -0.00000

 Dipole moment (field-independent basis, Debye):
    X=             -2.4760    Y=              0.0000    Z=             -3.4593  Tot=              4.2540

 Test job not archived.
 1\1\GINC-SE015\SP\RHF\Aug-CC-pVDZ\C8H7F3O2S1\OHZDE\08-Apr-2025\0\\#t h
 f aug-cc-pvdz iop(5/13=1,5/36=2,99/5=2) pseudo=read geom=check guess=(
 read,tcheck) scf=(maxcycle=1)\\title\\0,1\C,0,-0.240838,-2.612762,0.\S
 ,0,0.543941,-0.900408,0.\F,0,-1.00725,-2.764624,1.087032\F,0,0.715448,
 -3.5336,0.\F,0,-1.00725,-2.764624,-1.087032\O,0,1.228739,-0.777884,-1.
 263855\O,0,1.228739,-0.777884,1.263855\C,0,-0.555032,1.605009,0.\C,0,-
 0.35884,2.282635,-1.207151\C,0,-0.35884,2.282635,1.207151\C,0,0.010862
 ,3.624137,1.206083\C,0,0.194888,4.297164,0.\C,0,0.010862,3.624137,-1.2

 Normal termination of Gaussian 16 at Tue Apr  8 23:09:57 2025.
