 Gaussian 16, Revision C.01,

 ----------------------------------------------------------------------
 #t hf aug-cc-pvdz symm=none int=(grid=ultrafine) guess=(read,tcheck) s
 table=(opt,rrhf)
 ----------------------------------------------------------------------
 -----
 title
 -----
 Symbolic Z-matrix:
 Charge =  0 Multiplicity = 1

 SCF Done:  E(RHF) =  -1082.26837984     A.U. after   12 cycles
 Normal termination of Gaussian 16 at Tue Apr  8 23:45:14 2025.
 Gaussian 16:  ES64L-G16RevC.01  3-Jul-2019

 ----------------------------------------------------------------------
 #t hf aug-cc-pvdz iop(5/13=1,5/36=2,99/5=2) pseudo=read geom=check gue
 ss=(read,tcheck) scf=(maxcycle=1)
 ----------------------------------------------------------------------
 -----
 title
 -----
 Structure from the checkpoint file:  "BDE49_nonexpt_174_mol1.chk"
 Charge =  0 Multiplicity = 1

                         Standard orientation:
 ---------------------------------------------------------------------
 Center     Atomic      Atomic             Coordinates (Angstroms)
 Number     Number       Type             X           Y           Z
 ---------------------------------------------------------------------
      1         17           0       -0.311889    1.609764   -0.000025
      2         17           0        1.856535   -0.523052   -0.000073
      3          5           0        0.151300   -0.073881    0.000210
      4          6           0       -0.909718   -1.231024    0.000069
      5          9           0       -2.226230   -0.775356    0.000014
      6          1           0       -0.760612   -1.870229    0.880311
      7          1           0       -0.760502   -1.870123   -0.880232
 ---------------------------------------------------------------------

 SCF Done:  E(RHF) =  -1082.57684396     A.U. after    2 cycles

 The electronic state is 1-A.
 Alpha  occ. eigenvalues -- -105.58996-105.58617 -26.45888 -11.32804 -10.64012
 Alpha  occ. eigenvalues --  -10.63650  -7.80906  -7.80617  -7.80579  -7.80545
 Alpha  occ. eigenvalues --   -7.80257  -7.80201  -7.72594  -1.57776  -1.12413
 Alpha  occ. eigenvalues --   -1.07131  -0.97366  -0.72905  -0.70120  -0.69148
 Alpha  occ. eigenvalues --   -0.65428  -0.58886  -0.55676  -0.55110  -0.52107
 Alpha  occ. eigenvalues --   -0.48891  -0.47917  -0.47555
 Alpha virt. eigenvalues --    0.03438   0.04341   0.05144   0.05485   0.06639
 Alpha virt. eigenvalues --    0.08224   0.08387   0.11921   0.12897   0.14279
 Alpha virt. eigenvalues --    0.15063   0.15212   0.16959   0.17346   0.18508

 Mulliken charges:
               1
     1  Cl  -0.269898
     2  Cl  -0.313984
     3  B    0.681250
     4  C    0.326796
     5  F   -0.717668
     6  H    0.146767
     7  H    0.146736
 Sum of Mulliken charges =  -0.00000

 Dipole moment (field-independent basis, Debye):
    X=              0.8005    Y=             -1.3253    Z=              0.0005  Tot=              1.5483

 Test job not archived.
 1\1\GINC-SE284\SP\RHF\Aug-CC-pVDZ\C1H2B1Cl2F1\OHZDE\08-Apr-2025\0\\#t
 hf aug-cc-pvdz iop(5/13=1,5/36=2,99/5=2) pseudo=read geom=check guess=
 (read,tcheck) scf=(maxcycle=1)\\title\\0,1\Cl,0,0.311888,1.609764,0.00
 0025\Cl,0,-1.856535,-0.523053,0.000073\B,0,-0.1513,-0.073881,-0.00021\
 C,0,0.909718,-1.231024,-0.000069\F,0,2.22623,-0.775355,-0.000014\H,0,0
 .760612,-1.870229,-0.880311\H,0,0.760502,-1.870123,0.880232\\Version=E
 S64L-G16RevC.01\State=1-A\HF=-1082.576844\RMSD=4.453e-03\Dipole=-0.314
 9517,-0.5214009,-0.0001801\Quadrupole=-4.074819,2.0321059,2.0427132,0.

 Normal termination of Gaussian 16 at Tue Apr  8 23:45:16 2025.
