 Gaussian 16, Revision C.01,

 ----------------------------------------------------------------------
 #t hf aug-cc-pvdz symm=none int=(grid=ultrafine) guess=(read,tcheck) s
 table=(opt,rrhf)
 ----------------------------------------------------------------------
 -----
 title
 -----
 Symbolic Z-matrix:
 Charge =  0 Multiplicity = 1

 SCF Done:  E(RHF) =  -710.001333950     A.U. after   13 cycles
 Normal termination of Gaussian 16 at Wed Apr  9 00:12:05 2025.
 Gaussian 16:  ES64L-G16RevC.01  3-Jul-2019

 ----------------------------------------------------------------------
 #t hf aug-cc-pvdz iop(5/13=1,5/36=2,99/5=2) pseudo=read geom=check gue
 ss=(read,tcheck) scf=(maxcycle=1)
 ----------------------------------------------------------------------
 -----
 title
 -----
 Structure from the checkpoint file:  "BDE49_nonexpt_2407_mol1.chk"
 Charge =  0 Multiplicity = 1

                         Standard orientation:
 ---------------------------------------------------------------------
 Center     Atomic      Atomic             Coordinates (Angstroms)
 Number     Number       Type             X           Y           Z
 ---------------------------------------------------------------------
      1         14           0       -1.692241   -0.396187   -0.000044
      2         14           0        0.221703    0.984734    0.000069
      3          7           0        1.819369   -0.018064    0.000016
      4          8           0        1.681398   -1.220674   -0.000065
      5          1           0        0.352597    1.843070    1.202413
      6          1           0        0.352621    1.843234   -1.202155
      7          1           0       -2.903114    0.459328    0.000000
      8          1           0       -1.700686   -1.246805    1.211232
      9          1           0       -1.700660   -1.246643   -1.211434
 ---------------------------------------------------------------------

 SCF Done:  E(RHF) =  -710.189193955     A.U. after    2 cycles

 The electronic state is 1-A.
 Alpha  occ. eigenvalues --  -69.56585 -69.54438 -20.62531 -15.61860  -6.23637
 Alpha  occ. eigenvalues --   -6.21632  -3.98969  -3.98908  -3.98892  -3.96996
 Alpha  occ. eigenvalues --   -3.96982  -3.96979  -1.58428  -0.98473  -0.80007
 Alpha  occ. eigenvalues --   -0.73799  -0.68000  -0.64381  -0.60641  -0.52170
 Alpha  occ. eigenvalues --   -0.50591  -0.49641  -0.44293  -0.38718
 Alpha virt. eigenvalues --    0.03587   0.03835   0.05040   0.05164   0.05931
 Alpha virt. eigenvalues --    0.06505   0.07451   0.07676   0.08369   0.08836
 Alpha virt. eigenvalues --    0.09654   0.09848   0.11465   0.13027   0.14258

 Mulliken charges:
               1
     1  Si   0.380281
     2  Si   0.740070
     3  N    0.446706
     4  O   -0.861007
     5  H   -0.145827
     6  H   -0.145827
     7  H   -0.143384
     8  H   -0.135506
     9  H   -0.135506
 Sum of Mulliken charges =   0.00000

 Dipole moment (field-independent basis, Debye):
    X=             -2.4793    Y=              1.1450    Z=              0.0001  Tot=              2.7310

 Test job not archived.
 1\1\GINC-SE187\SP\RHF\Aug-CC-pVDZ\H5N1O1Si2\OHZDE\09-Apr-2025\0\\#t hf
  aug-cc-pvdz iop(5/13=1,5/36=2,99/5=2) pseudo=read geom=check guess=(r
 ead,tcheck) scf=(maxcycle=1)\\title\\0,1\Si,0,-1.692241,-0.396187,-0.0
 00044\Si,0,0.221703,0.984734,0.000069\N,0,1.819369,-0.018064,0.000016\
 O,0,1.681398,-1.220674,-0.000065\H,0,0.352597,1.84307,1.202413\H,0,0.3
 52621,1.843234,-1.202155\H,0,-2.903114,0.459329,0.\H,0,-1.700686,-1.24
 6805,1.211232\H,0,-1.70066,-1.246643,-1.211434\\Version=ES64L-G16RevC.
 01\State=1-A\HF=-710.189194\RMSD=8.439e-03\Dipole=-0.9754472,0.4504973

 Normal termination of Gaussian 16 at Wed Apr  9 00:12:08 2025.
