 Gaussian 16, Revision C.01,

 ----------------------------------------------------------------------
 #t hf aug-cc-pvdz symm=none int=(grid=ultrafine) guess=(read,tcheck) s
 table=opt
 ----------------------------------------------------------------------
 -----
 title
 -----
 Symbolic Z-matrix:
 Charge =  0 Multiplicity = 2

 SCF Done:  E(UHF) =  -922.385004295     A.U. after   18 cycles
 Normal termination of Gaussian 16 at Tue Apr  8 23:06:10 2025.
 Gaussian 16:  ES64L-G16RevC.01  3-Jul-2019

 ----------------------------------------------------------------------
 #t hf aug-cc-pvdz iop(5/13=1,5/36=2,99/5=2) pseudo=read geom=check gue
 ss=(read,tcheck) scf=(maxcycle=1)
 ----------------------------------------------------------------------
 -----
 title
 -----
 Structure from the checkpoint file:  "BDE49_expt_391_mol2.chk"
 Charge =  0 Multiplicity = 2

                         Standard orientation:
 ---------------------------------------------------------------------
 Center     Atomic      Atomic             Coordinates (Angstroms)
 Number     Number       Type             X           Y           Z
 ---------------------------------------------------------------------
      1          6           0       -1.387565    1.488694    0.115850
      2         16           0       -0.872131   -0.163969   -0.022293
      3          1           0       -0.931791    2.240463   -0.513174
      4          1           0       -2.251254    1.675069    0.738471
      5          6           0        0.997042    0.023558    0.020243
      6          9           0        1.553258   -1.163446   -0.190095
      7          9           0        1.386099    0.498881    1.203401
      8          9           0        1.384964    0.875423   -0.937751
      9          8           0       -1.184702   -0.655408   -1.343263
     10          8           0       -1.245124   -0.877501    1.172617
 ---------------------------------------------------------------------

 SCF Done:  E(UHF) =  -922.937517371     A.U. after    2 cycles

 The electronic state is 2-A.
 Alpha  occ. eigenvalues --  -94.23921 -26.55072 -26.54940 -26.54781 -20.57568
 Alpha  occ. eigenvalues --  -20.57538 -11.57149 -11.34125  -8.49198  -6.47315
 Alpha  occ. eigenvalues --   -6.47081  -6.46987  -1.76067  -1.65934  -1.65868
 Alpha  occ. eigenvalues --   -1.59716  -1.47894  -1.12732  -1.02062  -0.91785
 Alpha  occ. eigenvalues --   -0.85360  -0.85309  -0.82129  -0.73572  -0.73026
 Alpha  occ. eigenvalues --   -0.71102  -0.70579  -0.68645  -0.67966  -0.67643
 Alpha  occ. eigenvalues --   -0.66058  -0.65411  -0.54784  -0.53238  -0.51221
 Alpha  occ. eigenvalues --   -0.48346  -0.46521
 Alpha virt. eigenvalues --    0.02890   0.04469   0.07531   0.08823   0.09993
 Alpha virt. eigenvalues --    0.10627   0.11069   0.12106   0.12793   0.14601
 Alpha virt. eigenvalues --    0.15172   0.16259   0.18110   0.18542   0.20108

  Beta  occ. eigenvalues --  -94.24002 -26.55070 -26.54937 -26.54767 -20.57535
  Beta  occ. eigenvalues --  -20.57323 -11.57135 -11.31632  -8.49303  -6.47386
  Beta  occ. eigenvalues --   -6.47226  -6.47142  -1.76050  -1.65908  -1.65862
  Beta  occ. eigenvalues --   -1.59449  -1.47532  -1.08777  -0.99417  -0.90263
  Beta  occ. eigenvalues --   -0.85308  -0.85227  -0.80840  -0.73250  -0.72812
  Beta  occ. eigenvalues --   -0.70575  -0.69766  -0.68108  -0.67899  -0.67137
  Beta  occ. eigenvalues --   -0.66016  -0.64748  -0.53012  -0.52392  -0.49918
  Beta  occ. eigenvalues --   -0.47561
  Beta virt. eigenvalues --    0.00969   0.03053   0.04506   0.07584   0.09511
  Beta virt. eigenvalues --    0.10139   0.10755   0.12065   0.12358   0.12910
  Beta virt. eigenvalues --    0.14743   0.15605   0.16588   0.18594   0.18984

 Mulliken charges and spin densities:
               1          2
     1  C   -0.479172   1.260121
     2  S    3.650923  -0.090584
     3  H    0.064883  -0.094476
     4  H    0.108961  -0.092540
     5  C    1.895974  -0.001861
     6  F   -0.692163   0.000993
     7  F   -0.698196  -0.000812
     8  F   -0.737677   0.001001
     9  O   -1.525358   0.009496
    10  O   -1.588174   0.008662
 Sum of Mulliken charges =  -0.00000   1.00000

 Dipole moment (field-independent basis, Debye):
    X=             -0.0422    Y=              3.9823    Z=              0.3337  Tot=              3.9965
                          Isotropic Fermi Contact Couplings
        Atom                 a.u.       MegaHertz       Gauss      10(-4) cm-1
     1  C(13)              0.21002     236.10054      84.24654      78.75466
     2  S(33)             -0.10392     -35.69233     -12.73591     -11.90568
     3  H(1)              -0.02342    -104.66826     -37.34824     -34.91357
     4  H(1)              -0.02471    -110.44587     -39.40983     -36.84078
     5  C(13)              0.00322       3.61818       1.29106       1.20689
     6  F(19)              0.00177       7.46097       2.66226       2.48871
     7  F(19)              0.00029       1.21252       0.43266       0.40445
     8  F(19)             -0.00006      -0.27240      -0.09720      -0.09086

 Normal termination of Gaussian 16 at Tue Apr  8 23:06:15 2025.
