 Gaussian 16, Revision C.01,

 ----------------------------------------------------------------------
 #t hf aug-cc-pvdz symm=none int=(grid=ultrafine) guess=(read,tcheck) s
 table=(opt,rrhf)
 ----------------------------------------------------------------------
 -----
 title
 -----
 Symbolic Z-matrix:
 Charge =  0 Multiplicity = 1

 SCF Done:  E(RHF) =  -687.807449017     A.U. after   14 cycles
 Normal termination of Gaussian 16 at Tue Apr  8 23:09:50 2025.
 Gaussian 16:  ES64L-G16RevC.01  3-Jul-2019

 ----------------------------------------------------------------------
 #t hf aug-cc-pvdz iop(5/13=1,5/36=2,99/5=2) pseudo=read geom=check gue
 ss=(read,tcheck) scf=(maxcycle=1)
 ----------------------------------------------------------------------
 -----
 title
 -----
 Structure from the checkpoint file:  "BDE49_expt_623_mol1.chk"
 Charge =  0 Multiplicity = 1

                         Standard orientation:
 ---------------------------------------------------------------------
 Center     Atomic      Atomic             Coordinates (Angstroms)
 Number     Number       Type             X           Y           Z
 ---------------------------------------------------------------------
      1          6           0       -0.105543    0.465328    0.344771
      2          8           0        1.061200    0.563884   -0.387441
      3          8           0        2.042805   -0.337305    0.169185
      4          1           0        1.860949   -1.143277   -0.340310
      5          6           0       -0.987840    1.633593   -0.028697
      6          1           0       -0.489307    2.562233    0.258959
      7          1           0       -1.942064    1.560103    0.492011
      8          1           0       -1.168619    1.643081   -1.104019
      9         17           0       -0.978822   -1.141421   -0.050894
     10          1           0        0.107264    0.375852    1.408156
 ---------------------------------------------------------------------

 SCF Done:  E(RHF) =  -688.114852239     A.U. after    2 cycles

 The electronic state is 1-A.
 Alpha  occ. eigenvalues -- -105.55760 -20.64446 -20.63692 -11.37947 -11.25869
 Alpha  occ. eigenvalues --  -10.60590  -7.77502  -7.77171  -7.77152  -1.62009
 Alpha  occ. eigenvalues --   -1.33289  -1.08859  -1.00063  -0.85348  -0.75867
 Alpha  occ. eigenvalues --   -0.68519  -0.66878  -0.64398  -0.57578  -0.55970
 Alpha  occ. eigenvalues --   -0.54685  -0.50780  -0.47228  -0.46032  -0.45296
 Alpha virt. eigenvalues --    0.03790   0.04585   0.04827   0.05498   0.06967
 Alpha virt. eigenvalues --    0.09432   0.11513   0.12738   0.14321   0.14682
 Alpha virt. eigenvalues --    0.15653   0.16495   0.17043   0.17829   0.18355

 Mulliken charges:
               1
     1  C    0.487884
     2  O   -0.777786
     3  O   -0.503424
     4  H    0.435964
     5  C   -0.321841
     6  H    0.208438
     7  H    0.186716
     8  H    0.193871
     9  Cl  -0.146090
    10  H    0.236268
 Sum of Mulliken charges =   0.00000

 Dipole moment (field-independent basis, Debye):
    X=             -0.4627    Y=              0.9898    Z=              0.4289  Tot=              1.1738

 Test job not archived.
 1\1\GINC-SE118\SP\RHF\Aug-CC-pVDZ\C2H5Cl1O2\OHZDE\08-Apr-2025\0\\#t hf
  aug-cc-pvdz iop(5/13=1,5/36=2,99/5=2) pseudo=read geom=check guess=(r
 ead,tcheck) scf=(maxcycle=1)\\title\\0,1\C,0,-0.105543,0.465328,0.3447
 71\O,0,1.061201,0.563883,-0.387441\O,0,2.042805,-0.337307,0.169185\H,0
 ,1.860948,-1.143279,-0.34031\C,0,-0.987838,1.633594,-0.028697\H,0,-0.4
 89304,2.562233,0.258959\H,0,-1.942062,1.560105,0.492011\H,0,-1.168617,
 1.643082,-1.104019\Cl,0,-0.978823,-1.14142,-0.050894\H,0,0.107264,0.37
 5852,1.408156\\Version=ES64L-G16RevC.01\State=1-A\HF=-688.1148522\RMSD

 Normal termination of Gaussian 16 at Tue Apr  8 23:09:53 2025.
