 Gaussian 16, Revision C.01,

 ----------------------------------------------------------------------
 #t hf aug-cc-pvdz symm=none int=(grid=ultrafine) guess=(read,tcheck) s
 table=(opt,rrhf)
 ----------------------------------------------------------------------
 -----
 title
 -----
 Symbolic Z-matrix:
 Charge =  0 Multiplicity = 1

 SCF Done:  E(RHF) =  -888.129314330     A.U. after   11 cycles
 Normal termination of Gaussian 16 at Tue Apr  8 23:49:16 2025.
 Gaussian 16:  ES64L-G16RevC.01  3-Jul-2019

 ----------------------------------------------------------------------
 #t hf aug-cc-pvdz iop(5/13=1,5/36=2,99/5=2) pseudo=read geom=check gue
 ss=(read,tcheck) scf=(maxcycle=1)
 ----------------------------------------------------------------------
 -----
 title
 -----
 Structure from the checkpoint file:  "BDE49_nonexpt_1852_mol1.chk"
 Charge =  0 Multiplicity = 1

                         Standard orientation:
 ---------------------------------------------------------------------
 Center     Atomic      Atomic             Coordinates (Angstroms)
 Number     Number       Type             X           Y           Z
 ---------------------------------------------------------------------
      1          6           0        1.284813   -0.693274   -0.000025
      2         14           0       -0.044515    0.648793    0.000021
      3         17           0       -1.905443   -0.292757   -0.000011
      4          1           0        0.051548    1.476731   -1.215312
      5          1           0        0.051549    1.476647    1.215412
      6          9           0        2.526520   -0.026824    0.000004
      7          1           0        1.232540   -1.329240   -0.888099
      8          1           0        1.232534   -1.329307    0.888002
 ---------------------------------------------------------------------

 SCF Done:  E(RHF) =  -888.375052331     A.U. after    2 cycles

 The electronic state is 1-A.
 Alpha  occ. eigenvalues -- -105.56690 -69.58943 -26.46051 -11.32471 -10.61692
 Alpha  occ. eigenvalues --   -7.78575  -7.78270  -7.78262  -6.25673  -4.01116
 Alpha  occ. eigenvalues --   -4.00939  -4.00924  -1.57444  -1.06373  -0.95899
 Alpha  occ. eigenvalues --   -0.75385  -0.69838  -0.68119  -0.64245  -0.55890
 Alpha  occ. eigenvalues --   -0.54350  -0.52649  -0.51039  -0.46481  -0.45598
 Alpha virt. eigenvalues --    0.03755   0.04514   0.04613   0.05158   0.07278
 Alpha virt. eigenvalues --    0.08018   0.10003   0.11502   0.11722   0.14392
 Alpha virt. eigenvalues --    0.14968   0.15387   0.15556   0.15923   0.18131

 Mulliken charges:
               1
     1  C    0.071262
     2  Si   1.409535
     3  Cl  -0.561453
     4  H   -0.194305
     5  H   -0.194305
     6  F   -0.682080
     7  H    0.075671
     8  H    0.075674
 Sum of Mulliken charges =  -0.00000

 Dipole moment (field-independent basis, Debye):
    X=              0.1326    Y=             -0.2558    Z=             -0.0000  Tot=              0.2881

 Test job not archived.
 1\1\GINC-SE365\SP\RHF\Aug-CC-pVDZ\C1H4Cl1F1Si1\OHZDE\08-Apr-2025\0\\#t
  hf aug-cc-pvdz iop(5/13=1,5/36=2,99/5=2) pseudo=read geom=check guess
 =(read,tcheck) scf=(maxcycle=1)\\title\\0,1\C,0,1.284813,-0.693274,-0.
 000025\Si,0,-0.044515,0.648793,0.000021\Cl,0,-1.905443,-0.292758,-0.00
 0011\H,0,0.051548,1.476731,-1.215312\H,0,0.051549,1.476647,1.215412\F,
 0,2.52652,-0.026824,0.000004\H,0,1.23254,-1.32924,-0.888099\H,0,1.2325
 34,-1.329307,0.888002\\Version=ES64L-G16RevC.01\State=1-A\HF=-888.3750
 523\RMSD=4.393e-03\Dipole=0.0521852,-0.1006326,-0.0000072\Quadrupole=-

 Normal termination of Gaussian 16 at Tue Apr  8 23:49:20 2025.
