 Gaussian 16, Revision C.01,

 ----------------------------------------------------------------------
 #t hf aug-cc-pvdz symm=none int=(grid=ultrafine) guess=(read,tcheck) s
 table=opt
 ----------------------------------------------------------------------
 -----
 title
 -----
 Symbolic Z-matrix:
 Charge =  0 Multiplicity = 2

 SCF Done:  E(UHF) =  -156.683789364     A.U. after   16 cycles
 Normal termination of Gaussian 16 at Tue Apr  8 22:32:33 2025.
 Gaussian 16:  ES64L-G16RevC.01  3-Jul-2019

 ----------------------------------------------------------------------
 #t hf aug-cc-pvdz iop(5/13=1,5/36=2,99/5=2) pseudo=read geom=check gue
 ss=(read,tcheck) scf=(maxcycle=1)
 ----------------------------------------------------------------------
 -----
 title
 -----
 Structure from the checkpoint file:  "BDE49_expt_1059_mol2.chk"
 Charge =  0 Multiplicity = 2

                         Standard orientation:
 ---------------------------------------------------------------------
 Center     Atomic      Atomic             Coordinates (Angstroms)
 Number     Number       Type             X           Y           Z
 ---------------------------------------------------------------------
      1          6           0        1.538954   -0.547170    0.153168
      2          6           0        0.644400    0.600499   -0.324080
      3          1           0        2.527822   -0.499670   -0.311041
      4          1           0        1.099551   -1.518641   -0.089334
      5          1           0        1.678484   -0.510123    1.238367
      6          6           0       -0.767926    0.574612    0.289362
      7          1           0        0.556260    0.569357   -1.416801
      8          1           0        1.118044    1.558332   -0.082945
      9          6           0       -1.597047   -0.589210   -0.132781
     10          1           0       -1.279867    1.512886    0.010339
     11          1           0       -0.694492    0.604939    1.384031
     12          1           0       -2.387147   -0.976659    0.498534
     13          1           0       -1.528935   -0.972810   -1.145165
 ---------------------------------------------------------------------

 SCF Done:  E(UHF) =  -156.860353659     A.U. after    2 cycles

 The electronic state is 2-A.
 Alpha  occ. eigenvalues --  -11.23532 -11.22905 -11.22797 -11.21946  -1.07799
 Alpha  occ. eigenvalues --   -0.98099  -0.87211  -0.78272  -0.63864  -0.61915
 Alpha  occ. eigenvalues --   -0.59322  -0.55248  -0.53123  -0.49803  -0.48026
 Alpha  occ. eigenvalues --   -0.47229  -0.35167
 Alpha virt. eigenvalues --    0.03977   0.04061   0.04162   0.04286   0.06551
 Alpha virt. eigenvalues --    0.06881   0.07267   0.07817   0.08218   0.13390
 Alpha virt. eigenvalues --    0.14921   0.14977   0.15256   0.15481   0.16055

  Beta  occ. eigenvalues --  -11.23232 -11.22716 -11.21940 -11.21097  -1.06584
  Beta  occ. eigenvalues --   -0.95542  -0.83900  -0.76203  -0.63243  -0.60436
  Beta  occ. eigenvalues --   -0.58456  -0.54494  -0.52410  -0.48399  -0.47608
  Beta  occ. eigenvalues --   -0.47063
  Beta virt. eigenvalues --    0.03986   0.04082   0.04218   0.04275   0.06548
  Beta virt. eigenvalues --    0.06902   0.07217   0.07469   0.08099   0.10928
  Beta virt. eigenvalues --    0.13659   0.14973   0.15160   0.15362   0.16037

 Mulliken charges and spin densities:
               1          2
     1  C   -0.321834   0.005729
     2  C   -0.388045   0.029944
     3  H    0.115696  -0.000700
     4  H    0.175149  -0.014350
     5  H    0.158418   0.002785
     6  C   -0.334520  -0.258279
     7  H    0.127653  -0.005316
     8  H    0.130159  -0.002556
     9  C    0.111869   1.402085
    10  H    0.190179   0.038844
    11  H    0.129051   0.005082
    12  H   -0.041726  -0.102301
    13  H   -0.052051  -0.100966
 Sum of Mulliken charges =   0.00000   1.00000

 Dipole moment (field-independent basis, Debye):
    X=              0.0323    Y=              0.2512    Z=              0.0014  Tot=              0.2532
                          Isotropic Fermi Contact Couplings
        Atom                 a.u.       MegaHertz       Gauss      10(-4) cm-1
     1  C(13)             -0.00087      -0.97572      -0.34816      -0.32547
     2  C(13)              0.01806      20.30732       7.24616       6.77379
     3  H(1)              -0.00024      -1.09250      -0.38983      -0.36442
     4  H(1)               0.00007       0.30578       0.10911       0.10200
     5  H(1)               0.00004       0.19099       0.06815       0.06371
     6  C(13)             -0.05896     -66.28627     -23.65259     -22.11072
     7  H(1)              -0.00081      -3.61002      -1.28814      -1.20417
     8  H(1)              -0.00101      -4.50836      -1.60869      -1.50383

 Normal termination of Gaussian 16 at Tue Apr  8 22:32:36 2025.
