 Gaussian 16, Revision C.01,

 ----------------------------------------------------------------------
 #t hf aug-cc-pvdz symm=none int=(grid=ultrafine) guess=(read,tcheck) s
 table=(opt,rrhf)
 ----------------------------------------------------------------------
 -----
 title
 -----
 Symbolic Z-matrix:
 Charge =  0 Multiplicity = 1

 SCF Done:  E(RHF) =  -532.237611328     A.U. after   16 cycles
 Normal termination of Gaussian 16 at Tue Apr  8 22:43:26 2025.
 Gaussian 16:  ES64L-G16RevC.01  3-Jul-2019

 ----------------------------------------------------------------------
 #t hf aug-cc-pvdz iop(5/13=1,5/36=2,99/5=2) pseudo=read geom=check gue
 ss=(read,tcheck) scf=(maxcycle=1)
 ----------------------------------------------------------------------
 -----
 title
 -----
 Structure from the checkpoint file:  "BDE49_expt_1425_mol1.chk"
 Charge =  0 Multiplicity = 1

                         Standard orientation:
 ---------------------------------------------------------------------
 Center     Atomic      Atomic             Coordinates (Angstroms)
 Number     Number       Type             X           Y           Z
 ---------------------------------------------------------------------
      1          6           0        1.917727   -0.623520    0.000001
      2          6           0        1.341716    0.638393   -0.000027
      3          6           0       -0.048358    0.795894   -0.000037
      4          6           0        1.088699   -1.748242    0.000020
      5          6           0       -0.294659   -1.611973    0.000011
      6          6           0       -0.880418   -0.341113   -0.000016
      7          1           0        1.543807   -2.731359    0.000041
      8          1           0       -0.906320   -2.503487    0.000026
      9          8           0       -2.225478   -0.118704   -0.000026
     10          6           0       -3.105202   -1.235687   -0.000006
     11          1           0       -4.110830   -0.819267   -0.000018
     12          1           0       -2.968826   -1.852523    0.894750
     13          1           0       -2.968820   -1.852559   -0.894737
     14          1           0        1.944156    1.541866   -0.000044
     15          8           0        3.269360   -0.835412    0.000010
     16          1           0        3.721934    0.014325   -0.000005
     17          6           0       -0.606417    2.167316   -0.000073
     18          8           0        0.077873    3.169716    0.000099
     19          1           0       -1.707669    2.231807    0.000093
 ---------------------------------------------------------------------

 SCF Done:  E(RHF) =  -532.771254284     A.U. after    2 cycles

 The electronic state is 1-A.
 Alpha  occ. eigenvalues --  -20.58828 -20.58456 -20.53856 -11.33854 -11.32648
 Alpha  occ. eigenvalues --  -11.31269 -11.30987 -11.26389 -11.25973 -11.25923
 Alpha  occ. eigenvalues --  -11.25572  -1.51356  -1.49767  -1.46678  -1.16861
 Alpha  occ. eigenvalues --   -1.05857  -1.03114  -0.96281  -0.91415  -0.84559
 Alpha  occ. eigenvalues --   -0.80594  -0.76237  -0.73336  -0.70073  -0.67274
 Alpha  occ. eigenvalues --   -0.66305  -0.64128  -0.63125  -0.62487  -0.59953
 Alpha  occ. eigenvalues --   -0.59832  -0.55903  -0.55355  -0.54311  -0.51921
 Alpha  occ. eigenvalues --   -0.51259  -0.46379  -0.41835  -0.36712  -0.31571
 Alpha virt. eigenvalues --    0.02764   0.03381   0.03756   0.04693   0.05022
 Alpha virt. eigenvalues --    0.05278   0.05752   0.07676   0.08046   0.09306
 Alpha virt. eigenvalues --    0.09782   0.11491   0.11632   0.12809   0.13177

 Mulliken charges:
               1
     1  C    1.772347
     2  C   -0.398787
     3  C    1.402360
     4  C   -0.153894
     5  C    0.456629
     6  C    1.751666
     7  H   -0.222291
     8  H   -0.437837
     9  O   -2.027141
    10  C    0.151326
    11  H   -0.031428
    12  H    0.181031
    13  H    0.181025
    14  H   -0.354584
    15  O   -1.808855
    16  H    0.408210
    17  C    0.536223
    18  O   -1.345412
    19  H   -0.060586
 Sum of Mulliken charges =  -0.00000

 Dipole moment (field-independent basis, Debye):
    X=             -1.6774    Y=             -3.4138    Z=             -0.0002  Tot=              3.8036

 Test job not archived.
 1\1\GINC-SE044\SP\RHF\Aug-CC-pVDZ\C8H8O3\OHZDE\08-Apr-2025\0\\#t hf au
 g-cc-pvdz iop(5/13=1,5/36=2,99/5=2) pseudo=read geom=check guess=(read
 ,tcheck) scf=(maxcycle=1)\\title\\0,1\C,0,1.917727,-0.62352,0.000001\C
 ,0,1.341716,0.638393,-0.000027\C,0,-0.048358,0.795894,-0.000037\C,0,1.
 088699,-1.748242,0.00002\C,0,-0.294659,-1.611973,0.000011\C,0,-0.88041
 8,-0.341113,-0.000016\H,0,1.543807,-2.731359,0.000041\H,0,-0.90632,-2.
 503487,0.000026\O,0,-2.225478,-0.118704,-0.000026\C,0,-3.105202,-1.235
 687,-0.000006\H,0,-4.11083,-0.819267,-0.000018\H,0,-2.968826,-1.852523

 Normal termination of Gaussian 16 at Tue Apr  8 22:43:37 2025.
