 Gaussian 16, Revision C.01,

 ----------------------------------------------------------------------
 #t hf aug-cc-pvdz symm=none int=(grid=ultrafine) guess=(read,tcheck) s
 table=(opt,rrhf)
 ----------------------------------------------------------------------
 -----
 title
 -----
 Symbolic Z-matrix:
 Charge =  0 Multiplicity = 1

 SCF Done:  E(RHF) =  -763.650659329     A.U. after   13 cycles
 Normal termination of Gaussian 16 at Wed Apr  9 00:15:33 2025.
 Gaussian 16:  ES64L-G16RevC.01  3-Jul-2019

 ----------------------------------------------------------------------
 #t hf aug-cc-pvdz iop(5/13=1,5/36=2,99/5=2) pseudo=read geom=check gue
 ss=(read,tcheck) scf=(maxcycle=1)
 ----------------------------------------------------------------------
 -----
 title
 -----
 Structure from the checkpoint file:  "BDE49_nonexpt_2501_mol1.chk"
 Charge =  0 Multiplicity = 1

                         Standard orientation:
 ---------------------------------------------------------------------
 Center     Atomic      Atomic             Coordinates (Angstroms)
 Number     Number       Type             X           Y           Z
 ---------------------------------------------------------------------
      1         16           0        0.636851   -0.683986    0.006523
      2         14           0       -1.344063    0.184786    0.001317
      3          8           0        1.527748    0.784499   -0.116143
      4          1           0        1.770162    1.016696    0.788955
      5          1           0       -2.271739   -0.965719    0.092503
      6          1           0       -1.577780    0.948342   -1.242019
      7          1           0       -1.515350    1.081460    1.166896
 ---------------------------------------------------------------------

 SCF Done:  E(RHF) =  -763.820974129     A.U. after    2 cycles

 The electronic state is 1-A.
 Alpha  occ. eigenvalues --  -93.99373 -69.56434 -20.59314  -8.27065  -6.24880
 Alpha  occ. eigenvalues --   -6.24647  -6.24433  -6.23349  -3.98767  -3.98672
 Alpha  occ. eigenvalues --   -3.98631  -1.46099  -0.97634  -0.74995  -0.67907
 Alpha  occ. eigenvalues --   -0.57410  -0.56510  -0.51429  -0.50434  -0.42787
 Alpha  occ. eigenvalues --   -0.38138
 Alpha virt. eigenvalues --    0.03531   0.04145   0.05116   0.05843   0.07169
 Alpha virt. eigenvalues --    0.08808   0.09123   0.09419   0.10974   0.13861
 Alpha virt. eigenvalues --    0.14731   0.16522   0.17854   0.18680   0.19772

 Mulliken charges:
               1
     1  S    0.065807
     2  Si   1.144366
     3  O   -0.996940
     4  H    0.400946
     5  H   -0.221465
     6  H   -0.193050
     7  H   -0.199664
 Sum of Mulliken charges =  -0.00000

 Dipole moment (field-independent basis, Debye):
    X=             -1.0439    Y=              0.5758    Z=              1.3710  Tot=              1.8168

 Test job not archived.
 1\1\GINC-SE090\SP\RHF\Aug-CC-pVDZ\H4O1S1Si1\OHZDE\09-Apr-2025\0\\#t hf
  aug-cc-pvdz iop(5/13=1,5/36=2,99/5=2) pseudo=read geom=check guess=(r
 ead,tcheck) scf=(maxcycle=1)\\title\\0,1\S,0,0.636851,-0.683986,0.0065
 23\Si,0,-1.344063,0.184786,0.001317\O,0,1.527748,0.7845,-0.116143\H,0,
 1.770162,1.016697,0.788955\H,0,-2.271739,-0.965719,0.092503\H,0,-1.577
 78,0.948342,-1.242019\H,0,-1.51535,1.08146,1.166896\\Version=ES64L-G16
 RevC.01\State=1-A\HF=-763.8209741\RMSD=4.213e-03\Dipole=-0.4106834,0.2
 265404,0.5394035\Quadrupole=0.8652884,-0.4400598,-0.4252286,0.7843121,

 Normal termination of Gaussian 16 at Wed Apr  9 00:15:35 2025.
