 Gaussian 16, Revision C.01,

 ----------------------------------------------------------------------
 #t hf aug-cc-pvdz symm=none int=(grid=ultrafine) guess=(read,tcheck) s
 table=(opt,rrhf)
 ----------------------------------------------------------------------
 -----
 title
 -----
 Symbolic Z-matrix:
 Charge =  0 Multiplicity = 1

 SCF Done:  E(RHF) =  -482.068701615     A.U. after   13 cycles
 Normal termination of Gaussian 16 at Tue Apr  8 23:50:29 2025.
 Gaussian 16:  ES64L-G16RevC.01  3-Jul-2019

 ----------------------------------------------------------------------
 #t hf aug-cc-pvdz iop(5/13=1,5/36=2,99/5=2) pseudo=read geom=check gue
 ss=(read,tcheck) scf=(maxcycle=1)
 ----------------------------------------------------------------------
 -----
 title
 -----
 Structure from the checkpoint file:  "BDE49_nonexpt_1869_mol1.chk"
 Charge =  0 Multiplicity = 1

                         Standard orientation:
 ---------------------------------------------------------------------
 Center     Atomic      Atomic             Coordinates (Angstroms)
 Number     Number       Type             X           Y           Z
 ---------------------------------------------------------------------
      1         14           0       -2.153669   -0.033657   -0.000018
      2          6           0       -0.317080   -0.463334    0.000054
      3          6           0        2.092869    0.397771    0.000127
      4          8           0        2.534381   -0.722038   -0.000135
      5          1           0       -2.498673    0.766320    1.201341
      6          1           0       -2.498600    0.766238   -1.201452
      7          1           0       -2.970468   -1.270080    0.000000
      8          6           0        0.619689    0.748042    0.000055
      9          1           0        0.449368    1.398044   -0.869961
     10          1           0        0.449313    1.398085    0.870029
     11          1           0        2.775977    1.277006   -0.000193
     12          1           0       -0.101706   -1.091514   -0.870497
     13          1           0       -0.101762   -1.091471    0.870648
 ---------------------------------------------------------------------

 SCF Done:  E(RHF) =  -482.302715483     A.U. after    2 cycles

 The electronic state is 1-A.
 Alpha  occ. eigenvalues --  -69.52913 -20.55088 -11.34628 -11.26335 -11.23256
 Alpha  occ. eigenvalues --   -6.20029  -3.95399  -3.95395  -3.95384  -1.48232
 Alpha  occ. eigenvalues --   -1.07051  -0.92156  -0.78736  -0.73365  -0.67868
 Alpha  occ. eigenvalues --   -0.64894  -0.63800  -0.54648  -0.54526  -0.50236
 Alpha  occ. eigenvalues --   -0.48616  -0.47990  -0.46741  -0.41589
 Alpha virt. eigenvalues --    0.03210   0.03646   0.04253   0.04606   0.05665
 Alpha virt. eigenvalues --    0.06304   0.07558   0.08672   0.09034   0.09497
 Alpha virt. eigenvalues --    0.10437   0.11635   0.11841   0.13711   0.14937

 Mulliken charges:
               1
     1  Si   0.965877
     2  C   -0.463569
     3  C    1.026619
     4  O   -1.131273
     5  H   -0.190623
     6  H   -0.190613
     7  H   -0.185878
     8  C   -0.564230
     9  H    0.193513
    10  H    0.193576
    11  H    0.116345
    12  H    0.115145
    13  H    0.115109
 Sum of Mulliken charges =  -0.00000

 Dipole moment (field-independent basis, Debye):
    X=             -0.8960    Y=              2.1800    Z=              0.0003  Tot=              2.3570

 Test job not archived.
 1\1\GINC-SE419\SP\RHF\Aug-CC-pVDZ\C3H8O1Si1\OHZDE\08-Apr-2025\0\\#t hf
  aug-cc-pvdz iop(5/13=1,5/36=2,99/5=2) pseudo=read geom=check guess=(r
 ead,tcheck) scf=(maxcycle=1)\\title\\0,1\Si,0,2.153669,-0.033657,0.000
 018\C,0,0.31708,-0.463334,-0.000054\C,0,-2.092869,0.397771,-0.000127\O
 ,0,-2.534381,-0.722038,0.000135\H,0,2.498673,0.76632,-1.201341\H,0,2.4
 986,0.766238,1.201452\H,0,2.970468,-1.27008,0.\C,0,-0.619689,0.748042,
 -0.000055\H,0,-0.449368,1.398044,0.869961\H,0,-0.449313,1.398085,-0.87
 0029\H,0,-2.775977,1.277006,0.000193\H,0,0.101706,-1.091514,0.870497\H

 Normal termination of Gaussian 16 at Tue Apr  8 23:50:32 2025.
