 Gaussian 16, Revision C.01,

 ----------------------------------------------------------------------
 #t hf aug-cc-pvdz symm=none int=(grid=ultrafine) guess=(read,tcheck) s
 table=opt
 ----------------------------------------------------------------------
 -----
 title
 -----
 Symbolic Z-matrix:
 Charge =  0 Multiplicity = 2

 SCF Done:  E(UHF) =  -664.873432423     A.U. after   22 cycles
 Normal termination of Gaussian 16 at Wed Apr  9 00:16:06 2025.
 Gaussian 16:  ES64L-G16RevC.01  3-Jul-2019

 ----------------------------------------------------------------------
 #t hf aug-cc-pvdz iop(5/13=1,5/36=2,99/5=2) pseudo=read geom=check gue
 ss=(read,tcheck) scf=(maxcycle=1)
 ----------------------------------------------------------------------
 -----
 title
 -----
 Structure from the checkpoint file:  "BDE49_nonexpt_2520_mol2.chk"
 Charge =  0 Multiplicity = 2

                         Standard orientation:
 ---------------------------------------------------------------------
 Center     Atomic      Atomic             Coordinates (Angstroms)
 Number     Number       Type             X           Y           Z
 ---------------------------------------------------------------------
      1         16           0       -0.861035   -0.289815   -0.239105
      2          6           0        0.935105    0.282969   -0.420312
      3          8           0       -1.699118    0.891094   -0.481809
      4          8           0       -0.947004   -1.027996    1.028270
      5          6           0        1.207364    1.316781    0.668850
      6          1           0        0.501598    2.146219    0.611838
      7          1           0        2.218909    1.713072    0.538306
      8          1           0        1.140425    0.863525    1.659765
      9          6           0        1.843664   -0.936615   -0.385086
     10          1           0        0.918321    0.746615   -1.409121
     11          1           0        2.881252   -0.617938   -0.521462
     12          1           0        1.602755   -1.646027   -1.179848
     13          1           0        1.765480   -1.452022    0.573800
 ---------------------------------------------------------------------

 SCF Done:  E(UHF) =  -665.206849577     A.U. after    2 cycles

 The electronic state is 2-A.
 Alpha  occ. eigenvalues --  -94.15879 -20.57249 -20.57111 -11.31813 -11.26184
 Alpha  occ. eigenvalues --  -11.25910  -8.41909  -6.40235  -6.39697  -6.39331
 Alpha  occ. eigenvalues --   -1.56056  -1.45963  -1.12844  -0.97450  -0.94335
 Alpha  occ. eigenvalues --   -0.82014  -0.71268  -0.67697  -0.67368  -0.65468
 Alpha  occ. eigenvalues --   -0.60594  -0.58838  -0.57711  -0.54229  -0.53882
 Alpha  occ. eigenvalues --   -0.53447  -0.49054  -0.48713  -0.39647
 Alpha virt. eigenvalues --    0.02775   0.03698   0.03981   0.05220   0.06724
 Alpha virt. eigenvalues --    0.07170   0.07450   0.09117   0.10836   0.12351
 Alpha virt. eigenvalues --    0.13384   0.14175   0.14907   0.15000   0.15496

  Beta  occ. eigenvalues --  -94.15543 -20.55814 -20.55714 -11.31263 -11.26229
  Beta  occ. eigenvalues --  -11.25900  -8.41484  -6.39667  -6.39441  -6.38495
  Beta  occ. eigenvalues --   -1.53051  -1.42065  -1.11445  -0.97334  -0.90576
  Beta  occ. eigenvalues --   -0.79441  -0.68554  -0.66423  -0.63862  -0.62263
  Beta  occ. eigenvalues --   -0.59674  -0.57982  -0.56263  -0.53602  -0.53117
  Beta  occ. eigenvalues --   -0.47698  -0.45686  -0.42671
  Beta virt. eigenvalues --    0.00419   0.02843   0.03814   0.04015   0.05478
  Beta virt. eigenvalues --    0.06766   0.07200   0.07470   0.09307   0.10983
  Beta virt. eigenvalues --    0.12761   0.13538   0.14268   0.14977   0.15074

 Mulliken charges and spin densities:
               1          2
     1  S    2.894155   0.250310
     2  C   -1.279754   0.240892
     3  O   -1.361878   0.275577
     4  O   -1.348558   0.283673
     5  C   -0.159640  -0.022968
     6  H    0.158650   0.000103
     7  H    0.176266   0.007294
     8  H    0.244565  -0.001502
     9  C   -0.125945  -0.023955
    10  H    0.214950  -0.012123
    11  H    0.190553   0.003524
    12  H    0.146536  -0.002952
    13  H    0.250098   0.002128
 Sum of Mulliken charges =  -0.00000   1.00000

 Dipole moment (field-independent basis, Debye):
    X=              4.2998    Y=              0.1497    Z=             -1.5459  Tot=              4.5717
                          Isotropic Fermi Contact Couplings
        Atom                 a.u.       MegaHertz       Gauss      10(-4) cm-1
     1  S(33)              0.37512     128.84432      45.97486      42.97784
     2  C(13)              0.07481      84.09669      30.00779      28.05164
     3  O(17)              0.09299     -56.36995     -20.11420     -18.80299
     4  O(17)              0.09597     -58.17646     -20.75881     -19.40558
     5  C(13)             -0.00103      -1.15934      -0.41368      -0.38671
     6  H(1)              -0.00001      -0.05316      -0.01897      -0.01773
     7  H(1)               0.00394      17.59215       6.27732       5.86811
     8  H(1)              -0.00009      -0.38750      -0.13827      -0.12926

 Normal termination of Gaussian 16 at Wed Apr  9 00:16:10 2025.
