 Gaussian 16, Revision C.01,

 ----------------------------------------------------------------------
 #t hf aug-cc-pvdz symm=none int=(grid=ultrafine) guess=(read,tcheck) s
 table=(opt,rrhf)
 ----------------------------------------------------------------------
 -----
 title
 -----
 Symbolic Z-matrix:
 Charge =  0 Multiplicity = 1

 SCF Done:  E(RHF) =  -620.901137755     A.U. after   15 cycles
 Normal termination of Gaussian 16 at Tue Apr  8 23:48:15 2025.
 Gaussian 16:  ES64L-G16RevC.01  3-Jul-2019

 ----------------------------------------------------------------------
 #t hf aug-cc-pvdz iop(5/13=1,5/36=2,99/5=2) pseudo=read geom=check gue
 ss=(read,tcheck) scf=(maxcycle=1)
 ----------------------------------------------------------------------
 -----
 title
 -----
 Structure from the checkpoint file:  "BDE49_nonexpt_158_mol1.chk"
 Charge =  0 Multiplicity = 1

                         Standard orientation:
 ---------------------------------------------------------------------
 Center     Atomic      Atomic             Coordinates (Angstroms)
 Number     Number       Type             X           Y           Z
 ---------------------------------------------------------------------
      1          5           0        0.673427   -1.813402   -0.483262
      2          5           0       -0.675886   -1.812627    0.487211
      3          6           0       -1.951511   -0.940847    0.355929
      4          6           0       -2.045254    0.076168   -0.613025
      5          6           0       -3.053086   -1.141258    1.213391
      6          6           0       -4.193059   -0.353805    1.093522
      7          6           0       -4.262652    0.645162    0.127623
      8          6           0       -3.185035    0.878795   -0.742492
      9          1           0       -3.003592   -1.917061    1.968479
     10          1           0       -5.038708   -0.511305    1.754439
     11          6           0        1.948128   -0.938520   -0.356997
     12          6           0        2.042163    0.082794    0.607472
     13          6           0        3.050794   -1.144444   -1.211515
     14          6           0        4.191867   -0.358134   -1.093759
     15          6           0        4.260909    0.646247   -0.133489
     16          6           0        3.183522    0.883096    0.735845
     17          1           0        3.001951   -1.924823   -1.961877
     18          1           0        5.038851   -0.521263   -1.751567
     19          7           0       -3.277875    1.842017   -1.748588
     20          7           0        3.229738    1.930918    1.658529
     21          1           0       -1.207466    0.249748   -1.282680
     22          1           0        1.201423    0.264062    1.271524
     23          1           0       -5.159441    1.251225    0.038604
     24          1           0        5.153670    1.259570   -0.054048
     25          1           0       -3.919559    2.599188   -1.564764
     26          1           0       -2.394279    2.174327   -2.106196
     27          1           0        4.156068    2.203711    1.953120
     28          1           0        2.600309    1.836061    2.442232
     29          1           0       -0.687589   -2.625101    1.377586
     30          1           0        0.686891   -2.630259   -1.369205
 ---------------------------------------------------------------------

 SCF Done:  E(RHF) =  -621.539222820     A.U. after    2 cycles

 The electronic state is 1-A.
 Alpha  occ. eigenvalues --  -15.51091 -15.50929 -11.28409 -11.28303 -11.24358
 Alpha  occ. eigenvalues --  -11.24266 -11.24255 -11.24170 -11.23876 -11.23766
 Alpha  occ. eigenvalues --  -11.23409 -11.23327 -11.22019 -11.21933  -7.56548
 Alpha  occ. eigenvalues --   -7.56472  -1.22638  -1.22510  -1.12880  -1.12763
 Alpha  occ. eigenvalues --   -1.01744  -1.01328  -0.99292  -0.99173  -0.85038
 Alpha  occ. eigenvalues --   -0.84556  -0.83280  -0.82759  -0.75566  -0.72984
 Alpha  occ. eigenvalues --   -0.71952  -0.71849  -0.68350  -0.67445  -0.67287
 Alpha  occ. eigenvalues --   -0.63327  -0.62326  -0.61289  -0.60516  -0.59763
 Alpha  occ. eigenvalues --   -0.55868  -0.55713  -0.55480  -0.53601  -0.51489
 Alpha  occ. eigenvalues --   -0.50848  -0.47612  -0.47514  -0.46861  -0.46474
 Alpha  occ. eigenvalues --   -0.41184  -0.35081  -0.34880  -0.31299  -0.31152
 Alpha virt. eigenvalues --    0.02687   0.02929   0.03264   0.03633   0.04279
 Alpha virt. eigenvalues --    0.04653   0.04790   0.04991   0.05492   0.05659
 Alpha virt. eigenvalues --    0.06011   0.06864   0.07296   0.07567   0.08678

 Mulliken charges:
               1
     1  B   -0.563405
     2  B   -0.584323
     3  C    0.004037
     4  C    1.380367
     5  C    0.095544
     6  C    0.083621
     7  C    1.112414
     8  C   -1.767130
     9  H   -0.371946
    10  H   -0.229011
    11  C    0.049427
    12  C    1.339804
    13  C    0.111907
    14  C    0.095660
    15  C    1.106716
    16  C   -1.780182
    17  H   -0.370422
    18  H   -0.228399
    19  N    0.760523
    20  N    0.765531
    21  H   -0.375621
    22  H   -0.413220
    23  H   -0.298846
    24  H   -0.302444
    25  H    0.010818
    26  H    0.009536
    27  H    0.017857
    28  H    0.010499
    29  H    0.172492
    30  H    0.158197
 Sum of Mulliken charges =   0.00000

 Dipole moment (field-independent basis, Debye):
    X=              0.7910    Y=              2.5192    Z=              1.2933  Tot=              2.9402

 Test job not archived.
 1\1\GINC-SE195\SP\RHF\Aug-CC-pVDZ\C12H14B2N2\OHZDE\08-Apr-2025\0\\#t h
 f aug-cc-pvdz iop(5/13=1,5/36=2,99/5=2) pseudo=read geom=check guess=(
 read,tcheck) scf=(maxcycle=1)\\title\\0,1\B,0,0.673427,-1.813402,-0.48
 3262\B,0,-0.675886,-1.812627,0.487211\C,0,-1.951511,-0.940847,0.355929
 \C,0,-2.045254,0.076168,-0.613025\C,0,-3.053086,-1.141258,1.213391\C,0
 ,-4.193059,-0.353805,1.093522\C,0,-4.262652,0.645162,0.127623\C,0,-3.1
 85035,0.878795,-0.742492\H,0,-3.003592,-1.917061,1.968479\H,0,-5.03870
 8,-0.511305,1.754439\C,0,1.948128,-0.93852,-0.356997\C,0,2.042163,0.08

 Normal termination of Gaussian 16 at Tue Apr  8 23:48:53 2025.
