 Gaussian 16, Revision C.01,

 ----------------------------------------------------------------------
 #t hf aug-cc-pvdz symm=none int=(grid=ultrafine) guess=(read,tcheck) s
 table=(opt,rrhf)
 ----------------------------------------------------------------------
 -----
 title
 -----
 Symbolic Z-matrix:
 Charge =  0 Multiplicity = 1

 SCF Done:  E(RHF) =  -1331.64977756     A.U. after   15 cycles
 Normal termination of Gaussian 16 at Tue Apr  8 23:27:49 2025.
 Gaussian 16:  ES64L-G16RevC.01  3-Jul-2019

 ----------------------------------------------------------------------
 #t hf aug-cc-pvdz iop(5/13=1,5/36=2,99/5=2) pseudo=read geom=check gue
 ss=(read,tcheck) scf=(maxcycle=1)
 ----------------------------------------------------------------------
 -----
 title
 -----
 Structure from the checkpoint file:  "BDE49_nonexpt_1247_mol1.chk"
 Charge =  0 Multiplicity = 1

                         Standard orientation:
 ---------------------------------------------------------------------
 Center     Atomic      Atomic             Coordinates (Angstroms)
 Number     Number       Type             X           Y           Z
 ---------------------------------------------------------------------
      1         17           0        2.851882   -0.421813   -0.501455
      2         15           0        1.073415   -1.561153   -0.473642
      3          6           0        0.549375   -1.386395    1.283346
      4          6           0       -0.148677   -0.386794    0.399235
      5          6           0        0.228381    1.064279    0.564631
      6          8           0        0.693316    1.526598    1.575239
      7          8           0        0.006372    1.759260   -0.557941
      8          6           0        0.307524    3.165906   -0.488072
      9          6           0       -1.552702   -0.759284    0.032331
     10          8           0       -1.894280   -1.909161   -0.133673
     11          8           0       -2.375430    0.291036   -0.056777
     12          6           0       -3.741608   -0.012230   -0.407513
     13          1           0        1.266717   -0.965585    1.977594
     14          1           0       -0.052163   -2.206247    1.659408
     15          1           0        1.360604    3.315764   -0.247973
     16          1           0       -0.307967    3.648003    0.272831
     17          1           0        0.076937    3.559301   -1.475105
     18          1           0       -4.189385   -0.666008    0.341578
     19          1           0       -4.249815    0.948322   -0.435691
     20          1           0       -3.781740   -0.500197   -1.381819
 ---------------------------------------------------------------------

 SCF Done:  E(RHF) =  -1332.29492237     A.U. after    2 cycles

 The electronic state is 1-A.
 Alpha  occ. eigenvalues -- -105.56922 -84.35454 -20.60980 -20.59879 -20.55101
 Alpha  occ. eigenvalues --  -20.54779 -11.41634 -11.40825 -11.31058 -11.30314
 Alpha  occ. eigenvalues --  -11.30213 -11.28131 -10.61781  -7.78688  -7.78333
 Alpha  occ. eigenvalues --   -7.78314  -6.81928  -4.34447  -4.33811  -4.33647
 Alpha  occ. eigenvalues --   -1.56550  -1.55399  -1.47013  -1.46342  -1.16696
 Alpha  occ. eigenvalues --   -1.05917  -1.01001  -0.99209  -0.90594  -0.83700
 Alpha  occ. eigenvalues --   -0.79937  -0.77548  -0.76322  -0.70500  -0.69295
 Alpha  occ. eigenvalues --   -0.68545  -0.67552  -0.65679  -0.63613  -0.60212
 Alpha  occ. eigenvalues --   -0.58934  -0.57679  -0.56351  -0.55175  -0.53529
 Alpha  occ. eigenvalues --   -0.51180  -0.49794  -0.49184  -0.48303  -0.47069
 Alpha  occ. eigenvalues --   -0.46149  -0.45028  -0.38904  -0.38360
 Alpha virt. eigenvalues --    0.03097   0.03884   0.04352   0.04686   0.05613
 Alpha virt. eigenvalues --    0.06046   0.06471   0.06732   0.07494   0.08110
 Alpha virt. eigenvalues --    0.09282   0.09599   0.11391   0.11918   0.12316

 Mulliken charges:
               1
     1  Cl  -0.568423
     2  P    0.921616
     3  C   -0.230604
     4  C    0.080815
     5  C    2.328519
     6  O   -1.343733
     7  O   -1.430916
     8  C    0.205979
     9  C    1.972187
    10  O   -1.349887
    11  O   -1.327979
    12  C    0.210039
    13  H   -0.080696
    14  H   -0.148479
    15  H    0.176807
    16  H    0.188370
    17  H    0.026576
    18  H    0.173027
    19  H    0.003290
    20  H    0.193491
 Sum of Mulliken charges =   0.00000

 Dipole moment (field-independent basis, Debye):
    X=             -2.3779    Y=              0.8302    Z=             -1.1088  Tot=              2.7520

 Test job not archived.
 1\1\GINC-SE393\SP\RHF\Aug-CC-pVDZ\C6H8Cl1O4P1\OHZDE\08-Apr-2025\0\\#t
 hf aug-cc-pvdz iop(5/13=1,5/36=2,99/5=2) pseudo=read geom=check guess=
 (read,tcheck) scf=(maxcycle=1)\\title\\0,1\Cl,0,2.851882,-0.421814,-0.
 501455\P,0,1.073415,-1.561153,-0.473642\C,0,0.549375,-1.386395,1.28334
 6\C,0,-0.148677,-0.386794,0.399235\C,0,0.228381,1.064279,0.564631\O,0,
 0.693316,1.526598,1.575239\O,0,0.006372,1.75926,-0.557941\C,0,0.307525
 ,3.165906,-0.488072\C,0,-1.552702,-0.759284,0.032331\O,0,-1.89428,-1.9
 09161,-0.133673\O,0,-2.37543,0.291036,-0.056777\C,0,-3.741608,-0.01222

 Normal termination of Gaussian 16 at Tue Apr  8 23:28:04 2025.
