 Gaussian 16, Revision C.01,

 ----------------------------------------------------------------------
 #t hf aug-cc-pvdz symm=none int=(grid=ultrafine) guess=(read,tcheck) s
 table=opt
 ----------------------------------------------------------------------
 -----
 title
 -----
 Symbolic Z-matrix:
 Charge =  0 Multiplicity = 2

 SCF Done:  E(UHF) =  -950.587580741     A.U. after   19 cycles
 Normal termination of Gaussian 16 at Tue Apr  8 23:05:24 2025.
 Gaussian 16:  ES64L-G16RevC.01  3-Jul-2019

 ----------------------------------------------------------------------
 #t hf aug-cc-pvdz iop(5/13=1,5/36=2,99/5=2) pseudo=read geom=check gue
 ss=(read,tcheck) scf=(maxcycle=1)
 ----------------------------------------------------------------------
 -----
 title
 -----
 Structure from the checkpoint file:  "BDE49_expt_380_mol2.chk"
 Charge =  0 Multiplicity = 2

                         Standard orientation:
 ---------------------------------------------------------------------
 Center     Atomic      Atomic             Coordinates (Angstroms)
 Number     Number       Type             X           Y           Z
 ---------------------------------------------------------------------
      1          6           0       -0.000466   -1.233382    0.608291
      2         16           0        1.550417   -0.776449   -0.311409
      3          6           0        1.332854    0.990155    0.059486
      4         16           0       -0.476619    1.384527    0.044556
      5          1           0        1.822847    1.579454   -0.714628
      6          1           0        1.743195    1.245539    1.036145
      7          6           0       -1.051734   -0.246435    0.243021
      8          6           0       -2.371727   -0.644719   -0.336960
      9          1           0       -2.249839   -1.090210   -1.336756
     10          1           0       -3.042631    0.210050   -0.442614
     11          1           0       -2.873712   -1.387124    0.292158
     12          1           0        0.236157   -1.230713    1.677680
     13          1           0       -0.270352   -2.249960    0.314639
 ---------------------------------------------------------------------

 SCF Done:  E(UHF) =  -950.871528557     A.U. after    2 cycles

 The electronic state is 2-A.
 Alpha  occ. eigenvalues --  -93.95712 -93.95359 -11.30210 -11.28149 -11.27417
 Alpha  occ. eigenvalues --  -11.24460  -8.23847  -8.23390  -6.21608  -6.21471
 Alpha  occ. eigenvalues --   -6.21405  -6.21272  -6.21076  -6.20805  -1.16803
 Alpha  occ. eigenvalues --   -1.05225  -1.01456  -0.93971  -0.82846  -0.75915
 Alpha  occ. eigenvalues --   -0.66070  -0.63808  -0.61698  -0.60113  -0.56317
 Alpha  occ. eigenvalues --   -0.52859  -0.51428  -0.49843  -0.45095  -0.41469
 Alpha  occ. eigenvalues --   -0.35798  -0.29780
 Alpha virt. eigenvalues --    0.03488   0.04103   0.04314   0.04696   0.06106
 Alpha virt. eigenvalues --    0.06590   0.07330   0.08177   0.09817   0.11085
 Alpha virt. eigenvalues --    0.12139   0.13631   0.14019   0.14556   0.15354

  Beta  occ. eigenvalues --  -93.95686 -93.95285 -11.30177 -11.28518 -11.24835
  Beta  occ. eigenvalues --  -11.24739  -8.23814  -8.23303  -6.21728  -6.21536
  Beta  occ. eigenvalues --   -6.21089  -6.21084  -6.20914  -6.20754  -1.14784
  Beta  occ. eigenvalues --   -1.02903  -1.01206  -0.93630  -0.82501  -0.71998
  Beta  occ. eigenvalues --   -0.64928  -0.62283  -0.60774  -0.57780  -0.55715
  Beta  occ. eigenvalues --   -0.52103  -0.51011  -0.48424  -0.43966  -0.37215
  Beta  occ. eigenvalues --   -0.35535
  Beta virt. eigenvalues --    0.03476   0.03978   0.04328   0.04702   0.06076
  Beta virt. eigenvalues --    0.06583   0.07292   0.07928   0.09381   0.10155
  Beta virt. eigenvalues --    0.11411   0.13698   0.13877   0.14144   0.14604

 Mulliken charges and spin densities:
               1          2
     1  C   -0.711412  -0.270823
     2  S    0.528351   0.062986
     3  C   -1.009549  -0.013100
     4  S    0.513856  -0.002780
     5  H    0.234988  -0.001293
     6  H    0.235273  -0.004365
     7  C   -0.112641   1.372162
     8  C   -0.631733  -0.225824
     9  H    0.267150   0.043164
    10  H    0.150701  -0.000358
    11  H    0.214731   0.012757
    12  H    0.231673   0.022218
    13  H    0.088614   0.005256
 Sum of Mulliken charges =  -0.00000   1.00000

 Dipole moment (field-independent basis, Debye):
    X=             -0.5600    Y=             -0.6392    Z=              0.7354  Tot=              1.1238
                          Isotropic Fermi Contact Couplings
        Atom                 a.u.       MegaHertz       Gauss      10(-4) cm-1
     1  C(13)             -0.06028     -67.76195     -24.17915     -22.60295
     2  S(33)              0.02622       9.00491       3.21318       3.00372
     3  C(13)              0.01157      13.01130       4.64276       4.34010
     4  S(33)              0.03286      11.28672       4.02738       3.76485
     5  H(1)               0.00012       0.51423       0.18349       0.17153
     6  H(1)               0.00015       0.68923       0.24593       0.22990
     7  C(13)              0.25693     288.83899     103.06493      96.34632
     8  C(13)             -0.04781     -53.75067     -19.17958     -17.92929

 Normal termination of Gaussian 16 at Tue Apr  8 23:05:30 2025.
