 Gaussian 16, Revision C.01,

 ----------------------------------------------------------------------
 #t hf aug-cc-pvdz symm=none int=(grid=ultrafine) guess=(read,tcheck) s
 table=(opt,rrhf)
 ----------------------------------------------------------------------
 -----
 title
 -----
 Symbolic Z-matrix:
 Charge =  0 Multiplicity = 1

 SCF Done:  E(RHF) =  -1307.04347794     A.U. after   17 cycles
 Normal termination of Gaussian 16 at Tue Apr  8 23:46:39 2025.
 Gaussian 16:  ES64L-G16RevC.01  3-Jul-2019

 ----------------------------------------------------------------------
 #t hf aug-cc-pvdz iop(5/13=1,5/36=2,99/5=2) pseudo=read geom=check gue
 ss=(read,tcheck) scf=(maxcycle=1)
 ----------------------------------------------------------------------
 -----
 title
 -----
 Structure from the checkpoint file:  "BDE49_nonexpt_1716_mol1.chk"
 Charge =  0 Multiplicity = 1

                         Standard orientation:
 ---------------------------------------------------------------------
 Center     Atomic      Atomic             Coordinates (Angstroms)
 Number     Number       Type             X           Y           Z
 ---------------------------------------------------------------------
      1          6           0       -4.509092   -0.315456    0.095255
      2          6           0       -4.022348    0.988320   -0.004523
      3          6           0       -2.654390    1.216380   -0.061787
      4          6           0       -3.623944   -1.391198    0.139448
      5          6           0       -2.252851   -1.168768    0.080377
      6          6           0       -1.758101    0.137465   -0.024750
      7          1           0       -5.577630   -0.492525    0.140936
      8          1           0       -4.710540    1.824735   -0.037774
      9          1           0       -2.257835    2.220571   -0.137595
     10          1           0       -4.001410   -2.403244    0.224343
     11          1           0       -1.571574   -2.008727    0.130960
     12          6           0       -0.307548    0.452575   -0.093054
     13         16           0        0.792460   -0.956774   -0.385294
     14         15           0        2.736259   -0.093095   -0.012838
     15          8           0        3.746101   -1.007083   -0.536004
     16          8           0        0.105667    1.596804   -0.000025
     17          8           0        2.660004    1.363385   -0.584606
     18          1           0        1.773000    1.760934   -0.391787
     19          8           0        2.779616    0.161043    1.569373
     20          1           0        3.061296   -0.626053    2.052500
 ---------------------------------------------------------------------

 SCF Done:  E(RHF) =  -1307.71116532     A.U. after    2 cycles

 The electronic state is 1-A.
 Alpha  occ. eigenvalues --  -93.98878 -84.45858 -20.60492 -20.59004 -20.58328
 Alpha  occ. eigenvalues --  -20.51688 -11.41590 -11.28550 -11.28455 -11.28225
 Alpha  occ. eigenvalues --  -11.28039 -11.27244 -11.27140  -8.27233  -6.90929
 Alpha  occ. eigenvalues --   -6.25001  -6.24837  -6.24641  -4.45099  -4.44360
 Alpha  occ. eigenvalues --   -4.43236  -1.54816  -1.52318  -1.47918  -1.40222
 Alpha  occ. eigenvalues --   -1.19406  -1.09852  -1.05506  -1.04628  -0.91275
 Alpha  occ. eigenvalues --   -0.87277  -0.84761  -0.81032  -0.75327  -0.74529
 Alpha  occ. eigenvalues --   -0.70057  -0.69195  -0.67675  -0.65635  -0.64224
 Alpha  occ. eigenvalues --   -0.63795  -0.63355  -0.61170  -0.58264  -0.57539
 Alpha  occ. eigenvalues --   -0.55887  -0.54526  -0.53787  -0.53299  -0.50135
 Alpha  occ. eigenvalues --   -0.47414  -0.45013  -0.44795  -0.41870  -0.38088
 Alpha  occ. eigenvalues --   -0.37741
 Alpha virt. eigenvalues --    0.02380   0.02780   0.03018   0.03463   0.04463
 Alpha virt. eigenvalues --    0.05331   0.06608   0.07414   0.07956   0.08710
 Alpha virt. eigenvalues --    0.09088   0.10224   0.10518   0.11221   0.11601

 Mulliken charges:
               1
     1  C   -0.037963
     2  C    0.441348
     3  C   -0.447756
     4  C    0.108950
     5  C    0.206674
     6  C    2.352694
     7  H   -0.204126
     8  H   -0.212185
     9  H   -0.335853
    10  H   -0.229521
    11  H   -0.192118
    12  C   -0.104991
    13  S   -0.339806
    14  P    3.662439
    15  O   -1.416961
    16  O   -1.575821
    17  O   -1.496087
    18  H    0.700004
    19  O   -1.239303
    20  H    0.360383
 Sum of Mulliken charges =  -0.00000

 Dipole moment (field-independent basis, Debye):
    X=             -6.4178    Y=             -0.4186    Z=              2.2966  Tot=              6.8292

 Test job not archived.
 1\1\GINC-SE072\SP\RHF\Aug-CC-pVDZ\C7H7O4P1S1\OHZDE\08-Apr-2025\0\\#t h
 f aug-cc-pvdz iop(5/13=1,5/36=2,99/5=2) pseudo=read geom=check guess=(
 read,tcheck) scf=(maxcycle=1)\\title\\0,1\C,0,-4.509092,-0.315456,0.09
 5255\C,0,-4.022348,0.98832,-0.004523\C,0,-2.65439,1.21638,-0.061787\C,
 0,-3.623944,-1.391198,0.139448\C,0,-2.252851,-1.168768,0.080377\C,0,-1
 .758101,0.137465,-0.02475\H,0,-5.57763,-0.492525,0.140936\H,0,-4.71054
 ,1.824735,-0.037774\H,0,-2.257835,2.220571,-0.137595\H,0,-4.00141,-2.4
 03244,0.224343\H,0,-1.571574,-2.008727,0.13096\C,0,-0.307548,0.452575,

 Normal termination of Gaussian 16 at Tue Apr  8 23:46:55 2025.
