 Gaussian 16, Revision C.01,

 ----------------------------------------------------------------------
 #t hf aug-cc-pvdz symm=none int=(grid=ultrafine) guess=(read,tcheck) s
 table=opt
 ----------------------------------------------------------------------
 -----
 title
 -----
 Symbolic Z-matrix:
 Charge =  0 Multiplicity = 2

 SCF Done:  E(UHF) =  -1851.35995577     A.U. after   20 cycles
 Normal termination of Gaussian 16 at Wed Apr  9 00:48:39 2025.
 Gaussian 16:  ES64L-G16RevC.01  3-Jul-2019

 ----------------------------------------------------------------------
 #t hf aug-cc-pvdz iop(5/13=1,5/36=2,99/5=2) pseudo=read geom=check gue
 ss=(read,tcheck) scf=(maxcycle=1)
 ----------------------------------------------------------------------
 -----
 title
 -----
 Structure from the checkpoint file:  "BDE49_nonexpt_874_mol2.chk"
 Charge =  0 Multiplicity = 2

                         Standard orientation:
 ---------------------------------------------------------------------
 Center     Atomic      Atomic             Coordinates (Angstroms)
 Number     Number       Type             X           Y           Z
 ---------------------------------------------------------------------
      1         16           0        2.286605    0.000000   -0.537289
      2         16           0        1.052751   -0.000003    0.991192
      3          6           0       -0.705018   -0.000000    0.304860
      4          9           0       -1.476658   -0.000001    1.414011
      5         17           0       -1.056168   -1.464937   -0.641699
      6         17           0       -1.056165    1.464939   -0.641695
 ---------------------------------------------------------------------

 SCF Done:  E(UHF) =  -1851.74910745     A.U. after    2 cycles

 The electronic state is 2-A.
 Alpha  occ. eigenvalues -- -105.60807-105.60806 -94.03840 -94.01358 -26.53039
 Alpha  occ. eigenvalues --  -11.50864 -10.65669 -10.65661  -8.31791  -8.29457
 Alpha  occ. eigenvalues --   -7.82628  -7.82623  -7.82172  -7.82170  -7.82166
 Alpha  occ. eigenvalues --   -7.82166  -6.29498  -6.29457  -6.29226  -6.28325
 Alpha  occ. eigenvalues --   -6.26927  -6.26505  -1.66962  -1.20106  -1.13813
 Alpha  occ. eigenvalues --   -1.08695  -0.96284  -0.85867  -0.74480  -0.73880
 Alpha  occ. eigenvalues --   -0.72531  -0.60151  -0.59869  -0.54839  -0.54390
 Alpha  occ. eigenvalues --   -0.52408  -0.49541  -0.48917  -0.48021  -0.41362
 Alpha  occ. eigenvalues --   -0.39612
 Alpha virt. eigenvalues --    0.05577   0.06186   0.07950   0.08108   0.08748
 Alpha virt. eigenvalues --    0.11117   0.11358   0.12086   0.12740   0.12835
 Alpha virt. eigenvalues --    0.14399   0.14808   0.15564   0.16740   0.17716

  Beta  occ. eigenvalues -- -105.60800-105.60799 -94.03623 -94.00535 -26.53051
  Beta  occ. eigenvalues --  -11.50939 -10.65662 -10.65654  -8.31539  -8.28513
  Beta  occ. eigenvalues --   -7.82598  -7.82594  -7.82168  -7.82167  -7.82162
  Beta  occ. eigenvalues --   -7.82160  -6.29366  -6.29148  -6.28499  -6.26481
  Beta  occ. eigenvalues --   -6.25991  -6.24693  -1.66993  -1.19441  -1.11339
  Beta  occ. eigenvalues --   -1.08633  -0.92606  -0.83530  -0.74390  -0.73540
  Beta  occ. eigenvalues --   -0.71834  -0.59691  -0.59437  -0.52988  -0.52092
  Beta  occ. eigenvalues --   -0.50847  -0.48599  -0.48130  -0.43711  -0.39638
  Beta virt. eigenvalues --   -0.01986   0.05800   0.06449   0.07993   0.08181
  Beta virt. eigenvalues --    0.08862   0.11191   0.11807   0.12098   0.13019
  Beta virt. eigenvalues --    0.13466   0.14730   0.15214   0.16343   0.17116

 Mulliken charges and spin densities:
               1          2
     1  S    0.029840   0.902484
     2  S    0.372842   0.135769
     3  C    0.010160  -0.042387
     4  F   -0.574148  -0.000897
     5  Cl   0.080654   0.002515
     6  Cl   0.080653   0.002515
 Sum of Mulliken charges =  -0.00000   1.00000

 Dipole moment (field-independent basis, Debye):
    X=              0.4856    Y=             -0.0000    Z=             -0.1429  Tot=              0.5062
                          Isotropic Fermi Contact Couplings
        Atom                 a.u.       MegaHertz       Gauss      10(-4) cm-1
     1  S(33)              0.19384      66.57839      23.75683      22.20816
     2  S(33)              0.09024      30.99595      11.06013      10.33914
     3  C(13)             -0.01482     -16.66361      -5.94599      -5.55838
     4  F(19)             -0.00230      -9.68032      -3.45418      -3.22901
     5  Cl(35)            -0.00027      -0.11750      -0.04193      -0.03919
     6  Cl(35)            -0.00027      -0.11751      -0.04193      -0.03920
 --------------------------------------------------------
       Center         ----  Spin Dipole Couplings  ----

 Normal termination of Gaussian 16 at Wed Apr  9 00:48:42 2025.
