 Gaussian 16, Revision C.01,

 ----------------------------------------------------------------------
 #t hf aug-cc-pvdz symm=none int=(grid=ultrafine) guess=(read,tcheck) s
 table=(opt,rrhf)
 ----------------------------------------------------------------------
 -----
 title
 -----
 Symbolic Z-matrix:
 Charge =  0 Multiplicity = 1

 SCF Done:  E(RHF) =  -1007.79378836     A.U. after   15 cycles
 Normal termination of Gaussian 16 at Wed Apr  9 00:22:39 2025.
 Gaussian 16:  ES64L-G16RevC.01  3-Jul-2019

 ----------------------------------------------------------------------
 #t hf aug-cc-pvdz iop(5/13=1,5/36=2,99/5=2) pseudo=read geom=check gue
 ss=(read,tcheck) scf=(maxcycle=1)
 ----------------------------------------------------------------------
 -----
 title
 -----
 Structure from the checkpoint file:  "BDE49_nonexpt_2666_mol1.chk"
 Charge =  0 Multiplicity = 1

                         Standard orientation:
 ---------------------------------------------------------------------
 Center     Atomic      Atomic             Coordinates (Angstroms)
 Number     Number       Type             X           Y           Z
 ---------------------------------------------------------------------
      1          9           0       -2.207057    0.127083   -0.000360
      2         16           0       -0.790962   -0.859236    0.000356
      3          6           0        0.404615    0.368476    0.000324
      4         16           0        1.908199   -0.277301   -0.000266
      5          8           0        0.059385    1.640992   -0.000036
      6          1           0       -0.915047    1.702069    0.000153
 ---------------------------------------------------------------------

 SCF Done:  E(RHF) =  -1008.10808441     A.U. after    2 cycles

 The electronic state is 1-A.
 Alpha  occ. eigenvalues --  -94.09417 -93.95094 -26.50406 -20.65951 -11.44674
 Alpha  occ. eigenvalues --   -8.36713  -8.23390  -6.34451  -6.34171  -6.33861
 Alpha  occ. eigenvalues --   -6.21242  -6.20910  -6.20821  -1.60151  -1.57777
 Alpha  occ. eigenvalues --   -1.16545  -1.02371  -0.86113  -0.78121  -0.69489
 Alpha  occ. eigenvalues --   -0.68921  -0.64973  -0.64748  -0.60313  -0.53857
 Alpha  occ. eigenvalues --   -0.48060  -0.38556  -0.38030
 Alpha virt. eigenvalues --    0.02946   0.04619   0.05139   0.06590   0.08297
 Alpha virt. eigenvalues --    0.11216   0.11671   0.12436   0.12901   0.13503
 Alpha virt. eigenvalues --    0.14724   0.16103   0.16777   0.20985   0.21938

 Mulliken charges:
               1
     1  F   -0.681791
     2  S    1.065018
     3  C   -0.082959
     4  S    0.401478
     5  O   -1.153702
     6  H    0.451957
 Sum of Mulliken charges =  -0.00000

 Dipole moment (field-independent basis, Debye):
    X=             -2.0971    Y=              0.3729    Z=              0.0011  Tot=              2.1300

 Test job not archived.
 1\1\GINC-SE249\SP\RHF\Aug-CC-pVDZ\C1H1F1O1S2\OHZDE\09-Apr-2025\0\\#t h
 f aug-cc-pvdz iop(5/13=1,5/36=2,99/5=2) pseudo=read geom=check guess=(
 read,tcheck) scf=(maxcycle=1)\\title\\0,1\F,0,2.207057,0.127083,0.0003
 6\S,0,0.790962,-0.859236,-0.000356\C,0,-0.404615,0.368476,-0.000324\S,
 0,-1.908199,-0.277301,0.000266\O,0,-0.059385,1.640992,0.000036\H,0,0.9
 15047,1.702069,-0.000153\\Version=ES64L-G16RevC.01\State=1-A\HF=-1008.
 1080844\RMSD=6.490e-03\Dipole=0.8250501,0.1466936,-0.0004445\Quadrupol
 e=-2.1750231,2.0542833,0.1207398,1.3627898,-0.0013501,-0.0007415\PG=C0

 Normal termination of Gaussian 16 at Wed Apr  9 00:22:41 2025.
