 Gaussian 16, Revision C.01,

 ----------------------------------------------------------------------
 #t hf aug-cc-pvdz symm=none int=(grid=ultrafine) guess=(read,tcheck) s
 table=(opt,rrhf)
 ----------------------------------------------------------------------
 -----
 title
 -----
 Symbolic Z-matrix:
 Charge =  0 Multiplicity = 1

 SCF Done:  E(RHF) =  -1030.91302579     A.U. after   12 cycles

 1\1\GINC-SE341\Stability\RHF\Aug-CC-pVDZ\H6O6Si2\OHZDE\09-Apr-2025\0\\
 #t hf aug-cc-pvdz symm=none int=(grid=ultrafine) guess=(read,tcheck) s
 table=(opt,rrhf)\\title\\0,1\Si,0,0.071439,1.166118,0.030084\Si,0,-0.0
 71439,-1.166118,0.030084\O,0,-0.418765,-1.939824,1.438451\H,0,0.329981
 ,-2.24267,1.958669\O,0,0.418765,1.939824,1.438451\H,0,-0.329981,2.2426
 7,1.958669\O,0,1.351473,-1.815227,-0.492401\H,0,1.880333,-1.241481,-1.
 056349\O,0,-1.351473,1.815227,-0.492401\H,0,-1.880333,1.241481,-1.0563
 49\O,0,-1.351473,-1.413845,-0.977272\H,0,-1.699204,-2.30569,-1.073722\

 Normal termination of Gaussian 16 at Wed Apr  9 00:10:00 2025.
 Gaussian 16:  ES64L-G16RevC.01  3-Jul-2019

 ----------------------------------------------------------------------
 #t hf aug-cc-pvdz iop(5/13=1,5/36=2,99/5=2) pseudo=read geom=check gue
 ss=(read,tcheck) scf=(maxcycle=1)
 ----------------------------------------------------------------------
 -----
 title
 -----
 Structure from the checkpoint file:  "BDE49_nonexpt_2332_mol1.chk"
 Charge =  0 Multiplicity = 1

                         Standard orientation:
 ---------------------------------------------------------------------
 Center     Atomic      Atomic             Coordinates (Angstroms)
 Number     Number       Type             X           Y           Z
 ---------------------------------------------------------------------
      1         14           0        0.071439    1.166118    0.030084
      2         14           0       -0.071439   -1.166118    0.030084
      3          8           0       -0.418765   -1.939824    1.438451
      4          1           0        0.329981   -2.242670    1.958669
      5          8           0        0.418765    1.939824    1.438451
      6          1           0       -0.329981    2.242670    1.958669
      7          8           0        1.351473   -1.815227   -0.492401
      8          1           0        1.880333   -1.241481   -1.056349
      9          8           0       -1.351473    1.815227   -0.492401
     10          1           0       -1.880333    1.241481   -1.056349
     11          8           0       -1.351473   -1.413845   -0.977272
     12          1           0       -1.699204   -2.305690   -1.073722
     13          8           0        1.351473    1.413845   -0.977272
     14          1           0        1.699204    2.305690   -1.073722
 ---------------------------------------------------------------------

 SCF Done:  E(RHF) =  -1031.42487397     A.U. after    2 cycles

 The electronic state is 1-A.
 Alpha  occ. eigenvalues --  -69.59751 -69.59751 -20.55469 -20.55468 -20.55144
 Alpha  occ. eigenvalues --  -20.55143 -20.55058 -20.55057  -6.25819  -6.25807
 Alpha  occ. eigenvalues --   -4.01305  -4.01300  -4.01284  -4.01276  -4.01125
 Alpha  occ. eigenvalues --   -4.01029  -1.46644  -1.46260  -1.43355  -1.43044
 Alpha  occ. eigenvalues --   -1.42610  -1.42511  -0.80630  -0.77306  -0.72091
 Alpha  occ. eigenvalues --   -0.70955  -0.70361  -0.70127  -0.61436  -0.59123
 Alpha  occ. eigenvalues --   -0.57585  -0.57255  -0.55456  -0.55255  -0.53031
 Alpha  occ. eigenvalues --   -0.52374  -0.52248  -0.50901  -0.49420  -0.48907
 Alpha  occ. eigenvalues --   -0.41275
 Alpha virt. eigenvalues --    0.03493   0.03978   0.04914   0.05090   0.06837
 Alpha virt. eigenvalues --    0.06887   0.07600   0.07785   0.08498   0.09767
 Alpha virt. eigenvalues --    0.09897   0.10110   0.12868   0.14550   0.15566

 Mulliken charges:
               1
     1  Si   3.224030
     2  Si   3.224030
     3  O   -1.423825
     4  H    0.377180
     5  O   -1.423825
     6  H    0.377180
     7  O   -1.568717
     8  H    0.477350
     9  O   -1.568717
    10  H    0.477350
    11  O   -1.478143
    12  H    0.392125
    13  O   -1.478143
    14  H    0.392125
 Sum of Mulliken charges =  -0.00000

 Dipole moment (field-independent basis, Debye):
    X=              0.0000    Y=              0.0000    Z=             -0.1942  Tot=              0.1942

 Test job not archived.
 1\1\GINC-SE341\SP\RHF\Aug-CC-pVDZ\H6O6Si2\OHZDE\09-Apr-2025\0\\#t hf a
 ug-cc-pvdz iop(5/13=1,5/36=2,99/5=2) pseudo=read geom=check guess=(rea
 d,tcheck) scf=(maxcycle=1)\\title\\0,1\Si,0,0.071439,1.166118,0.030084
 \Si,0,-0.071439,-1.166118,0.030084\O,0,-0.418765,-1.939824,1.438451\H,
 0,0.329981,-2.24267,1.958669\O,0,0.418765,1.939824,1.438451\H,0,-0.329
 981,2.24267,1.958669\O,0,1.351473,-1.815227,-0.492401\H,0,1.880333,-1.
 241481,-1.056349\O,0,-1.351473,1.815227,-0.492401\H,0,-1.880333,1.2414
 81,-1.056349\O,0,-1.351473,-1.413845,-0.977272\H,0,-1.699204,-2.30569,

 Normal termination of Gaussian 16 at Wed Apr  9 00:10:20 2025.
