 Gaussian 16, Revision C.01,

 ----------------------------------------------------------------------
 #t hf aug-cc-pvdz symm=none int=(grid=ultrafine) guess=(read,tcheck) s
 table=opt
 ----------------------------------------------------------------------
 -----
 title
 -----
 Symbolic Z-matrix:
 Charge =  0 Multiplicity = 2

 SCF Done:  E(UHF) =  -501.606720830     A.U. after   17 cycles

 1\1\GINC-SE125\Stability\UHF\Aug-CC-pVDZ\C9H19O2\OHZDE\08-Apr-2025\0\\
 #t hf aug-cc-pvdz symm=none int=(grid=ultrafine) guess=(read,tcheck) s
 table=opt\\title\\0,2\C,0,0.186495,-1.394159,0.072958\O,0,1.313133,-1.
 318711,-0.679372\O,0,-0.836031,-0.586186,-0.367457\H,0,-0.086896,-2.43
 1456,0.279977\C,0,1.897482,-0.012386,-0.843964\C,0,-2.026195,-0.671225
 ,0.418368\C,0,-3.117621,0.180642,-0.223817\H,0,-1.816999,-0.328171,1.4
 40841\H,0,-2.348767,-1.72062,0.474028\C,0,-2.718696,1.659745,-0.284502
 \H,0,-2.587366,2.068852,0.723446\H,0,-3.490091,2.250598,-0.786226\H,0,

 Normal termination of Gaussian 16 at Tue Apr  8 23:06:53 2025.
 Gaussian 16:  ES64L-G16RevC.01  3-Jul-2019

 ----------------------------------------------------------------------
 #t hf aug-cc-pvdz iop(5/13=1,5/36=2,99/5=2) pseudo=read geom=check gue
 ss=(read,tcheck) scf=(maxcycle=1)
 ----------------------------------------------------------------------
 -----
 title
 -----
 Structure from the checkpoint file:  "BDE49_expt_193_mol2.chk"
 Charge =  0 Multiplicity = 2

                         Standard orientation:
 ---------------------------------------------------------------------
 Center     Atomic      Atomic             Coordinates (Angstroms)
 Number     Number       Type             X           Y           Z
 ---------------------------------------------------------------------
      1          6           0        0.186495   -1.394159    0.072958
      2          8           0        1.313133   -1.318711   -0.679372
      3          8           0       -0.836031   -0.586186   -0.367457
      4          1           0       -0.086896   -2.431456    0.279977
      5          6           0        1.897482   -0.012386   -0.843964
      6          6           0       -2.026195   -0.671225    0.418368
      7          6           0       -3.117621    0.180642   -0.223817
      8          1           0       -1.816999   -0.328171    1.440841
      9          1           0       -2.348767   -1.720620    0.474028
     10          6           0       -2.718696    1.659745   -0.284502
     11          1           0       -2.587366    2.068852    0.723446
     12          1           0       -3.490091    2.250598   -0.786226
     13          1           0       -1.781517    1.791300   -0.827539
     14          6           0       -4.440555   -0.016744    0.527979
     15          1           0       -3.243564   -0.186001   -1.249785
     16          1           0       -4.356657    0.316005    1.568116
     17          1           0       -4.749007   -1.066346    0.535366
     18          1           0       -5.241239    0.562101    0.060775
     19          6           0        2.720811    0.418685    0.373710
     20          1           0        1.111042    0.714330   -1.059781
     21          1           0        2.536997   -0.103177   -1.725895
     22          6           0        3.232511    1.850624    0.171578
     23          1           0        3.891472    1.913921   -0.701479
     24          1           0        3.805333    2.186038    1.040261
     25          1           0        2.409817    2.556080    0.021610
     26          6           0        3.866668   -0.560296    0.651981
     27          1           0        2.042215    0.411386    1.235775
     28          1           0        4.400927   -0.289718    1.567131
     29          1           0        4.590469   -0.556009   -0.170873
     30          1           0        3.491612   -1.579266    0.763136
 ---------------------------------------------------------------------

 SCF Done:  E(UHF) =  -502.141595418     A.U. after    2 cycles

 The electronic state is 2-A.
 Alpha  occ. eigenvalues --  -20.55938 -20.55550 -11.33012 -11.28805 -11.27864
 Alpha  occ. eigenvalues --  -11.23838 -11.23165 -11.22887 -11.22422 -11.22144
 Alpha  occ. eigenvalues --  -11.21613  -1.51668  -1.45069  -1.09032  -1.08168
 Alpha  occ. eigenvalues --   -0.96463  -0.93508  -0.93012  -0.92475  -0.84851
 Alpha  occ. eigenvalues --   -0.78712  -0.77451  -0.71382  -0.68383  -0.67257
 Alpha  occ. eigenvalues --   -0.65272  -0.63084  -0.61582  -0.60489  -0.58774
 Alpha  occ. eigenvalues --   -0.56111  -0.55971  -0.54428  -0.54028  -0.53307
 Alpha  occ. eigenvalues --   -0.52426  -0.50704  -0.50175  -0.48651  -0.47924
 Alpha  occ. eigenvalues --   -0.47481  -0.47323  -0.46400  -0.43664  -0.32010
 Alpha virt. eigenvalues --    0.03342   0.03392   0.03586   0.04111   0.04589
 Alpha virt. eigenvalues --    0.04838   0.05060   0.06078   0.06745   0.06947
 Alpha virt. eigenvalues --    0.07119   0.07574   0.07858   0.08299   0.09348

  Beta  occ. eigenvalues --  -20.55438 -20.55149 -11.30550 -11.28823 -11.27841
  Beta  occ. eigenvalues --  -11.23844 -11.23145 -11.22888 -11.22428 -11.22145
  Beta  occ. eigenvalues --  -11.21615  -1.49954  -1.43892  -1.08901  -1.08090
  Beta  occ. eigenvalues --   -0.94968  -0.93507  -0.93001  -0.92375  -0.81779
  Beta  occ. eigenvalues --   -0.78587  -0.76762  -0.70210  -0.67836  -0.65403
  Beta  occ. eigenvalues --   -0.63551  -0.62062  -0.61155  -0.59607  -0.57744
  Beta  occ. eigenvalues --   -0.55885  -0.55561  -0.54238  -0.53934  -0.52049
  Beta  occ. eigenvalues --   -0.51727  -0.50453  -0.48977  -0.48429  -0.47748
  Beta  occ. eigenvalues --   -0.47241  -0.46283  -0.45622  -0.41893
  Beta virt. eigenvalues --    0.03313   0.03403   0.03588   0.04120   0.04594
  Beta virt. eigenvalues --    0.04830   0.05059   0.06019   0.06728   0.06936
  Beta virt. eigenvalues --    0.07117   0.07516   0.07861   0.08290   0.09356

 Mulliken charges and spin densities:
               1          2
     1  C    1.507775   1.054270
     2  O   -1.430185  -0.015757
     3  O   -1.372576   0.028910
     4  H   -0.000318  -0.036910
     5  C    0.933038  -0.023071
     6  C    0.773281   0.000258
     7  C   -1.636310   0.002545
     8  H    0.169880  -0.015668
     9  H    0.098876   0.006145
    10  C    0.029568  -0.001662
    11  H    0.222699   0.000736
    12  H    0.139521  -0.000099
    13  H    0.175947  -0.001985
    14  C   -0.066868  -0.002012
    15  H    0.168927   0.002730
    16  H    0.234966   0.000645
    17  H    0.160234  -0.000265
    18  H    0.152699  -0.000147
    19  C   -1.675463   0.016424
    20  H    0.160578  -0.003494
    21  H    0.054227   0.006543
    22  C   -0.109432  -0.006474
    23  H    0.237267   0.000059
    24  H    0.144961   0.000074
    25  H    0.151991   0.000479
    26  C   -0.000430  -0.000777
    27  H    0.213037  -0.009687
    28  H    0.152759   0.001361
    29  H    0.235604  -0.000212
    30  H    0.173745  -0.002959
 Sum of Mulliken charges =  -0.00000   1.00000

 Dipole moment (field-independent basis, Debye):
    X=             -1.0420    Y=              0.6784    Z=              0.8079  Tot=              1.4828
                          Isotropic Fermi Contact Couplings
        Atom                 a.u.       MegaHertz       Gauss      10(-4) cm-1
     1  C(13)              0.33132     372.46159     132.90356     124.23981
     2  O(17)              0.02899     -17.57086      -6.26972      -5.86101
     3  O(17)              0.05009     -30.36215     -10.83397     -10.12772
     4  H(1)              -0.00218      -9.72378      -3.46969      -3.24350
     5  C(13)              0.00717       8.06051       2.87619       2.68870
     6  C(13)             -0.00050      -0.56699      -0.20232      -0.18913
     7  C(13)             -0.00143      -1.60905      -0.57415      -0.53672
     8  H(1)              -0.00032      -1.42867      -0.50978      -0.47655

 Normal termination of Gaussian 16 at Tue Apr  8 23:07:21 2025.
