 Gaussian 16, Revision C.01,

 ----------------------------------------------------------------------
 #t hf aug-cc-pvdz symm=none int=(grid=ultrafine) guess=(read,tcheck) s
 table=(opt,rrhf)
 ----------------------------------------------------------------------
 -----
 title
 -----
 Symbolic Z-matrix:
 Charge =  0 Multiplicity = 1

 SCF Done:  E(RHF) =  -1187.60846223     A.U. after   15 cycles

 1\1\GINC-SE090\Stability\RHF\Aug-CC-pVDZ\C7H6Cl2\OHZDE\08-Apr-2025\0\\
 #t hf aug-cc-pvdz symm=none int=(grid=ultrafine) guess=(read,tcheck) s
 table=(opt,rrhf)\\title\\0,1\C,0,-0.839425,0.000008,-1.087263\C,0,-2.2
 06482,0.00001,-1.331266\C,0,-3.11072,0.000002,-0.267525\C,0,-2.641094,
 -0.000008,1.041814\C,0,-1.269397,-0.000009,1.289322\C,0,-0.363737,-0.0
 00001,0.22754\H,0,-0.137046,0.000015,-1.912311\H,0,-2.570193,0.000017,
 -2.352243\C,0,1.103677,-0.000003,0.534127\H,0,-0.905015,-0.000016,2.31
 1123\Cl,0,1.93528,1.480166,-0.1029\Cl,0,1.935279,-1.480166,-0.102916\H

 Normal termination of Gaussian 16 at Tue Apr  8 22:49:37 2025.
 Gaussian 16:  ES64L-G16RevC.01  3-Jul-2019

 ----------------------------------------------------------------------
 #t hf aug-cc-pvdz iop(5/13=1,5/36=2,99/5=2) pseudo=read geom=check gue
 ss=(read,tcheck) scf=(maxcycle=1)
 ----------------------------------------------------------------------
 -----
 title
 -----
 Structure from the checkpoint file:  "BDE49_expt_1698_mol1.chk"
 Charge =  0 Multiplicity = 1

                         Standard orientation:
 ---------------------------------------------------------------------
 Center     Atomic      Atomic             Coordinates (Angstroms)
 Number     Number       Type             X           Y           Z
 ---------------------------------------------------------------------
      1          6           0       -0.839425    0.000008   -1.087263
      2          6           0       -2.206482    0.000010   -1.331266
      3          6           0       -3.110720    0.000002   -0.267525
      4          6           0       -2.641094   -0.000008    1.041814
      5          6           0       -1.269397   -0.000009    1.289322
      6          6           0       -0.363737   -0.000001    0.227540
      7          1           0       -0.137046    0.000015   -1.912311
      8          1           0       -2.570193    0.000017   -2.352243
      9          6           0        1.103677   -0.000003    0.534127
     10          1           0       -0.905015   -0.000016    2.311123
     11         17           0        1.935280    1.480166   -0.102900
     12         17           0        1.935279   -1.480166   -0.102916
     13          1           0        1.290697   -0.000009    1.602039
     14          1           0       -3.337832   -0.000014    1.871979
     15          1           0       -4.177050    0.000003   -0.462214
 ---------------------------------------------------------------------

 SCF Done:  E(RHF) =  -1188.03624130     A.U. after    2 cycles

 The electronic state is 1-A.
 Alpha  occ. eigenvalues -- -105.57479-105.57478 -11.38548 -11.27277 -11.26446
 Alpha  occ. eigenvalues --  -11.25978 -11.25956 -11.25824 -11.25745 -10.62268
 Alpha  occ. eigenvalues --  -10.62260  -7.79207  -7.79206  -7.78809  -7.78809
 Alpha  occ. eigenvalues --   -7.78808  -7.78804  -1.19488  -1.14491  -1.04179
 Alpha  occ. eigenvalues --   -1.03815  -1.03384  -0.90531  -0.85666  -0.81638
 Alpha  occ. eigenvalues --   -0.73220  -0.68641  -0.66339  -0.62808  -0.61746
 Alpha  occ. eigenvalues --   -0.60379  -0.60211  -0.53943  -0.52321  -0.52310
 Alpha  occ. eigenvalues --   -0.47695  -0.47544  -0.45556  -0.44897  -0.36305
 Alpha  occ. eigenvalues --   -0.35769
 Alpha virt. eigenvalues --    0.03057   0.03329   0.04124   0.05157   0.06064
 Alpha virt. eigenvalues --    0.07530   0.07881   0.08252   0.09299   0.09392
 Alpha virt. eigenvalues --    0.11276   0.11651   0.12463   0.13021   0.13591

 Mulliken charges:
               1
     1  C   -0.391609
     2  C    0.391875
     3  C   -0.136682
     4  C    0.440167
     5  C   -0.255292
     6  C    2.274707
     7  H   -0.254000
     8  H   -0.214497
     9  C   -1.130406
    10  H   -0.285379
    11  Cl  -0.016654
    12  Cl  -0.016654
    13  H    0.023836
    14  H   -0.223598
    15  H   -0.205814
 Sum of Mulliken charges =  -0.00000

 Dipole moment (field-independent basis, Debye):
    X=             -2.5075    Y=             -0.0000    Z=              0.9145  Tot=              2.6690

 Test job not archived.
 1\1\GINC-SE090\SP\RHF\Aug-CC-pVDZ\C7H6Cl2\OHZDE\08-Apr-2025\0\\#t hf a
 ug-cc-pvdz iop(5/13=1,5/36=2,99/5=2) pseudo=read geom=check guess=(rea
 d,tcheck) scf=(maxcycle=1)\\title\\0,1\C,0,-0.839425,0.000008,-1.08726
 3\C,0,-2.206482,0.00001,-1.331266\C,0,-3.11072,0.000002,-0.267525\C,0,
 -2.641094,-0.000008,1.041814\C,0,-1.269397,-0.000009,1.289322\C,0,-0.3
 63737,-0.000001,0.22754\H,0,-0.137046,0.000015,-1.912311\H,0,-2.570193
 ,0.000017,-2.352243\C,0,1.103677,-0.000003,0.534127\H,0,-0.905015,-0.0
 00016,2.311123\Cl,0,1.93528,1.480166,-0.1029\Cl,0,1.935279,-1.480166,-

 Normal termination of Gaussian 16 at Tue Apr  8 22:49:44 2025.
