 Gaussian 16, Revision C.01,

 ----------------------------------------------------------------------
 #t hf aug-cc-pvdz symm=none int=(grid=ultrafine) guess=(read,tcheck) s
 table=(opt,rrhf)
 ----------------------------------------------------------------------
 -----
 title
 -----
 Symbolic Z-matrix:
 Charge =  0 Multiplicity = 1

 SCF Done:  E(RHF) =  -628.103267297     A.U. after   16 cycles
 Normal termination of Gaussian 16 at Tue Apr  8 23:14:37 2025.
 Gaussian 16:  ES64L-G16RevC.01  3-Jul-2019

 ----------------------------------------------------------------------
 #t hf aug-cc-pvdz iop(5/13=1,5/36=2,99/5=2) pseudo=read geom=check gue
 ss=(read,tcheck) scf=(maxcycle=1)
 ----------------------------------------------------------------------
 -----
 title
 -----
 Structure from the checkpoint file:  "BDE49_expt_432_mol1.chk"
 Charge =  0 Multiplicity = 1

                         Standard orientation:
 ---------------------------------------------------------------------
 Center     Atomic      Atomic             Coordinates (Angstroms)
 Number     Number       Type             X           Y           Z
 ---------------------------------------------------------------------
      1          6           0       -0.480431   -0.671205   -0.076184
      2          8           0       -0.223101   -1.855519   -0.210544
      3          7           0        0.474221    0.311606    0.065998
      4          6           0       -1.903242   -0.178967   -0.035576
      5          6           0        1.879634    0.194611    0.047023
      6          6           0       -2.287595    1.118402   -0.394745
      7          6           0       -3.628273    1.492946   -0.353468
      8          6           0       -4.596946    0.576128    0.048008
      9          6           0       -4.222681   -0.722248    0.393050
     10          6           0       -2.886048   -1.099935    0.342293
     11          6           0        2.622248    1.360547    0.284717
     12          6           0        2.552010   -1.008632   -0.204634
     13          6           0        3.944671   -1.022839   -0.214328
     14          6           0        4.682911    0.133725    0.022177
     15          6           0        4.010630    1.328474    0.272925
     16          1           0        2.105525    2.295993    0.478874
     17          1           0        4.566543    2.240292    0.459929
     18          1           0        1.982648   -1.907527   -0.380068
     19          1           0        4.455261   -1.959345   -0.409504
     20          1           0        5.766121    0.106211    0.012276
     21          1           0       -4.974804   -1.441198    0.697293
     22          1           0       -2.577372   -2.108323    0.587580
     23          1           0       -1.554135    1.835032   -0.748669
     24          1           0       -3.916063    2.496603   -0.644848
     25          1           0       -5.640120    0.869248    0.082337
     26          1           0        0.130324    1.229877    0.299609
 ---------------------------------------------------------------------

 SCF Done:  E(RHF) =  -628.740242140     A.U. after    2 cycles

 The electronic state is 1-A.
 Alpha  occ. eigenvalues --  -20.51873 -15.54817 -11.37370 -11.29487 -11.26789
 Alpha  occ. eigenvalues --  -11.26500 -11.26236 -11.25933 -11.25784 -11.25617
 Alpha  occ. eigenvalues --  -11.24807 -11.24510 -11.24387 -11.23663 -11.23317
 Alpha  occ. eigenvalues --   -1.46820  -1.26840  -1.17324  -1.14786  -1.05533
 Alpha  occ. eigenvalues --   -1.03499  -1.02097  -1.01305  -0.90719  -0.86235
 Alpha  occ. eigenvalues --   -0.85574  -0.83820  -0.79896  -0.76777  -0.73449
 Alpha  occ. eigenvalues --   -0.69650  -0.69018  -0.65974  -0.64736  -0.63493
 Alpha  occ. eigenvalues --   -0.62574  -0.62075  -0.61667  -0.60601  -0.59825
 Alpha  occ. eigenvalues --   -0.54064  -0.53715  -0.53236  -0.52071  -0.51055
 Alpha  occ. eigenvalues --   -0.50897  -0.45927  -0.43300  -0.36571  -0.35999
 Alpha  occ. eigenvalues --   -0.34889  -0.32210
 Alpha virt. eigenvalues --    0.02569   0.03085   0.03528   0.03910   0.04416
 Alpha virt. eigenvalues --    0.05282   0.05774   0.05944   0.06427   0.06628
 Alpha virt. eigenvalues --    0.08081   0.08993   0.09148   0.09763   0.10465

 Mulliken charges:
               1
     1  C   -0.653686
     2  O   -1.548068
     3  N    1.468222
     4  C    1.976617
     5  C   -1.495588
     6  C    0.736903
     7  C   -0.065056
     8  C    0.124139
     9  C    0.118066
    10  C   -0.046406
    11  C    0.590771
    12  C    0.365567
    13  C    0.543262
    14  C    0.058115
    15  C    0.480844
    16  H   -0.391043
    17  H   -0.230208
    18  H   -0.331778
    19  H   -0.230581
    20  H   -0.231722
    21  H   -0.220363
    22  H   -0.319797
    23  H   -0.327520
    24  H   -0.249254
    25  H   -0.211437
    26  H    0.090002
 Sum of Mulliken charges =   0.00000

 Dipole moment (field-independent basis, Debye):
    X=             -1.5606    Y=              3.0956    Z=              0.4786  Tot=              3.4996

 Test job not archived.
 1\1\GINC-SE329\SP\RHF\Aug-CC-pVDZ\C13H11N1O1\OHZDE\08-Apr-2025\0\\#t h
 f aug-cc-pvdz iop(5/13=1,5/36=2,99/5=2) pseudo=read geom=check guess=(
 read,tcheck) scf=(maxcycle=1)\\title\\0,1\C,0,-0.480431,-0.671205,-0.0
 76184\O,0,-0.223101,-1.855519,-0.210544\N,0,0.474221,0.311606,0.065998
 \C,0,-1.903242,-0.178967,-0.035576\C,0,1.879634,0.194611,0.047023\C,0,
 -2.287595,1.118402,-0.394745\C,0,-3.628273,1.492946,-0.353468\C,0,-4.5
 96946,0.576128,0.048008\C,0,-4.222681,-0.722248,0.39305\C,0,-2.886048,
 -1.099935,0.342293\C,0,2.622248,1.360547,0.284717\C,0,2.55201,-1.00863

 Normal termination of Gaussian 16 at Tue Apr  8 23:15:03 2025.
