 Gaussian 16, Revision C.01,

 ----------------------------------------------------------------------
 #t hf aug-cc-pvdz symm=none int=(grid=ultrafine) guess=(read,tcheck) s
 table=(opt,rrhf)
 ----------------------------------------------------------------------
 -----
 title
 -----
 Symbolic Z-matrix:
 Charge =  0 Multiplicity = 1

 SCF Done:  E(RHF) =  -1518.68561503     A.U. after   14 cycles
 Normal termination of Gaussian 16 at Wed Apr  9 00:18:43 2025.
 Gaussian 16:  ES64L-G16RevC.01  3-Jul-2019

 ----------------------------------------------------------------------
 #t hf aug-cc-pvdz iop(5/13=1,5/36=2,99/5=2) pseudo=read geom=check gue
 ss=(read,tcheck) scf=(maxcycle=1)
 ----------------------------------------------------------------------
 -----
 title
 -----
 Structure from the checkpoint file:  "BDE49_nonexpt_2578_mol1.chk"
 Charge =  0 Multiplicity = 1

                         Standard orientation:
 ---------------------------------------------------------------------
 Center     Atomic      Atomic             Coordinates (Angstroms)
 Number     Number       Type             X           Y           Z
 ---------------------------------------------------------------------
      1         17           0        2.347643    0.379560   -0.394093
      2         16           0        0.953046   -0.103069    1.042618
      3         16           0       -0.766335   -0.587456   -0.125139
      4          8           0       -1.692749   -0.936723    0.920031
      5          8           0       -1.199222    0.795709   -0.807138
      6          6           0       -1.763835    1.836433    0.033019
      7          1           0       -2.116073    2.589972   -0.667389
      8          1           0       -0.990354    2.253537    0.679951
      9          1           0       -2.589185    1.438018    0.621122
     10          8           0       -0.435366   -1.447016   -1.214376
 ---------------------------------------------------------------------

 SCF Done:  E(RHF) =  -1519.14443609     A.U. after    2 cycles

 The electronic state is 1-A.
 Alpha  occ. eigenvalues -- -105.61906 -94.27376 -94.06066 -20.63826 -20.58522
 Alpha  occ. eigenvalues --  -20.58113 -11.33335 -10.66585  -8.51978  -8.33809
 Alpha  occ. eigenvalues --   -7.83536  -7.83057  -7.83017  -6.50077  -6.49917
 Alpha  occ. eigenvalues --   -6.49820  -6.31538  -6.31335  -6.31003  -1.64120
 Alpha  occ. eigenvalues --   -1.51296  -1.48984  -1.16247  -1.03181  -0.98953
 Alpha  occ. eigenvalues --   -0.86423  -0.76234  -0.73926  -0.71740  -0.66891
 Alpha  occ. eigenvalues --   -0.65197  -0.59522  -0.58076  -0.55713  -0.54697
 Alpha  occ. eigenvalues --   -0.53683  -0.52253  -0.51815  -0.50182  -0.45667
 Alpha  occ. eigenvalues --   -0.41926
 Alpha virt. eigenvalues --    0.02826   0.03098   0.04701   0.05653   0.05859
 Alpha virt. eigenvalues --    0.08669   0.09378   0.10772   0.11733   0.12156
 Alpha virt. eigenvalues --    0.13234   0.13631   0.14315   0.15266   0.15670

 Mulliken charges:
               1
     1  Cl  -0.243046
     2  S    0.303306
     3  S    3.636417
     4  O   -1.409432
     5  O   -1.488443
     6  C    0.162914
     7  H    0.030753
     8  H    0.210988
     9  H    0.189328
    10  O   -1.392785
 Sum of Mulliken charges =  -0.00000

 Dipole moment (field-independent basis, Debye):
    X=             -0.2101    Y=              3.7980    Z=              1.2940  Tot=              4.0179

 Test job not archived.
 1\1\GINC-SE284\SP\RHF\Aug-CC-pVDZ\C1H3Cl1O3S2\OHZDE\09-Apr-2025\0\\#t
 hf aug-cc-pvdz iop(5/13=1,5/36=2,99/5=2) pseudo=read geom=check guess=
 (read,tcheck) scf=(maxcycle=1)\\title\\0,1\Cl,0,2.347643,0.37956,-0.39
 4093\S,0,0.953046,-0.103069,1.042618\S,0,-0.766335,-0.587456,-0.125139
 \O,0,-1.692749,-0.936723,0.920031\O,0,-1.199222,0.795709,-0.807138\C,0
 ,-1.763835,1.836433,0.033019\H,0,-2.116073,2.589972,-0.667389\H,0,-0.9
 90354,2.253537,0.679951\H,0,-2.589185,1.438018,0.621122\O,0,-0.435366,
 -1.447016,-1.214376\\Version=ES64L-G16RevC.01\State=1-A\HF=-1519.14443

 Normal termination of Gaussian 16 at Wed Apr  9 00:18:48 2025.
