 Gaussian 16, Revision C.01,

 ----------------------------------------------------------------------
 #t hf aug-cc-pvdz symm=none int=(grid=ultrafine) guess=(read,tcheck) s
 table=(opt,rrhf)
 ----------------------------------------------------------------------
 -----
 title
 -----
 Symbolic Z-matrix:
 Charge =  0 Multiplicity = 1

 SCF Done:  E(RHF) =  -431.125799525     A.U. after   13 cycles
 Normal termination of Gaussian 16 at Wed Apr  9 00:32:55 2025.
 Gaussian 16:  ES64L-G16RevC.01  3-Jul-2019

 ----------------------------------------------------------------------
 #t hf aug-cc-pvdz iop(5/13=1,5/36=2,99/5=2) pseudo=read geom=check gue
 ss=(read,tcheck) scf=(maxcycle=1)
 ----------------------------------------------------------------------
 -----
 title
 -----
 Structure from the checkpoint file:  "BDE49_nonexpt_390_mol1.chk"
 Charge =  0 Multiplicity = 1

                         Standard orientation:
 ---------------------------------------------------------------------
 Center     Atomic      Atomic             Coordinates (Angstroms)
 Number     Number       Type             X           Y           Z
 ---------------------------------------------------------------------
      1          9           0        1.495686   -1.433652    0.000096
      2          9           0        2.258861    0.696237    0.000211
      3          5           0        1.239469   -0.128741   -0.000228
      4          6           0       -0.264674    0.404035   -0.000114
      5          8           0       -0.515849    1.601862   -0.000081
      6          7           0       -1.215611   -0.576363   -0.000070
      7          6           0       -2.641657   -0.293736    0.000024
      8          1           0       -0.905732   -1.535947   -0.000102
      9          1           0       -2.759422    0.788466    0.000041
     10          1           0       -3.124473   -0.707118    0.889909
     11          1           0       -3.124588   -0.707103   -0.889805
 ---------------------------------------------------------------------

 SCF Done:  E(RHF) =  -431.538212802     A.U. after    2 cycles

 The electronic state is 1-A.
 Alpha  occ. eigenvalues --  -26.50490 -26.49580 -20.52771 -15.54535 -11.35951
 Alpha  occ. eigenvalues --  -11.28064  -7.74620  -1.65287  -1.61311  -1.46672
 Alpha  occ. eigenvalues --   -1.25205  -0.99292  -0.85996  -0.82537  -0.79025
 Alpha  occ. eigenvalues --   -0.76520  -0.71520  -0.68370  -0.67172  -0.65188
 Alpha  occ. eigenvalues --   -0.65065  -0.64273  -0.59362  -0.56993  -0.55460
 Alpha  occ. eigenvalues --   -0.43400  -0.42628
 Alpha virt. eigenvalues --    0.02904   0.04372   0.04708   0.05476   0.05529
 Alpha virt. eigenvalues --    0.06342   0.06825   0.07533   0.08410   0.12341
 Alpha virt. eigenvalues --    0.13302   0.13484   0.14339   0.16822   0.17700

 Mulliken charges:
               1
     1  F   -0.683985
     2  F   -0.740179
     3  B    1.626504
     4  C    0.521516
     5  O   -1.149574
     6  N    0.342947
     7  C   -0.353382
     8  H    0.091381
     9  H    0.065724
    10  H    0.139521
    11  H    0.139527
 Sum of Mulliken charges =  -0.00000

 Dipole moment (field-independent basis, Debye):
    X=             -1.6168    Y=             -3.2291    Z=             -0.0012  Tot=              3.6112

 Test job not archived.
 1\1\GINC-SE102\SP\RHF\Aug-CC-pVDZ\C2H4B1F2N1O1\OHZDE\09-Apr-2025\0\\#t
  hf aug-cc-pvdz iop(5/13=1,5/36=2,99/5=2) pseudo=read geom=check guess
 =(read,tcheck) scf=(maxcycle=1)\\title\\0,1\F,0,1.495686,-1.433652,0.0
 00096\F,0,2.258861,0.696237,0.000211\B,0,1.239469,-0.128741,-0.000228\
 C,0,-0.264674,0.404035,-0.000114\O,0,-0.515849,1.601862,-0.000081\N,0,
 -1.215611,-0.576363,-0.00007\C,0,-2.641657,-0.293736,0.000024\H,0,-0.9
 05732,-1.535947,-0.000102\H,0,-2.759422,0.788466,0.000041\H,0,-3.12447
 3,-0.707118,0.889909\H,0,-3.124588,-0.707103,-0.889805\\Version=ES64L-

 Normal termination of Gaussian 16 at Wed Apr  9 00:32:59 2025.
