 Gaussian 16, Revision C.01,

 ----------------------------------------------------------------------
 #t hf aug-cc-pvdz symm=none int=(grid=ultrafine) guess=(read,tcheck) s
 table=(opt,rrhf)
 ----------------------------------------------------------------------
 -----
 title
 -----
 Symbolic Z-matrix:
 Charge =  0 Multiplicity = 1

 SCF Done:  E(RHF) =  -818.252263917     A.U. after   15 cycles
 Normal termination of Gaussian 16 at Wed Apr  9 00:24:15 2025.
 Gaussian 16:  ES64L-G16RevC.01  3-Jul-2019

 ----------------------------------------------------------------------
 #t hf aug-cc-pvdz iop(5/13=1,5/36=2,99/5=2) pseudo=read geom=check gue
 ss=(read,tcheck) scf=(maxcycle=1)
 ----------------------------------------------------------------------
 -----
 title
 -----
 Structure from the checkpoint file:  "BDE49_nonexpt_2689_mol1.chk"
 Charge =  0 Multiplicity = 1

                         Standard orientation:
 ---------------------------------------------------------------------
 Center     Atomic      Atomic             Coordinates (Angstroms)
 Number     Number       Type             X           Y           Z
 ---------------------------------------------------------------------
      1          9           0        2.548501    0.038984    1.098884
      2         16           0        2.084858    0.102981   -0.496069
      3          8           0        0.516947    0.567883   -0.346933
      4          6           0       -0.476023   -0.444397   -0.150137
      5          8           0       -0.217736   -1.615298   -0.168940
      6          7           0       -1.681067    0.137370    0.039189
      7          6           0       -1.931713    1.575224    0.065911
      8          1           0       -1.000181    2.122975   -0.020643
      9          1           0       -2.419977    1.845268    1.007638
     10          1           0       -2.593396    1.858013   -0.759811
     11          6           0       -2.841674   -0.726459    0.226040
     12          1           0       -3.305746   -0.528805    1.197500
     13          1           0       -2.523067   -1.764294    0.183297
     14          1           0       -3.581630   -0.540178   -0.559062
 ---------------------------------------------------------------------

 SCF Done:  E(RHF) =  -818.721697888     A.U. after    2 cycles

 The electronic state is 1-A.
 Alpha  occ. eigenvalues --  -94.09138 -26.47857 -20.63248 -20.53587 -15.55131
 Alpha  occ. eigenvalues --  -11.43203 -11.28821 -11.28254  -8.35735  -6.33489
 Alpha  occ. eigenvalues --   -6.33260  -6.32823  -1.59115  -1.54960  -1.47224
 Alpha  occ. eigenvalues --   -1.27909  -1.02636  -1.00047  -0.94975  -0.79410
 Alpha  occ. eigenvalues --   -0.76170  -0.71593  -0.71040  -0.67031  -0.66582
 Alpha  occ. eigenvalues --   -0.65717  -0.63024  -0.60629  -0.59109  -0.58377
 Alpha  occ. eigenvalues --   -0.56905  -0.54988  -0.51191  -0.46763  -0.42429
 Alpha  occ. eigenvalues --   -0.38827
 Alpha virt. eigenvalues --    0.03031   0.04372   0.04505   0.05597   0.06445
 Alpha virt. eigenvalues --    0.07072   0.07182   0.07434   0.08586   0.12291
 Alpha virt. eigenvalues --    0.12401   0.12622   0.14135   0.14432   0.15190

 Mulliken charges:
               1
     1  F   -0.668641
     2  S    1.198178
     3  O   -1.349968
     4  C    0.805924
     5  O   -0.986883
     6  N    0.720836
     7  C   -0.306869
     8  H    0.071300
     9  H    0.171708
    10  H    0.170292
    11  C   -0.247278
    12  H    0.197539
    13  H    0.011941
    14  H    0.211920
 Sum of Mulliken charges =  -0.00000

 Dipole moment (field-independent basis, Debye):
    X=             -3.3343    Y=              2.2679    Z=             -0.6893  Tot=              4.0910

 Test job not archived.
 1\1\GINC-SE059\SP\RHF\Aug-CC-pVDZ\C3H6F1N1O2S1\OHZDE\09-Apr-2025\0\\#t
  hf aug-cc-pvdz iop(5/13=1,5/36=2,99/5=2) pseudo=read geom=check guess
 =(read,tcheck) scf=(maxcycle=1)\\title\\0,1\F,0,2.548501,0.038984,1.09
 8884\S,0,2.084858,0.102981,-0.496069\O,0,0.516947,0.567883,-0.346933\C
 ,0,-0.476023,-0.444397,-0.150137\O,0,-0.217736,-1.615298,-0.16894\N,0,
 -1.681067,0.13737,0.039189\C,0,-1.931713,1.575224,0.065911\H,0,-1.0001
 81,2.122975,-0.020643\H,0,-2.419977,1.845268,1.007638\H,0,-2.593396,1.
 858013,-0.759811\C,0,-2.841674,-0.726459,0.22604\H,0,-3.305746,-0.5288

 Normal termination of Gaussian 16 at Wed Apr  9 00:24:21 2025.
