 Gaussian 16, Revision C.01,

 ----------------------------------------------------------------------
 #t hf aug-cc-pvdz symm=none int=(grid=ultrafine) guess=(read,tcheck) s
 table=opt
 ----------------------------------------------------------------------
 -----
 title
 -----
 Symbolic Z-matrix:
 Charge =  0 Multiplicity = 2

 SCF Done:  E(UHF) =  -996.458881209     A.U. after   16 cycles

 1\1\GINC-SE083\Stability\UHF\Aug-CC-pVDZ\C2H3Cl2\OHZDE\08-Apr-2025\0\\
 #t hf aug-cc-pvdz symm=none int=(grid=ultrafine) guess=(read,tcheck) s
 table=opt\\title\\0,2\C,0,0.,1.787336,0.041659\H,0,-0.889023,2.247258,
 -0.394506\H,0,0.889023,2.247258,-0.394506\H,0,0.,1.999527,1.119935\C,0
 ,0.,0.32372,-0.232989\Cl,0,-1.467886,-0.563541,0.024031\Cl,0,1.467887,
 -0.563541,0.024031\\Version=ES64L-G16RevC.01\HF=-996.4588812\S2=0.7673
 74\S2-1=0.\S2A=0.750253\RMSD=8.871e-09\Dipole=-0.0000012,0.7452517,0.0
 193999\Quadrupole=-0.9074158,1.5838992,-0.6764834,0.0000013,0.,-0.1052

 Normal termination of Gaussian 16 at Tue Apr  8 22:30:43 2025.
 Gaussian 16:  ES64L-G16RevC.01  3-Jul-2019

 ----------------------------------------------------------------------
 #t hf aug-cc-pvdz iop(5/13=1,5/36=2,99/5=2) pseudo=read geom=check gue
 ss=(read,tcheck) scf=(maxcycle=1)
 ----------------------------------------------------------------------
 -----
 title
 -----
 Structure from the checkpoint file:  "BDE49_expt_1030_mol2.chk"
 Charge =  0 Multiplicity = 2

                         Standard orientation:
 ---------------------------------------------------------------------
 Center     Atomic      Atomic             Coordinates (Angstroms)
 Number     Number       Type             X           Y           Z
 ---------------------------------------------------------------------
      1          6           0       -0.000001    1.787336    0.041659
      2          1           0       -0.889024    2.247258   -0.394506
      3          1           0        0.889022    2.247259   -0.394506
      4          1           0       -0.000001    1.999527    1.119935
      5          6           0       -0.000000    0.323720   -0.232989
      6         17           0       -1.467886   -0.563541    0.024031
      7         17           0        1.467887   -0.563540    0.024031
 ---------------------------------------------------------------------

 SCF Done:  E(UHF) =  -996.691212570     A.U. after    2 cycles

 The electronic state is 2-A.
 Alpha  occ. eigenvalues -- -105.58893-105.58892 -11.37492 -11.26534 -10.63727
 Alpha  occ. eigenvalues --  -10.63722  -7.80593  -7.80589  -7.80368  -7.80366
 Alpha  occ. eigenvalues --   -7.80256  -7.80255  -1.19379  -1.06688  -1.01042
 Alpha  occ. eigenvalues --   -0.80570  -0.65462  -0.65210  -0.63131  -0.55773
 Alpha  occ. eigenvalues --   -0.54935  -0.49369  -0.48582  -0.46362  -0.36579
 Alpha virt. eigenvalues --    0.03639   0.05430   0.05573   0.07457   0.09289
 Alpha virt. eigenvalues --    0.09806   0.13709   0.14162   0.14403   0.15228
 Alpha virt. eigenvalues --    0.17043   0.17319   0.18128   0.18390   0.19059

  Beta  occ. eigenvalues -- -105.58865-105.58864 -11.34551 -11.26778 -10.63694
  Beta  occ. eigenvalues --  -10.63689  -7.80775  -7.80769  -7.80237  -7.80236
  Beta  occ. eigenvalues --   -7.80074  -7.80073  -1.15950  -1.06289  -1.00492
  Beta  occ. eigenvalues --   -0.75533  -0.64291  -0.61817  -0.59981  -0.55338
  Beta  occ. eigenvalues --   -0.51284  -0.48426  -0.47408  -0.46297
  Beta virt. eigenvalues --    0.03552   0.05274   0.05569   0.07258   0.08915
  Beta virt. eigenvalues --    0.09460   0.10646   0.13869   0.14366   0.14459
  Beta virt. eigenvalues --    0.16151   0.17177   0.17510   0.18419   0.18493

 Mulliken charges and spin densities:
               1          2
     1  C   -0.141171  -0.189785
     2  H    0.190075   0.006196
     3  H    0.190075   0.006196
     4  H    0.275750   0.046352
     5  C   -0.433274   1.168568
     6  Cl  -0.040728  -0.018764
     7  Cl  -0.040728  -0.018764
 Sum of Mulliken charges =  -0.00000   1.00000

 Dipole moment (field-independent basis, Debye):
    X=             -0.0000    Y=              1.8811    Z=              0.0539  Tot=              1.8819
                          Isotropic Fermi Contact Couplings
        Atom                 a.u.       MegaHertz       Gauss      10(-4) cm-1
     1  C(13)             -0.03800     -42.71927     -15.24330     -14.24961
     2  H(1)               0.00520      23.23889       8.29221       7.75166
     3  H(1)               0.00520      23.23889       8.29222       7.75166
     4  H(1)               0.02224      99.41842      35.47496      33.16242
     5  C(13)              0.37013     416.09251     148.47215     138.79352
     6  Cl(35)             0.03619      15.86700       5.66174       5.29266
     7  Cl(35)             0.03619      15.86701       5.66174       5.29266
 --------------------------------------------------------

 Normal termination of Gaussian 16 at Tue Apr  8 22:30:47 2025.
