 Gaussian 16, Revision C.01,

 ----------------------------------------------------------------------
 #t hf aug-cc-pvdz symm=none int=(grid=ultrafine) guess=(read,tcheck) s
 table=(opt,rrhf)
 ----------------------------------------------------------------------
 -----
 title
 -----
 Symbolic Z-matrix:
 Charge =  0 Multiplicity = 1

 SCF Done:  E(RHF) =  -291.243186758     A.U. after    8 cycles
 Normal termination of Gaussian 16 at Tue Apr  8 23:11:43 2025.
 Gaussian 16:  ES64L-G16RevC.01  3-Jul-2019

 ----------------------------------------------------------------------
 #t hf aug-cc-pvdz iop(5/13=1,5/36=2,99/5=2) pseudo=read geom=check gue
 ss=(read,tcheck) scf=(maxcycle=1)
 ----------------------------------------------------------------------
 -----
 title
 -----
 Structure from the checkpoint file:  "BDE49_expt_796_mol1.chk"
 Charge =  0 Multiplicity = 1

                         Standard orientation:
 ---------------------------------------------------------------------
 Center     Atomic      Atomic             Coordinates (Angstroms)
 Number     Number       Type             X           Y           Z
 ---------------------------------------------------------------------
      1         14           0        0.000000    0.000001   -0.000000
      2          1           0        1.215363    0.548937   -0.642233
      3          1           0       -0.680378   -0.921181   -0.937771
      4          1           0       -0.914830    1.108619    0.353485
      5          1           0        0.379843   -0.736384    1.226522
 ---------------------------------------------------------------------

 SCF Done:  E(RHF) =  -291.281501511     A.U. after    2 cycles

 The electronic state is 1-A.
 Alpha  occ. eigenvalues --  -69.53191  -6.20310  -3.95696  -3.95696  -3.95696
 Alpha  occ. eigenvalues --   -0.75558  -0.49301  -0.49301  -0.49301
 Alpha virt. eigenvalues --    0.03783   0.05787   0.05787   0.05787   0.09117
 Alpha virt. eigenvalues --    0.09117   0.09117   0.15989   0.18936   0.18936
 Alpha virt. eigenvalues --    0.18936   0.19981   0.19981   0.28637   0.35769

 Mulliken charges:
               1
     1  Si   1.002217
     2  H   -0.250554
     3  H   -0.250555
     4  H   -0.250554
     5  H   -0.250554
 Sum of Mulliken charges =   0.00000

 Dipole moment (field-independent basis, Debye):
    X=              0.0000    Y=              0.0000    Z=             -0.0000  Tot=              0.0000

 Test job not archived.
 1\1\GINC-SE132\SP\RHF\Aug-CC-pVDZ\H4Si1\OHZDE\08-Apr-2025\0\\#t hf aug
 -cc-pvdz iop(5/13=1,5/36=2,99/5=2) pseudo=read geom=check guess=(read,
 tcheck) scf=(maxcycle=1)\\title\\0,1\Si,0,0.,0.000001,0.\H,0,-1.223554
 ,0.547858,0.62743\H,0,0.657673,-0.937836,0.93746\H,0,0.927723,1.107531
 ,-0.321882\H,0,-0.361839,-0.71756,-1.243012\\Version=ES64L-G16RevC.01\
 State=1-A\HF=-291.2815015\RMSD=4.637e-03\Dipole=-0.0000014,0.0000049,0
 .0000017\Quadrupole=0.000003,0.,-0.000003,0.0000005,-0.0000036,0.\PG=C
 01 [X(H4Si1)]\\@

 Normal termination of Gaussian 16 at Tue Apr  8 23:11:45 2025.
