 Gaussian 16, Revision C.01,

 ----------------------------------------------------------------------
 #t hf aug-cc-pvdz symm=none int=(grid=ultrafine) guess=(read,tcheck) s
 table=opt
 ----------------------------------------------------------------------
 -----
 title
 -----
 Symbolic Z-matrix:
 Charge =  0 Multiplicity = 2

 SCF Done:  E(UHF) =  -985.023067165     A.U. after   15 cycles

 1\1\GINC-SE460\Stability\UHF\Aug-CC-pVDZ\F3S1Si1\OHZDE\09-Apr-2025\0\\
 #t hf aug-cc-pvdz symm=none int=(grid=ultrafine) guess=(read,tcheck) s
 table=opt\\title\\0,2\S,0,1.786617,-0.061417,0.000292\Si,0,-0.324038,0
 .001467,-0.000016\F,0,-0.760109,1.521175,-0.003397\F,0,-0.955726,-0.71
 0005,-1.262148\F,0,-0.956315,-0.704267,1.26505\\Version=ES64L-G16RevC.
 01\HF=-985.0230672\S2=0.759911\S2-1=0.\S2A=0.750019\RMSD=2.802e-09\Dip
 ole=0.4740651,-0.0441136,0.0001323\Quadrupole=0.7630744,0.6122649,-1.3
 753393,-0.2439194,0.0012611,-0.0020662\PG=Unknown\\@

 Normal termination of Gaussian 16 at Wed Apr  9 00:20:37 2025.
 Gaussian 16:  ES64L-G16RevC.01  3-Jul-2019

 ----------------------------------------------------------------------
 #t hf aug-cc-pvdz iop(5/13=1,5/36=2,99/5=2) pseudo=read geom=check gue
 ss=(read,tcheck) scf=(maxcycle=1)
 ----------------------------------------------------------------------
 -----
 title
 -----
 Structure from the checkpoint file:  "BDE49_nonexpt_2624_mol2.chk"
 Charge =  0 Multiplicity = 2

                         Standard orientation:
 ---------------------------------------------------------------------
 Center     Atomic      Atomic             Coordinates (Angstroms)
 Number     Number       Type             X           Y           Z
 ---------------------------------------------------------------------
      1         16           0        1.786617   -0.061417    0.000292
      2         14           0       -0.324038    0.001467   -0.000016
      3          9           0       -0.760109    1.521175   -0.003397
      4          9           0       -0.955726   -0.710005   -1.262148
      5          9           0       -0.956315   -0.704267    1.265050
 ---------------------------------------------------------------------

 SCF Done:  E(UHF) =  -985.375680039     A.U. after    2 cycles

 The electronic state is 2-A.
 Alpha  occ. eigenvalues --  -94.01246 -69.71463 -26.50052 -26.49651 -26.49649
 Alpha  occ. eigenvalues --   -8.29485  -6.37071  -6.28606  -6.26846  -6.26561
 Alpha  occ. eigenvalues --   -4.12415  -4.12360  -4.12202  -1.63820  -1.60580
 Alpha  occ. eigenvalues --   -1.60147  -1.05933  -0.82628  -0.74912  -0.74515
 Alpha  occ. eigenvalues --   -0.71618  -0.68698  -0.68445  -0.66048  -0.65634
 Alpha  occ. eigenvalues --   -0.63930  -0.53832  -0.51260  -0.44991
 Alpha virt. eigenvalues --    0.04965   0.06016   0.06304   0.06326   0.10614
 Alpha virt. eigenvalues --    0.11959   0.12766   0.18379   0.19028   0.19670
 Alpha virt. eigenvalues --    0.20232   0.20692   0.21310   0.25796   0.27649

  Beta  occ. eigenvalues --  -94.00381 -69.71490 -26.49995 -26.49647 -26.49646
  Beta  occ. eigenvalues --   -8.28493  -6.37114  -6.26364  -6.26040  -6.24711
  Beta  occ. eigenvalues --   -4.12419  -4.12382  -4.12282  -1.63763  -1.60476
  Beta  occ. eigenvalues --   -1.60141  -0.96735  -0.82025  -0.74695  -0.74534
  Beta  occ. eigenvalues --   -0.71037  -0.68520  -0.68378  -0.65770  -0.65605
  Beta  occ. eigenvalues --   -0.63884  -0.52162  -0.42663
  Beta virt. eigenvalues --   -0.05375   0.05141   0.06325   0.06367   0.06461
  Beta virt. eigenvalues --    0.10848   0.12843   0.13302   0.19651   0.20083
  Beta virt. eigenvalues --    0.20244   0.20766   0.21942   0.22651   0.25843

 Mulliken charges and spin densities:
               1          2
     1  S   -0.490229   1.094048
     2  Si   3.030573  -0.123248
     3  F   -0.841526   0.009485
     4  F   -0.849389   0.009857
     5  F   -0.849429   0.009858
 Sum of Mulliken charges =  -0.00000   1.00000

 Dipole moment (field-independent basis, Debye):
    X=              1.0256    Y=             -0.0979    Z=              0.0003  Tot=              1.0302
                          Isotropic Fermi Contact Couplings
        Atom                 a.u.       MegaHertz       Gauss      10(-4) cm-1
     1  S(33)              0.14888      51.13683      18.24689      17.05741
     2  Si(29)            -0.04854      43.13928      15.39317      14.38971
     3  F(19)              0.01006      42.33470      15.10607      14.12134
     4  F(19)             -0.00046      -1.92066      -0.68534      -0.64066
     5  F(19)             -0.00048      -2.01496      -0.71899      -0.67212
 --------------------------------------------------------
       Center         ----  Spin Dipole Couplings  ----
                      3XX-RR        3YY-RR        3ZZ-RR

 Normal termination of Gaussian 16 at Wed Apr  9 00:20:39 2025.
