 Gaussian 16, Revision C.01,

 ----------------------------------------------------------------------
 #t hf aug-cc-pvdz symm=none int=(grid=ultrafine) guess=(read,tcheck) s
 table=(opt,rrhf)
 ----------------------------------------------------------------------
 -----
 title
 -----
 Symbolic Z-matrix:
 Charge =  0 Multiplicity = 1

 SCF Done:  E(RHF) =  -489.264866018     A.U. after   14 cycles
 Normal termination of Gaussian 16 at Tue Apr  8 23:36:06 2025.
 Gaussian 16:  ES64L-G16RevC.01  3-Jul-2019

 ----------------------------------------------------------------------
 #t hf aug-cc-pvdz iop(5/13=1,5/36=2,99/5=2) pseudo=read geom=check gue
 ss=(read,tcheck) scf=(maxcycle=1)
 ----------------------------------------------------------------------
 -----
 title
 -----
 Structure from the checkpoint file:  "BDE49_nonexpt_1522_mol1.chk"
 Charge =  0 Multiplicity = 1

                         Standard orientation:
 ---------------------------------------------------------------------
 Center     Atomic      Atomic             Coordinates (Angstroms)
 Number     Number       Type             X           Y           Z
 ---------------------------------------------------------------------
      1          7           0       -1.527431    0.743688    0.053762
      2          6           0        1.154324   -0.003591    0.016217
      3          7           0        2.240879    0.393178   -0.015564
      4         15           0       -0.548160   -0.631901   -0.100856
      5          1           0       -0.563971   -1.057886    1.246037
      6          1           0       -1.842813    1.136486   -0.822086
      7          1           0       -1.290892    1.463400    0.724200
 ---------------------------------------------------------------------

 SCF Done:  E(RHF) =  -489.454615139     A.U. after    2 cycles

 The electronic state is 1-A.
 Alpha  occ. eigenvalues --  -84.35042 -15.53184 -15.52435 -11.27553  -6.81594
 Alpha  occ. eigenvalues --   -4.34395  -4.33900  -4.33201  -1.23627  -1.20385
 Alpha  occ. eigenvalues --   -0.91900  -0.74161  -0.69946  -0.61781  -0.59152
 Alpha  occ. eigenvalues --   -0.53019  -0.50762  -0.48795  -0.39062
 Alpha virt. eigenvalues --    0.02445   0.04803   0.05528   0.06639   0.06995
 Alpha virt. eigenvalues --    0.09133   0.10292   0.11575   0.12352   0.14132
 Alpha virt. eigenvalues --    0.15100   0.16162   0.18270   0.18632   0.20366

 Mulliken charges:
               1
     1  N   -0.211098
     2  C   -1.427065
     3  N    0.736670
     4  P    0.383707
     5  H    0.380135
     6  H    0.097368
     7  H    0.040283
 Sum of Mulliken charges =  -0.00000

 Dipole moment (field-independent basis, Debye):
    X=             -4.0477    Y=             -0.0901    Z=              0.1706  Tot=              4.0523

 Test job not archived.
 1\1\GINC-SE080\SP\RHF\Aug-CC-pVDZ\C1H3N2P1\OHZDE\08-Apr-2025\0\\#t hf
 aug-cc-pvdz iop(5/13=1,5/36=2,99/5=2) pseudo=read geom=check guess=(re
 ad,tcheck) scf=(maxcycle=1)\\title\\0,1\N,0,-1.527431,0.743688,0.05376
 2\C,0,1.154324,-0.003591,0.016217\N,0,2.240879,0.393178,-0.015564\P,0,
 -0.54816,-0.631901,-0.100856\H,0,-0.563971,-1.057886,1.246037\H,0,-1.8
 42813,1.136486,-0.822086\H,0,-1.290892,1.4634,0.7242\\Version=ES64L-G1
 6RevC.01\State=1-A\HF=-489.4546151\RMSD=2.873e-02\Dipole=-1.5925047,-0
 .0354538,0.0671054\Quadrupole=-6.4389226,3.5979426,2.8409799,-3.110379

 Normal termination of Gaussian 16 at Tue Apr  8 23:36:08 2025.
