 Gaussian 16, Revision C.01,

 ----------------------------------------------------------------------
 #t hf aug-cc-pvdz symm=none int=(grid=ultrafine) guess=(read,tcheck) s
 table=opt
 ----------------------------------------------------------------------
 -----
 title
 -----
 Symbolic Z-matrix:
 Charge =  0 Multiplicity = 2

 SCF Done:  E(UHF) =  -785.789867462     A.U. after   19 cycles
 Normal termination of Gaussian 16 at Wed Apr  9 00:33:13 2025.
 Gaussian 16:  ES64L-G16RevC.01  3-Jul-2019

 ----------------------------------------------------------------------
 #t hf aug-cc-pvdz iop(5/13=1,5/36=2,99/5=2) pseudo=read geom=check gue
 ss=(read,tcheck) scf=(maxcycle=1)
 ----------------------------------------------------------------------
 -----
 title
 -----
 Structure from the checkpoint file:  "BDE49_nonexpt_403_mol2.chk"
 Charge =  0 Multiplicity = 2

                         Standard orientation:
 ---------------------------------------------------------------------
 Center     Atomic      Atomic             Coordinates (Angstroms)
 Number     Number       Type             X           Y           Z
 ---------------------------------------------------------------------
      1          9           0       -2.469759   -0.919102   -0.080506
      2          5           0       -1.192224   -1.065611   -0.215254
      3         16           0       -0.030543    0.433514    0.063996
      4          8           0        0.226882    0.449129    1.487258
      5          8           0        1.313127   -0.015936   -0.710675
      6          6           0        2.183046   -0.981539   -0.069989
      7          1           0        3.064595   -1.027814   -0.705729
      8          1           0        1.701889   -1.961913   -0.030772
      9          1           0        2.448255   -0.646086    0.931423
     10          8           0       -0.494431    1.590407   -0.651344
 ---------------------------------------------------------------------

 SCF Done:  E(UHF) =  -786.220677564     A.U. after    2 cycles

 The electronic state is 2-A.
 Alpha  occ. eigenvalues --  -94.23811 -26.54457 -20.62098 -20.56678 -20.56354
 Alpha  occ. eigenvalues --  -11.32705  -8.48745  -7.77271  -6.46793  -6.46668
 Alpha  occ. eigenvalues --   -6.46638  -1.68024  -1.61904  -1.49568  -1.47021
 Alpha  occ. eigenvalues --   -1.01925  -0.93380  -0.83797  -0.78194  -0.73733
 Alpha  occ. eigenvalues --   -0.73245  -0.72177  -0.70156  -0.65935  -0.64102
 Alpha  occ. eigenvalues --   -0.57814  -0.53907  -0.53006  -0.51169  -0.50896
 Alpha  occ. eigenvalues --   -0.48677  -0.40441
 Alpha virt. eigenvalues --    0.02040   0.02960   0.04074   0.05428   0.05659
 Alpha virt. eigenvalues --    0.07032   0.07105   0.08131   0.11507   0.12641
 Alpha virt. eigenvalues --    0.13147   0.15041   0.15465   0.16146   0.17242

  Beta  occ. eigenvalues --  -94.23680 -26.54184 -20.62132 -20.56584 -20.56110
  Beta  occ. eigenvalues --  -11.32692  -8.48560  -7.75207  -6.46744  -6.46597
  Beta  occ. eigenvalues --   -6.46187  -1.67265  -1.61575  -1.49455  -1.46532
  Beta  occ. eigenvalues --   -1.01471  -0.91836  -0.82820  -0.76943  -0.73064
  Beta  occ. eigenvalues --   -0.72238  -0.70944  -0.69959  -0.65551  -0.63643
  Beta  occ. eigenvalues --   -0.57626  -0.53397  -0.51156  -0.50718  -0.48540
  Beta  occ. eigenvalues --   -0.47213
  Beta virt. eigenvalues --    0.00676   0.03381   0.03721   0.05149   0.05558
  Beta virt. eigenvalues --    0.06212   0.07129   0.08349   0.08747   0.12223
  Beta virt. eigenvalues --    0.12855   0.13523   0.15208   0.15569   0.16395

 Mulliken charges and spin densities:
               1          2
     1  F   -0.427338  -0.040876
     2  B    0.686533   0.959876
     3  S    3.404311   0.038285
     4  O   -1.410236   0.021168
     5  O   -1.464172  -0.006610
     6  C    0.226232  -0.007584
     7  H    0.028152  -0.001054
     8  H    0.188120  -0.007271
     9  H    0.189214  -0.000808
    10  O   -1.420816   0.044875
 Sum of Mulliken charges =  -0.00000   1.00000

 Dipole moment (field-independent basis, Debye):
    X=              1.2978    Y=             -4.2443    Z=             -0.6411  Tot=              4.4843
                          Isotropic Fermi Contact Couplings
        Atom                 a.u.       MegaHertz       Gauss      10(-4) cm-1
     1  F(19)              0.05651     237.75596      84.83724      79.30685
     2  B(11)              0.39702     569.47257     203.20197     189.95560
     3  S(33)              0.23312      80.07005      28.57098      26.70849
     4  O(17)              0.00603      -3.65341      -1.30363      -1.21864
     5  O(17)             -0.00562       3.40591       1.21531       1.13609
     6  C(13)              0.00226       2.53806       0.90564       0.84661
     7  H(1)               0.00025       1.12242       0.40051       0.37440
     8  H(1)               0.00016       0.71093       0.25368       0.23714

 Normal termination of Gaussian 16 at Wed Apr  9 00:33:17 2025.
