 Gaussian 16, Revision C.01,

 ----------------------------------------------------------------------
 #t hf aug-cc-pvdz symm=none int=(grid=ultrafine) guess=(read,tcheck) s
 table=(opt,rrhf)
 ----------------------------------------------------------------------
 -----
 title
 -----
 Symbolic Z-matrix:
 Charge =  0 Multiplicity = 1

 SCF Done:  E(RHF) =  -1222.31554196     A.U. after   12 cycles
 Normal termination of Gaussian 16 at Wed Apr  9 00:14:02 2025.
 Gaussian 16:  ES64L-G16RevC.01  3-Jul-2019

 ----------------------------------------------------------------------
 #t hf aug-cc-pvdz iop(5/13=1,5/36=2,99/5=2) pseudo=read geom=check gue
 ss=(read,tcheck) scf=(maxcycle=1)
 ----------------------------------------------------------------------
 -----
 title
 -----
 Structure from the checkpoint file:  "BDE49_nonexpt_2450_mol1.chk"
 Charge =  0 Multiplicity = 1

                         Standard orientation:
 ---------------------------------------------------------------------
 Center     Atomic      Atomic             Coordinates (Angstroms)
 Number     Number       Type             X           Y           Z
 ---------------------------------------------------------------------
      1         14           0        2.549320   -0.814904    0.021284
      2         14           0        1.365722    1.225458   -0.042765
      3         15           0       -1.269309   -0.200306   -0.004658
      4          8           0       -1.906564    0.205051    1.398491
      5          8           0       -2.480993    0.051182   -1.016100
      6          1           0       -2.399906   -0.497538   -1.804948
      7          8           0       -0.667169   -1.534863   -0.099081
      8          8           0       -0.297704    1.008817   -0.249218
      9          1           0        1.782165    2.060993   -1.189507
     10          1           0        1.551544    2.001395    1.203862
     11          1           0        2.217252   -1.606738    1.223735
     12          1           0        3.984165   -0.429062    0.094064
     13          1           0        2.338839   -1.602236   -1.211813
     14          1           0       -2.425582   -0.511486    1.782472
 ---------------------------------------------------------------------

 SCF Done:  E(RHF) =  -1222.72390678     A.U. after    2 cycles

 The electronic state is 1-A.
 Alpha  occ. eigenvalues --  -84.46817 -69.57623 -69.52762 -20.60151 -20.60019
 Alpha  occ. eigenvalues --  -20.58003 -20.51378  -6.91608  -6.24216  -6.19929
 Alpha  occ. eigenvalues --   -4.45792  -4.45185  -4.45049  -3.99694  -3.99507
 Alpha  occ. eigenvalues --   -3.99491  -3.95292  -3.95284  -3.95277  -1.56610
 Alpha  occ. eigenvalues --   -1.48530  -1.47406  -1.39676  -0.89073  -0.78482
 Alpha  occ. eigenvalues --   -0.75329  -0.73848  -0.68839  -0.64637  -0.63628
 Alpha  occ. eigenvalues --   -0.60761  -0.59118  -0.57518  -0.54906  -0.53525
 Alpha  occ. eigenvalues --   -0.49812  -0.48983  -0.47752  -0.46567  -0.46339
 Alpha  occ. eigenvalues --   -0.41441
 Alpha virt. eigenvalues --    0.03371   0.04300   0.04318   0.04493   0.06531
 Alpha virt. eigenvalues --    0.07053   0.07308   0.08196   0.08461   0.10107
 Alpha virt. eigenvalues --    0.10178   0.10492   0.10576   0.11130   0.11615

 Mulliken charges:
               1
     1  Si   0.226692
     2  Si   1.172232
     3  P    4.418683
     4  O   -1.181250
     5  O   -1.225628
     6  H    0.356422
     7  O   -1.389709
     8  O   -2.169653
     9  H   -0.131540
    10  H   -0.121451
    11  H   -0.058512
    12  H   -0.162820
    13  H   -0.061710
    14  H    0.328241
 Sum of Mulliken charges =  -0.00000

 Dipole moment (field-independent basis, Debye):
    X=             -0.7033    Y=              0.4515    Z=             -0.2900  Tot=              0.8846

 Test job not archived.
 1\1\GINC-SE250\SP\RHF\Aug-CC-pVDZ\H7O4P1Si2\OHZDE\09-Apr-2025\0\\#t hf
  aug-cc-pvdz iop(5/13=1,5/36=2,99/5=2) pseudo=read geom=check guess=(r
 ead,tcheck) scf=(maxcycle=1)\\title\\0,1\Si,0,2.54932,-0.814904,0.0212
 84\Si,0,1.365722,1.225458,-0.042765\P,0,-1.269309,-0.200306,-0.004658\
 O,0,-1.906564,0.205051,1.398491\O,0,-2.480993,0.051182,-1.0161\H,0,-2.
 399906,-0.497538,-1.804948\O,0,-0.667169,-1.534863,-0.099081\O,0,-0.29
 7704,1.008817,-0.249218\H,0,1.782165,2.060993,-1.189507\H,0,1.551544,2
 .001395,1.203862\H,0,2.217252,-1.606738,1.223735\H,0,3.984165,-0.42906

 Normal termination of Gaussian 16 at Wed Apr  9 00:14:08 2025.
