 Gaussian 16, Revision C.01,

 ----------------------------------------------------------------------
 #t hf aug-cc-pvdz symm=none int=(grid=ultrafine) guess=(read,tcheck) s
 table=(opt,rrhf)
 ----------------------------------------------------------------------
 -----
 title
 -----
 Symbolic Z-matrix:
 Charge =  0 Multiplicity = 1

 SCF Done:  E(RHF) =  -1713.41196762     A.U. after   13 cycles
 Normal termination of Gaussian 16 at Wed Apr  9 00:15:12 2025.
 Gaussian 16:  ES64L-G16RevC.01  3-Jul-2019

 ----------------------------------------------------------------------
 #t hf aug-cc-pvdz iop(5/13=1,5/36=2,99/5=2) pseudo=read geom=check gue
 ss=(read,tcheck) scf=(maxcycle=1)
 ----------------------------------------------------------------------
 -----
 title
 -----
 Structure from the checkpoint file:  "BDE49_nonexpt_2447_mol1.chk"
 Charge =  0 Multiplicity = 1

                         Standard orientation:
 ---------------------------------------------------------------------
 Center     Atomic      Atomic             Coordinates (Angstroms)
 Number     Number       Type             X           Y           Z
 ---------------------------------------------------------------------
      1         14           0       -1.190830    1.766635    0.004672
      2         14           0        1.190772    1.766646   -0.004682
      3         15           0        1.808239   -0.420393    0.092247
      4          1           0        1.712753    2.443012    1.203007
      5          1           0        1.723610    2.405063   -1.228051
      6          8           0        1.517853   -1.107017   -1.312446
      7          8           0        3.407567   -0.407049    0.125355
      8          1           0        0.539622   -1.252655   -1.434079
      9          1           0        3.807892   -1.248784   -0.133656
     10          8           0        1.143629   -1.082601    1.249794
     11         15           0       -1.808234   -0.420413   -0.092243
     12          1           0       -1.712827    2.442976   -1.203024
     13          1           0       -1.723681    2.405047    1.228038
     14          8           0       -1.517798   -1.106998    1.312457
     15          1           0       -0.539558   -1.252560    1.434053
     16          8           0       -3.407562   -0.407119   -0.125352
     17          1           0       -3.807857   -1.248888    0.133584
     18          8           0       -1.143590   -1.082598   -1.249784
 ---------------------------------------------------------------------

 SCF Done:  E(RHF) =  -1714.01269685     A.U. after    2 cycles

 The electronic state is 1-A.
 Alpha  occ. eigenvalues --  -84.43078 -84.43066 -69.56418 -69.56417 -20.60030
 Alpha  occ. eigenvalues --  -20.60029 -20.57460 -20.57460 -20.51752 -20.51750
 Alpha  occ. eigenvalues --   -6.88394  -6.88393  -6.23628  -6.23617  -4.42470
 Alpha  occ. eigenvalues --   -4.42468  -4.41931  -4.41918  -4.40810  -4.40683
 Alpha  occ. eigenvalues --   -3.98971  -3.98955  -3.98940  -3.98916  -3.98907
 Alpha  occ. eigenvalues --   -3.98871  -1.53562  -1.53284  -1.46957  -1.46353
 Alpha  occ. eigenvalues --   -1.40429  -1.39552  -0.88709  -0.85973  -0.79883
 Alpha  occ. eigenvalues --   -0.74959  -0.74333  -0.71871  -0.68164  -0.66501
 Alpha  occ. eigenvalues --   -0.63140  -0.62294  -0.59916  -0.58666  -0.57636
 Alpha  occ. eigenvalues --   -0.56613  -0.55464  -0.55022  -0.53683  -0.51359
 Alpha  occ. eigenvalues --   -0.49632  -0.49270  -0.46963  -0.46708  -0.45497
 Alpha  occ. eigenvalues --   -0.41709  -0.41645
 Alpha virt. eigenvalues --    0.03205   0.03396   0.04188   0.05130   0.05741
 Alpha virt. eigenvalues --    0.06105   0.06791   0.07366   0.07691   0.08432
 Alpha virt. eigenvalues --    0.08907   0.09878   0.09971   0.10728   0.10946

 Mulliken charges:
               1
     1  Si   0.293065
     2  Si   0.293101
     3  P    3.465422
     4  H   -0.043601
     5  H   -0.045228
     6  O   -1.657540
     7  O   -1.384398
     8  H    0.709824
     9  H    0.365417
    10  O   -1.703000
    11  P    3.465420
    12  H   -0.043602
    13  H   -0.045226
    14  O   -1.657539
    15  H    0.709843
    16  O   -1.384398
    17  H    0.365424
    18  O   -1.702982
 Sum of Mulliken charges =  -0.00000

 Dipole moment (field-independent basis, Debye):
    X=             -0.0001    Y=              2.0164    Z=             -0.0002  Tot=              2.0164

 Test job not archived.
 1\1\GINC-SE328\SP\RHF\Aug-CC-pVDZ\H8O6P2Si2\OHZDE\09-Apr-2025\0\\#t hf
  aug-cc-pvdz iop(5/13=1,5/36=2,99/5=2) pseudo=read geom=check guess=(r
 ead,tcheck) scf=(maxcycle=1)\\title\\0,1\Si,0,1.19083,1.766635,-0.0046
 72\Si,0,-1.190772,1.766646,0.004682\P,0,-1.808239,-0.420393,-0.092247\
 H,0,-1.712753,2.443012,-1.203007\H,0,-1.72361,2.405063,1.228051\O,0,-1
 .517853,-1.107017,1.312446\O,0,-3.407567,-0.407049,-0.125355\H,0,-0.53
 9622,-1.252655,1.434079\H,0,-3.807892,-1.248783,0.133656\O,0,-1.143629
 ,-1.082601,-1.249794\P,0,1.808234,-0.420413,0.092243\H,0,1.712827,2.44

 Normal termination of Gaussian 16 at Wed Apr  9 00:15:24 2025.
