 Gaussian 16, Revision C.01,

 ----------------------------------------------------------------------
 #t hf aug-cc-pvdz symm=none int=(grid=ultrafine) guess=(read,tcheck) s
 table=(opt,rrhf)
 ----------------------------------------------------------------------
 -----
 title
 -----
 Symbolic Z-matrix:
 Charge =  0 Multiplicity = 1

 SCF Done:  E(RHF) =  -769.721152524     A.U. after   20 cycles
 Normal termination of Gaussian 16 at Tue Apr  8 22:56:11 2025.
 Gaussian 16:  ES64L-G16RevC.01  3-Jul-2019

 ----------------------------------------------------------------------
 #t hf aug-cc-pvdz iop(5/13=1,5/36=2,99/5=2) pseudo=read geom=check gue
 ss=(read,tcheck) scf=(maxcycle=1)
 ----------------------------------------------------------------------
 -----
 title
 -----
 Structure from the checkpoint file:  "BDE49_expt_1751_mol1.chk"
 Charge =  0 Multiplicity = 1

                         Standard orientation:
 ---------------------------------------------------------------------
 Center     Atomic      Atomic             Coordinates (Angstroms)
 Number     Number       Type             X           Y           Z
 ---------------------------------------------------------------------
      1          6           0       -2.843435   -0.887659   -0.352730
      2          7           0       -2.016753    0.202970    0.061004
      3          6           0       -0.584224    0.110740    0.031984
      4          7           0       -2.679711    1.335602    0.525690
      5          8           0       -1.972784    2.234592    0.883801
      6          8           0       -2.329986   -1.909527   -0.729538
      7          6           0        0.143180    0.999867   -0.759401
      8          6           0        1.529559    0.926361   -0.782157
      9          6           0        2.159177   -0.045188   -0.013665
     10          6           0        1.448837   -0.940767    0.776683
     11          6           0        0.063172   -0.856036    0.800951
     12          1           0       -0.514065   -1.543003    1.404527
     13          1           0        1.982276   -1.681671    1.354876
     14          1           0       -0.371171    1.744475   -1.351835
     15          1           0        2.124044    1.599703   -1.382957
     16          6           0       -4.334848   -0.664673   -0.285352
     17          1           0       -4.654169   -0.450580    0.735754
     18          1           0       -4.812001   -1.574136   -0.644897
     19          1           0       -4.635098    0.186013   -0.899032
     20          7           0        3.638432   -0.130106   -0.039203
     21          8           0        4.237144    0.671251   -0.742287
     22          8           0        4.165363   -0.995806    0.644681
 ---------------------------------------------------------------------

 SCF Done:  E(RHF) =  -770.468316848     A.U. after    2 cycles

 The electronic state is 1-A.
 Alpha  occ. eigenvalues --  -20.63578 -20.59593 -20.59586 -20.56422 -15.79897
 Alpha  occ. eigenvalues --  -15.71935 -15.61300 -11.41002 -11.33095 -11.32584
 Alpha  occ. eigenvalues --  -11.29090 -11.29064 -11.28567 -11.28525 -11.27542
 Alpha  occ. eigenvalues --   -1.67611  -1.64321  -1.51577  -1.51332  -1.33431
 Alpha  occ. eigenvalues --   -1.21490  -1.12819  -1.06929  -1.05515  -1.04015
 Alpha  occ. eigenvalues --   -0.97091  -0.89991  -0.88405  -0.83507  -0.81131
 Alpha  occ. eigenvalues --   -0.79799  -0.76050  -0.75151  -0.74441  -0.73070
 Alpha  occ. eigenvalues --   -0.69582  -0.67947  -0.67184  -0.65669  -0.64724
 Alpha  occ. eigenvalues --   -0.63820  -0.63093  -0.59818  -0.57248  -0.55730
 Alpha  occ. eigenvalues --   -0.55148  -0.50441  -0.49403  -0.48760  -0.47811
 Alpha  occ. eigenvalues --   -0.46502  -0.45646  -0.39443  -0.38641
 Alpha virt. eigenvalues --    0.01198   0.02546   0.03639   0.03801   0.03915
 Alpha virt. eigenvalues --    0.04672   0.04827   0.05282   0.07395   0.07438
 Alpha virt. eigenvalues --    0.08185   0.09145   0.10140   0.10561   0.10999

 Mulliken charges:
               1
     1  C    0.951926
     2  N    1.350658
     3  C   -2.531682
     4  N    1.102003
     5  O   -1.095264
     6  O   -1.273344
     7  C    1.047101
     8  C    0.448620
     9  C   -0.390993
    10  C    0.374073
    11  C    0.765869
    12  H   -0.305716
    13  H   -0.222714
    14  H   -0.338094
    15  H   -0.223228
    16  C   -0.526318
    17  H    0.310915
    18  H    0.149411
    19  H    0.306228
    20  N    3.087323
    21  O   -1.490621
    22  O   -1.496153
 Sum of Mulliken charges =   0.00000

 Dipole moment (field-independent basis, Debye):
    X=             -5.0540    Y=              0.6767    Z=              0.2020  Tot=              5.1031

 Test job not archived.
 1\1\GINC-SE457\SP\RHF\Aug-CC-pVDZ\C8H7N3O4\OHZDE\08-Apr-2025\0\\#t hf
 aug-cc-pvdz iop(5/13=1,5/36=2,99/5=2) pseudo=read geom=check guess=(re
 ad,tcheck) scf=(maxcycle=1)\\title\\0,1\C,0,-2.843435,-0.887659,-0.352
 73\N,0,-2.016753,0.20297,0.061004\C,0,-0.584224,0.11074,0.031984\N,0,-
 2.679711,1.335602,0.52569\O,0,-1.972784,2.234592,0.883801\O,0,-2.32998
 6,-1.909527,-0.729538\C,0,0.14318,0.999867,-0.759401\C,0,1.529559,0.92
 6361,-0.782157\C,0,2.159177,-0.045188,-0.013665\C,0,1.448837,-0.940767
 ,0.776683\C,0,0.063172,-0.856036,0.800951\H,0,-0.514065,-1.543003,1.40

 Normal termination of Gaussian 16 at Tue Apr  8 22:56:30 2025.
