 Gaussian 16, Revision C.01,

 ----------------------------------------------------------------------
 #t hf aug-cc-pvdz symm=none int=(grid=ultrafine) guess=(read,tcheck) s
 table=(opt,rrhf)
 ----------------------------------------------------------------------
 -----
 title
 -----
 Symbolic Z-matrix:
 Charge =  0 Multiplicity = 1

 SCF Done:  E(RHF) =  -533.631805705     A.U. after   15 cycles
 Normal termination of Gaussian 16 at Wed Apr  9 00:38:01 2025.
 Gaussian 16:  ES64L-G16RevC.01  3-Jul-2019

 ----------------------------------------------------------------------
 #t hf aug-cc-pvdz iop(5/13=1,5/36=2,99/5=2) pseudo=read geom=check gue
 ss=(read,tcheck) scf=(maxcycle=1)
 ----------------------------------------------------------------------
 -----
 title
 -----
 Structure from the checkpoint file:  "BDE49_nonexpt_569_mol1.chk"
 Charge =  0 Multiplicity = 1

                         Standard orientation:
 ---------------------------------------------------------------------
 Center     Atomic      Atomic             Coordinates (Angstroms)
 Number     Number       Type             X           Y           Z
 ---------------------------------------------------------------------
      1          7           0        0.085483   -0.406079    0.277836
      2          5           0       -1.267796    0.171936    0.012941
      3          7           0        1.302570    0.243313    0.000322
      4          9           0        0.211544   -1.754878    0.069376
      5          8           0        2.268795   -0.431614   -0.232465
      6          8           0        1.244268    1.469803    0.084005
      7          8           0       -1.452544    1.502668   -0.054663
      8          8           0       -2.253871   -0.740224   -0.101676
      9          1           0       -3.113041   -0.325188   -0.229747
     10          1           0       -0.621441    1.993704    0.031939
 ---------------------------------------------------------------------

 SCF Done:  E(RHF) =  -534.138757491     A.U. after    2 cycles

 The electronic state is 1-A.
 Alpha  occ. eigenvalues --  -26.54167 -20.63813 -20.62374 -20.59471 -20.58991
 Alpha  occ. eigenvalues --  -15.86746 -15.68182  -7.71829  -1.73395  -1.66191
 Alpha  occ. eigenvalues --   -1.56417  -1.52057  -1.48518  -1.28107  -1.00296
 Alpha  occ. eigenvalues --   -0.88373  -0.83812  -0.82572  -0.79110  -0.77740
 Alpha  occ. eigenvalues --   -0.74712  -0.72521  -0.67500  -0.62083  -0.61065
 Alpha  occ. eigenvalues --   -0.60286  -0.55412  -0.53108  -0.52669  -0.51756
 Alpha  occ. eigenvalues --   -0.49737
 Alpha virt. eigenvalues --    0.03423   0.03522   0.05107   0.05400   0.05622
 Alpha virt. eigenvalues --    0.07309   0.09214   0.13862   0.14349   0.15794
 Alpha virt. eigenvalues --    0.16253   0.16932   0.18272   0.18825   0.19684

 Mulliken charges:
               1
     1  N    1.092055
     2  B    1.229715
     3  N    2.062946
     4  F   -0.638189
     5  O   -1.272800
     6  O   -1.325718
     7  O   -1.258763
     8  O   -1.036424
     9  H    0.440681
    10  H    0.706497
 Sum of Mulliken charges =  -0.00000

 Dipole moment (field-independent basis, Debye):
    X=             -2.3068    Y=              0.7305    Z=             -0.1794  Tot=              2.4263

 Test job not archived.
 1\1\GINC-SE273\SP\RHF\Aug-CC-pVDZ\B1F1H2N2O4\OHZDE\09-Apr-2025\0\\#t h
 f aug-cc-pvdz iop(5/13=1,5/36=2,99/5=2) pseudo=read geom=check guess=(
 read,tcheck) scf=(maxcycle=1)\\title\\0,1\N,0,0.085483,-0.406079,0.277
 836\B,0,-1.267796,0.171936,0.012941\N,0,1.30257,0.243313,0.000322\F,0,
 0.211544,-1.754878,0.069376\O,0,2.268795,-0.431615,-0.232465\O,0,1.244
 269,1.469803,0.084005\O,0,-1.452543,1.502668,-0.054663\O,0,-2.253871,-
 0.740223,-0.101676\H,0,-3.113041,-0.325187,-0.229747\H,0,-0.62144,1.99
 3704,0.031939\\Version=ES64L-G16RevC.01\State=1-A\HF=-534.1387575\RMSD

 Normal termination of Gaussian 16 at Wed Apr  9 00:38:05 2025.
