 Gaussian 16, Revision C.01,

 ----------------------------------------------------------------------
 #t hf aug-cc-pvdz symm=none int=(grid=ultrafine) guess=(read,tcheck) s
 table=opt
 ----------------------------------------------------------------------
 -----
 title
 -----
 Symbolic Z-matrix:
 Charge =  0 Multiplicity = 2

 SCF Done:  E(UHF) =  -460.350937477     A.U. after   15 cycles
 Normal termination of Gaussian 16 at Wed Apr  9 00:34:50 2025.
 Gaussian 16:  ES64L-G16RevC.01  3-Jul-2019

 ----------------------------------------------------------------------
 #t hf aug-cc-pvdz iop(5/13=1,5/36=2,99/5=2) pseudo=read geom=check gue
 ss=(read,tcheck) scf=(maxcycle=1)
 ----------------------------------------------------------------------
 -----
 title
 -----
 Structure from the checkpoint file:  "BDE49_nonexpt_447_mol2.chk"
 Charge =  0 Multiplicity = 2

                         Standard orientation:
 ---------------------------------------------------------------------
 Center     Atomic      Atomic             Coordinates (Angstroms)
 Number     Number       Type             X           Y           Z
 ---------------------------------------------------------------------
      1          9           0        2.152345   -0.010516    0.042135
      2          9           0       -0.820421    1.100534   -0.637010
      3          9           0       -0.373511   -1.030730   -0.809919
      4          9           0       -1.294941   -0.261143    1.002899
      5          6           0       -0.386446    0.013910    0.048367
      6          5           0        1.069485    0.346648    0.665371
 ---------------------------------------------------------------------

 SCF Done:  E(UHF) =  -460.764383439     A.U. after    2 cycles

 The electronic state is 2-A.
 Alpha  occ. eigenvalues --  -26.52902 -26.51803 -26.51681 -26.51517 -11.51979
 Alpha  occ. eigenvalues --   -7.74365  -1.72050  -1.66370  -1.62205  -1.62038
 Alpha  occ. eigenvalues --   -0.98875  -0.86411  -0.81665  -0.81526  -0.80523
 Alpha  occ. eigenvalues --   -0.73006  -0.70863  -0.69312  -0.69077  -0.64664
 Alpha  occ. eigenvalues --   -0.64524  -0.62966  -0.59064  -0.41660
 Alpha virt. eigenvalues --    0.02949   0.05011   0.05280   0.05886   0.07529
 Alpha virt. eigenvalues --    0.11544   0.12720   0.13223   0.19610   0.20764
 Alpha virt. eigenvalues --    0.22365   0.23019   0.24563   0.25691   0.26759

  Beta  occ. eigenvalues --  -26.52617 -26.51815 -26.51725 -26.51395 -11.51615
  Beta  occ. eigenvalues --   -7.72270  -1.71913  -1.65585  -1.62261  -1.61817
  Beta  occ. eigenvalues --   -0.97638  -0.85200  -0.81463  -0.81375  -0.79188
  Beta  occ. eigenvalues --   -0.71012  -0.70379  -0.69386  -0.68483  -0.64678
  Beta  occ. eigenvalues --   -0.64432  -0.62920  -0.56080
  Beta virt. eigenvalues --    0.02407   0.04110   0.05343   0.05626   0.08628
  Beta virt. eigenvalues --    0.09715   0.12317   0.13493   0.13889   0.19861
  Beta virt. eigenvalues --    0.21359   0.22699   0.24132   0.25436   0.26890

 Mulliken charges and spin densities:
               1          2
     1  F   -0.311735  -0.053405
     2  F   -0.704673   0.003606
     3  F   -0.750193   0.016742
     4  F   -0.681886  -0.006053
     5  C    1.967947   0.047297
     6  B    0.480539   0.991813
 Sum of Mulliken charges =  -0.00000   1.00000

 Dipole moment (field-independent basis, Debye):
    X=              1.0936    Y=              0.2536    Z=              0.6794  Tot=              1.3122
                          Isotropic Fermi Contact Couplings
        Atom                 a.u.       MegaHertz       Gauss      10(-4) cm-1
     1  F(19)              0.06175     259.79156      92.70009      86.65714
     2  F(19)             -0.00288     -12.12332      -4.32590      -4.04390
     3  F(19)              0.02051      86.27543      30.78522      28.77838
     4  F(19)             -0.00750     -31.54836     -11.25724     -10.52340
     5  C(13)              0.08946     100.56906      35.88554      33.54623
     6  B(11)              0.38611     553.81862     197.61625     184.73401
 --------------------------------------------------------
       Center         ----  Spin Dipole Couplings  ----

 Normal termination of Gaussian 16 at Wed Apr  9 00:34:53 2025.
