 Gaussian 16, Revision C.01,

 ----------------------------------------------------------------------
 #t hf aug-cc-pvdz symm=none int=(grid=ultrafine) guess=(read,tcheck) s
 table=(opt,rrhf)
 ----------------------------------------------------------------------
 -----
 title
 -----
 Symbolic Z-matrix:
 Charge =  0 Multiplicity = 1

 SCF Done:  E(RHF) =  -970.772473847     A.U. after   16 cycles
 Normal termination of Gaussian 16 at Wed Apr  9 00:54:23 2025.
 Gaussian 16:  ES64L-G16RevC.01  3-Jul-2019

 ----------------------------------------------------------------------
 #t hf aug-cc-pvdz iop(5/13=1,5/36=2,99/5=2) pseudo=read geom=check gue
 ss=(read,tcheck) scf=(maxcycle=1)
 ----------------------------------------------------------------------
 -----
 title
 -----
 Structure from the checkpoint file:  "BDE49_nonexpt_957_mol1.chk"
 Charge =  0 Multiplicity = 1

                         Standard orientation:
 ---------------------------------------------------------------------
 Center     Atomic      Atomic             Coordinates (Angstroms)
 Number     Number       Type             X           Y           Z
 ---------------------------------------------------------------------
      1          9           0        1.563216   -1.613705    0.921709
      2         16           0        1.089976    0.262017   -0.719571
      3          8           0        1.439497    1.658214   -0.803158
      4          8           0        1.402960   -0.689221   -1.746289
      5          7           0        1.974518   -0.265959    0.682622
      6          6           0       -0.637406    0.113416   -0.310088
      7          6           0       -1.254286   -1.135111   -0.406734
      8          1           0       -0.685876   -1.993242   -0.738340
      9          6           0       -2.602859   -1.243462   -0.083309
     10          1           0       -3.095843   -2.205700   -0.154963
     11          6           0       -3.319737   -0.117524    0.321944
     12          1           0       -4.371828   -0.208214    0.566678
     13          6           0       -2.693575    1.124901    0.405545
     14          1           0       -3.256488    1.999823    0.708572
     15          6           0       -1.342660    1.248088    0.091051
     16          1           0       -0.841187    2.206329    0.130337
     17          6           0        1.711025    0.461492    1.922594
     18          1           0        1.985443    1.500519    1.744617
     19          1           0        2.365323    0.042963    2.687255
     20          1           0        0.667587    0.387558    2.244807
 ---------------------------------------------------------------------

 SCF Done:  E(RHF) =  -971.403316172     A.U. after    2 cycles

 The electronic state is 1-A.
 Alpha  occ. eigenvalues --  -94.22665 -26.49479 -20.55699 -20.55197 -15.63736
 Alpha  occ. eigenvalues --  -11.29767 -11.29514 -11.28601 -11.28413 -11.28139
 Alpha  occ. eigenvalues --  -11.27387 -11.27294  -8.47683  -6.45806  -6.45576
 Alpha  occ. eigenvalues --   -6.45487  -1.61175  -1.57634  -1.46190  -1.21661
 Alpha  occ. eigenvalues --   -1.19435  -1.07714  -1.05411  -0.99499  -0.91546
 Alpha  occ. eigenvalues --   -0.87357  -0.83396  -0.77932  -0.74658  -0.72280
 Alpha  occ. eigenvalues --   -0.71875  -0.68964  -0.68651  -0.65866  -0.64921
 Alpha  occ. eigenvalues --   -0.63782  -0.63014  -0.61046  -0.58467  -0.56809
 Alpha  occ. eigenvalues --   -0.55157  -0.54201  -0.52573  -0.51136  -0.49904
 Alpha  occ. eigenvalues --   -0.48239  -0.46363  -0.38969  -0.37819
 Alpha virt. eigenvalues --    0.02461   0.03113   0.03681   0.04415   0.05448
 Alpha virt. eigenvalues --    0.05623   0.06078   0.06994   0.07178   0.08122
 Alpha virt. eigenvalues --    0.09822   0.10230   0.11366   0.12306   0.13005

 Mulliken charges:
               1
     1  F   -0.701625
     2  S    3.985898
     3  O   -1.666093
     4  O   -1.616496
     5  N    0.399636
     6  C    0.731820
     7  C   -0.407477
     8  H   -0.267446
     9  C    0.484429
    10  H   -0.213464
    11  C    0.011039
    12  H   -0.203350
    13  C    0.384963
    14  H   -0.217067
    15  C   -0.398700
    16  H   -0.309297
    17  C   -0.457279
    18  H    0.145379
    19  H    0.083777
    20  H    0.231353
 Sum of Mulliken charges =  -0.00000

 Dipole moment (field-independent basis, Debye):
    X=             -4.8846    Y=              0.5121    Z=              3.8214  Tot=              6.2229

 Test job not archived.
 1\1\GINC-SE412\SP\RHF\Aug-CC-pVDZ\C7H8F1N1O2S1\OHZDE\09-Apr-2025\0\\#t
  hf aug-cc-pvdz iop(5/13=1,5/36=2,99/5=2) pseudo=read geom=check guess
 =(read,tcheck) scf=(maxcycle=1)\\title\\0,1\F,0,1.563216,-1.613705,0.9
 21709\S,0,1.089976,0.262017,-0.719571\O,0,1.439497,1.658214,-0.803158\
 O,0,1.40296,-0.689221,-1.746289\N,0,1.974518,-0.265959,0.682622\C,0,-0
 .637406,0.113416,-0.310088\C,0,-1.254286,-1.135111,-0.406734\H,0,-0.68
 5876,-1.993242,-0.73834\C,0,-2.602859,-1.243462,-0.083309\H,0,-3.09584
 3,-2.2057,-0.154963\C,0,-3.319737,-0.117524,0.321944\H,0,-4.371828,-0.

 Normal termination of Gaussian 16 at Wed Apr  9 00:54:37 2025.
