 Gaussian 16, Revision C.01,

 ----------------------------------------------------------------------
 #t hf aug-cc-pvdz symm=none int=(grid=ultrafine) guess=(read,tcheck) s
 table=opt
 ----------------------------------------------------------------------
 -----
 title
 -----
 Symbolic Z-matrix:
 Charge =  0 Multiplicity = 2

 SCF Done:  E(UHF) =  -632.323448576     A.U. after   26 cycles

 1\1\GINC-SE362\Stability\UHF\Aug-CC-pVDZ\C6H13S1\OHZDE\08-Apr-2025\0\\
 #t hf aug-cc-pvdz symm=none int=(grid=ultrafine) guess=(read,tcheck) s
 table=opt\\title\\0,2\S,0,-3.010598,-0.818982,-0.164581\C,0,-2.267504,
 0.765493,0.307077\C,0,-0.865811,1.041288,-0.241117\H,0,-2.292665,0.830
 165,1.40109\H,0,-2.984022,1.519184,-0.046564\C,0,0.211975,0.118461,0.3
 35843\H,0,-0.611588,2.085025,-0.014356\H,0,-0.885048,0.951042,-1.33236
 3\C,0,1.611183,0.391554,-0.225229\H,0,-0.065318,-0.922823,0.130873\H,0
 ,0.230715,0.224095,1.428721\C,0,2.692768,-0.527998,0.353355\H,0,1.8847

 Normal termination of Gaussian 16 at Tue Apr  8 22:55:06 2025.
 Gaussian 16:  ES64L-G16RevC.01  3-Jul-2019

 ----------------------------------------------------------------------
 #t hf aug-cc-pvdz iop(5/13=1,5/36=2,99/5=2) pseudo=read geom=check gue
 ss=(read,tcheck) scf=(maxcycle=1)
 ----------------------------------------------------------------------
 -----
 title
 -----
 Structure from the checkpoint file:  "BDE49_expt_1821_mol2.chk"
 Charge =  0 Multiplicity = 2

                         Standard orientation:
 ---------------------------------------------------------------------
 Center     Atomic      Atomic             Coordinates (Angstroms)
 Number     Number       Type             X           Y           Z
 ---------------------------------------------------------------------
      1         16           0       -3.010598   -0.818982   -0.164581
      2          6           0       -2.267504    0.765493    0.307077
      3          6           0       -0.865811    1.041288   -0.241117
      4          1           0       -2.292665    0.830165    1.401090
      5          1           0       -2.984022    1.519184   -0.046564
      6          6           0        0.211975    0.118461    0.335843
      7          1           0       -0.611588    2.085025   -0.014356
      8          1           0       -0.885048    0.951042   -1.332363
      9          6           0        1.611183    0.391554   -0.225229
     10          1           0       -0.065318   -0.922823    0.130873
     11          1           0        0.230715    0.224095    1.428721
     12          6           0        2.692768   -0.527998    0.353355
     13          1           0        1.884758    1.436905   -0.030460
     14          1           0        1.590236    0.281367   -1.317034
     15          6           0        4.087897   -0.251453   -0.213856
     16          1           0        2.419356   -1.571895    0.158517
     17          1           0        2.713720   -0.418008    1.444410
     18          1           0        4.107549   -0.387936   -1.299625
     19          1           0        4.834867   -0.922877    0.218254
     20          1           0        4.403960    0.775396   -0.004602
 ---------------------------------------------------------------------

 SCF Done:  E(UHF) =  -632.640849947     A.U. after    2 cycles

 The electronic state is 2-A.
 Alpha  occ. eigenvalues --  -93.96169 -11.27319 -11.23844 -11.22928 -11.22748
 Alpha  occ. eigenvalues --  -11.22704 -11.22282  -8.24210  -6.23389  -6.21625
 Alpha  occ. eigenvalues --   -6.21320  -1.11091  -1.06981  -1.00941  -0.93835
 Alpha  occ. eigenvalues --   -0.86244  -0.80008  -0.79132  -0.66178  -0.63463
 Alpha  occ. eigenvalues --   -0.61850  -0.59658  -0.56554  -0.55984  -0.54298
 Alpha  occ. eigenvalues --   -0.51081  -0.49556  -0.47660  -0.47170  -0.46715
 Alpha  occ. eigenvalues --   -0.46643  -0.42697  -0.37418
 Alpha virt. eigenvalues --    0.03216   0.03457   0.03725   0.04349   0.05236
 Alpha virt. eigenvalues --    0.05774   0.06292   0.06718   0.07912   0.08624
 Alpha virt. eigenvalues --    0.09128   0.09523   0.10661   0.11104   0.12155

  Beta  occ. eigenvalues --  -93.95275 -11.27447 -11.23839 -11.22920 -11.22748
  Beta  occ. eigenvalues --  -11.22705 -11.22282  -8.23184  -6.21098  -6.20781
  Beta  occ. eigenvalues --   -6.19425  -1.10297  -1.05906  -0.99153  -0.91455
  Beta  occ. eigenvalues --   -0.84260  -0.79617  -0.77602  -0.66017  -0.62247
  Beta  occ. eigenvalues --   -0.61673  -0.59376  -0.56438  -0.55431  -0.53958
  Beta  occ. eigenvalues --   -0.50666  -0.49295  -0.47581  -0.47033  -0.46355
  Beta  occ. eigenvalues --   -0.45858  -0.35238
  Beta virt. eigenvalues --    0.01208   0.03249   0.03596   0.03736   0.04376
  Beta virt. eigenvalues --    0.05319   0.05796   0.06383   0.06797   0.07946
  Beta virt. eigenvalues --    0.08643   0.09222   0.09677   0.10757   0.11320

 Mulliken charges and spin densities:
               1          2
     1  S    0.236271   1.104659
     2  C   -0.529997  -0.124636
     3  C   -0.301294   0.001109
     4  H    0.195310   0.010842
     5  H    0.218966   0.023557
     6  C   -0.284172   0.000566
     7  H    0.135519   0.002427
     8  H    0.123266  -0.002008
     9  C   -0.314853  -0.007315
    10  H    0.137923   0.001034
    11  H    0.114045  -0.001193
    12  C   -0.206790  -0.006661
    13  H    0.109333   0.000038
    14  H    0.103643  -0.001411
    15  C   -0.413785  -0.000096
    16  H    0.118914  -0.000738
    17  H    0.116931  -0.000153
    18  H    0.163668   0.000038
    19  H    0.116664  -0.000037
    20  H    0.160435  -0.000022
 Sum of Mulliken charges =  -0.00000   1.00000

 Dipole moment (field-independent basis, Debye):
    X=              0.9728    Y=              1.5328    Z=              0.4212  Tot=              1.8637
                          Isotropic Fermi Contact Couplings
        Atom                 a.u.       MegaHertz       Gauss      10(-4) cm-1
     1  S(33)              0.17795      61.12040      21.80928      20.38757
     2  C(13)             -0.02590     -29.11899     -10.39038      -9.71305
     3  C(13)              0.00006       0.06955       0.02482       0.02320
     4  H(1)               0.00861      38.50029      13.73786      12.84231
     5  H(1)               0.01498      66.95304      23.89051      22.33313
     6  C(13)             -0.00012      -0.13996      -0.04994      -0.04669
     7  H(1)              -0.00068      -3.01932      -1.07737      -1.00714
     8  H(1)              -0.00028      -1.25398      -0.44745      -0.41828

 Normal termination of Gaussian 16 at Tue Apr  8 22:55:14 2025.
