 Gaussian 16, Revision C.01,

 ----------------------------------------------------------------------
 #t hf aug-cc-pvdz symm=none int=(grid=ultrafine) guess=(read,tcheck) s
 table=(opt,rrhf)
 ----------------------------------------------------------------------
 -----
 title
 -----
 Symbolic Z-matrix:
 Charge =  0 Multiplicity = 1

 SCF Done:  E(RHF) =  -749.064906517     A.U. after   13 cycles
 Normal termination of Gaussian 16 at Wed Apr  9 00:12:08 2025.
 Gaussian 16:  ES64L-G16RevC.01  3-Jul-2019

 ----------------------------------------------------------------------
 #t hf aug-cc-pvdz iop(5/13=1,5/36=2,99/5=2) pseudo=read geom=check gue
 ss=(read,tcheck) scf=(maxcycle=1)
 ----------------------------------------------------------------------
 -----
 title
 -----
 Structure from the checkpoint file:  "BDE49_nonexpt_2408_mol1.chk"
 Charge =  0 Multiplicity = 1

                         Standard orientation:
 ---------------------------------------------------------------------
 Center     Atomic      Atomic             Coordinates (Angstroms)
 Number     Number       Type             X           Y           Z
 ---------------------------------------------------------------------
      1         14           0       -1.859622   -0.570937   -0.192807
      2         14           0       -0.284316    1.112683    0.312987
      3          1           0       -1.589031   -1.137307   -1.535855
      4          1           0       -3.226168    0.009465   -0.202277
      5          1           0       -1.817883   -1.656110    0.812848
      6          6           0        1.402325    0.748937   -0.474713
      7          1           0       -0.125482    1.254904    1.779958
      8          1           0       -0.716337    2.421668   -0.235594
      9          7           0        2.052506   -0.342121   -0.358007
     10          1           0        1.908022    1.477692   -1.106164
     11          8           0        1.359322   -1.252723    0.462391
     12          1           0        1.925937   -2.031754    0.459766
 ---------------------------------------------------------------------

 SCF Done:  E(RHF) =  -749.300643768     A.U. after    2 cycles

 The electronic state is 1-A.
 Alpha  occ. eigenvalues --  -69.53720 -69.52699 -20.59773 -15.58345 -11.27431
 Alpha  occ. eigenvalues --   -6.20884  -6.19863  -3.96242  -3.96208  -3.96194
 Alpha  occ. eigenvalues --   -3.95218  -3.95213  -3.95210  -1.51178  -1.18579
 Alpha  occ. eigenvalues --   -0.84781  -0.78122  -0.73025  -0.70197  -0.63929
 Alpha  occ. eigenvalues --   -0.61258  -0.56336  -0.50722  -0.49223  -0.47741
 Alpha  occ. eigenvalues --   -0.45620  -0.43284  -0.40542
 Alpha virt. eigenvalues --    0.03465   0.03848   0.04552   0.05166   0.06383
 Alpha virt. eigenvalues --    0.06922   0.07338   0.08006   0.08409   0.08723
 Alpha virt. eigenvalues --    0.09439   0.10369   0.10832   0.11366   0.11984

 Mulliken charges:
               1
     1  Si   0.327763
     2  Si   0.763066
     3  H   -0.081204
     4  H   -0.140811
     5  H   -0.109126
     6  C   -0.905350
     7  H   -0.109685
     8  H   -0.170922
     9  N    1.188302
    10  H   -0.083913
    11  O   -1.037558
    12  H    0.359437
 Sum of Mulliken charges =  -0.00000

 Dipole moment (field-independent basis, Debye):
    X=             -0.2983    Y=              0.3046    Z=              0.0297  Tot=              0.4273

 Test job not archived.
 1\1\GINC-SE393\SP\RHF\Aug-CC-pVDZ\C1H7N1O1Si2\OHZDE\09-Apr-2025\0\\#t
 hf aug-cc-pvdz iop(5/13=1,5/36=2,99/5=2) pseudo=read geom=check guess=
 (read,tcheck) scf=(maxcycle=1)\\title\\0,1\Si,0,-1.859622,-0.570937,-0
 .192807\Si,0,-0.284316,1.112683,0.312987\H,0,-1.589031,-1.137307,-1.53
 5855\H,0,-3.226168,0.009464,-0.202277\H,0,-1.817883,-1.65611,0.812848\
 C,0,1.402325,0.748937,-0.474713\H,0,-0.125482,1.254904,1.779958\H,0,-0
 .716338,2.421668,-0.235594\N,0,2.052506,-0.342121,-0.358007\H,0,1.9080
 22,1.477692,-1.106164\O,0,1.359322,-1.252723,0.462391\H,0,1.925937,-2.

 Normal termination of Gaussian 16 at Wed Apr  9 00:12:12 2025.
