 Gaussian 16, Revision C.01,

 ----------------------------------------------------------------------
 #t hf aug-cc-pvdz symm=none int=(grid=ultrafine) guess=(read,tcheck) s
 table=(opt,rrhf)
 ----------------------------------------------------------------------
 -----
 title
 -----
 Symbolic Z-matrix:
 Charge =  0 Multiplicity = 1

 SCF Done:  E(RHF) =  -588.622575557     A.U. after   12 cycles
 Normal termination of Gaussian 16 at Tue Apr  8 22:31:54 2025.
 Gaussian 16:  ES64L-G16RevC.01  3-Jul-2019

 ----------------------------------------------------------------------
 #t hf aug-cc-pvdz iop(5/13=1,5/36=2,99/5=2) pseudo=read geom=check gue
 ss=(read,tcheck) scf=(maxcycle=1)
 ----------------------------------------------------------------------
 -----
 title
 -----
 Structure from the checkpoint file:  "BDE49_expt_1054_mol1.chk"
 Charge =  0 Multiplicity = 1

                         Standard orientation:
 ---------------------------------------------------------------------
 Center     Atomic      Atomic             Coordinates (Angstroms)
 Number     Number       Type             X           Y           Z
 ---------------------------------------------------------------------
      1          6           0        1.203650   -0.077271   -0.843476
      2          8           0        1.760499   -1.268078   -0.340331
      3          1           0        1.053770   -1.908387   -0.208945
      4          6           0        0.218383    0.589949    0.114326
      5          1           0        0.692198   -0.211636   -1.804719
      6          1           0        2.023532    0.628499   -0.985675
      7          6           0       -1.129480   -0.119327    0.294621
      8          9           0       -0.067312    1.845295   -0.358702
      9          9           0        0.763496    0.732208    1.355669
     10          9           0       -0.912941   -1.403715    0.719884
     11          9           0       -1.765842   -0.186687   -0.904630
     12          1           0       -1.765413    0.392138    1.019170
 ---------------------------------------------------------------------

 SCF Done:  E(RHF) =  -589.176959152     A.U. after    2 cycles

 The electronic state is 1-A.
 Alpha  occ. eigenvalues --  -26.51360 -26.51105 -26.50420 -26.50087 -20.57475
 Alpha  occ. eigenvalues --  -11.45516 -11.44967 -11.32398  -1.68378  -1.66197
 Alpha  occ. eigenvalues --   -1.61283  -1.59856  -1.47849  -1.08168  -0.99688
 Alpha  occ. eigenvalues --   -0.88608  -0.82231  -0.80332  -0.79441  -0.75335
 Alpha  occ. eigenvalues --   -0.75212  -0.70717  -0.69016  -0.67418  -0.66492
 Alpha  occ. eigenvalues --   -0.64031  -0.63100  -0.62166  -0.61836  -0.60557
 Alpha  occ. eigenvalues --   -0.56737  -0.51572  -0.47230
 Alpha virt. eigenvalues --    0.03859   0.04192   0.05215   0.05910   0.08742
 Alpha virt. eigenvalues --    0.09958   0.10708   0.11854   0.12938   0.14811
 Alpha virt. eigenvalues --    0.14972   0.15124   0.16437   0.17187   0.19160

 Mulliken charges:
               1
     1  C    0.531202
     2  O   -1.137200
     3  H    0.370445
     4  C    1.543918
     5  H    0.188977
     6  H    0.122673
     7  C    1.471042
     8  F   -0.856477
     9  F   -0.864875
    10  F   -0.750176
    11  F   -0.738921
    12  H    0.119393
 Sum of Mulliken charges =  -0.00000

 Dipole moment (field-independent basis, Debye):
    X=             -1.2196    Y=             -0.0198    Z=             -0.4526  Tot=              1.3010

 Test job not archived.
 1\1\GINC-SE099\SP\RHF\Aug-CC-pVDZ\C3H4F4O1\OHZDE\08-Apr-2025\0\\#t hf
 aug-cc-pvdz iop(5/13=1,5/36=2,99/5=2) pseudo=read geom=check guess=(re
 ad,tcheck) scf=(maxcycle=1)\\title\\0,1\C,0,1.20365,-0.077272,-0.84347
 6\O,0,1.760499,-1.268079,-0.340331\H,0,1.053769,-1.908387,-0.208945\C,
 0,0.218383,0.589949,0.114326\H,0,0.692198,-0.211636,-1.804719\H,0,2.02
 3532,0.628498,-0.985675\C,0,-1.12948,-0.119327,0.294621\F,0,-0.067311,
 1.845295,-0.358702\F,0,0.763496,0.732208,1.355669\F,0,-0.912942,-1.403
 715,0.719884\F,0,-1.765842,-0.186686,-0.90463\H,0,-1.765413,0.392139,1

 Normal termination of Gaussian 16 at Tue Apr  8 22:32:00 2025.
