 Gaussian 16, Revision C.01,

 ----------------------------------------------------------------------
 #t hf aug-cc-pvdz symm=none int=(grid=ultrafine) guess=(read,tcheck) s
 table=(opt,rrhf)
 ----------------------------------------------------------------------
 -----
 title
 -----
 Symbolic Z-matrix:
 Charge =  0 Multiplicity = 1

 SCF Done:  E(RHF) =  -954.372143492     A.U. after   14 cycles
 Normal termination of Gaussian 16 at Wed Apr  9 00:15:12 2025.
 Gaussian 16:  ES64L-G16RevC.01  3-Jul-2019

 ----------------------------------------------------------------------
 #t hf aug-cc-pvdz iop(5/13=1,5/36=2,99/5=2) pseudo=read geom=check gue
 ss=(read,tcheck) scf=(maxcycle=1)
 ----------------------------------------------------------------------
 -----
 title
 -----
 Structure from the checkpoint file:  "BDE49_nonexpt_2476_mol1.chk"
 Charge =  0 Multiplicity = 1

                         Standard orientation:
 ---------------------------------------------------------------------
 Center     Atomic      Atomic             Coordinates (Angstroms)
 Number     Number       Type             X           Y           Z
 ---------------------------------------------------------------------
      1         16           0       -0.701244   -0.530139    0.025805
      2          6           0        0.984370   -0.927460   -0.579024
      3         14           0       -0.932435    1.712187    0.007374
      4          8           0       -0.774759   -0.966078    1.417327
      5          8           0       -1.632651   -1.060858   -0.964437
      6          6           0        2.054331   -0.341543    0.281344
      7          1           0        1.029438   -0.590286   -1.616095
      8          6           0        2.936395    0.561989   -0.140763
      9          1           0        2.077214   -0.689170    1.309768
     10          1           0        2.940580    0.923801   -1.164547
     11          1           0        3.696349    0.960454    0.521051
     12          1           0        0.977489   -2.022633   -0.558562
     13          1           0       -0.100908    2.320183    1.060963
     14          1           0       -2.373027    1.866332    0.275716
     15          1           0       -0.564442    2.200492   -1.336879
 ---------------------------------------------------------------------

 SCF Done:  E(RHF) =  -954.741282134     A.U. after    2 cycles

 The electronic state is 1-A.
 Alpha  occ. eigenvalues --  -94.16949 -69.58294 -20.52988 -20.52983 -11.29469
 Alpha  occ. eigenvalues --  -11.27491 -11.26667  -8.42569  -6.40651  -6.40408
 Alpha  occ. eigenvalues --   -6.40341  -6.25306  -4.00704  -4.00606  -4.00601
 Alpha  occ. eigenvalues --   -1.53867  -1.42386  -1.11994  -1.01320  -0.89559
 Alpha  occ. eigenvalues --   -0.80709  -0.76829  -0.69852  -0.66646  -0.65583
 Alpha  occ. eigenvalues --   -0.64372  -0.62052  -0.58227  -0.54184  -0.53740
 Alpha  occ. eigenvalues --   -0.52916  -0.48645  -0.47938  -0.45553  -0.42191
 Alpha  occ. eigenvalues --   -0.38392
 Alpha virt. eigenvalues --    0.02467   0.03496   0.03782   0.04458   0.05883
 Alpha virt. eigenvalues --    0.06279   0.06608   0.07021   0.07566   0.09042
 Alpha virt. eigenvalues --    0.09539   0.10266   0.11332   0.11599   0.13296

 Mulliken charges:
               1
     1  S    2.787930
     2  C   -1.067697
     3  Si   0.924592
     4  O   -1.540079
     5  O   -1.496936
     6  C    0.845249
     7  H    0.105946
     8  C   -0.113563
     9  H   -0.143991
    10  H   -0.094204
    11  H   -0.072061
    12  H    0.286034
    13  H   -0.117878
    14  H   -0.182812
    15  H   -0.120529
 Sum of Mulliken charges =  -0.00000

 Dipole moment (field-independent basis, Debye):
    X=              3.6882    Y=              3.6875    Z=             -1.1835  Tot=              5.3480

 Test job not archived.
 1\1\GINC-SE322\SP\RHF\Aug-CC-pVDZ\C3H8O2S1Si1\OHZDE\09-Apr-2025\0\\#t
 hf aug-cc-pvdz iop(5/13=1,5/36=2,99/5=2) pseudo=read geom=check guess=
 (read,tcheck) scf=(maxcycle=1)\\title\\0,1\S,0,-0.701244,-0.530139,0.0
 25805\C,0,0.98437,-0.92746,-0.579024\Si,0,-0.932435,1.712187,0.007374\
 O,0,-0.774759,-0.966078,1.417327\O,0,-1.632651,-1.060858,-0.964437\C,0
 ,2.054331,-0.341543,0.281344\H,0,1.029438,-0.590286,-1.616095\C,0,2.93
 6395,0.561989,-0.140763\H,0,2.077214,-0.68917,1.309768\H,0,2.94058,0.9
 23801,-1.164547\H,0,3.696349,0.960454,0.521051\H,0,0.977489,-2.022633,

 Normal termination of Gaussian 16 at Wed Apr  9 00:15:18 2025.
