 Gaussian 16, Revision C.01,

 ----------------------------------------------------------------------
 #t hf aug-cc-pvdz symm=none int=(grid=ultrafine) guess=(read,tcheck) s
 table=opt
 ----------------------------------------------------------------------
 -----
 title
 -----
 Symbolic Z-matrix:
 Charge =  0 Multiplicity = 2

 SCF Done:  E(UHF) =  -1441.62893276     A.U. after   18 cycles
 Normal termination of Gaussian 16 at Tue Apr  8 23:42:56 2025.
 Gaussian 16:  ES64L-G16RevC.01  3-Jul-2019

 ----------------------------------------------------------------------
 #t hf aug-cc-pvdz iop(5/13=1,5/36=2,99/5=2) pseudo=read geom=check gue
 ss=(read,tcheck) scf=(maxcycle=1)
 ----------------------------------------------------------------------
 -----
 title
 -----
 Structure from the checkpoint file:  "BDE49_nonexpt_168_mol2.chk"
 Charge =  0 Multiplicity = 2

                         Standard orientation:
 ---------------------------------------------------------------------
 Center     Atomic      Atomic             Coordinates (Angstroms)
 Number     Number       Type             X           Y           Z
 ---------------------------------------------------------------------
      1         17           0       -2.203103   -0.113767   -0.185438
      2          5           0       -0.869584   -0.419898    0.851727
      3          6           0        0.615292    0.033312    0.690492
      4         17           0        1.290200   -1.383754   -0.239217
      5         17           0        0.881434    1.604117   -0.164153
      6          1           0        1.191133    0.087479    1.608155
 ---------------------------------------------------------------------

 SCF Done:  E(UHF) =  -1441.91548781     A.U. after    2 cycles

 The electronic state is 2-A.
 Alpha  occ. eigenvalues -- -105.59700-105.59638-105.58900 -11.38071 -10.64676
 Alpha  occ. eigenvalues --  -10.64443 -10.63666  -7.81609  -7.81390  -7.81283
 Alpha  occ. eigenvalues --   -7.81223  -7.80981  -7.80968  -7.80712  -7.80192
 Alpha  occ. eigenvalues --   -7.80181  -7.70974  -1.17197  -1.10567  -1.06114
 Alpha  occ. eigenvalues --   -0.90719  -0.73397  -0.65172  -0.62049  -0.60524
 Alpha  occ. eigenvalues --   -0.53402  -0.52376  -0.49196  -0.48730  -0.46920
 Alpha  occ. eigenvalues --   -0.46496  -0.37027
 Alpha virt. eigenvalues --    0.02952   0.03739   0.05011   0.05656   0.06342
 Alpha virt. eigenvalues --    0.08112   0.09802   0.10778   0.12615   0.13359
 Alpha virt. eigenvalues --    0.14550   0.15179   0.16319   0.17139   0.17478

  Beta  occ. eigenvalues -- -105.59697-105.59567-105.58831 -11.37976 -10.64593
  Beta  occ. eigenvalues --  -10.64440 -10.63593  -7.81495  -7.81368  -7.81250
  Beta  occ. eigenvalues --   -7.81029  -7.80988  -7.80963  -7.80439  -7.80151
  Beta  occ. eigenvalues --   -7.80133  -7.68926  -1.16724  -1.09745  -1.05791
  Beta  occ. eigenvalues --   -0.89761  -0.71581  -0.63105  -0.61315  -0.59682
  Beta  occ. eigenvalues --   -0.52479  -0.50796  -0.48869  -0.48458  -0.46725
  Beta  occ. eigenvalues --   -0.46001
  Beta virt. eigenvalues --    0.02439   0.04579   0.04652   0.05426   0.06251
  Beta virt. eigenvalues --    0.07530   0.08258   0.10621   0.12482   0.13176
  Beta virt. eigenvalues --    0.14267   0.14671   0.15484   0.16471   0.17776

 Mulliken charges and spin densities:
               1          2
     1  Cl  -0.179851   0.010985
     2  B    0.505358   0.984669
     3  C   -0.475917  -0.050515
     4  Cl  -0.074634   0.003116
     5  Cl  -0.083214   0.053193
     6  H    0.308258  -0.001448
 Sum of Mulliken charges =  -0.00000   1.00000

 Dipole moment (field-independent basis, Debye):
    X=              0.0026    Y=             -0.0098    Z=              1.4126  Tot=              1.4126
                          Isotropic Fermi Contact Couplings
        Atom                 a.u.       MegaHertz       Gauss      10(-4) cm-1
     1  Cl(35)             0.07155      31.37401      11.19503      10.46524
     2  B(11)              0.33851     485.55191     173.25700     161.96268
     3  C(13)              0.06938      77.99388      27.83015      26.01596
     4  Cl(35)            -0.00176      -0.76967      -0.27464      -0.25674
     5  Cl(35)             0.01999       8.76700       3.12828       2.92436
     6  H(1)               0.00218       9.74205       3.47621       3.24960
 --------------------------------------------------------
       Center         ----  Spin Dipole Couplings  ----

 Normal termination of Gaussian 16 at Tue Apr  8 23:43:00 2025.
