 Gaussian 16, Revision C.01,

 ----------------------------------------------------------------------
 #t hf aug-cc-pvdz symm=none int=(grid=ultrafine) guess=(read,tcheck) s
 table=(opt,rrhf)
 ----------------------------------------------------------------------
 -----
 title
 -----
 Symbolic Z-matrix:
 Charge =  0 Multiplicity = 1

 SCF Done:  E(RHF) =  -711.520698769     A.U. after   12 cycles
 Normal termination of Gaussian 16 at Wed Apr  9 00:16:59 2025.
 Gaussian 16:  ES64L-G16RevC.01  3-Jul-2019

 ----------------------------------------------------------------------
 #t hf aug-cc-pvdz iop(5/13=1,5/36=2,99/5=2) pseudo=read geom=check gue
 ss=(read,tcheck) scf=(maxcycle=1)
 ----------------------------------------------------------------------
 -----
 title
 -----
 Structure from the checkpoint file:  "BDE49_nonexpt_254_mol1.chk"
 Charge =  0 Multiplicity = 1

                         Standard orientation:
 ---------------------------------------------------------------------
 Center     Atomic      Atomic             Coordinates (Angstroms)
 Number     Number       Type             X           Y           Z
 ---------------------------------------------------------------------
      1         17           0       -2.423957   -0.000000    0.062533
      2          7           0        0.076886   -1.222755   -0.068898
      3          7           0        0.076886    1.222755   -0.068898
      4          6           0        1.533369   -1.272475   -0.182411
      5          6           0        2.151063    0.000000    0.409351
      6          6           0        1.533369    1.272475   -0.182412
      7          5           0       -0.617934    0.000000   -0.035039
      8          1           0       -0.413363   -2.101429   -0.082631
      9          1           0       -0.413363    2.101429   -0.082631
     10          1           0        1.915785    2.144952    0.356520
     11          1           0        1.843640    1.382058   -1.231495
     12          1           0        3.230433    0.000000    0.232538
     13          1           0        1.991179    0.000000    1.492211
     14          1           0        1.843641   -1.382058   -1.231494
     15          1           0        1.915785   -2.144952    0.356520
 ---------------------------------------------------------------------

 SCF Done:  E(RHF) =  -711.864300470     A.U. after    2 cycles

 The electronic state is 1-A.
 Alpha  occ. eigenvalues -- -105.53593 -15.48364 -15.48339 -11.27209 -11.27189
 Alpha  occ. eigenvalues --  -11.24066 -10.58560  -7.75453  -7.75178  -7.75178
 Alpha  occ. eigenvalues --   -7.63661  -1.22505  -1.16815  -1.05291  -1.01654
 Alpha  occ. eigenvalues --   -0.91795  -0.83056  -0.77233  -0.68778  -0.66871
 Alpha  occ. eigenvalues --   -0.65054  -0.63516  -0.60791  -0.56460  -0.54486
 Alpha  occ. eigenvalues --   -0.51266  -0.49370  -0.48064  -0.44913  -0.42731
 Alpha  occ. eigenvalues --   -0.40439
 Alpha virt. eigenvalues --    0.03322   0.03897   0.04203   0.04261   0.05894
 Alpha virt. eigenvalues --    0.05983   0.06252   0.06534   0.06963   0.09256
 Alpha virt. eigenvalues --    0.09896   0.11595   0.13305   0.13571   0.14698

 Mulliken charges:
               1
     1  Cl  -0.429688
     2  N    0.548792
     3  N    0.548791
     4  C   -0.485161
     5  C   -0.429167
     6  C   -0.485162
     7  B    0.075954
     8  H   -0.004646
     9  H   -0.004646
    10  H    0.062524
    11  H    0.114202
    12  H    0.141346
    13  H    0.170136
    14  H    0.114203
    15  H    0.062522
 Sum of Mulliken charges =  -0.00000

 Dipole moment (field-independent basis, Debye):
    X=              3.2081    Y=             -0.0000    Z=             -0.2150  Tot=              3.2153

 Test job not archived.
 1\1\GINC-SE365\SP\RHF\Aug-CC-pVDZ\C3H8B1Cl1N2\OHZDE\09-Apr-2025\0\\#t
 hf aug-cc-pvdz iop(5/13=1,5/36=2,99/5=2) pseudo=read geom=check guess=
 (read,tcheck) scf=(maxcycle=1)\\title\\0,1\Cl,0,2.423957,0.,0.062533\N
 ,0,-0.076886,1.222755,-0.068898\N,0,-0.076886,-1.222755,-0.068898\C,0,
 -1.533369,1.272475,-0.182411\C,0,-2.151063,0.,0.409351\C,0,-1.533369,-
 1.272475,-0.182412\B,0,0.617934,0.,-0.035039\H,0,0.413363,2.101429,-0.
 082631\H,0,0.413363,-2.101429,-0.082631\H,0,-1.915785,-2.144952,0.3565
 2\H,0,-1.84364,-1.382058,-1.231495\H,0,-3.230433,0.,0.232538\H,0,-1.99

 Normal termination of Gaussian 16 at Wed Apr  9 00:17:04 2025.
