 Gaussian 16, Revision C.01,

 ----------------------------------------------------------------------
 #t hf aug-cc-pvdz symm=none int=(grid=ultrafine) guess=(read,tcheck) s
 table=(opt,rrhf)
 ----------------------------------------------------------------------
 -----
 title
 -----
 Symbolic Z-matrix:
 Charge =  0 Multiplicity = 1

 SCF Done:  E(RHF) =  -1154.07428197     A.U. after   12 cycles
 Normal termination of Gaussian 16 at Tue Apr  8 23:42:23 2025.
 Gaussian 16:  ES64L-G16RevC.01  3-Jul-2019

 ----------------------------------------------------------------------
 #t hf aug-cc-pvdz iop(5/13=1,5/36=2,99/5=2) pseudo=read geom=check gue
 ss=(read,tcheck) scf=(maxcycle=1)
 ----------------------------------------------------------------------
 -----
 title
 -----
 Structure from the checkpoint file:  "BDE49_nonexpt_1682_mol1.chk"
 Charge =  0 Multiplicity = 1

                         Standard orientation:
 ---------------------------------------------------------------------
 Center     Atomic      Atomic             Coordinates (Angstroms)
 Number     Number       Type             X           Y           Z
 ---------------------------------------------------------------------
      1         14           0       -1.097336    0.006828    0.007901
      2         15           0        1.155488    0.016745    0.129211
      3          9           0       -1.721726   -0.846683    1.182117
      4          9           0       -1.632064   -0.569050   -1.364179
      5          9           0       -1.604915    1.500318    0.145028
      6          8           0        1.718750    0.485924    1.400929
      7          8           0        1.445299   -1.486677   -0.324204
      8          1           0        2.354533   -1.784445   -0.181096
      9          8           0        1.629412    0.867595   -1.155451
     10          1           0        1.956488    1.741670   -0.904574
 ---------------------------------------------------------------------

 SCF Done:  E(RHF) =  -1154.63960594     A.U. after    2 cycles

 The electronic state is 1-A.
 Alpha  occ. eigenvalues --  -84.45524 -69.70439 -26.50070 -26.50034 -26.49990
 Alpha  occ. eigenvalues --  -20.62179 -20.61786 -20.53143  -6.90894  -6.36268
 Alpha  occ. eigenvalues --   -4.44986  -4.44290  -4.43170  -4.11565  -4.11561
 Alpha  occ. eigenvalues --   -4.11318  -1.63891  -1.60557  -1.60541  -1.55903
 Alpha  occ. eigenvalues --   -1.50058  -1.41373  -0.90762  -0.83037  -0.76392
 Alpha  occ. eigenvalues --   -0.74805  -0.74689  -0.73091  -0.69576  -0.68712
 Alpha  occ. eigenvalues --   -0.68532  -0.66143  -0.65863  -0.65673  -0.64145
 Alpha  occ. eigenvalues --   -0.63133  -0.57486  -0.57130  -0.52319  -0.48224
 Alpha  occ. eigenvalues --   -0.45742
 Alpha virt. eigenvalues --    0.02998   0.04077   0.05573   0.06615   0.07094
 Alpha virt. eigenvalues --    0.09339   0.09998   0.11436   0.11605   0.14933
 Alpha virt. eigenvalues --    0.15071   0.15326   0.18186   0.18715   0.20174

 Mulliken charges:
               1
     1  Si   2.932646
     2  P    2.904703
     3  F   -0.858336
     4  F   -0.841952
     5  F   -0.833772
     6  O   -1.444957
     7  O   -1.269692
     8  H    0.361337
     9  O   -1.288720
    10  H    0.338743
 Sum of Mulliken charges =  -0.00000

 Dipole moment (field-independent basis, Debye):
    X=              1.8362    Y=             -0.2264    Z=             -1.9140  Tot=              2.6620

 Test job not archived.
 1\1\GINC-SE332\SP\RHF\Aug-CC-pVDZ\F3H2O3P1Si1\OHZDE\08-Apr-2025\0\\#t
 hf aug-cc-pvdz iop(5/13=1,5/36=2,99/5=2) pseudo=read geom=check guess=
 (read,tcheck) scf=(maxcycle=1)\\title\\0,1\Si,0,1.097336,0.006828,-0.0
 07901\P,0,-1.155488,0.016745,-0.129211\F,0,1.721726,-0.846683,-1.18211
 7\F,0,1.632064,-0.56905,1.364179\F,0,1.604915,1.500318,-0.145028\O,0,-
 1.71875,0.485924,-1.400929\O,0,-1.445299,-1.486677,0.324204\H,0,-2.354
 533,-1.784445,0.181096\O,0,-1.629412,0.867595,1.155451\H,0,-1.956487,1
 .74167,0.904574\\Version=ES64L-G16RevC.01\State=1-A\HF=-1154.6396059\R

 Normal termination of Gaussian 16 at Tue Apr  8 23:42:27 2025.
