 Gaussian 16, Revision C.01,

 ----------------------------------------------------------------------
 #t hf aug-cc-pvdz symm=none int=(grid=ultrafine) guess=(read,tcheck) s
 table=opt
 ----------------------------------------------------------------------
 -----
 title
 -----
 Symbolic Z-matrix:
 Charge =  0 Multiplicity = 2

 SCF Done:  E(UHF) =  -917.417912076     A.U. after   20 cycles
 Normal termination of Gaussian 16 at Tue Apr  8 23:46:21 2025.
 Gaussian 16:  ES64L-G16RevC.01  3-Jul-2019

 ----------------------------------------------------------------------
 #t hf aug-cc-pvdz iop(5/13=1,5/36=2,99/5=2) pseudo=read geom=check gue
 ss=(read,tcheck) scf=(maxcycle=1)
 ----------------------------------------------------------------------
 -----
 title
 -----
 Structure from the checkpoint file:  "BDE49_nonexpt_1782_mol2.chk"
 Charge =  0 Multiplicity = 2

                         Standard orientation:
 ---------------------------------------------------------------------
 Center     Atomic      Atomic             Coordinates (Angstroms)
 Number     Number       Type             X           Y           Z
 ---------------------------------------------------------------------
      1         14           0        0.329945   -0.893352   -0.264888
      2          6           0       -1.328552    0.045792    0.007976
      3         17           0        1.982942    0.348484    0.122734
      4          7           0       -1.367517    1.396012   -0.117067
      5          1           0       -0.521367    1.938173   -0.186625
      6          1           0       -2.243690    1.874546    0.042103
      7          8           0       -2.300069   -0.657161    0.230328
      8          1           0        0.380293   -2.019573    0.695476
 ---------------------------------------------------------------------

 SCF Done:  E(UHF) =  -917.688626534     A.U. after    2 cycles

 The electronic state is 2-A.
 Alpha  occ. eigenvalues -- -105.57675 -69.60701 -20.53560 -15.54621 -11.36958
 Alpha  occ. eigenvalues --  -10.62628  -7.79545  -7.79255  -7.79182  -6.27439
 Alpha  occ. eigenvalues --   -4.03236  -4.02487  -4.02314  -1.47822  -1.23851
 Alpha  occ. eigenvalues --   -1.07056  -0.88020  -0.80084  -0.74597  -0.66832
 Alpha  occ. eigenvalues --   -0.60969  -0.58923  -0.55355  -0.51255  -0.49478
 Alpha  occ. eigenvalues --   -0.46083  -0.42798  -0.36519
 Alpha virt. eigenvalues --    0.02975   0.04737   0.05220   0.05826   0.06550
 Alpha virt. eigenvalues --    0.07024   0.09461   0.11489   0.12085   0.12631
 Alpha virt. eigenvalues --    0.13217   0.13979   0.15377   0.16072   0.16729

  Beta  occ. eigenvalues -- -105.57587 -69.60115 -20.53292 -15.54629 -11.36893
  Beta  occ. eigenvalues --  -10.62533  -7.79404  -7.79133  -7.79001  -6.26522
  Beta  occ. eigenvalues --   -4.02107  -4.01942  -4.01073  -1.47245  -1.23760
  Beta  occ. eigenvalues --   -1.06234  -0.87260  -0.79241  -0.72650  -0.65583
  Beta  occ. eigenvalues --   -0.60583  -0.57836  -0.54171  -0.49492  -0.48737
  Beta  occ. eigenvalues --   -0.44879  -0.41471
  Beta virt. eigenvalues --    0.00116   0.03071   0.05155   0.05517   0.06153
  Beta virt. eigenvalues --    0.06714   0.07311   0.10261   0.12036   0.12701
  Beta virt. eigenvalues --    0.13167   0.14527   0.15167   0.15891   0.17201

 Mulliken charges and spin densities:
               1          2
     1  Si   1.088465   0.831611
     2  C    0.056085  -0.004586
     3  Cl  -0.570553   0.037442
     4  N    0.529270  -0.001901
     5  H    0.046488   0.000627
     6  H    0.074369   0.001158
     7  O   -1.087056   0.060410
     8  H   -0.137069   0.075238
 Sum of Mulliken charges =  -0.00000   1.00000

 Dipole moment (field-independent basis, Debye):
    X=              0.8886    Y=              1.7528    Z=             -0.5509  Tot=              2.0410
                          Isotropic Fermi Contact Couplings
        Atom                 a.u.       MegaHertz       Gauss      10(-4) cm-1
     1  Si(29)             0.74006    -657.71242    -234.68815    -219.38925
     2  C(13)              0.02626      29.52376      10.53481       9.84807
     3  Cl(35)             0.05069      22.22379       7.93000       7.41306
     4  N(14)             -0.00183      -0.59044      -0.21069      -0.19695
     5  H(1)               0.00000       0.00953       0.00340       0.00318
     6  H(1)               0.00037       1.64365       0.58649       0.54826
     7  O(17)              0.02086     -12.64547      -4.51222      -4.21807
     8  H(1)               0.01393      62.25226      22.21316      20.76512

 Normal termination of Gaussian 16 at Tue Apr  8 23:46:24 2025.
