 Gaussian 16, Revision C.01,

 ----------------------------------------------------------------------
 #t hf aug-cc-pvdz symm=none int=(grid=ultrafine) guess=(read,tcheck) s
 table=(opt,rrhf)
 ----------------------------------------------------------------------
 -----
 title
 -----
 Symbolic Z-matrix:
 Charge =  0 Multiplicity = 1

 SCF Done:  E(RHF) =  -885.370936011     A.U. after   13 cycles
 Normal termination of Gaussian 16 at Wed Apr  9 00:32:57 2025.
 Gaussian 16:  ES64L-G16RevC.01  3-Jul-2019

 ----------------------------------------------------------------------
 #t hf aug-cc-pvdz iop(5/13=1,5/36=2,99/5=2) pseudo=read geom=check gue
 ss=(read,tcheck) scf=(maxcycle=1)
 ----------------------------------------------------------------------
 -----
 title
 -----
 Structure from the checkpoint file:  "BDE49_nonexpt_403_mol1.chk"
 Charge =  0 Multiplicity = 1

                         Standard orientation:
 ---------------------------------------------------------------------
 Center     Atomic      Atomic             Coordinates (Angstroms)
 Number     Number       Type             X           Y           Z
 ---------------------------------------------------------------------
      1          9           0        2.476122   -0.009014    0.094136
      2          9           0        1.096063    1.793194   -0.125133
      3          5           0        1.278717    0.498249   -0.019769
      4         16           0       -0.217723   -0.660759    0.024218
      5          8           0       -0.559673   -0.820603    1.418967
      6          8           0       -1.366984    0.206072   -0.710781
      7          6           0       -2.136152    1.165235    0.061113
      8          1           0       -3.004113    1.388800   -0.555256
      9          1           0       -1.550597    2.071293    0.225373
     10          1           0       -2.443681    0.727186    1.009080
     11          8           0        0.021110   -1.779895   -0.840129
 ---------------------------------------------------------------------

 SCF Done:  E(RHF) =  -885.895435049     A.U. after    2 cycles

 The electronic state is 1-A.
 Alpha  occ. eigenvalues --  -94.24497 -26.54045 -26.53609 -20.62454 -20.57091
 Alpha  occ. eigenvalues --  -20.56592 -11.32715  -8.49387  -7.80483  -6.47509
 Alpha  occ. eigenvalues --   -6.47375  -6.47161  -1.69144  -1.65469  -1.62286
 Alpha  occ. eigenvalues --   -1.49917  -1.47397  -1.02392  -0.93632  -0.85543
 Alpha  occ. eigenvalues --   -0.80791  -0.79635  -0.75192  -0.73992  -0.70663
 Alpha  occ. eigenvalues --   -0.70298  -0.68802  -0.68620  -0.65720  -0.64253
 Alpha  occ. eigenvalues --   -0.57826  -0.53870  -0.52017  -0.51055  -0.49097
 Alpha  occ. eigenvalues --   -0.47062
 Alpha virt. eigenvalues --    0.03096   0.04217   0.04252   0.05390   0.06443
 Alpha virt. eigenvalues --    0.07165   0.07852   0.08498   0.10767   0.12618
 Alpha virt. eigenvalues --    0.13568   0.14892   0.15337   0.16061   0.17272

 Mulliken charges:
               1
     1  F   -0.701444
     2  F   -0.510981
     3  B    1.575084
     4  S    3.480973
     5  O   -1.442034
     6  O   -1.570201
     7  C    0.225732
     8  H    0.044638
     9  H    0.145067
    10  H    0.182798
    11  O   -1.429632
 Sum of Mulliken charges =  -0.00000

 Dipole moment (field-independent basis, Debye):
    X=             -0.6930    Y=              4.0414    Z=              0.0266  Tot=              4.1005

 Test job not archived.
 1\1\GINC-SE343\SP\RHF\Aug-CC-pVDZ\C1H3B1F2O3S1\OHZDE\09-Apr-2025\0\\#t
  hf aug-cc-pvdz iop(5/13=1,5/36=2,99/5=2) pseudo=read geom=check guess
 =(read,tcheck) scf=(maxcycle=1)\\title\\0,1\F,0,2.476122,-0.009015,0.0
 94136\F,0,1.096063,1.793194,-0.125133\B,0,1.278717,0.498249,-0.019769\
 S,0,-0.217723,-0.660759,0.024218\O,0,-0.559673,-0.820603,1.418967\O,0,
 -1.366984,0.206072,-0.710781\C,0,-2.136152,1.165236,0.061113\H,0,-3.00
 4113,1.388801,-0.555256\H,0,-1.550597,2.071293,0.225373\H,0,-2.443681,
 0.727187,1.00908\O,0,0.021109,-1.779895,-0.840129\\Version=ES64L-G16Re

 Normal termination of Gaussian 16 at Wed Apr  9 00:33:02 2025.
