 Gaussian 16, Revision C.01,

 ----------------------------------------------------------------------
 #t hf aug-cc-pvdz symm=none int=(grid=ultrafine) guess=(read,tcheck) s
 table=(opt,rrhf)
 ----------------------------------------------------------------------
 -----
 title
 -----
 Symbolic Z-matrix:
 Charge =  0 Multiplicity = 1

 SCF Done:  E(RHF) =  -780.448071320     A.U. after   16 cycles
 Normal termination of Gaussian 16 at Tue Apr  8 23:19:07 2025.
 Gaussian 16:  ES64L-G16RevC.01  3-Jul-2019

 ----------------------------------------------------------------------
 #t hf aug-cc-pvdz iop(5/13=1,5/36=2,99/5=2) pseudo=read geom=check gue
 ss=(read,tcheck) scf=(maxcycle=1)
 ----------------------------------------------------------------------
 -----
 title
 -----
 Structure from the checkpoint file:  "BDE49_nonexpt_1085_mol1.chk"
 Charge =  0 Multiplicity = 1

                         Standard orientation:
 ---------------------------------------------------------------------
 Center     Atomic      Atomic             Coordinates (Angstroms)
 Number     Number       Type             X           Y           Z
 ---------------------------------------------------------------------
      1         17           0        2.588787   -0.162864    0.000000
      2          8           0        1.243775    0.931059    0.000000
      3          6           0        0.000000    0.350704    0.000000
      4          6           0       -1.058551    1.273501    0.000000
      5          7           0       -0.144480   -0.951965    0.000000
      6          6           0       -1.395577   -1.438878    0.000000
      7          6           0       -2.340048    0.752509    0.000000
      8          6           0       -2.523294   -0.634552    0.000000
      9          1           0       -0.859507    2.336398    0.000000
     10          1           0       -3.192638    1.421946    0.000000
     11          1           0       -3.512834   -1.072982    0.000000
     12          1           0       -1.478419   -2.521103    0.000000
 ---------------------------------------------------------------------

 SCF Done:  E(RHF) =  -780.843225794     A.U. after    2 cycles

 The electronic state is 1-A'.
 Alpha  occ. eigenvalues -- -105.62768 -20.64411 -15.51374 -11.36120 -11.29704
 Alpha  occ. eigenvalues --  -11.28089 -11.26010 -11.25261 -10.66903  -7.83903
 Alpha  occ. eigenvalues --   -7.83322  -7.83305  -1.52040  -1.27584  -1.10843
 Alpha  occ. eigenvalues --   -1.07216  -1.01285  -0.90102  -0.86689  -0.75327
 Alpha  occ. eigenvalues --   -0.72367  -0.68932  -0.65722  -0.64102  -0.61722
 Alpha  occ. eigenvalues --   -0.57546  -0.56345  -0.55939  -0.48645  -0.46433
 Alpha  occ. eigenvalues --   -0.46357  -0.42047  -0.35112
 Alpha virt. eigenvalues --    0.03082   0.03762   0.04221   0.05676   0.06468
 Alpha virt. eigenvalues --    0.07322   0.08899   0.10221   0.10792   0.11466
 Alpha virt. eigenvalues --    0.12608   0.12611   0.12881   0.13441   0.14102

 Mulliken charges:
               1
     1  Cl   0.375838
     2  O   -1.467859
     3  C   -0.134709
     4  C    0.690330
     5  N    1.093587
     6  C   -0.635671
     7  C    0.070907
     8  C    0.785000
     9  H   -0.248982
    10  H   -0.148294
    11  H   -0.198884
    12  H   -0.181262
 Sum of Mulliken charges =  -0.00000

 Dipole moment (field-independent basis, Debye):
    X=             -3.0608    Y=              0.7314    Z=              0.0000  Tot=              3.1470

 Test job not archived.
 1\1\GINC-SE454\SP\RHF\Aug-CC-pVDZ\C5H4Cl1N1O1\OHZDE\08-Apr-2025\0\\#t
 hf aug-cc-pvdz iop(5/13=1,5/36=2,99/5=2) pseudo=read geom=check guess=
 (read,tcheck) scf=(maxcycle=1)\\title\\0,1\Cl,0,2.588787,-0.162864,0.\
 O,0,1.243775,0.931059,0.\C,0,0.,0.350704,0.\C,0,-1.058551,1.273501,0.\
 N,0,-0.14448,-0.951965,0.\C,0,-1.395577,-1.438878,0.\C,0,-2.340048,0.7
 52509,0.\C,0,-2.523294,-0.634552,0.\H,0,-0.859507,2.336398,0.\H,0,-3.1
 92638,1.421946,0.\H,0,-3.512834,-1.072982,0.\H,0,-1.478419,-2.521103,0
 .\\Version=ES64L-G16RevC.01\State=1-A'\HF=-780.8432258\RMSD=3.111e-02\

 Normal termination of Gaussian 16 at Tue Apr  8 23:19:14 2025.
