 Gaussian 16, Revision C.01,

 ----------------------------------------------------------------------
 #t hf aug-cc-pvdz symm=none int=(grid=ultrafine) guess=(read,tcheck) s
 table=(opt,rrhf)
 ----------------------------------------------------------------------
 -----
 title
 -----
 Symbolic Z-matrix:
 Charge =  0 Multiplicity = 1

 SCF Done:  E(RHF) =  -881.041303998     A.U. after   12 cycles

 1\1\GINC-SE339\Stability\RHF\Aug-CC-pVDZ\H6O4Si2\OHZDE\09-Apr-2025\0\\
 #t hf aug-cc-pvdz symm=none int=(grid=ultrafine) guess=(read,tcheck) s
 table=(opt,rrhf)\\title\\0,1\Si,0,-1.170236,0.102926,0.42723\Si,0,1.17
 0237,-0.102927,0.427228\O,0,1.838689,1.282281,-0.173622\H,0,1.262708,1
 .796091,-0.749871\O,0,-1.838689,-1.28228,-0.173621\H,0,-1.262709,-1.79
 6091,-0.749871\O,0,1.325171,-1.411265,-0.58868\H,0,1.904068,-0.353991,
 1.686252\H,0,2.202757,-1.728746,-0.81919\O,0,-1.325172,1.411266,-0.588
 677\H,0,-1.904065,0.35399,1.686255\H,0,-2.202759,1.728747,-0.819185\\V

 Normal termination of Gaussian 16 at Wed Apr  9 00:09:38 2025.
 Gaussian 16:  ES64L-G16RevC.01  3-Jul-2019

 ----------------------------------------------------------------------
 #t hf aug-cc-pvdz iop(5/13=1,5/36=2,99/5=2) pseudo=read geom=check gue
 ss=(read,tcheck) scf=(maxcycle=1)
 ----------------------------------------------------------------------
 -----
 title
 -----
 Structure from the checkpoint file:  "BDE49_nonexpt_2331_mol1.chk"
 Charge =  0 Multiplicity = 1

                         Standard orientation:
 ---------------------------------------------------------------------
 Center     Atomic      Atomic             Coordinates (Angstroms)
 Number     Number       Type             X           Y           Z
 ---------------------------------------------------------------------
      1         14           0       -1.170236    0.102926    0.427230
      2         14           0        1.170237   -0.102927    0.427228
      3          8           0        1.838689    1.282281   -0.173622
      4          1           0        1.262708    1.796091   -0.749871
      5          8           0       -1.838689   -1.282280   -0.173621
      6          1           0       -1.262709   -1.796091   -0.749871
      7          8           0        1.325171   -1.411265   -0.588680
      8          1           0        1.904068   -0.353991    1.686252
      9          1           0        2.202757   -1.728746   -0.819190
     10          8           0       -1.325172    1.411266   -0.588677
     11          1           0       -1.904065    0.353990    1.686255
     12          1           0       -2.202759    1.728747   -0.819185
 ---------------------------------------------------------------------

 SCF Done:  E(RHF) =  -881.407347372     A.U. after    2 cycles

 The electronic state is 1-A.
 Alpha  occ. eigenvalues --  -69.57800 -69.57800 -20.55628 -20.55628 -20.54738
 Alpha  occ. eigenvalues --  -20.54738  -6.24142  -6.24131  -3.99636  -3.99627
 Alpha  occ. eigenvalues --   -3.99513  -3.99485  -3.99445  -3.99373  -1.45104
 Alpha  occ. eigenvalues --   -1.44541  -1.42833  -1.42360  -0.80070  -0.76091
 Alpha  occ. eigenvalues --   -0.71548  -0.70266  -0.60877  -0.60303  -0.58185
 Alpha  occ. eigenvalues --   -0.57399  -0.57232  -0.54840  -0.49679  -0.49558
 Alpha  occ. eigenvalues --   -0.48664  -0.48307  -0.40525
 Alpha virt. eigenvalues --    0.03434   0.03734   0.05177   0.05327   0.06638
 Alpha virt. eigenvalues --    0.06835   0.07682   0.07808   0.08673   0.09753
 Alpha virt. eigenvalues --    0.09930   0.11021   0.14112   0.14497   0.15361

 Mulliken charges:
               1
     1  Si   2.150628
     2  Si   2.150627
     3  O   -1.559424
     4  H    0.505517
     5  O   -1.559426
     6  H    0.505518
     7  O   -1.312055
     8  H   -0.194258
     9  H    0.409593
    10  O   -1.312055
    11  H   -0.194258
    12  H    0.409594
 Sum of Mulliken charges =  -0.00000

 Dipole moment (field-independent basis, Debye):
    X=              0.0000    Y=             -0.0000    Z=             -0.7793  Tot=              0.7793

 Test job not archived.
 1\1\GINC-SE339\SP\RHF\Aug-CC-pVDZ\H6O4Si2\OHZDE\09-Apr-2025\0\\#t hf a
 ug-cc-pvdz iop(5/13=1,5/36=2,99/5=2) pseudo=read geom=check guess=(rea
 d,tcheck) scf=(maxcycle=1)\\title\\0,1\Si,0,-1.170236,0.102926,0.42723
 \Si,0,1.170237,-0.102927,0.427228\O,0,1.838689,1.282281,-0.173622\H,0,
 1.262708,1.796091,-0.749871\O,0,-1.838689,-1.28228,-0.173621\H,0,-1.26
 2709,-1.796091,-0.749871\O,0,1.325171,-1.411265,-0.58868\H,0,1.904068,
 -0.353991,1.686252\H,0,2.202757,-1.728746,-0.81919\O,0,-1.325172,1.411
 266,-0.588677\H,0,-1.904065,0.35399,1.686255\H,0,-2.202759,1.728747,-0

 Normal termination of Gaussian 16 at Wed Apr  9 00:09:42 2025.
