 Gaussian 16, Revision C.01,

 ----------------------------------------------------------------------
 #t hf aug-cc-pvdz symm=none int=(grid=ultrafine) guess=(read,tcheck) s
 table=(opt,rrhf)
 ----------------------------------------------------------------------
 -----
 title
 -----
 Symbolic Z-matrix:
 Charge =  0 Multiplicity = 1

 SCF Done:  E(RHF) =  -626.436241943     A.U. after   12 cycles
 Normal termination of Gaussian 16 at Tue Apr  8 22:46:33 2025.
 Gaussian 16:  ES64L-G16RevC.01  3-Jul-2019

 ----------------------------------------------------------------------
 #t hf aug-cc-pvdz iop(5/13=1,5/36=2,99/5=2) pseudo=read geom=check gue
 ss=(read,tcheck) scf=(maxcycle=1)
 ----------------------------------------------------------------------
 -----
 title
 -----
 Structure from the checkpoint file:  "BDE49_expt_1597_mol1.chk"
 Charge =  0 Multiplicity = 1

                         Standard orientation:
 ---------------------------------------------------------------------
 Center     Atomic      Atomic             Coordinates (Angstroms)
 Number     Number       Type             X           Y           Z
 ---------------------------------------------------------------------
      1         16           0       -0.000000    0.194781    0.000000
      2          8           0       -0.000002    0.909628   -1.260117
      3          8           0       -0.000002    0.909627    1.260118
      4          6           0       -1.412545   -0.917362    0.000000
      5          1           0       -1.393845   -1.528266   -0.901920
      6          1           0       -2.293419   -0.274579    0.000001
      7          1           0       -1.393844   -1.528267    0.901919
      8          6           0        1.412549   -0.917358   -0.000001
      9          1           0        1.393849   -1.528262   -0.901921
     10          1           0        1.393850   -1.528263    0.901919
     11          1           0        2.293419   -0.274574   -0.000001
 ---------------------------------------------------------------------

 SCF Done:  E(RHF) =  -626.738372956     A.U. after    2 cycles

 The electronic state is 1-A.
 Alpha  occ. eigenvalues --  -94.18970 -20.53151 -20.53149 -11.29012 -11.28984
 Alpha  occ. eigenvalues --   -8.44336  -6.42457  -6.42222  -6.42166  -1.55218
 Alpha  occ. eigenvalues --   -1.43312  -1.09010  -1.01602  -0.83406  -0.69677
 Alpha  occ. eigenvalues --   -0.68283  -0.67330  -0.62284  -0.62089  -0.60234
 Alpha  occ. eigenvalues --   -0.58796  -0.48904  -0.48748  -0.45694  -0.43683
 Alpha virt. eigenvalues --    0.02690   0.03935   0.04362   0.05394   0.06814
 Alpha virt. eigenvalues --    0.06859   0.09521   0.12055   0.12943   0.13801
 Alpha virt. eigenvalues --    0.14260   0.15573   0.15714   0.15978   0.17265

 Mulliken charges:
               1
     1  S    2.953883
     2  O   -1.507767
     3  O   -1.507767
     4  C   -0.685414
     5  H    0.232319
     6  H    0.251602
     7  H    0.232318
     8  C   -0.685414
     9  H    0.232319
    10  H    0.232320
    11  H    0.251600
 Sum of Mulliken charges =  -0.00000

 Dipole moment (field-independent basis, Debye):
    X=              0.0000    Y=             -5.0399    Z=             -0.0000  Tot=              5.0399

 Test job not archived.
 1\1\GINC-SE403\SP\RHF\Aug-CC-pVDZ\C2H6O2S1\OHZDE\08-Apr-2025\0\\#t hf
 aug-cc-pvdz iop(5/13=1,5/36=2,99/5=2) pseudo=read geom=check guess=(re
 ad,tcheck) scf=(maxcycle=1)\\title\\0,1\S,0,0.,0.194781,0.\O,0,-0.0000
 01,0.909628,-1.260117\O,0,-0.000001,0.909627,1.260118\C,0,-1.412546,-0
 .917361,0.\H,0,-1.393846,-1.528265,-0.90192\H,0,-2.293419,-0.274578,0.
 000001\H,0,-1.393845,-1.528266,0.901919\C,0,1.412548,-0.917359,-0.0000
 01\H,0,1.393848,-1.528263,-0.901921\H,0,1.393849,-1.528264,0.901919\H,
 0,2.293419,-0.274575,-0.000001\\Version=ES64L-G16RevC.01\State=1-A\HF=

 Normal termination of Gaussian 16 at Tue Apr  8 22:46:36 2025.
