 Gaussian 16, Revision C.01,

 ----------------------------------------------------------------------
 #t hf aug-cc-pvdz symm=none int=(grid=ultrafine) guess=(read,tcheck) s
 table=(opt,rrhf)
 ----------------------------------------------------------------------
 -----
 title
 -----
 Symbolic Z-matrix:
 Charge =  0 Multiplicity = 1

 SCF Done:  E(RHF) =  -901.192677068     A.U. after   15 cycles
 Normal termination of Gaussian 16 at Tue Apr  8 23:43:47 2025.
 Gaussian 16:  ES64L-G16RevC.01  3-Jul-2019

 ----------------------------------------------------------------------
 #t hf aug-cc-pvdz iop(5/13=1,5/36=2,99/5=2) pseudo=read geom=check gue
 ss=(read,tcheck) scf=(maxcycle=1)
 ----------------------------------------------------------------------
 -----
 title
 -----
 Structure from the checkpoint file:  "BDE49_nonexpt_1687_mol1.chk"
 Charge =  0 Multiplicity = 1

                         Standard orientation:
 ---------------------------------------------------------------------
 Center     Atomic      Atomic             Coordinates (Angstroms)
 Number     Number       Type             X           Y           Z
 ---------------------------------------------------------------------
      1         14           0        2.449307    0.038707   -0.508264
      2         15           0        1.067107   -1.267265    0.759325
      3          6           0       -0.559883   -0.500450    0.333465
      4          6           0       -1.236875   -0.963522   -0.804470
      5          6           0       -1.174988    0.482744    1.121245
      6          6           0       -2.426291    0.989527    0.777577
      7          6           0       -3.081459    0.531754   -0.363620
      8          6           0       -2.480869   -0.445494   -1.154681
      9          1           0       -4.053848    0.929201   -0.631137
     10          1           0       -2.985483   -0.813985   -2.040976
     11          1           0       -0.790964   -1.740076   -1.417632
     12          1           0       -0.675703    0.853422    2.009455
     13          1           0       -2.887832    1.746344    1.402458
     14          6           0        2.181641    1.892427   -0.342132
     15          1           0        1.150099    2.160130   -0.582661
     16          1           0        2.843796    2.434844   -1.023662
     17          1           0        2.393652    2.229246    0.675998
     18          1           0        1.302806   -0.551100    1.961326
     19          1           0        2.242115   -0.384486   -1.915349
     20          1           0        3.836805   -0.318378   -0.116312
 ---------------------------------------------------------------------

 SCF Done:  E(RHF) =  -901.556425387     A.U. after    2 cycles

 The electronic state is 1-A.
 Alpha  occ. eigenvalues --  -84.26302 -69.53239 -11.25788 -11.24948 -11.24897
 Alpha  occ. eigenvalues --  -11.24872 -11.24810 -11.24704 -11.22246  -6.73534
 Alpha  occ. eigenvalues --   -6.20242  -4.26459  -4.25945  -4.25393  -3.95590
 Alpha  occ. eigenvalues --   -3.95558  -3.95537  -1.15940  -1.03050  -1.02154
 Alpha  occ. eigenvalues --   -0.95806  -0.87760  -0.83943  -0.80104  -0.71506
 Alpha  occ. eigenvalues --   -0.68506  -0.64826  -0.63835  -0.60414  -0.57544
 Alpha  occ. eigenvalues --   -0.56960  -0.56133  -0.52061  -0.51078  -0.49204
 Alpha  occ. eigenvalues --   -0.47342  -0.46534  -0.42215  -0.37561  -0.35167
 Alpha  occ. eigenvalues --   -0.30576
 Alpha virt. eigenvalues --    0.03295   0.03563   0.03698   0.04291   0.04995
 Alpha virt. eigenvalues --    0.05082   0.06520   0.06732   0.07246   0.07742
 Alpha virt. eigenvalues --    0.08198   0.09167   0.09628   0.09988   0.10659

 Mulliken charges:
               1
     1  Si   1.463339
     2  P   -0.857726
     3  C    0.487481
     4  C   -0.220824
     5  C    0.123843
     6  C    0.357946
     7  C    0.158994
     8  C    0.359407
     9  H   -0.210848
    10  H   -0.220896
    11  H   -0.269679
    12  H   -0.312618
    13  H   -0.228883
    14  C   -0.586458
    15  H    0.073735
    16  H   -0.042737
    17  H    0.073737
    18  H    0.248258
    19  H   -0.178453
    20  H   -0.217616
 Sum of Mulliken charges =  -0.00000

 Dipole moment (field-independent basis, Debye):
    X=             -0.6178    Y=              1.3056    Z=             -0.0183  Tot=              1.4445

 Test job not archived.
 1\1\GINC-SE461\SP\RHF\Aug-CC-pVDZ\C7H11P1Si1\OHZDE\08-Apr-2025\0\\#t h
 f aug-cc-pvdz iop(5/13=1,5/36=2,99/5=2) pseudo=read geom=check guess=(
 read,tcheck) scf=(maxcycle=1)\\title\\0,1\Si,0,2.449307,0.038707,-0.50
 8264\P,0,1.067107,-1.267265,0.759325\C,0,-0.559883,-0.50045,0.333465\C
 ,0,-1.236875,-0.963522,-0.80447\C,0,-1.174988,0.482744,1.121245\C,0,-2
 .426291,0.989527,0.777577\C,0,-3.081459,0.531754,-0.36362\C,0,-2.48086
 9,-0.445494,-1.154681\H,0,-4.053848,0.929201,-0.631137\H,0,-2.985483,-
 0.813985,-2.040976\H,0,-0.790964,-1.740076,-1.417632\H,0,-0.675703,0.8

 Normal termination of Gaussian 16 at Tue Apr  8 23:43:57 2025.
