 Gaussian 16, Revision C.01,

 ----------------------------------------------------------------------
 #t hf aug-cc-pvdz symm=none int=(grid=ultrafine) guess=(read,tcheck) s
 table=(opt,rrhf)
 ----------------------------------------------------------------------
 -----
 title
 -----
 Symbolic Z-matrix:
 Charge =  0 Multiplicity = 1

 SCF Done:  E(RHF) =  -1749.25574901     A.U. after   17 cycles
 Normal termination of Gaussian 16 at Wed Apr  9 00:29:37 2025.
 Gaussian 16:  ES64L-G16RevC.01  3-Jul-2019

 ----------------------------------------------------------------------
 #t hf aug-cc-pvdz iop(5/13=1,5/36=2,99/5=2) pseudo=read geom=check gue
 ss=(read,tcheck) scf=(maxcycle=1)
 ----------------------------------------------------------------------
 -----
 title
 -----
 Structure from the checkpoint file:  "BDE49_nonexpt_2721_mol1.chk"
 Charge =  0 Multiplicity = 1

                         Standard orientation:
 ---------------------------------------------------------------------
 Center     Atomic      Atomic             Coordinates (Angstroms)
 Number     Number       Type             X           Y           Z
 ---------------------------------------------------------------------
      1          6           0        3.690911   -0.711502    0.581384
      2          8           0        3.033803   -0.867294    1.564241
      3         16           0        3.285507    0.531303   -0.723104
      4         16           0        1.546651    1.365932    0.004588
      5          6           0        0.317838    0.069937   -0.459135
      6          8           0        0.653533   -0.981117   -0.928337
      7          6           0        4.916423   -1.512504    0.205911
      8          1           0        5.601624   -0.950589   -0.430925
      9          1           0        4.586609   -2.399926   -0.342083
     10          1           0        5.422677   -1.833167    1.116938
     11          6           0       -1.100206    0.430840   -0.154420
     12          6           0       -1.509459    1.726225    0.177476
     13          6           0       -2.851430    1.982151    0.440519
     14          6           0       -3.792421    0.958345    0.375910
     15          6           0       -3.373347   -0.327211    0.039254
     16          6           0       -2.041733   -0.603183   -0.229510
     17          1           0       -3.171085    2.985569    0.694737
     18          1           0       -0.793737    2.537599    0.218407
     19          1           0       -4.837819    1.149736    0.580590
     20          1           0       -1.717478   -1.600195   -0.494599
     21         17           0       -4.555497   -1.619770   -0.046964
 ---------------------------------------------------------------------

 SCF Done:  E(RHF) =  -1749.94018364     A.U. after    2 cycles

 The electronic state is 1-A.
 Alpha  occ. eigenvalues -- -105.58270 -93.99827 -93.99619 -20.56493 -20.56320
 Alpha  occ. eigenvalues --  -11.39327 -11.38843 -11.32701 -11.28516 -11.28244
 Alpha  occ. eigenvalues --  -11.28133 -11.27951 -11.27489 -11.26843 -10.63060
 Alpha  occ. eigenvalues --   -8.27848  -8.27637  -7.80028  -7.79626  -7.79608
 Alpha  occ. eigenvalues --   -6.25637  -6.25435  -6.25414  -6.25208  -6.25201
 Alpha  occ. eigenvalues --   -6.24995  -1.50852  -1.50626  -1.20681  -1.13045
 Alpha  occ. eigenvalues --   -1.11483  -1.06984  -1.04685  -1.01114  -0.96102
 Alpha  occ. eigenvalues --   -0.89557  -0.85974  -0.78904  -0.75319  -0.73564
 Alpha  occ. eigenvalues --   -0.70097  -0.68006  -0.66791  -0.65698  -0.64878
 Alpha  occ. eigenvalues --   -0.63449  -0.62289  -0.61693  -0.59749  -0.57578
 Alpha  occ. eigenvalues --   -0.56532  -0.55564  -0.54201  -0.53276  -0.49914
 Alpha  occ. eigenvalues --   -0.48992  -0.47663  -0.43771  -0.43203  -0.39813
 Alpha  occ. eigenvalues --   -0.38720  -0.37809  -0.36378
 Alpha virt. eigenvalues --    0.02881   0.03444   0.04002   0.04169   0.04897
 Alpha virt. eigenvalues --    0.05473   0.05608   0.06691   0.07735   0.08245
 Alpha virt. eigenvalues --    0.08438   0.08889   0.09861   0.10301   0.10581

 Mulliken charges:
               1
     1  C    0.993949
     2  O   -1.196939
     3  S    0.130104
     4  S   -0.035385
     5  C   -0.242049
     6  O   -1.368141
     7  C   -0.524247
     8  H    0.223892
     9  H    0.303876
    10  H    0.193096
    11  C    2.463158
    12  C   -0.082012
    13  C    0.079223
    14  C    0.274857
    15  C   -0.062288
    16  C    0.020479
    17  H   -0.247745
    18  H   -0.181655
    19  H   -0.174203
    20  H   -0.235154
    21  Cl  -0.332816
 Sum of Mulliken charges =  -0.00000

 Dipole moment (field-independent basis, Debye):
    X=              0.6453    Y=              1.7844    Z=             -0.2586  Tot=              1.9150

 Test job not archived.
 1\1\GINC-SE120\SP\RHF\Aug-CC-pVDZ\C9H7Cl1O2S2\OHZDE\09-Apr-2025\0\\#t
 hf aug-cc-pvdz iop(5/13=1,5/36=2,99/5=2) pseudo=read geom=check guess=
 (read,tcheck) scf=(maxcycle=1)\\title\\0,1\C,0,3.690911,-0.711502,0.58
 1384\O,0,3.033803,-0.867294,1.564241\S,0,3.285507,0.531303,-0.723104\S
 ,0,1.546651,1.365932,0.004588\C,0,0.317838,0.069937,-0.459135\O,0,0.65
 3533,-0.981117,-0.928337\C,0,4.916423,-1.512504,0.205911\H,0,5.601624,
 -0.950589,-0.430925\H,0,4.586609,-2.399926,-0.342083\H,0,5.422677,-1.8
 33167,1.116938\C,0,-1.100206,0.43084,-0.15442\C,0,-1.509459,1.726225,0

 Normal termination of Gaussian 16 at Wed Apr  9 00:29:56 2025.
