 Gaussian 16, Revision C.01,

 ----------------------------------------------------------------------
 #t hf aug-cc-pvdz symm=none int=(grid=ultrafine) guess=(read,tcheck) s
 table=(opt,rrhf)
 ----------------------------------------------------------------------
 -----
 title
 -----
 Symbolic Z-matrix:
 Charge =  0 Multiplicity = 1

 SCF Done:  E(RHF) =  -193.130793001     A.U. after   11 cycles
 Normal termination of Gaussian 16 at Tue Apr  8 22:33:22 2025.
 Gaussian 16:  ES64L-G16RevC.01  3-Jul-2019

 ----------------------------------------------------------------------
 #t hf aug-cc-pvdz iop(5/13=1,5/36=2,99/5=2) pseudo=read geom=check gue
 ss=(read,tcheck) scf=(maxcycle=1)
 ----------------------------------------------------------------------
 -----
 title
 -----
 Structure from the checkpoint file:  "BDE49_expt_1073_mol1.chk"
 Charge =  0 Multiplicity = 1

                         Standard orientation:
 ---------------------------------------------------------------------
 Center     Atomic      Atomic             Coordinates (Angstroms)
 Number     Number       Type             X           Y           Z
 ---------------------------------------------------------------------
      1          6           0        0.000000    0.708464    0.000000
      2          8           0       -0.015244   -0.708332    0.000000
      3          6           0        1.444678    1.173758    0.000000
      4          6           0       -1.319401   -1.245121    0.000000
      5          1           0       -0.530140    1.092421    0.886846
      6          1           0       -0.530140    1.092421   -0.886846
      7          1           0        1.965659    0.801238    0.885050
      8          1           0        1.496277    2.265885    0.000000
      9          1           0        1.965659    0.801238   -0.885050
     10          1           0       -1.886757   -0.938758    0.892016
     11          1           0       -1.223510   -2.331634    0.000000
     12          1           0       -1.886757   -0.938758   -0.892016
 ---------------------------------------------------------------------

 SCF Done:  E(RHF) =  -193.340239007     A.U. after    2 cycles

 The electronic state is 1-A'.
 Alpha  occ. eigenvalues --  -20.54021 -11.28181 -11.27891 -11.22340  -1.45694
 Alpha  occ. eigenvalues --   -1.02667  -0.91665  -0.83434  -0.67066  -0.65736
 Alpha  occ. eigenvalues --   -0.62866  -0.58665  -0.54070  -0.51446  -0.50794
 Alpha  occ. eigenvalues --   -0.47448  -0.41373
 Alpha virt. eigenvalues --    0.03900   0.04232   0.04651   0.04746   0.06632
 Alpha virt. eigenvalues --    0.07176   0.07322   0.08589   0.12315   0.13408
 Alpha virt. eigenvalues --    0.14540   0.15644   0.16017   0.16829   0.16993

 Mulliken charges:
               1
     1  C    0.440485
     2  O   -1.217223
     3  C   -0.494297
     4  C    0.192472
     5  H    0.129132
     6  H    0.129132
     7  H    0.166569
     8  H    0.160100
     9  H    0.166569
    10  H    0.174974
    11  H   -0.022885
    12  H    0.174974
 Sum of Mulliken charges =   0.00000

 Dipole moment (field-independent basis, Debye):
    X=             -1.0234    Y=              0.7690    Z=              0.0000  Tot=              1.2802

 Test job not archived.
 1\1\GINC-SE435\SP\RHF\Aug-CC-pVDZ\C3H8O1\OHZDE\08-Apr-2025\0\\#t hf au
 g-cc-pvdz iop(5/13=1,5/36=2,99/5=2) pseudo=read geom=check guess=(read
 ,tcheck) scf=(maxcycle=1)\\title\\0,1\C,0,0.,0.708464,0.\O,0,-0.015244
 ,-0.708332,0.\C,0,1.444678,1.173758,0.\C,0,-1.319401,-1.245121,0.\H,0,
 -0.53014,1.092421,0.886846\H,0,-0.53014,1.092421,-0.886846\H,0,1.96565
 9,0.801238,0.88505\H,0,1.496277,2.265885,0.\H,0,1.965659,0.801238,-0.8
 8505\H,0,-1.886757,-0.938758,0.892016\H,0,-1.22351,-2.331634,0.\H,0,-1
 .886757,-0.938758,-0.892016\\Version=ES64L-G16RevC.01\State=1-A'\HF=-1

 Normal termination of Gaussian 16 at Tue Apr  8 22:33:25 2025.
