 Gaussian 16, Revision C.01,

 ----------------------------------------------------------------------
 #t hf aug-cc-pvdz symm=none int=(grid=ultrafine) guess=(read,tcheck) s
 table=opt
 ----------------------------------------------------------------------
 -----
 title
 -----
 Symbolic Z-matrix:
 Charge =  0 Multiplicity = 2

 SCF Done:  E(UHF) =  -932.989688791     A.U. after   16 cycles

 1\1\GINC-SE044\Stability\UHF\Aug-CC-pVDZ\C2Cl1F4\OHZDE\08-Apr-2025\0\\
 #t hf aug-cc-pvdz symm=none int=(grid=ultrafine) guess=(read,tcheck) s
 table=opt\\title\\0,2\C,0,-1.145776,0.209256,0.000005\C,0,0.341928,0.4
 5492,0.000008\F,0,-1.623516,-0.350113,1.096715\F,0,-1.623518,-0.350073
 ,-1.096724\Cl,0,1.286493,-1.088889,-0.000022\F,0,0.676446,1.157076,1.0
 92186\F,0,0.676443,1.157116,-1.092145\\Version=ES64L-G16RevC.01\HF=-93
 2.9896888\S2=0.758202\S2-1=0.\S2A=0.750049\RMSD=7.279e-09\Dipole=-0.09
 68562,0.0556726,0.0000004\Quadrupole=0.322487,0.8227642,-1.1452512,-1.

 Normal termination of Gaussian 16 at Tue Apr  8 22:47:38 2025.
 Gaussian 16:  ES64L-G16RevC.01  3-Jul-2019

 ----------------------------------------------------------------------
 #t hf aug-cc-pvdz iop(5/13=1,5/36=2,99/5=2) pseudo=read geom=check gue
 ss=(read,tcheck) scf=(maxcycle=1)
 ----------------------------------------------------------------------
 -----
 title
 -----
 Structure from the checkpoint file:  "BDE49_expt_1631_mol2.chk"
 Charge =  0 Multiplicity = 2

                         Standard orientation:
 ---------------------------------------------------------------------
 Center     Atomic      Atomic             Coordinates (Angstroms)
 Number     Number       Type             X           Y           Z
 ---------------------------------------------------------------------
      1          6           0       -1.145776    0.209256    0.000005
      2          6           0        0.341928    0.454920    0.000008
      3          9           0       -1.623516   -0.350113    1.096715
      4          9           0       -1.623518   -0.350073   -1.096724
      5         17           0        1.286493   -1.088889   -0.000022
      6          9           0        0.676446    1.157076    1.092186
      7          9           0        0.676443    1.157116   -1.092145
 ---------------------------------------------------------------------

 SCF Done:  E(UHF) =  -933.492084249     A.U. after    2 cycles

 The electronic state is 2-A.
 Alpha  occ. eigenvalues -- -105.61086 -26.54280 -26.54279 -26.53806 -26.53803
 Alpha  occ. eigenvalues --  -11.53673 -11.48118 -10.65936  -7.82998  -7.82436
 Alpha  occ. eigenvalues --   -7.82417  -1.72777  -1.70863  -1.65527  -1.64097
 Alpha  occ. eigenvalues --   -1.15327  -1.05573  -0.92189  -0.85841  -0.83646
 Alpha  occ. eigenvalues --   -0.81973  -0.79241  -0.77287  -0.72346  -0.70925
 Alpha  occ. eigenvalues --   -0.69795  -0.67078  -0.65448  -0.64593  -0.58711
 Alpha  occ. eigenvalues --   -0.51795  -0.50935  -0.45085
 Alpha virt. eigenvalues --    0.06888   0.07356   0.08563   0.09490   0.10579
 Alpha virt. eigenvalues --    0.12449   0.12577   0.13688   0.14920   0.17065
 Alpha virt. eigenvalues --    0.18590   0.20407   0.23727   0.26084   0.27199

  Beta  occ. eigenvalues -- -105.60997 -26.53854 -26.53853 -26.53830 -26.53828
  Beta  occ. eigenvalues --  -11.53747 -11.45289 -10.65843  -7.82669  -7.82365
  Beta  occ. eigenvalues --   -7.82348  -1.72049  -1.70043  -1.64881  -1.63705
  Beta  occ. eigenvalues --   -1.14265  -1.02245  -0.90842  -0.84934  -0.83195
  Beta  occ. eigenvalues --   -0.78722  -0.78351  -0.73407  -0.72126  -0.69931
  Beta  occ. eigenvalues --   -0.67641  -0.66478  -0.65309  -0.63857  -0.56932
  Beta  occ. eigenvalues --   -0.50955  -0.50781
  Beta virt. eigenvalues --    0.04206   0.07087   0.07940   0.09237   0.09589
  Beta virt. eigenvalues --    0.10867   0.12463   0.12854   0.14951   0.15173
  Beta virt. eigenvalues --    0.17416   0.19488   0.21572   0.24078   0.26370

 Mulliken charges and spin densities:
               1          2
     1  C    1.308012   0.999582
     2  C    1.405627  -0.101061
     3  F   -0.631573   0.030763
     4  F   -0.631572   0.030763
     5  Cl  -0.114607   0.059064
     6  F   -0.667943  -0.009555
     7  F   -0.667943  -0.009555
 Sum of Mulliken charges =  -0.00000   1.00000

 Dipole moment (field-independent basis, Debye):
    X=             -0.3084    Y=              0.1992    Z=              0.0000  Tot=              0.3672
                          Isotropic Fermi Contact Couplings
        Atom                 a.u.       MegaHertz       Gauss      10(-4) cm-1
     1  C(13)              0.43356     487.40392     173.91784     162.58045
     2  C(13)             -0.00108      -1.20939      -0.43154      -0.40341
     3  F(19)              0.06881     289.50827     103.30375      96.56956
     4  F(19)              0.06881     289.50841     103.30380      96.56961
     5  Cl(35)             0.02027       8.88973       3.17208       2.96529
     6  F(19)             -0.00321     -13.50031      -4.81725      -4.50322
     7  F(19)             -0.00321     -13.50025      -4.81722      -4.50320
 --------------------------------------------------------

 Normal termination of Gaussian 16 at Tue Apr  8 22:47:42 2025.
