 Gaussian 16, Revision C.01,

 ----------------------------------------------------------------------
 #t hf aug-cc-pvdz symm=none int=(grid=ultrafine) guess=(read,tcheck) s
 table=(opt,rrhf)
 ----------------------------------------------------------------------
 -----
 title
 -----
 Symbolic Z-matrix:
 Charge =  0 Multiplicity = 1

 SCF Done:  E(RHF) =  -404.459937219     A.U. after   15 cycles
 Normal termination of Gaussian 16 at Tue Apr  8 23:11:09 2025.
 Gaussian 16:  ES64L-G16RevC.01  3-Jul-2019

 ----------------------------------------------------------------------
 #t hf aug-cc-pvdz iop(5/13=1,5/36=2,99/5=2) pseudo=read geom=check gue
 ss=(read,tcheck) scf=(maxcycle=1)
 ----------------------------------------------------------------------
 -----
 title
 -----
 Structure from the checkpoint file:  "BDE49_expt_723_mol1.chk"
 Charge =  0 Multiplicity = 1

                         Standard orientation:
 ---------------------------------------------------------------------
 Center     Atomic      Atomic             Coordinates (Angstroms)
 Number     Number       Type             X           Y           Z
 ---------------------------------------------------------------------
      1          6           0       -1.914514   -0.610023    0.000001
      2          6           0       -0.741552   -1.366253    0.000000
      3          6           0        0.484881   -0.728596    0.000000
      4          6           0       -1.835937    0.778577    0.000000
      5          6           0       -0.593617    1.412347    0.000000
      6          6           0        0.585187    0.667161    0.000000
      7          1           0       -2.738870    1.377398    0.000000
      8          1           0       -0.532757    2.496837    0.000000
      9          8           0        1.832962    1.211323   -0.000001
     10          1           0        1.755980    2.170799   -0.000001
     11          1           0       -2.876417   -1.107456    0.000001
     12          9           0        1.620257   -1.455348    0.000000
     13          1           0       -0.760631   -2.449308    0.000001
 ---------------------------------------------------------------------

 SCF Done:  E(RHF) =  -404.860104896     A.U. after    2 cycles

 The electronic state is 1-A.
 Alpha  occ. eigenvalues --  -26.47293 -20.59207 -11.33276 -11.32328 -11.25833
 Alpha  occ. eigenvalues --  -11.25776 -11.25694 -11.25145  -1.60288  -1.50553
 Alpha  occ. eigenvalues --   -1.16523  -1.03337  -1.02290  -0.88142  -0.84701
 Alpha  occ. eigenvalues --   -0.75602  -0.73695  -0.70936  -0.67397  -0.66084
 Alpha  occ. eigenvalues --   -0.63147  -0.61718  -0.59183  -0.58431  -0.53820
 Alpha  occ. eigenvalues --   -0.52820  -0.49827  -0.35937  -0.33207
 Alpha virt. eigenvalues --    0.02871   0.03498   0.04163   0.05382   0.06572
 Alpha virt. eigenvalues --    0.09349   0.10245   0.11239   0.11847   0.12240
 Alpha virt. eigenvalues --    0.13015   0.13736   0.14169   0.14173   0.14494

 Mulliken charges:
               1
     1  C    0.347786
     2  C    0.027187
     3  C    1.266881
     4  C    0.212040
     5  C    0.090876
     6  C    1.340377
     7  H   -0.201787
     8  H   -0.316644
     9  O   -1.736572
    10  H    0.393825
    11  H   -0.199713
    12  F   -1.023863
    13  H   -0.200393
 Sum of Mulliken charges =  -0.00000

 Dipole moment (field-independent basis, Debye):
    X=             -2.0103    Y=              2.0301    Z=              0.0000  Tot=              2.8570

 Test job not archived.
 1\1\GINC-SE338\SP\RHF\Aug-CC-pVDZ\C6H5F1O1\OHZDE\08-Apr-2025\0\\#t hf
 aug-cc-pvdz iop(5/13=1,5/36=2,99/5=2) pseudo=read geom=check guess=(re
 ad,tcheck) scf=(maxcycle=1)\\title\\0,1\C,0,-1.914514,-0.610024,0.0000
 01\C,0,-0.741551,-1.366253,0.\C,0,0.484881,-0.728596,0.\C,0,-1.835937,
 0.778576,0.\C,0,-0.593618,1.412347,0.\C,0,0.585187,0.667161,0.\H,0,-2.
 738871,1.377397,0.\H,0,-0.532758,2.496837,0.\O,0,1.832961,1.211324,-0.
 000001\H,0,1.755979,2.1708,-0.000001\H,0,-2.876416,-1.107457,0.000001\
 F,0,1.620258,-1.455347,0.\H,0,-0.76063,-2.449308,0.000001\\Version=ES6

 Normal termination of Gaussian 16 at Tue Apr  8 23:11:13 2025.
