 Gaussian 16, Revision C.01,

 ----------------------------------------------------------------------
 #t hf aug-cc-pvdz symm=none int=(grid=ultrafine) guess=(read,tcheck) s
 table=(opt,rrhf)
 ----------------------------------------------------------------------
 -----
 title
 -----
 Symbolic Z-matrix:
 Charge =  0 Multiplicity = 1

 SCF Done:  E(RHF) =  -932.909175902     A.U. after   14 cycles
 Normal termination of Gaussian 16 at Wed Apr  9 00:22:36 2025.
 Gaussian 16:  ES64L-G16RevC.01  3-Jul-2019

 ----------------------------------------------------------------------
 #t hf aug-cc-pvdz iop(5/13=1,5/36=2,99/5=2) pseudo=read geom=check gue
 ss=(read,tcheck) scf=(maxcycle=1)
 ----------------------------------------------------------------------
 -----
 title
 -----
 Structure from the checkpoint file:  "BDE49_nonexpt_2665_mol1.chk"
 Charge =  0 Multiplicity = 1

                         Standard orientation:
 ---------------------------------------------------------------------
 Center     Atomic      Atomic             Coordinates (Angstroms)
 Number     Number       Type             X           Y           Z
 ---------------------------------------------------------------------
      1          9           0        2.214297    0.432801    0.000003
      2         16           0        0.861196   -0.543503   -0.000003
      3          6           0       -0.420182    0.574790    0.000004
      4         16           0       -1.940589   -0.017281   -0.000001
      5          1           0       -0.137302    1.628598    0.000010
 ---------------------------------------------------------------------

 SCF Done:  E(RHF) =  -933.151350496     A.U. after    2 cycles

 The electronic state is 1-A.
 Alpha  occ. eigenvalues --  -94.08415 -93.96145 -26.50218 -11.38388  -8.35781
 Alpha  occ. eigenvalues --   -8.24346  -6.33534  -6.33241  -6.32969  -6.22173
 Alpha  occ. eigenvalues --   -6.21929  -6.21739  -1.60305  -1.17052  -1.01497
 Alpha  occ. eigenvalues --   -0.83145  -0.71853  -0.68453  -0.67592  -0.58094
 Alpha  occ. eigenvalues --   -0.54983  -0.51351  -0.37962  -0.37747
 Alpha virt. eigenvalues --    0.01601   0.03864   0.05311   0.06661   0.08473
 Alpha virt. eigenvalues --    0.10577   0.12759   0.13367   0.13511   0.14442
 Alpha virt. eigenvalues --    0.15380   0.16314   0.16528   0.22516   0.23572

 Mulliken charges:
               1
     1  F   -0.676018
     2  S    1.214298
     3  C   -0.913736
     4  S    0.294190
     5  H    0.081266
 Sum of Mulliken charges =  -0.00000

 Dipole moment (field-independent basis, Debye):
    X=              0.8194    Y=              0.6556    Z=              0.0000  Tot=              1.0494

 Test job not archived.
 1\1\GINC-SE332\SP\RHF\Aug-CC-pVDZ\C1H1F1S2\OHZDE\09-Apr-2025\0\\#t hf
 aug-cc-pvdz iop(5/13=1,5/36=2,99/5=2) pseudo=read geom=check guess=(re
 ad,tcheck) scf=(maxcycle=1)\\title\\0,1\F,0,2.214297,0.432801,0.000003
 \S,0,0.861196,-0.543503,-0.000003\C,0,-0.420182,0.57479,0.000004\S,0,-
 1.940589,-0.017281,-0.000001\H,0,-0.137302,1.628598,0.00001\\Version=E
 S64L-G16RevC.01\State=1-A\HF=-933.1513505\RMSD=5.456e-03\Dipole=0.3223
 612,0.2579441,0.0000018\Quadrupole=-2.7993979,2.4193295,0.3800684,-0.4
 882819,-0.000003,0.0000132\PG=C01 [X(C1H1F1S2)]\\@

 Normal termination of Gaussian 16 at Wed Apr  9 00:22:38 2025.
