 Gaussian 16, Revision C.01,

 ----------------------------------------------------------------------
 #t hf aug-cc-pvdz symm=none int=(grid=ultrafine) guess=(read,tcheck) s
 table=(opt,rrhf)
 ----------------------------------------------------------------------
 -----
 title
 -----
 Symbolic Z-matrix:
 Charge =  0 Multiplicity = 1

 SCF Done:  E(RHF) =  -1164.43584089     A.U. after   13 cycles
 Normal termination of Gaussian 16 at Wed Apr  9 00:14:50 2025.
 Gaussian 16:  ES64L-G16RevC.01  3-Jul-2019

 ----------------------------------------------------------------------
 #t hf aug-cc-pvdz iop(5/13=1,5/36=2,99/5=2) pseudo=read geom=check gue
 ss=(read,tcheck) scf=(maxcycle=1)
 ----------------------------------------------------------------------
 -----
 title
 -----
 Structure from the checkpoint file:  "BDE49_nonexpt_2493_mol1.chk"
 Charge =  0 Multiplicity = 1

                         Standard orientation:
 ---------------------------------------------------------------------
 Center     Atomic      Atomic             Coordinates (Angstroms)
 Number     Number       Type             X           Y           Z
 ---------------------------------------------------------------------
      1         14           0       -1.536435    0.257737    0.609845
      2         16           0        0.131106    1.113055   -0.495907
      3         16           0        1.404844   -0.566417   -0.559453
      4          6           0        2.446689   -0.316600    0.919789
      5          1           0        3.164509   -1.140833    0.915678
      6          1           0        1.851977   -0.358631    1.831458
      7          1           0        2.981481    0.629982    0.855224
      8          6           0       -2.413416   -1.101827   -0.328903
      9          1           0       -2.824320   -0.724785   -1.268389
     10          1           0       -3.236373   -1.500286    0.273006
     11          1           0       -1.727965   -1.921862   -0.554633
     12          1           0       -2.434121    1.416313    0.838148
     13          1           0       -1.039932   -0.243850    1.912124
 ---------------------------------------------------------------------

 SCF Done:  E(RHF) =  -1164.68448452     A.U. after    2 cycles

 The electronic state is 1-A.
 Alpha  occ. eigenvalues --  -93.97498 -93.95796 -69.55470 -11.27347 -11.22584
 Alpha  occ. eigenvalues --   -8.25351  -8.23922  -6.23161  -6.22962  -6.22724
 Alpha  occ. eigenvalues --   -6.22282  -6.21701  -6.21510  -6.21317  -3.97682
 Alpha  occ. eigenvalues --   -3.97593  -3.97559  -1.09595  -0.98594  -0.95480
 Alpha  occ. eigenvalues --   -0.84314  -0.70375  -0.60759  -0.60517  -0.57824
 Alpha  occ. eigenvalues --   -0.57411  -0.53290  -0.49815  -0.48444  -0.47514
 Alpha  occ. eigenvalues --   -0.44671  -0.37281  -0.35510
 Alpha virt. eigenvalues --    0.03460   0.03888   0.04192   0.04794   0.06114
 Alpha virt. eigenvalues --    0.06504   0.06807   0.07599   0.08516   0.09362
 Alpha virt. eigenvalues --    0.09532   0.11198   0.11974   0.12974   0.14241

 Mulliken charges:
               1
     1  Si   1.677217
     2  S   -0.663106
     3  S    0.013517
     4  C   -0.705761
     5  H    0.193605
     6  H    0.157958
     7  H    0.214455
     8  C   -0.611384
     9  H    0.070545
    10  H    0.010748
    11  H    0.079781
    12  H   -0.248194
    13  H   -0.189380
 Sum of Mulliken charges =   0.00000

 Dipole moment (field-independent basis, Debye):
    X=             -0.2460    Y=             -0.9781    Z=              1.6090  Tot=              1.8990

 Test job not archived.
 1\1\GINC-SE459\SP\RHF\Aug-CC-pVDZ\C2H8S2Si1\OHZDE\09-Apr-2025\0\\#t hf
  aug-cc-pvdz iop(5/13=1,5/36=2,99/5=2) pseudo=read geom=check guess=(r
 ead,tcheck) scf=(maxcycle=1)\\title\\0,1\Si,0,-1.536435,0.257737,0.609
 845\S,0,0.131106,1.113055,-0.495907\S,0,1.404844,-0.566417,-0.559453\C
 ,0,2.446689,-0.3166,0.919789\H,0,3.164509,-1.140833,0.915678\H,0,1.851
 977,-0.358631,1.831458\H,0,2.981481,0.629982,0.855224\C,0,-2.413416,-1
 .101827,-0.328903\H,0,-2.82432,-0.724785,-1.268389\H,0,-3.236373,-1.50
 0286,0.273006\H,0,-1.727965,-1.921862,-0.554633\H,0,-2.434121,1.416313

 Normal termination of Gaussian 16 at Wed Apr  9 00:14:54 2025.
