 Gaussian 16, Revision C.01,

 ----------------------------------------------------------------------
 #t hf aug-cc-pvdz symm=none int=(grid=ultrafine) guess=(read,tcheck) s
 table=(opt,rrhf)
 ----------------------------------------------------------------------
 -----
 title
 -----
 Symbolic Z-matrix:
 Charge =  0 Multiplicity = 1

 SCF Done:  E(RHF) =  -519.050023525     A.U. after   12 cycles
 Normal termination of Gaussian 16 at Tue Apr  8 23:59:06 2025.
 Gaussian 16:  ES64L-G16RevC.01  3-Jul-2019

 ----------------------------------------------------------------------
 #t hf aug-cc-pvdz iop(5/13=1,5/36=2,99/5=2) pseudo=read geom=check gue
 ss=(read,tcheck) scf=(maxcycle=1)
 ----------------------------------------------------------------------
 -----
 title
 -----
 Structure from the checkpoint file:  "BDE49_nonexpt_2072_mol1.chk"
 Charge =  0 Multiplicity = 1

                         Standard orientation:
 ---------------------------------------------------------------------
 Center     Atomic      Atomic             Coordinates (Angstroms)
 Number     Number       Type             X           Y           Z
 ---------------------------------------------------------------------
      1         14           0        1.742132   -0.378316   -0.011974
      2          6           0       -0.029870    0.235483    0.358019
      3          8           0       -0.912033   -0.640837   -0.303621
      4          8           0       -0.206454    1.592350   -0.040408
      5          6           0       -2.284320   -0.464239    0.048496
      6          1           0       -2.443758   -0.685448    1.111970
      7          1           0       -2.857275   -1.167636   -0.554823
      8          1           0       -2.616752    0.556439   -0.159563
      9          1           0       -0.008982    1.645735   -0.983414
     10          1           0       -0.239885    0.249903    1.436391
     11          1           0        2.007863   -0.113601   -1.447286
     12          1           0        1.897006   -1.822333    0.271697
     13          1           0        2.704979    0.393808    0.805809
 ---------------------------------------------------------------------

 SCF Done:  E(RHF) =  -519.320021682     A.U. after    2 cycles

 The electronic state is 1-A.
 Alpha  occ. eigenvalues --  -69.53024 -20.56116 -20.55703 -11.33080 -11.28468
 Alpha  occ. eigenvalues --   -6.20201  -3.95559  -3.95555  -3.95548  -1.49758
 Alpha  occ. eigenvalues --   -1.43112  -0.96960  -0.87794  -0.76056  -0.69867
 Alpha  occ. eigenvalues --   -0.67332  -0.63704  -0.59563  -0.58804  -0.54399
 Alpha  occ. eigenvalues --   -0.49335  -0.49059  -0.47657  -0.44027  -0.42275
 Alpha virt. eigenvalues --    0.03721   0.04079   0.04241   0.04952   0.06256
 Alpha virt. eigenvalues --    0.06944   0.07071   0.08053   0.09243   0.09639
 Alpha virt. eigenvalues --    0.10402   0.12670   0.14523   0.14700   0.15304

 Mulliken charges:
               1
     1  Si   0.889590
     2  C    1.276525
     3  O   -1.269845
     4  O   -1.162875
     5  C    0.171122
     6  H    0.139515
     7  H   -0.018278
     8  H    0.186950
     9  H    0.262765
    10  H    0.058583
    11  H   -0.217428
    12  H   -0.164360
    13  H   -0.152265
 Sum of Mulliken charges =  -0.00000

 Dipole moment (field-independent basis, Debye):
    X=             -0.5404    Y=             -0.3302    Z=             -0.0169  Tot=              0.6335

 Test job not archived.
 1\1\GINC-SE109\SP\RHF\Aug-CC-pVDZ\C2H8O2Si1\OHZDE\08-Apr-2025\0\\#t hf
  aug-cc-pvdz iop(5/13=1,5/36=2,99/5=2) pseudo=read geom=check guess=(r
 ead,tcheck) scf=(maxcycle=1)\\title\\0,1\Si,0,1.742132,-0.378316,-0.01
 1974\C,0,-0.02987,0.235483,0.358019\O,0,-0.912033,-0.640837,-0.303621\
 O,0,-0.206454,1.59235,-0.040408\C,0,-2.28432,-0.464239,0.048496\H,0,-2
 .443758,-0.685448,1.11197\H,0,-2.857275,-1.167636,-0.554823\H,0,-2.616
 752,0.556439,-0.159563\H,0,-0.008982,1.645735,-0.983414\H,0,-0.239885,
 0.249903,1.436391\H,0,2.007863,-0.113601,-1.447286\H,0,1.897006,-1.822

 Normal termination of Gaussian 16 at Tue Apr  8 23:59:10 2025.
