 Gaussian 16, Revision C.01,

 ----------------------------------------------------------------------
 #t hf aug-cc-pvdz symm=none int=(grid=ultrafine) guess=(read,tcheck) s
 table=(opt,rrhf)
 ----------------------------------------------------------------------
 -----
 title
 -----
 Symbolic Z-matrix:
 Charge =  0 Multiplicity = 1

 SCF Done:  E(RHF) =  -628.540944350     A.U. after   14 cycles
 Normal termination of Gaussian 16 at Tue Apr  8 23:05:02 2025.
 Gaussian 16:  ES64L-G16RevC.01  3-Jul-2019

 ----------------------------------------------------------------------
 #t hf aug-cc-pvdz iop(5/13=1,5/36=2,99/5=2) pseudo=read geom=check gue
 ss=(read,tcheck) scf=(maxcycle=1)
 ----------------------------------------------------------------------
 -----
 title
 -----
 Structure from the checkpoint file:  "BDE49_expt_385_mol1.chk"
 Charge =  0 Multiplicity = 1

                         Standard orientation:
 ---------------------------------------------------------------------
 Center     Atomic      Atomic             Coordinates (Angstroms)
 Number     Number       Type             X           Y           Z
 ---------------------------------------------------------------------
      1          8           0        0.220555    1.237990   -0.565418
      2          6           0       -0.870246    1.278813    0.347135
      3          6           0       -1.671023   -0.005447    0.145365
      4          1           0       -1.446031    2.173366    0.103705
      5          1           0       -0.519689    1.352086    1.384493
      6         16           0       -0.382198   -1.295786   -0.036443
      7          1           0       -2.284382    0.043615   -0.755145
      8          1           0       -2.297418   -0.240437    1.006496
      9          6           0        0.899043   -0.002601   -0.503339
     10          6           0        2.068879    0.009458    0.470011
     11          1           0        1.241509   -0.216404   -1.516750
     12          1           0        1.737083    0.240292    1.484032
     13          1           0        2.798479    0.760924    0.154312
     14          1           0        2.561260   -0.966128    0.490257
 ---------------------------------------------------------------------

 SCF Done:  E(RHF) =  -628.844602831     A.U. after    2 cycles

 The electronic state is 1-A.
 Alpha  occ. eigenvalues --  -93.93855 -20.55915 -11.32385 -11.29992 -11.27155
 Alpha  occ. eigenvalues --  -11.23427  -8.21983  -6.19772  -6.19663  -6.19424
 Alpha  occ. eigenvalues --   -1.48031  -1.08043  -1.05095  -0.94383  -0.83327
 Alpha  occ. eigenvalues --   -0.79907  -0.70316  -0.67146  -0.62015  -0.60243
 Alpha  occ. eigenvalues --   -0.58600  -0.55628  -0.53652  -0.51271  -0.47711
 Alpha  occ. eigenvalues --   -0.44264  -0.42619  -0.34978
 Alpha virt. eigenvalues --    0.03662   0.04097   0.04204   0.04709   0.06094
 Alpha virt. eigenvalues --    0.06230   0.06561   0.08971   0.09229   0.11624
 Alpha virt. eigenvalues --    0.12548   0.13031   0.14036   0.14367   0.15002

 Mulliken charges:
               1
     1  O   -1.367325
     2  C    0.491418
     3  C   -0.737345
     4  H   -0.000408
     5  H    0.186258
     6  S    0.407674
     7  H    0.139994
     8  H    0.194272
     9  C    0.619354
    10  C   -0.459869
    11  H    0.010963
    12  H    0.154289
    13  H    0.174518
    14  H    0.186207
 Sum of Mulliken charges =  -0.00000

 Dipole moment (field-independent basis, Debye):
    X=             -0.4321    Y=              1.0034    Z=              0.7751  Tot=              1.3395

 Test job not archived.
 1\1\GINC-SE364\SP\RHF\Aug-CC-pVDZ\C4H8O1S1\OHZDE\08-Apr-2025\0\\#t hf
 aug-cc-pvdz iop(5/13=1,5/36=2,99/5=2) pseudo=read geom=check guess=(re
 ad,tcheck) scf=(maxcycle=1)\\title\\0,1\O,0,0.220555,1.23799,-0.565418
 \C,0,-0.870246,1.278813,0.347135\C,0,-1.671023,-0.005447,0.145365\H,0,
 -1.446031,2.173366,0.103705\H,0,-0.519689,1.352086,1.384493\S,0,-0.382
 198,-1.295786,-0.036443\H,0,-2.284382,0.043615,-0.755145\H,0,-2.297418
 ,-0.240437,1.006496\C,0,0.899043,-0.002601,-0.503339\C,0,2.068879,0.00
 9458,0.470011\H,0,1.241509,-0.216404,-1.51675\H,0,1.737083,0.240292,1.

 Normal termination of Gaussian 16 at Tue Apr  8 23:05:07 2025.
