 Gaussian 16, Revision C.01,

 ----------------------------------------------------------------------
 #t hf aug-cc-pvdz symm=none int=(grid=ultrafine) guess=(read,tcheck) s
 table=(opt,rrhf)
 ----------------------------------------------------------------------
 -----
 title
 -----
 Symbolic Z-matrix:
 Charge =  0 Multiplicity = 1

 SCF Done:  E(RHF) =  -1920.46138286     A.U. after   13 cycles
 Normal termination of Gaussian 16 at Tue Apr  8 23:52:30 2025.
 Gaussian 16:  ES64L-G16RevC.01  3-Jul-2019

 ----------------------------------------------------------------------
 #t hf aug-cc-pvdz iop(5/13=1,5/36=2,99/5=2) pseudo=read geom=check gue
 ss=(read,tcheck) scf=(maxcycle=1)
 ----------------------------------------------------------------------
 -----
 title
 -----
 Structure from the checkpoint file:  "BDE49_nonexpt_1928_mol1.chk"
 Charge =  0 Multiplicity = 1

                         Standard orientation:
 ---------------------------------------------------------------------
 Center     Atomic      Atomic             Coordinates (Angstroms)
 Number     Number       Type             X           Y           Z
 ---------------------------------------------------------------------
      1          6           0        0.672069    0.196908    1.524909
      2         14           0       -0.464908    1.415978    0.632953
      3         16           0       -1.561676    0.524061   -1.011523
      4          1           0        0.296709    2.509661   -0.007270
      5          1           0       -1.398892    1.968440    1.639052
      6         16           0       -2.533476   -1.049251    0.013471
      7          1           0       -1.574112   -1.980379   -0.159046
      8         16           0        1.579601   -1.042491    0.518295
      9         16           0        2.640535    0.072348   -0.892514
     10          1           0        1.712716    0.093924   -1.872327
     11          1           0        0.062074   -0.420749    2.193175
     12          1           0        1.378053    0.749292    2.151939
 ---------------------------------------------------------------------

 SCF Done:  E(RHF) =  -1920.78227337     A.U. after    2 cycles

 The electronic state is 1-A.
 Alpha  occ. eigenvalues --  -93.99186 -93.98824 -93.98637 -93.97482 -69.57087
 Alpha  occ. eigenvalues --  -11.27774  -8.27047  -8.26657  -8.26569  -8.25576
 Alpha  occ. eigenvalues --   -6.24874  -6.24707  -6.24476  -6.24455  -6.24392
 Alpha  occ. eigenvalues --   -6.24253  -6.24221  -6.24019  -6.23983  -6.23895
 Alpha  occ. eigenvalues --   -6.23362  -6.23163  -6.22958  -3.99302  -3.99205
 Alpha  occ. eigenvalues --   -3.99170  -1.11332  -1.08720  -0.99884  -0.92238
 Alpha  occ. eigenvalues --   -0.85828  -0.71844  -0.63220  -0.59543  -0.57728
 Alpha  occ. eigenvalues --   -0.55340  -0.53519  -0.50831  -0.50415  -0.47787
 Alpha  occ. eigenvalues --   -0.45711  -0.39372  -0.38745  -0.38030  -0.37170
 Alpha virt. eigenvalues --    0.03258   0.03484   0.04413   0.05049   0.05828
 Alpha virt. eigenvalues --    0.06247   0.07122   0.07410   0.08661   0.09263
 Alpha virt. eigenvalues --    0.09959   0.11707   0.11813   0.12023   0.12656

 Mulliken charges:
               1
     1  C   -0.806500
     2  Si   1.616277
     3  S   -0.701056
     4  H   -0.145900
     5  H   -0.182283
     6  S   -0.478743
     7  H    0.384483
     8  S    0.039843
     9  S   -0.410919
    10  H    0.396496
    11  H    0.213619
    12  H    0.074683
 Sum of Mulliken charges =  -0.00000

 Dipole moment (field-independent basis, Debye):
    X=              0.1112    Y=              0.5355    Z=              1.2366  Tot=              1.3521

 Test job not archived.
 1\1\GINC-SE435\SP\RHF\Aug-CC-pVDZ\C1H6S4Si1\OHZDE\08-Apr-2025\0\\#t hf
  aug-cc-pvdz iop(5/13=1,5/36=2,99/5=2) pseudo=read geom=check guess=(r
 ead,tcheck) scf=(maxcycle=1)\\title\\0,1\C,0,0.672069,0.196908,1.52490
 9\Si,0,-0.464908,1.415978,0.632953\S,0,-1.561676,0.524061,-1.011523\H,
 0,0.296709,2.509661,-0.00727\H,0,-1.398892,1.96844,1.639052\S,0,-2.533
 476,-1.049251,0.013471\H,0,-1.574112,-1.980379,-0.159046\S,0,1.579601,
 -1.042491,0.518295\S,0,2.640535,0.072348,-0.892514\H,0,1.712716,0.0939
 24,-1.872327\H,0,0.062074,-0.420749,2.193175\H,0,1.378053,0.749292,2.1

 Normal termination of Gaussian 16 at Tue Apr  8 23:52:35 2025.
