 Gaussian 16, Revision C.01,

 ----------------------------------------------------------------------
 #t hf aug-cc-pvdz symm=none int=(grid=ultrafine) guess=(read,tcheck) s
 table=(opt,rrhf)
 ----------------------------------------------------------------------
 -----
 title
 -----
 Symbolic Z-matrix:
 Charge =  0 Multiplicity = 1

 SCF Done:  E(RHF) =  -2814.46926944     A.U. after   13 cycles
 Normal termination of Gaussian 16 at Tue Apr  8 23:32:02 2025.
 Gaussian 16:  ES64L-G16RevC.01  3-Jul-2019

 ----------------------------------------------------------------------
 #t hf aug-cc-pvdz iop(5/13=1,5/36=2,99/5=2) pseudo=read geom=check gue
 ss=(read,tcheck) scf=(maxcycle=1)
 ----------------------------------------------------------------------
 -----
 title
 -----
 Structure from the checkpoint file:  "BDE49_nonexpt_1370_mol1.chk"
 Charge =  0 Multiplicity = 1

                         Standard orientation:
 ---------------------------------------------------------------------
 Center     Atomic      Atomic             Coordinates (Angstroms)
 Number     Number       Type             X           Y           Z
 ---------------------------------------------------------------------
      1         17           0       -0.861614   -1.830895    1.355436
      2         15           0       -1.738200   -0.146056   -1.157953
      3          6           0       -0.721935   -1.534426   -0.418093
      4          9           0       -3.071129   -0.258154   -0.253258
      5         15           0        0.995593   -1.432291   -1.158118
      6          6           0       -0.967918    1.392440   -0.418030
      7          6           0        1.689864    0.142020   -0.418408
      8          9           0        1.759468   -2.530361   -0.253456
      9         17           0       -1.155075    1.661454    1.355511
     10         15           0        0.742587    1.578442   -1.158006
     11         17           0        2.016342    0.169298    1.355116
     12          9           0        1.312357    2.788601   -0.253273
     13          1           0       -1.143977   -2.431302   -0.881524
     14          1           0       -1.533725    2.206319   -0.881435
     15          1           0        2.677581    0.225034   -0.881884
 ---------------------------------------------------------------------

 SCF Done:  E(RHF) =  -2815.21162646     A.U. after    2 cycles

 The electronic state is 1-A.
 Alpha  occ. eigenvalues -- -105.58108-105.58108-105.58107 -84.39541 -84.39541
 Alpha  occ. eigenvalues --  -84.39516 -26.49597 -26.49597 -26.49596 -11.34852
 Alpha  occ. eigenvalues --  -11.34852 -11.34839 -10.62851 -10.62851 -10.62847
 Alpha  occ. eigenvalues --   -7.79802  -7.79800  -7.79800  -7.79386  -7.79386
 Alpha  occ. eigenvalues --   -7.79385  -7.79384  -7.79382  -7.79382  -6.85761
 Alpha  occ. eigenvalues --   -6.85750  -6.85750  -4.38696  -4.38695  -4.38488
 Alpha  occ. eigenvalues --   -4.38033  -4.37927  -4.37927  -4.37257  -4.37257
 Alpha  occ. eigenvalues --   -4.37070  -1.60956  -1.60955  -1.60938  -1.15827
 Alpha  occ. eigenvalues --   -1.12125  -1.12124  -1.01786  -0.96282  -0.96282
 Alpha  occ. eigenvalues --   -0.84343  -0.84342  -0.77509  -0.71881  -0.69970
 Alpha  occ. eigenvalues --   -0.69591  -0.69590  -0.68265  -0.67267  -0.67267
 Alpha  occ. eigenvalues --   -0.64343  -0.64343  -0.62735  -0.60424  -0.60423
 Alpha  occ. eigenvalues --   -0.56002  -0.56001  -0.54034  -0.50099  -0.49542
 Alpha  occ. eigenvalues --   -0.49541  -0.43765  -0.43698  -0.43697  -0.41758
 Alpha  occ. eigenvalues --   -0.36920  -0.36919
 Alpha virt. eigenvalues --    0.02249   0.03912   0.03913   0.04284   0.06383
 Alpha virt. eigenvalues --    0.06383   0.07198   0.07656   0.07657   0.08277
 Alpha virt. eigenvalues --    0.10490   0.10890   0.10891   0.12278   0.12278

 Mulliken charges:
               1
     1  Cl  -0.209903
     2  P    1.924830
     3  C   -1.013941
     4  F   -0.863990
     5  P    1.924892
     6  C   -1.013989
     7  C   -1.013846
     8  F   -0.864022
     9  Cl  -0.209902
    10  P    1.924905
    11  Cl  -0.209867
    12  F   -0.864027
    13  H    0.163036
    14  H    0.163057
    15  H    0.162768
 Sum of Mulliken charges =  -0.00000

 Dipole moment (field-independent basis, Debye):
    X=             -0.0002    Y=              0.0001    Z=             -4.2151  Tot=              4.2151

 Test job not archived.
 1\1\GINC-SE174\SP\RHF\Aug-CC-pVDZ\C3H3Cl3F3P3\OHZDE\08-Apr-2025\0\\#t
 hf aug-cc-pvdz iop(5/13=1,5/36=2,99/5=2) pseudo=read geom=check guess=
 (read,tcheck) scf=(maxcycle=1)\\title\\0,1\Cl,0,-0.862146,-1.830645,1.
 355436\P,0,-1.738242,-0.145551,-1.157953\C,0,-0.72238,-1.534216,-0.418
 093\F,0,-3.071204,-0.257262,-0.253258\P,0,0.995177,-1.43258,-1.158118\
 C,0,-0.967513,1.392721,-0.41803\C,0,1.689905,0.141529,-0.418408\F,0,1.
 758733,-2.530872,-0.253456\Cl,0,-1.154592,1.661789,1.355511\P,0,0.7430
 45,1.578226,-1.158006\Cl,0,2.016391,0.168712,1.355116\F,0,1.313167,2.7

 Normal termination of Gaussian 16 at Tue Apr  8 23:32:14 2025.
