 Gaussian 16, Revision C.01,

 ----------------------------------------------------------------------
 #t hf aug-cc-pvdz symm=none int=(grid=ultrafine) guess=(read,tcheck) s
 table=(opt,rrhf)
 ----------------------------------------------------------------------
 -----
 title
 -----
 Symbolic Z-matrix:
 Charge =  0 Multiplicity = 1

 SCF Done:  E(RHF) =  -842.316266266     A.U. after   17 cycles
 Normal termination of Gaussian 16 at Tue Apr  8 22:51:47 2025.
 Gaussian 16:  ES64L-G16RevC.01  3-Jul-2019

 ----------------------------------------------------------------------
 #t hf aug-cc-pvdz iop(5/13=1,5/36=2,99/5=2) pseudo=read geom=check gue
 ss=(read,tcheck) scf=(maxcycle=1)
 ----------------------------------------------------------------------
 -----
 title
 -----
 Structure from the checkpoint file:  "BDE49_expt_1704_mol1.chk"
 Charge =  0 Multiplicity = 1

                         Standard orientation:
 ---------------------------------------------------------------------
 Center     Atomic      Atomic             Coordinates (Angstroms)
 Number     Number       Type             X           Y           Z
 ---------------------------------------------------------------------
      1          6           0       -2.413335    2.312427    0.000000
      2          6           0       -1.171754    2.989965    0.000000
      3          6           0        0.006248    2.283698   -0.000000
      4          6           0       -2.452783    0.939370    0.000000
      5          6           0       -1.255523    0.178735    0.000000
      6          6           0        0.000000    0.864277    0.000000
      7          1           0       -3.334778    2.883364    0.000000
      8          1           0       -1.154170    4.073918    0.000000
      9          1           0        0.958527    2.803109   -0.000000
     10          1           0       -3.403690    0.417083    0.000000
     11          6           0        1.201391    0.109010   -0.000000
     12          6           0        1.145460   -1.260292   -0.000000
     13          6           0       -0.084982   -1.954235    0.000000
     14          6           0       -1.256957   -1.240441    0.000000
     15         17           0        2.633177   -2.195880   -0.000000
     16          1           0       -0.086966   -3.036410    0.000000
     17          1           0       -2.206487   -1.764854    0.000000
     18          1           0        2.156963    0.618657   -0.000000
 ---------------------------------------------------------------------

 SCF Done:  E(RHF) =  -842.781967301     A.U. after    2 cycles

 The electronic state is 1-A'.
 Alpha  occ. eigenvalues -- -105.57268 -11.31340 -11.26417 -11.26131 -11.26058
 Alpha  occ. eigenvalues --  -11.26007 -11.25970 -11.25481 -11.25448 -11.25350
 Alpha  occ. eigenvalues --  -11.25280 -10.62054  -7.79020  -7.78626  -7.78607
 Alpha  occ. eigenvalues --   -1.19863  -1.14530  -1.08299  -1.05881  -1.00988
 Alpha  occ. eigenvalues --   -0.98105  -0.87553  -0.84644  -0.83627  -0.72777
 Alpha  occ. eigenvalues --   -0.72250  -0.69623  -0.64643  -0.64004  -0.61580
 Alpha  occ. eigenvalues --   -0.60797  -0.58539  -0.56635  -0.55236  -0.51786
 Alpha  occ. eigenvalues --   -0.51411  -0.50305  -0.46601  -0.44786  -0.40506
 Alpha  occ. eigenvalues --   -0.33670  -0.30902
 Alpha virt. eigenvalues --    0.03088   0.03163   0.03779   0.04711   0.05227
 Alpha virt. eigenvalues --    0.05977   0.07475   0.07834   0.08309   0.09236
 Alpha virt. eigenvalues --    0.09759   0.10703   0.10704   0.11842   0.12579

 Mulliken charges:
               1
     1  C   -0.061495
     2  C   -0.098588
     3  C   -0.033223
     4  C    0.249885
     5  C    0.820520
     6  C    1.459009
     7  H   -0.234579
     8  H   -0.235966
     9  H   -0.298635
    10  H   -0.299208
    11  C    0.303314
    12  C   -0.599679
    13  C   -0.166814
    14  C    0.310131
    15  Cl  -0.345496
    16  H   -0.212980
    17  H   -0.333722
    18  H   -0.222475
 Sum of Mulliken charges =  -0.00000

 Dipole moment (field-independent basis, Debye):
    X=             -1.8574    Y=              1.2911    Z=              0.0000  Tot=              2.2620

 Test job not archived.
 1\1\GINC-SE103\SP\RHF\Aug-CC-pVDZ\C10H7Cl1\OHZDE\08-Apr-2025\0\\#t hf
 aug-cc-pvdz iop(5/13=1,5/36=2,99/5=2) pseudo=read geom=check guess=(re
 ad,tcheck) scf=(maxcycle=1)\\title\\0,1\C,0,-2.413335,2.312427,0.\C,0,
 -1.171754,2.989965,0.\C,0,0.006248,2.283698,0.\C,0,-2.452783,0.93937,0
 .\C,0,-1.255523,0.178735,0.\C,0,0.,0.864277,0.\H,0,-3.334778,2.883364,
 0.\H,0,-1.15417,4.073918,0.\H,0,0.958527,2.803109,0.\H,0,-3.40369,0.41
 7083,0.\C,0,1.201391,0.10901,0.\C,0,1.14546,-1.260292,0.\C,0,-0.084982
 ,-1.954235,0.\C,0,-1.256957,-1.240441,0.\Cl,0,2.633177,-2.19588,0.\H,0

 Normal termination of Gaussian 16 at Tue Apr  8 22:52:02 2025.
