 Gaussian 16, Revision C.01,

 ----------------------------------------------------------------------
 #t hf aug-cc-pvdz symm=none int=(grid=ultrafine) guess=(read,tcheck) s
 table=opt
 ----------------------------------------------------------------------
 -----
 title
 -----
 Symbolic Z-matrix:
 Charge =  0 Multiplicity = 2

 SCF Done:  E(UHF) =  -554.246407411     A.U. after   15 cycles
 Normal termination of Gaussian 16 at Tue Apr  8 22:53:59 2025.
 Gaussian 16:  ES64L-G16RevC.01  3-Jul-2019

 ----------------------------------------------------------------------
 #t hf aug-cc-pvdz iop(5/13=1,5/36=2,99/5=2) pseudo=read geom=check gue
 ss=(read,tcheck) scf=(maxcycle=1)
 ----------------------------------------------------------------------
 -----
 title
 -----
 Structure from the checkpoint file:  "BDE49_expt_1820_mol2.chk"
 Charge =  0 Multiplicity = 2

                         Standard orientation:
 ---------------------------------------------------------------------
 Center     Atomic      Atomic             Coordinates (Angstroms)
 Number     Number       Type             X           Y           Z
 ---------------------------------------------------------------------
      1         16           0       -1.532473   -0.000001   -0.074658
      2          6           0        0.311142   -0.000000   -0.006787
      3          6           0        0.860092   -1.265385   -0.683702
      4          1           0        0.478364   -2.166266   -0.200100
      5          1           0        1.954371   -1.275039   -0.625798
      6          1           0        0.579639   -1.302121   -1.739148
      7          6           0        0.666020    0.000000    1.495280
      8          1           0        0.277058   -0.887344    1.999509
      9          1           0        0.277057    0.887343    1.999509
     10          1           0        1.756665    0.000001    1.599064
     11          6           0        0.860088    1.265386   -0.683702
     12          1           0        0.579635    1.302123   -1.739147
     13          1           0        1.954367    1.275043   -0.625797
     14          1           0        0.478360    2.166267   -0.200099
 ---------------------------------------------------------------------

 SCF Done:  E(UHF) =  -554.475926172     A.U. after    2 cycles

 The electronic state is 2-A.
 Alpha  occ. eigenvalues --  -93.95631 -11.28519 -11.24078 -11.23504 -11.23485
 Alpha  occ. eigenvalues --   -8.23670  -6.22855  -6.21074  -6.20778  -1.12954
 Alpha  occ. eigenvalues --   -0.96938  -0.95017  -0.94668  -0.74579  -0.62591
 Alpha  occ. eigenvalues --   -0.62205  -0.62156  -0.56700  -0.56004  -0.53341
 Alpha  occ. eigenvalues --   -0.50143  -0.49750  -0.45140  -0.42844  -0.37247
 Alpha virt. eigenvalues --    0.03647   0.04112   0.04257   0.05033   0.06577
 Alpha virt. eigenvalues --    0.06605   0.07279   0.07435   0.08322   0.09718
 Alpha virt. eigenvalues --    0.12287   0.14103   0.14167   0.15436   0.15814

  Beta  occ. eigenvalues --  -93.94736 -11.28655 -11.23967 -11.23475 -11.23456
  Beta  occ. eigenvalues --   -8.22643  -6.20528  -6.20241  -6.18889  -1.11777
  Beta  occ. eigenvalues --   -0.94703  -0.94610  -0.89789  -0.73222  -0.62125
  Beta  occ. eigenvalues --   -0.61763  -0.61513  -0.55900  -0.55884  -0.53303
  Beta  occ. eigenvalues --   -0.49662  -0.49345  -0.43985  -0.35054
  Beta virt. eigenvalues --    0.01098   0.03664   0.04267   0.04709   0.05067
  Beta virt. eigenvalues --    0.06589   0.06621   0.07441   0.07493   0.08454
  Beta virt. eigenvalues --    0.09719   0.12450   0.14227   0.14382   0.15597

 Mulliken charges and spin densities:
               1          2
     1  S    0.087415   1.125717
     2  C   -1.721943  -0.171846
     3  C   -0.014220   0.018419
     4  H    0.176811  -0.014398
     5  H    0.220475   0.000693
     6  H    0.151581   0.001715
     7  C    0.038897   0.027377
     8  H    0.149812  -0.000726
     9  H    0.149811  -0.000726
    10  H    0.226712   0.007344
    11  C   -0.014218   0.018419
    12  H    0.151578   0.001715
    13  H    0.220476   0.000694
    14  H    0.176812  -0.014398
 Sum of Mulliken charges =  -0.00000   1.00000

 Dipole moment (field-independent basis, Debye):
    X=              1.9858    Y=              0.0000    Z=              0.1481  Tot=              1.9913
                          Isotropic Fermi Contact Couplings
        Atom                 a.u.       MegaHertz       Gauss      10(-4) cm-1
     1  S(33)              0.16643      57.16395      20.39752      19.06784
     2  C(13)             -0.02479     -27.86585      -9.94323      -9.29505
     3  C(13)              0.00610       6.86252       2.44872       2.28909
     4  H(1)              -0.00027      -1.19568      -0.42665      -0.39883
     5  H(1)              -0.00006      -0.28525      -0.10179      -0.09515
     6  H(1)              -0.00032      -1.42006      -0.50671      -0.47368
     7  C(13)              0.02945      33.10685      11.81335      11.04326
     8  H(1)              -0.00016      -0.69553      -0.24818      -0.23200

 Normal termination of Gaussian 16 at Tue Apr  8 22:54:04 2025.
