 Gaussian 16, Revision C.01,

 ----------------------------------------------------------------------
 #t hf aug-cc-pvdz symm=none int=(grid=ultrafine) guess=(read,tcheck) s
 table=(opt,rrhf)
 ----------------------------------------------------------------------
 -----
 title
 -----
 Symbolic Z-matrix:
 Charge =  0 Multiplicity = 1

 SCF Done:  E(RHF) =  -1183.92226467     A.U. after   15 cycles

 1\1\GINC-SE398\Stability\RHF\Aug-CC-pVDZ\C6Cl1F5\OHZDE\08-Apr-2025\0\\
 #t hf aug-cc-pvdz symm=none int=(grid=ultrafine) guess=(read,tcheck) s
 table=(opt,rrhf)\\title\\0,1\C,0,0.,0.,-1.679817\C,0,0.,1.203595,-0.98
 4396\C,0,0.,1.201519,0.405312\C,0,0.,-1.203595,-0.984396\C,0,0.,-1.201
 519,0.405312\C,0,0.,0.,1.111646\F,0,0.,0.,-3.012396\F,0,0.,2.358475,-1
 .652796\F,0,0.,2.366421,1.052625\Cl,0,0.,0.,2.839569\F,0,0.,-2.358475,
 -1.652796\F,0,0.,-2.366421,1.052625\\Version=ES64L-G16RevC.01\HF=-1183
 .9222647\RMSD=4.505e-09\Dipole=0.,0.,0.1692007\Quadrupole=4.0463121,-3

 Normal termination of Gaussian 16 at Tue Apr  8 22:49:06 2025.
 Gaussian 16:  ES64L-G16RevC.01  3-Jul-2019

 ----------------------------------------------------------------------
 #t hf aug-cc-pvdz iop(5/13=1,5/36=2,99/5=2) pseudo=read geom=check gue
 ss=(read,tcheck) scf=(maxcycle=1)
 ----------------------------------------------------------------------
 -----
 title
 -----
 Structure from the checkpoint file:  "BDE49_expt_1684_mol1.chk"
 Charge =  0 Multiplicity = 1

                         Standard orientation:
 ---------------------------------------------------------------------
 Center     Atomic      Atomic             Coordinates (Angstroms)
 Number     Number       Type             X           Y           Z
 ---------------------------------------------------------------------
      1          6           0        0.000000   -0.000000   -1.679817
      2          6           0        0.000000    1.203595   -0.984396
      3          6           0        0.000000    1.201519    0.405312
      4          6           0       -0.000000   -1.203595   -0.984396
      5          6           0       -0.000000   -1.201519    0.405312
      6          6           0        0.000000    0.000000    1.111646
      7          9           0        0.000000   -0.000000   -3.012396
      8          9           0        0.000000    2.358475   -1.652796
      9          9           0        0.000000    2.366421    1.052625
     10         17           0        0.000000    0.000000    2.839569
     11          9           0       -0.000000   -2.358475   -1.652796
     12          9           0       -0.000000   -2.366421    1.052625
 ---------------------------------------------------------------------

 SCF Done:  E(RHF) =  -1184.66747405     A.U. after    2 cycles

 The electronic state is 1-A1.
 Alpha  occ. eigenvalues -- -105.61460 -26.53052 -26.52777 -26.52777 -26.52688
 Alpha  occ. eigenvalues --  -26.52687 -11.40073 -11.40062 -11.40049 -11.39481
 Alpha  occ. eigenvalues --  -11.39478 -11.36468 -10.66235  -7.83213  -7.82762
 Alpha  occ. eigenvalues --   -7.82750  -1.67442  -1.66760  -1.66156  -1.65157
 Alpha  occ. eigenvalues --   -1.64618  -1.24207  -1.15430  -1.08436  -1.04768
 Alpha  occ. eigenvalues --   -0.93352  -0.92501  -0.85489  -0.82400  -0.79932
 Alpha  occ. eigenvalues --   -0.76513  -0.76401  -0.76166  -0.74974  -0.73268
 Alpha  occ. eigenvalues --   -0.72237  -0.70287  -0.69830  -0.68164  -0.67822
 Alpha  occ. eigenvalues --   -0.67506  -0.64132  -0.60575  -0.60415  -0.57850
 Alpha  occ. eigenvalues --   -0.51402  -0.50657  -0.39282  -0.38936
 Alpha virt. eigenvalues --    0.05171   0.06629   0.07120   0.07255   0.08662
 Alpha virt. eigenvalues --    0.08801   0.09018   0.09401   0.10593   0.11550
 Alpha virt. eigenvalues --    0.12051   0.12252   0.13994   0.14408   0.15039

 Mulliken charges:
               1
     1  C    0.872601
     2  C    0.912152
     3  C    1.308923
     4  C    0.912152
     5  C    1.308923
     6  C   -0.460641
     7  F   -0.947382
     8  F   -0.947497
     9  F   -0.914508
    10  Cl  -0.182718
    11  F   -0.947497
    12  F   -0.914508
 Sum of Mulliken charges =  -0.00000

 Dipole moment (field-independent basis, Debye):
    X=              0.0000    Y=             -0.0000    Z=              0.2403  Tot=              0.2403

 Test job not archived.
 1\1\GINC-SE398\SP\RHF\Aug-CC-pVDZ\C6Cl1F5\OHZDE\08-Apr-2025\0\\#t hf a
 ug-cc-pvdz iop(5/13=1,5/36=2,99/5=2) pseudo=read geom=check guess=(rea
 d,tcheck) scf=(maxcycle=1)\\title\\0,1\C,0,0.,0.,-1.679817\C,0,0.,1.20
 3595,-0.984396\C,0,0.,1.201519,0.405312\C,0,0.,-1.203595,-0.984396\C,0
 ,0.,-1.201519,0.405312\C,0,0.,0.,1.111646\F,0,0.,0.,-3.012396\F,0,0.,2
 .358475,-1.652796\F,0,0.,2.366421,1.052625\Cl,0,0.,0.,2.839569\F,0,0.,
 -2.358475,-1.652796\F,0,0.,-2.366421,1.052625\\Version=ES64L-G16RevC.0
 1\State=1-A1\HF=-1184.6674741\RMSD=3.381e-02\Dipole=0.,0.,0.0945499\Qu

 Normal termination of Gaussian 16 at Tue Apr  8 22:49:13 2025.
