 Gaussian 16, Revision C.01,

 ----------------------------------------------------------------------
 #t hf aug-cc-pvdz symm=none int=(grid=ultrafine) guess=(read,tcheck) s
 table=(opt,rrhf)
 ----------------------------------------------------------------------
 -----
 title
 -----
 Symbolic Z-matrix:
 Charge =  0 Multiplicity = 1

 SCF Done:  E(RHF) =  -457.404320832     A.U. after   16 cycles
 Normal termination of Gaussian 16 at Tue Apr  8 22:37:38 2025.
 Gaussian 16:  ES64L-G16RevC.01  3-Jul-2019

 ----------------------------------------------------------------------
 #t hf aug-cc-pvdz iop(5/13=1,5/36=2,99/5=2) pseudo=read geom=check gue
 ss=(read,tcheck) scf=(maxcycle=1)
 ----------------------------------------------------------------------
 -----
 title
 -----
 Structure from the checkpoint file:  "BDE49_expt_1133_mol1.chk"
 Charge =  0 Multiplicity = 1

                         Standard orientation:
 ---------------------------------------------------------------------
 Center     Atomic      Atomic             Coordinates (Angstroms)
 Number     Number       Type             X           Y           Z
 ---------------------------------------------------------------------
      1          6           0       -1.233557    0.395227   -0.000026
      2          8           0       -1.724574    1.499961   -0.000003
      3          8           0       -1.970013   -0.737407   -0.000006
      4          6           0        0.231806    0.120841   -0.000011
      5          6           0       -3.394976   -0.550334    0.000014
      6          1           0       -3.820354   -1.551528    0.000027
      7          1           0       -3.708597    0.000863   -0.887947
      8          1           0       -3.708571    0.000875    0.887976
      9          6           0        0.751113   -1.178264   -0.000010
     10          6           0        1.100468    1.217090    0.000001
     11          6           0        2.475804    1.016719    0.000013
     12          6           0        2.991316   -0.279221    0.000014
     13          6           0        2.128521   -1.374344    0.000002
     14          1           0        2.529676   -2.381389    0.000003
     15          1           0        0.074124   -2.022039   -0.000019
     16          1           0        3.146331    1.868399    0.000022
     17          1           0        4.064328   -0.435498    0.000024
     18          1           0        0.676787    2.213614    0.000000
 ---------------------------------------------------------------------

 SCF Done:  E(RHF) =  -457.866611234     A.U. after    2 cycles

 The electronic state is 1-A.
 Alpha  occ. eigenvalues --  -20.59034 -20.53153 -11.39077 -11.29709 -11.26017
 Alpha  occ. eigenvalues --  -11.25941 -11.25824 -11.25625 -11.25210 -11.25125
 Alpha  occ. eigenvalues --   -1.54258  -1.44804  -1.16974  -1.05385  -1.02956
 Alpha  occ. eigenvalues --   -0.97455  -0.87379  -0.84624  -0.78779  -0.74902
 Alpha  occ. eigenvalues --   -0.69430  -0.68032  -0.67269  -0.64219  -0.64098
 Alpha  occ. eigenvalues --   -0.61238  -0.59217  -0.56519  -0.53822  -0.52950
 Alpha  occ. eigenvalues --   -0.51362  -0.51313  -0.45648  -0.44528  -0.35944
 Alpha  occ. eigenvalues --   -0.35595
 Alpha virt. eigenvalues --    0.03182   0.03500   0.03940   0.04829   0.05373
 Alpha virt. eigenvalues --    0.06050   0.06882   0.07038   0.07533   0.09933
 Alpha virt. eigenvalues --    0.10465   0.10735   0.11483   0.12992   0.13621

 Mulliken charges:
               1
     1  C    1.392155
     2  O   -1.357980
     3  O   -1.528716
     4  C    2.011082
     5  C    0.191971
     6  H   -0.007046
     7  H    0.199570
     8  H    0.199566
     9  C    0.021213
    10  C   -0.419168
    11  C    0.400296
    12  C   -0.081148
    13  C    0.264741
    14  H   -0.228385
    15  H   -0.295467
    16  H   -0.214034
    17  H   -0.213356
    18  H   -0.335294
 Sum of Mulliken charges =  -0.00000

 Dipole moment (field-independent basis, Debye):
    X=              0.8087    Y=             -1.9297    Z=             -0.0000  Tot=              2.0923

 Test job not archived.
 1\1\GINC-SE423\SP\RHF\Aug-CC-pVDZ\C8H8O2\OHZDE\08-Apr-2025\0\\#t hf au
 g-cc-pvdz iop(5/13=1,5/36=2,99/5=2) pseudo=read geom=check guess=(read
 ,tcheck) scf=(maxcycle=1)\\title\\0,1\C,0,-1.233557,0.395227,-0.000026
 \O,0,-1.724574,1.499961,-0.000003\O,0,-1.970013,-0.737407,-0.000006\C,
 0,0.231806,0.120841,-0.000011\C,0,-3.394976,-0.550334,0.000014\H,0,-3.
 820354,-1.551528,0.000027\H,0,-3.708597,0.000863,-0.887947\H,0,-3.7085
 71,0.000875,0.887976\C,0,0.751113,-1.178264,-0.00001\C,0,1.100468,1.21
 709,0.000001\C,0,2.475804,1.016719,0.000013\C,0,2.991316,-0.279221,0.0

 Normal termination of Gaussian 16 at Tue Apr  8 22:37:47 2025.
