 Gaussian 16, Revision C.01,

 ----------------------------------------------------------------------
 #t hf aug-cc-pvdz symm=none int=(grid=ultrafine) guess=(read,tcheck) s
 table=(opt,rrhf)
 ----------------------------------------------------------------------
 -----
 title
 -----
 Symbolic Z-matrix:
 Charge =  0 Multiplicity = 1

 SCF Done:  E(RHF) =  -560.168031141     A.U. after   13 cycles
 Normal termination of Gaussian 16 at Wed Apr  9 00:06:16 2025.
 Gaussian 16:  ES64L-G16RevC.01  3-Jul-2019

 ----------------------------------------------------------------------
 #t hf aug-cc-pvdz iop(5/13=1,5/36=2,99/5=2) pseudo=read geom=check gue
 ss=(read,tcheck) scf=(maxcycle=1)
 ----------------------------------------------------------------------
 -----
 title
 -----
 Structure from the checkpoint file:  "BDE49_nonexpt_2220_mol1.chk"
 Charge =  0 Multiplicity = 1

                         Standard orientation:
 ---------------------------------------------------------------------
 Center     Atomic      Atomic             Coordinates (Angstroms)
 Number     Number       Type             X           Y           Z
 ---------------------------------------------------------------------
      1          6           0       -3.239502   -0.892563   -0.045191
      2          6           0       -1.973944   -0.157004   -0.497698
      3          1           0       -3.863551   -0.252250    0.586025
      4          1           0       -2.988908   -1.786065    0.534835
      5          1           0       -3.843370   -1.208619   -0.900588
      6          6           0       -1.091062    0.307088    0.676357
      7          1           0       -2.256804    0.709515   -1.106486
      8          1           0       -1.390452   -0.810173   -1.155070
      9         14           0        0.457245    1.244416    0.185708
     10          1           0       -0.805419   -0.553944    1.292880
     11          1           0       -1.665563    0.970161    1.338858
     12          8           0        1.456983    0.340908   -0.804400
     13          6           0        2.217617   -0.751944   -0.524732
     14          6           0        2.383975   -1.338696    0.658636
     15          1           0        1.909990   -0.984130    1.566028
     16          1           0        3.029485   -2.203116    0.735830
     17          1           0        2.712798   -1.121158   -1.417657
     18          1           0        1.199083    1.668131    1.398355
     19          1           0        0.122921    2.421276   -0.641969
 ---------------------------------------------------------------------

 SCF Done:  E(RHF) =  -560.490724937     A.U. after    2 cycles

 The electronic state is 1-A.
 Alpha  occ. eigenvalues --  -69.55475 -20.55493 -11.30960 -11.23658 -11.22604
 Alpha  occ. eigenvalues --  -11.22519 -11.22195  -6.22112  -3.97597  -3.97442
 Alpha  occ. eigenvalues --   -3.97409  -1.46944  -1.06149  -1.02905  -0.93581
 Alpha  occ. eigenvalues --   -0.83935  -0.81007  -0.70807  -0.67984  -0.64362
 Alpha  occ. eigenvalues --   -0.63127  -0.59503  -0.57739  -0.55356  -0.54906
 Alpha  occ. eigenvalues --   -0.54181  -0.51210  -0.49335  -0.48104  -0.46064
 Alpha  occ. eigenvalues --   -0.43657  -0.35362
 Alpha virt. eigenvalues --    0.03510   0.03668   0.03910   0.03993   0.05537
 Alpha virt. eigenvalues --    0.05742   0.06344   0.06753   0.07042   0.08461
 Alpha virt. eigenvalues --    0.09112   0.09233   0.10120   0.10679   0.11801

 Mulliken charges:
               1
     1  C   -0.326152
     2  C   -0.426821
     3  H    0.163730
     4  H    0.159941
     5  H    0.124830
     6  C   -0.485343
     7  H    0.116539
     8  H    0.075185
     9  Si   1.565290
    10  H    0.136759
    11  H    0.074818
    12  O   -1.738956
    13  C    1.190531
    14  C   -0.046982
    15  H   -0.124236
    16  H   -0.094864
    17  H   -0.099893
    18  H   -0.135155
    19  H   -0.129221
 Sum of Mulliken charges =  -0.00000

 Dipole moment (field-independent basis, Debye):
    X=             -0.8120    Y=             -0.3877    Z=              0.4862  Tot=              1.0228

 Test job not archived.
 1\1\GINC-SE402\SP\RHF\Aug-CC-pVDZ\C5H12O1Si1\OHZDE\09-Apr-2025\0\\#t h
 f aug-cc-pvdz iop(5/13=1,5/36=2,99/5=2) pseudo=read geom=check guess=(
 read,tcheck) scf=(maxcycle=1)\\title\\0,1\C,0,-3.239502,-0.892563,-0.0
 45191\C,0,-1.973944,-0.157004,-0.497698\H,0,-3.863551,-0.25225,0.58602
 5\H,0,-2.988908,-1.786065,0.534835\H,0,-3.84337,-1.208619,-0.900588\C,
 0,-1.091062,0.307088,0.676357\H,0,-2.256804,0.709515,-1.106486\H,0,-1.
 390452,-0.810173,-1.15507\Si,0,0.457245,1.244416,0.185708\H,0,-0.80541
 9,-0.553944,1.29288\H,0,-1.665563,0.970161,1.338858\O,0,1.456983,0.340

 Normal termination of Gaussian 16 at Wed Apr  9 00:06:24 2025.
