 Gaussian 16, Revision C.01,

 ----------------------------------------------------------------------
 #t hf aug-cc-pvdz symm=none int=(grid=ultrafine) guess=(read,tcheck) s
 table=(opt,rrhf)
 ----------------------------------------------------------------------
 -----
 title
 -----
 Symbolic Z-matrix:
 Charge =  0 Multiplicity = 1

 SCF Done:  E(RHF) =  -512.941380909     A.U. after   16 cycles
 Normal termination of Gaussian 16 at Wed Apr  9 00:38:47 2025.
 Gaussian 16:  ES64L-G16RevC.01  3-Jul-2019

 ----------------------------------------------------------------------
 #t hf aug-cc-pvdz iop(5/13=1,5/36=2,99/5=2) pseudo=read geom=check gue
 ss=(read,tcheck) scf=(maxcycle=1)
 ----------------------------------------------------------------------
 -----
 title
 -----
 Structure from the checkpoint file:  "BDE49_nonexpt_566_mol1.chk"
 Charge =  0 Multiplicity = 1

                         Standard orientation:
 ---------------------------------------------------------------------
 Center     Atomic      Atomic             Coordinates (Angstroms)
 Number     Number       Type             X           Y           Z
 ---------------------------------------------------------------------
      1          7           0       -0.078754   -0.070360   -0.228326
      2          7           0       -0.622454    1.190628   -0.071512
      3          5           0        1.363466   -0.333529   -0.034117
      4          8           0       -1.826085    1.316080   -0.212817
      5          8           0        0.143641    2.123999    0.197047
      6          8           0        2.280137    0.607005    0.270315
      7          8           0        1.716159   -1.642909   -0.188989
      8          6           0       -1.036299   -1.147156   -0.546093
      9          6           0       -1.775168   -1.679310    0.680801
     10          1           0       -0.439409   -1.933400   -1.003859
     11          1           0       -1.737186   -0.767110   -1.288882
     12          1           0       -1.069941   -2.077342    1.413871
     13          1           0       -2.447068   -2.488323    0.382450
     14          1           0       -2.374203   -0.897550    1.149608
     15          1           0        2.662285   -1.762521   -0.060345
     16          1           0        1.854637    1.477415    0.343914
 ---------------------------------------------------------------------

 SCF Done:  E(RHF) =  -513.449497196     A.U. after    2 cycles

 The electronic state is 1-A.
 Alpha  occ. eigenvalues --  -20.60315 -20.59511 -20.57729 -20.56368 -15.83728
 Alpha  occ. eigenvalues --  -15.58666 -11.29311 -11.24140  -7.68857  -1.69296
 Alpha  occ. eigenvalues --   -1.52503  -1.50048  -1.45982  -1.30917  -1.07309
 Alpha  occ. eigenvalues --   -0.96792  -0.88090  -0.85306  -0.79061  -0.77131
 Alpha  occ. eigenvalues --   -0.76212  -0.73608  -0.69576  -0.64041  -0.61970
 Alpha  occ. eigenvalues --   -0.59442  -0.58572  -0.57426  -0.54865  -0.53222
 Alpha  occ. eigenvalues --   -0.52149  -0.51045  -0.49165  -0.47159  -0.46871
 Alpha virt. eigenvalues --    0.03411   0.04074   0.04336   0.04894   0.05445
 Alpha virt. eigenvalues --    0.05524   0.05683   0.06647   0.07958   0.08868
 Alpha virt. eigenvalues --    0.09718   0.11151   0.13235   0.13602   0.14419

 Mulliken charges:
               1
     1  N    0.804512
     2  N    2.143722
     3  B    1.454024
     4  O   -1.366772
     5  O   -1.367244
     6  O   -1.465323
     7  O   -1.243617
     8  C   -0.480776
     9  C   -0.334953
    10  H    0.047354
    11  H    0.136440
    12  H    0.145394
    13  H    0.161077
    14  H    0.161693
    15  H    0.451512
    16  H    0.752958
 Sum of Mulliken charges =  -0.00000

 Dipole moment (field-independent basis, Debye):
    X=              0.5684    Y=             -2.8444    Z=             -0.2950  Tot=              2.9156

 Test job not archived.
 1\1\GINC-SE132\SP\RHF\Aug-CC-pVDZ\C2H7B1N2O4\OHZDE\09-Apr-2025\0\\#t h
 f aug-cc-pvdz iop(5/13=1,5/36=2,99/5=2) pseudo=read geom=check guess=(
 read,tcheck) scf=(maxcycle=1)\\title\\0,1\N,0,0.078754,0.07036,-0.2283
 26\N,0,0.622454,-1.190628,-0.071512\B,0,-1.363466,0.333529,-0.034117\O
 ,0,1.826085,-1.31608,-0.212817\O,0,-0.143641,-2.123999,0.197047\O,0,-2
 .280137,-0.607005,0.270315\O,0,-1.716159,1.642909,-0.188989\C,0,1.0362
 99,1.147156,-0.546093\C,0,1.775168,1.67931,0.680801\H,0,0.439409,1.933
 4,-1.003859\H,0,1.737186,0.76711,-1.288882\H,0,1.069941,2.077342,1.413

 Normal termination of Gaussian 16 at Wed Apr  9 00:38:54 2025.
