 Gaussian 16, Revision C.01,

 ----------------------------------------------------------------------
 #t hf aug-cc-pvdz symm=none int=(grid=ultrafine) guess=(read,tcheck) s
 table=(opt,rrhf)
 ----------------------------------------------------------------------
 -----
 title
 -----
 Symbolic Z-matrix:
 Charge =  0 Multiplicity = 1

 SCF Done:  E(RHF) =  -1772.56874527     A.U. after   15 cycles
 Normal termination of Gaussian 16 at Tue Apr  8 23:39:46 2025.
 Gaussian 16:  ES64L-G16RevC.01  3-Jul-2019

 ----------------------------------------------------------------------
 #t hf aug-cc-pvdz iop(5/13=1,5/36=2,99/5=2) pseudo=read geom=check gue
 ss=(read,tcheck) scf=(maxcycle=1)
 ----------------------------------------------------------------------
 -----
 title
 -----
 Structure from the checkpoint file:  "BDE49_nonexpt_1590_mol1.chk"
 Charge =  0 Multiplicity = 1

                         Standard orientation:
 ---------------------------------------------------------------------
 Center     Atomic      Atomic             Coordinates (Angstroms)
 Number     Number       Type             X           Y           Z
 ---------------------------------------------------------------------
      1          8           0       -0.694971    0.736548   -0.459997
      2         15           0       -2.121100    0.052946    0.015528
      3          8           0       -3.029636    1.170359    0.233203
      4          8           0       -1.749382   -0.939188    1.186023
      5          8           0        0.331359   -0.297032   -0.707817
      6          6           0        1.401127   -0.020077    0.107809
      7          9           0        1.037085   -0.044544    1.416158
      8         17           0        2.150548    1.569373   -0.207350
      9         17           0        2.530791   -1.351161   -0.212770
     10          1           0       -1.249399   -0.525221    1.900720
     11          8           0       -2.504686   -1.021044   -1.079087
     12          1           0       -3.078859   -0.654348   -1.762467
 ---------------------------------------------------------------------

 SCF Done:  E(RHF) =  -1773.24978297     A.U. after    2 cycles

 The electronic state is 1-A.
 Alpha  occ. eigenvalues -- -105.61932-105.61150 -84.48988 -26.53985 -20.70267
 Alpha  occ. eigenvalues --  -20.68079 -20.62445 -20.62386 -20.53262 -11.55000
 Alpha  occ. eigenvalues --  -10.66802 -10.66012  -7.83757  -7.83299  -7.83291
 Alpha  occ. eigenvalues --   -7.82964  -7.82514  -7.82513  -6.93870  -4.48081
 Alpha  occ. eigenvalues --   -4.47321  -4.47210  -1.70181  -1.64688  -1.57127
 Alpha  occ. eigenvalues --   -1.50859  -1.43316  -1.38274  -1.16422  -1.09879
 Alpha  occ. eigenvalues --   -0.91248  -0.89630  -0.81097  -0.79044  -0.77754
 Alpha  occ. eigenvalues --   -0.74455  -0.73877  -0.68978  -0.67511  -0.66080
 Alpha  occ. eigenvalues --   -0.64475  -0.62610  -0.59413  -0.58730  -0.56183
 Alpha  occ. eigenvalues --   -0.55172  -0.53633  -0.52881  -0.51990  -0.50230
 Alpha  occ. eigenvalues --   -0.48769  -0.48624  -0.48480
 Alpha virt. eigenvalues --    0.03482   0.04622   0.06459   0.07580   0.09021
 Alpha virt. eigenvalues --    0.09394   0.10415   0.10901   0.11391   0.12157
 Alpha virt. eigenvalues --    0.13488   0.14041   0.14709   0.15285   0.15577

 Mulliken charges:
               1
     1  O   -0.898072
     2  P    4.169658
     3  O   -1.313743
     4  O   -1.304154
     5  O   -0.852058
     6  C    1.230318
     7  F   -0.641237
     8  Cl   0.066015
     9  Cl   0.030727
    10  H    0.391501
    11  O   -1.254417
    12  H    0.375461
 Sum of Mulliken charges =  -0.00000

 Dipole moment (field-independent basis, Debye):
    X=              1.0726    Y=             -1.5463    Z=             -0.4205  Tot=              1.9283

 Test job not archived.
 1\1\GINC-SE229\SP\RHF\Aug-CC-pVDZ\C1H2Cl2F1O5P1\OHZDE\08-Apr-2025\0\\#
 t hf aug-cc-pvdz iop(5/13=1,5/36=2,99/5=2) pseudo=read geom=check gues
 s=(read,tcheck) scf=(maxcycle=1)\\title\\0,1\O,0,-0.694971,0.736548,-0
 .459997\P,0,-2.1211,0.052946,0.015528\O,0,-3.029636,1.170359,0.233203\
 O,0,-1.749382,-0.939188,1.186023\O,0,0.331359,-0.297032,-0.707817\C,0,
 1.401127,-0.020077,0.107809\F,0,1.037085,-0.044544,1.416158\Cl,0,2.150
 548,1.569373,-0.20735\Cl,0,2.530791,-1.351161,-0.21277\H,0,-1.249399,-
 0.525221,1.90072\O,0,-2.504686,-1.021044,-1.079087\H,0,-3.078859,-0.65

 Normal termination of Gaussian 16 at Tue Apr  8 23:39:55 2025.
