 Gaussian 16, Revision C.01,

 ----------------------------------------------------------------------
 #t hf aug-cc-pvdz symm=none int=(grid=ultrafine) guess=(read,tcheck) s
 table=(opt,rrhf)
 ----------------------------------------------------------------------
 -----
 title
 -----
 Symbolic Z-matrix:
 Charge =  0 Multiplicity = 1

 SCF Done:  E(RHF) =  -827.556739804     A.U. after   15 cycles
 Normal termination of Gaussian 16 at Tue Apr  8 22:49:20 2025.
 Gaussian 16:  ES64L-G16RevC.01  3-Jul-2019

 ----------------------------------------------------------------------
 #t hf aug-cc-pvdz iop(5/13=1,5/36=2,99/5=2) pseudo=read geom=check gue
 ss=(read,tcheck) scf=(maxcycle=1)
 ----------------------------------------------------------------------
 -----
 title
 -----
 Structure from the checkpoint file:  "BDE49_expt_1688_mol1.chk"
 Charge =  0 Multiplicity = 1

                         Standard orientation:
 ---------------------------------------------------------------------
 Center     Atomic      Atomic             Coordinates (Angstroms)
 Number     Number       Type             X           Y           Z
 ---------------------------------------------------------------------
      1          6           0        0.212676   -1.204279    0.335523
      2          6           0        1.566308   -1.213643    0.016559
      3          6           0        2.219721   -0.000002   -0.137673
      4          6           0        1.566312    1.213642    0.016552
      5          6           0        0.212680    1.204285    0.335515
      6          6           0       -0.479336    0.000004    0.500053
      7          1           0       -0.312309   -2.145730    0.454134
      8          1           0        2.116128   -2.137471   -0.111509
      9          6           0       -1.933689    0.000008    0.847472
     10          1           0        2.116135    2.137468   -0.111522
     11          9           0        3.534576   -0.000005   -0.443704
     12          1           0       -0.312303    2.145738    0.454121
     13          1           0       -2.223919   -0.889012    1.402400
     14         17           0       -3.009354   -0.000005   -0.645922
     15          1           0       -2.223918    0.889037    1.402385
 ---------------------------------------------------------------------

 SCF Done:  E(RHF) =  -827.999998155     A.U. after    2 cycles

 The electronic state is 1-A.
 Alpha  occ. eigenvalues -- -105.55595 -26.48352 -11.34741 -11.31949 -11.26963
 Alpha  occ. eigenvalues --  -11.26956 -11.26738 -11.26246 -11.26224 -10.60360
 Alpha  occ. eigenvalues --   -7.77291  -7.76925  -7.76919  -1.61279  -1.18602
 Alpha  occ. eigenvalues --   -1.10825  -1.04677  -1.02735  -0.91884  -0.87894
 Alpha  occ. eigenvalues --   -0.83124  -0.75499  -0.72168  -0.68941  -0.67979
 Alpha  occ. eigenvalues --   -0.64089  -0.63800  -0.62646  -0.58825  -0.58576
 Alpha  occ. eigenvalues --   -0.55614  -0.52515  -0.51304  -0.44911  -0.44649
 Alpha  occ. eigenvalues --   -0.37160  -0.35296
 Alpha virt. eigenvalues --    0.03309   0.03376   0.03747   0.05075   0.05485
 Alpha virt. eigenvalues --    0.07644   0.08027   0.08400   0.08837   0.09850
 Alpha virt. eigenvalues --    0.11363   0.12247   0.12475   0.13557   0.14116

 Mulliken charges:
               1
     1  C    0.255784
     2  C   -0.204937
     3  C    0.970998
     4  C   -0.204933
     5  C    0.255781
     6  C    1.564139
     7  H   -0.255356
     8  H   -0.191339
     9  C   -0.816798
    10  H   -0.191338
    11  F   -0.990173
    12  H   -0.255356
    13  H    0.077709
    14  Cl  -0.091886
    15  H    0.077706
 Sum of Mulliken charges =  -0.00000

 Dipole moment (field-independent basis, Debye):
    X=              0.2046    Y=              0.0000    Z=              2.0233  Tot=              2.0336

 Test job not archived.
 1\1\GINC-SE250\SP\RHF\Aug-CC-pVDZ\C7H6Cl1F1\OHZDE\08-Apr-2025\0\\#t hf
  aug-cc-pvdz iop(5/13=1,5/36=2,99/5=2) pseudo=read geom=check guess=(r
 ead,tcheck) scf=(maxcycle=1)\\title\\0,1\C,0,0.212676,-1.204279,0.3355
 23\C,0,1.566308,-1.213643,0.016559\C,0,2.219721,-0.000002,-0.137673\C,
 0,1.566312,1.213642,0.016552\C,0,0.21268,1.204285,0.335515\C,0,-0.4793
 36,0.000004,0.500053\H,0,-0.312309,-2.14573,0.454134\H,0,2.116128,-2.1
 37471,-0.111509\C,0,-1.933689,0.000008,0.847472\H,0,2.116135,2.137468,
 -0.111522\F,0,3.534576,-0.000005,-0.443704\H,0,-0.312303,2.145738,0.45

 Normal termination of Gaussian 16 at Tue Apr  8 22:49:27 2025.
