 Gaussian 16, Revision C.01,

 ----------------------------------------------------------------------
 #t hf aug-cc-pvdz symm=none int=(grid=ultrafine) guess=(read,tcheck) s
 table=(opt,rrhf)
 ----------------------------------------------------------------------
 -----
 title
 -----
 Symbolic Z-matrix:
 Charge =  0 Multiplicity = 1

 SCF Done:  E(RHF) =  -683.106609616     A.U. after   13 cycles
 Normal termination of Gaussian 16 at Tue Apr  8 23:29:19 2025.
 Gaussian 16:  ES64L-G16RevC.01  3-Jul-2019

 ----------------------------------------------------------------------
 #t hf aug-cc-pvdz iop(5/13=1,5/36=2,99/5=2) pseudo=read geom=check gue
 ss=(read,tcheck) scf=(maxcycle=1)
 ----------------------------------------------------------------------
 -----
 title
 -----
 Structure from the checkpoint file:  "BDE49_nonexpt_1334_mol1.chk"
 Charge =  0 Multiplicity = 1

                         Standard orientation:
 ---------------------------------------------------------------------
 Center     Atomic      Atomic             Coordinates (Angstroms)
 Number     Number       Type             X           Y           Z
 ---------------------------------------------------------------------
      1         15           0        0.642820   -0.001600    0.103116
      2          8           0        0.650860   -0.284824    1.546818
      3          8           0        1.311648    1.371501   -0.384965
      4          6           0       -0.962348    0.107715   -0.651959
      5          6           0       -2.095051    0.714855    0.153744
      6          6           0       -2.072536   -0.762398   -0.090234
      7          1           0       -2.807204    1.324097   -0.388716
      8          1           0       -1.863206    1.056857    1.154369
      9          1           0       -0.952523    0.284068   -1.721447
     10          1           0       -1.829179   -1.399145    0.751145
     11          1           0       -2.769032   -1.185618   -0.803356
     12          1           0        2.200212    1.500294   -0.030753
     13          8           0        1.482256   -1.088880   -0.753380
     14          1           0        1.600117   -1.899968   -0.245078
 ---------------------------------------------------------------------

 SCF Done:  E(RHF) =  -683.501904881     A.U. after    2 cycles

 The electronic state is 1-A.
 Alpha  occ. eigenvalues --  -84.42170 -20.58874 -20.58588 -20.49779 -11.25733
 Alpha  occ. eigenvalues --  -11.25603 -11.25516  -6.87482  -4.41600  -4.40902
 Alpha  occ. eigenvalues --   -4.40350  -1.52742  -1.46756  -1.38253  -1.16351
 Alpha  occ. eigenvalues --   -0.90960  -0.84162  -0.79489  -0.73149  -0.70707
 Alpha  occ. eigenvalues --   -0.66275  -0.66019  -0.61460  -0.58743  -0.54513
 Alpha  occ. eigenvalues --   -0.54465  -0.53759  -0.50701  -0.45884  -0.45369
 Alpha  occ. eigenvalues --   -0.44477  -0.44132
 Alpha virt. eigenvalues --    0.03438   0.03986   0.04155   0.04985   0.05767
 Alpha virt. eigenvalues --    0.06807   0.07689   0.09648   0.10218   0.12490
 Alpha virt. eigenvalues --    0.12814   0.14040   0.14587   0.14883   0.15437

 Mulliken charges:
               1
     1  P    4.296907
     2  O   -1.523290
     3  O   -1.379786
     4  C   -0.406486
     5  C    0.211721
     6  C    0.270016
     7  H   -0.108258
     8  H   -0.147766
     9  H   -0.263001
    10  H   -0.140017
    11  H   -0.112162
    12  H    0.354212
    13  O   -1.364998
    14  H    0.312907
 Sum of Mulliken charges =  -0.00000

 Dipole moment (field-independent basis, Debye):
    X=             -0.4153    Y=             -0.3315    Z=             -1.9902  Tot=              2.0599

 Test job not archived.
 1\1\GINC-SE060\SP\RHF\Aug-CC-pVDZ\C3H7O3P1\OHZDE\08-Apr-2025\0\\#t hf
 aug-cc-pvdz iop(5/13=1,5/36=2,99/5=2) pseudo=read geom=check guess=(re
 ad,tcheck) scf=(maxcycle=1)\\title\\0,1\P,0,0.64282,-0.0016,0.103116\O
 ,0,0.65086,-0.284824,1.546818\O,0,1.311648,1.371501,-0.384965\C,0,-0.9
 62348,0.107715,-0.651959\C,0,-2.095051,0.714855,0.153744\C,0,-2.072536
 ,-0.762398,-0.090234\H,0,-2.807204,1.324097,-0.388716\H,0,-1.863206,1.
 056857,1.154369\H,0,-0.952523,0.284068,-1.721447\H,0,-1.829179,-1.3991
 45,0.751145\H,0,-2.769032,-1.185618,-0.803356\H,0,2.200212,1.500294,-0

 Normal termination of Gaussian 16 at Tue Apr  8 23:29:24 2025.
