 Gaussian 16, Revision C.01,

 ----------------------------------------------------------------------
 #t hf aug-cc-pvdz symm=none int=(grid=ultrafine) guess=(read,tcheck) s
 table=(opt,rrhf)
 ----------------------------------------------------------------------
 -----
 title
 -----
 Symbolic Z-matrix:
 Charge =  0 Multiplicity = 1

 SCF Done:  E(RHF) =  -596.079537741     A.U. after   13 cycles
 Normal termination of Gaussian 16 at Wed Apr  9 00:07:33 2025.
 Gaussian 16:  ES64L-G16RevC.01  3-Jul-2019

 ----------------------------------------------------------------------
 #t hf aug-cc-pvdz iop(5/13=1,5/36=2,99/5=2) pseudo=read geom=check gue
 ss=(read,tcheck) scf=(maxcycle=1)
 ----------------------------------------------------------------------
 -----
 title
 -----
 Structure from the checkpoint file:  "BDE49_nonexpt_2252_mol1.chk"
 Charge =  0 Multiplicity = 1

                         Standard orientation:
 ---------------------------------------------------------------------
 Center     Atomic      Atomic             Coordinates (Angstroms)
 Number     Number       Type             X           Y           Z
 ---------------------------------------------------------------------
      1          8           0        0.530278   -0.000160   -0.810678
      2          6           0        1.442873   -0.000140    0.184200
      3         14           0       -1.157270   -0.000025   -0.533956
      4          8           0        1.138089    0.000159    1.352706
      5          6           0        2.855723   -0.000035   -0.340479
      6          6           0       -1.676011    1.558237    0.353173
      7          1           0       -1.266634    1.584552    1.365098
      8          1           0       -2.767667    1.608360    0.419207
      9          1           0       -1.334004    2.448599   -0.181657
     10          1           0        3.014372    0.879044   -0.969347
     11          1           0        3.014576   -0.879261   -0.969087
     12          1           0        3.558769    0.000171    0.489698
     13          6           0       -1.676225   -1.558080    0.353411
     14          1           0       -1.266850   -1.584296    1.365340
     15          1           0       -1.334340   -2.448571   -0.181282
     16          1           0       -2.767888   -1.608043    0.419453
     17          1           0       -1.673641   -0.000097   -1.920106
 ---------------------------------------------------------------------

 SCF Done:  E(RHF) =  -596.429846769     A.U. after    2 cycles

 The electronic state is 1-A.
 Alpha  occ. eigenvalues --  -69.55438 -20.56738 -20.53379 -11.39410 -11.25165
 Alpha  occ. eigenvalues --  -11.21508 -11.21505  -6.22031  -3.97495  -3.97339
 Alpha  occ. eigenvalues --   -3.97317  -1.52625  -1.43752  -1.02584  -0.96851
 Alpha  occ. eigenvalues --   -0.93626  -0.82196  -0.70560  -0.68129  -0.64803
 Alpha  occ. eigenvalues --   -0.63048  -0.58357  -0.57483  -0.57047  -0.56857
 Alpha  occ. eigenvalues --   -0.55506  -0.54416  -0.51616  -0.48168  -0.46089
 Alpha  occ. eigenvalues --   -0.44033  -0.43808
 Alpha virt. eigenvalues --    0.03257   0.03771   0.04143   0.04595   0.06008
 Alpha virt. eigenvalues --    0.06073   0.06460   0.07418   0.07485   0.08490
 Alpha virt. eigenvalues --    0.09381   0.10338   0.10667   0.12523   0.13864

 Mulliken charges:
               1
     1  O   -1.738676
     2  C    1.967150
     3  Si   2.333878
     4  O   -1.171672
     5  C   -0.734797
     6  C   -0.588592
     7  H    0.108545
     8  H    0.002393
     9  H   -0.015388
    10  H    0.233690
    11  H    0.233687
    12  H    0.186177
    13  C   -0.588553
    14  H    0.108512
    15  H   -0.015391
    16  H    0.002418
    17  H   -0.323382
 Sum of Mulliken charges =  -0.00000

 Dipole moment (field-independent basis, Debye):
    X=              0.0298    Y=             -0.0003    Z=             -1.3401  Tot=              1.3404

 Test job not archived.
 1\1\GINC-SE252\SP\RHF\Aug-CC-pVDZ\C4H10O2Si1\OHZDE\09-Apr-2025\0\\#t h
 f aug-cc-pvdz iop(5/13=1,5/36=2,99/5=2) pseudo=read geom=check guess=(
 read,tcheck) scf=(maxcycle=1)\\title\\0,1\O,0,0.530278,-0.00016,-0.810
 678\C,0,1.442873,-0.00014,0.1842\Si,0,-1.15727,-0.000025,-0.533956\O,0
 ,1.138089,0.000159,1.352706\C,0,2.855723,-0.000035,-0.340479\C,0,-1.67
 6011,1.558237,0.353173\H,0,-1.266634,1.584552,1.365098\H,0,-2.767667,1
 .60836,0.419207\H,0,-1.334004,2.448599,-0.181657\H,0,3.014372,0.879044
 ,-0.969347\H,0,3.014576,-0.879261,-0.969087\H,0,3.558769,0.000171,0.48

 Normal termination of Gaussian 16 at Wed Apr  9 00:07:40 2025.
