 Gaussian 16, Revision C.01,

 ----------------------------------------------------------------------
 #t hf aug-cc-pvdz symm=none int=(grid=ultrafine) guess=(read,tcheck) s
 table=(opt,rrhf)
 ----------------------------------------------------------------------
 -----
 title
 -----
 Symbolic Z-matrix:
 Charge =  0 Multiplicity = 1

 SCF Done:  E(RHF) =  -749.699458110     A.U. after   12 cycles
 Normal termination of Gaussian 16 at Tue Apr  8 23:40:31 2025.
 Gaussian 16:  ES64L-G16RevC.01  3-Jul-2019

 ----------------------------------------------------------------------
 #t hf aug-cc-pvdz iop(5/13=1,5/36=2,99/5=2) pseudo=read geom=check gue
 ss=(read,tcheck) scf=(maxcycle=1)
 ----------------------------------------------------------------------
 -----
 title
 -----
 Structure from the checkpoint file:  "BDE49_nonexpt_1632_mol1.chk"
 Charge =  0 Multiplicity = 1

                         Standard orientation:
 ---------------------------------------------------------------------
 Center     Atomic      Atomic             Coordinates (Angstroms)
 Number     Number       Type             X           Y           Z
 ---------------------------------------------------------------------
      1         15           0       -2.118337   -0.868700   -0.193928
      2         14           0       -0.838350    0.994925    0.146613
      3          6           0        3.160525   -0.543827   -0.087623
      4          6           0        0.940425    0.695000   -0.411875
      5          6           0        1.708773   -0.382133    0.375660
      6          1           0        1.468919    1.654338   -0.337750
      7          1           0        0.926994    0.440793   -1.478897
      8          1           0        1.194029   -1.345233    0.281946
      9          1           0        1.695712   -0.134865    1.443510
     10          1           0        3.717084    0.391075    0.029542
     11          1           0        3.207183   -0.826993   -1.143574
     12          1           0        3.678775   -1.315601    0.488499
     13          1           0       -3.259028   -0.326151    0.454457
     14          1           0       -1.667981   -1.547641    0.969048
     15          1           0       -0.857931    1.427940    1.567098
     16          1           0       -1.450137    2.069649   -0.674511
 ---------------------------------------------------------------------

 SCF Done:  E(RHF) =  -749.916211231     A.U. after    2 cycles

 The electronic state is 1-A.
 Alpha  occ. eigenvalues --  -84.26108 -69.53293 -11.23992 -11.22714 -11.22521
 Alpha  occ. eigenvalues --   -6.73376  -6.20317  -4.25753  -4.25569  -4.25034
 Alpha  occ. eigenvalues --   -3.95665  -3.95624  -3.95607  -1.06348  -0.93719
 Alpha  occ. eigenvalues --   -0.86195  -0.81490  -0.69347  -0.64093  -0.58582
 Alpha  occ. eigenvalues --   -0.55999  -0.55236  -0.50825  -0.49884  -0.48639
 Alpha  occ. eigenvalues --   -0.47679  -0.44568  -0.41491  -0.34162
 Alpha virt. eigenvalues --    0.03701   0.03798   0.03993   0.04262   0.06009
 Alpha virt. eigenvalues --    0.06128   0.06720   0.06916   0.08665   0.08868
 Alpha virt. eigenvalues --    0.09449   0.10189   0.10281   0.11038   0.12226

 Mulliken charges:
               1
     1  P   -1.198194
     2  Si   1.146744
     3  C   -0.350953
     4  C   -0.482415
     5  C   -0.423327
     6  H    0.075427
     7  H    0.122889
     8  H    0.133945
     9  H    0.122467
    10  H    0.160360
    11  H    0.166011
    12  H    0.120164
    13  H    0.332430
    14  H    0.356593
    15  H   -0.111215
    16  H   -0.170928
 Sum of Mulliken charges =  -0.00000

 Dipole moment (field-independent basis, Debye):
    X=              0.8400    Y=              0.0580    Z=              0.2125  Tot=              0.8684

 Test job not archived.
 1\1\GINC-SE398\SP\RHF\Aug-CC-pVDZ\C3H11P1Si1\OHZDE\08-Apr-2025\0\\#t h
 f aug-cc-pvdz iop(5/13=1,5/36=2,99/5=2) pseudo=read geom=check guess=(
 read,tcheck) scf=(maxcycle=1)\\title\\0,1\P,0,-2.118337,-0.8687,-0.193
 928\Si,0,-0.83835,0.994925,0.146613\C,0,3.160525,-0.543827,-0.087623\C
 ,0,0.940425,0.695,-0.411875\C,0,1.708773,-0.382133,0.37566\H,0,1.46891
 9,1.654338,-0.33775\H,0,0.926994,0.440793,-1.478897\H,0,1.194029,-1.34
 5233,0.281946\H,0,1.695712,-0.134865,1.44351\H,0,3.717084,0.391075,0.0
 29542\H,0,3.207183,-0.826993,-1.143574\H,0,3.678775,-1.315601,0.488499

 Normal termination of Gaussian 16 at Tue Apr  8 23:40:36 2025.
