 Gaussian 16, Revision C.01,

 ----------------------------------------------------------------------
 #t hf aug-cc-pvdz symm=none int=(grid=ultrafine) guess=(read,tcheck) s
 table=(opt,rrhf)
 ----------------------------------------------------------------------
 -----
 title
 -----
 Symbolic Z-matrix:
 Charge =  0 Multiplicity = 1

 SCF Done:  E(RHF) =  -2524.65972067     A.U. after   13 cycles
 Normal termination of Gaussian 16 at Wed Apr  9 00:16:08 2025.
 Gaussian 16:  ES64L-G16RevC.01  3-Jul-2019

 ----------------------------------------------------------------------
 #t hf aug-cc-pvdz iop(5/13=1,5/36=2,99/5=2) pseudo=read geom=check gue
 ss=(read,tcheck) scf=(maxcycle=1)
 ----------------------------------------------------------------------
 -----
 title
 -----
 Structure from the checkpoint file:  "BDE49_nonexpt_2531_mol1.chk"
 Charge =  0 Multiplicity = 1

                         Standard orientation:
 ---------------------------------------------------------------------
 Center     Atomic      Atomic             Coordinates (Angstroms)
 Number     Number       Type             X           Y           Z
 ---------------------------------------------------------------------
      1         17           0        2.692480   -0.059272    0.000046
      2         16           0        1.133935    1.318733    0.000002
      3         14           0       -0.536953   -0.022119   -0.000009
      4         17           0       -0.596538   -1.220609   -1.656261
      5         17           0       -0.596593   -1.220565    1.656273
      6         17           0       -2.124385    1.277502   -0.000052
 ---------------------------------------------------------------------

 SCF Done:  E(RHF) =  -2525.05813764     A.U. after    2 cycles

 The electronic state is 1-A.
 Alpha  occ. eigenvalues -- -105.61143-105.60075-105.59685-105.59685 -94.03221
 Alpha  occ. eigenvalues --  -69.71077 -10.65785 -10.65092 -10.64719 -10.64707
 Alpha  occ. eigenvalues --   -8.31137  -7.82735  -7.82267  -7.82231  -7.81983
 Alpha  occ. eigenvalues --   -7.81646  -7.81636  -7.81611  -7.81606  -7.81260
 Alpha  occ. eigenvalues --   -7.81260  -7.81257  -7.81253  -6.36631  -6.28913
 Alpha  occ. eigenvalues --   -6.28679  -6.28414  -4.11993  -4.11948  -4.11912
 Alpha  occ. eigenvalues --   -1.15327  -1.12128  -1.08091  -1.07688  -0.96132
 Alpha  occ. eigenvalues --   -0.73407  -0.61762  -0.60912  -0.60764  -0.56049
 Alpha  occ. eigenvalues --   -0.54655  -0.52681  -0.52358  -0.52138  -0.50022
 Alpha  occ. eigenvalues --   -0.49853  -0.48671  -0.45962  -0.40971
 Alpha virt. eigenvalues --    0.02202   0.04826   0.05913   0.06099   0.06666
 Alpha virt. eigenvalues --    0.08560   0.10298   0.11236   0.11437   0.12261
 Alpha virt. eigenvalues --    0.13058   0.14220   0.15038   0.15322   0.16319

 Mulliken charges:
               1
     1  Cl  -0.295649
     2  S   -0.357041
     3  Si   2.043599
     4  Cl  -0.458760
     5  Cl  -0.458760
     6  Cl  -0.473388
 Sum of Mulliken charges =  -0.00000

 Dipole moment (field-independent basis, Debye):
    X=             -0.2990    Y=              0.3070    Z=             -0.0000  Tot=              0.4286

 Test job not archived.
 1\1\GINC-SE179\SP\RHF\Aug-CC-pVDZ\Cl4S1Si1\OHZDE\09-Apr-2025\0\\#t hf
 aug-cc-pvdz iop(5/13=1,5/36=2,99/5=2) pseudo=read geom=check guess=(re
 ad,tcheck) scf=(maxcycle=1)\\title\\0,1\Cl,0,2.69248,-0.059273,0.00004
 6\S,0,1.133935,1.318732,0.000002\Si,0,-0.536953,-0.022119,-0.000009\Cl
 ,0,-0.596538,-1.220609,-1.656261\Cl,0,-0.596593,-1.220565,1.656273\Cl,
 0,-2.124385,1.277502,-0.000052\\Version=ES64L-G16RevC.01\State=1-A\HF=
 -2525.0581376\RMSD=2.670e-03\Dipole=-0.1176525,0.1207874,-0.0000044\Qu
 adrupole=-0.140436,0.905157,-0.764721,-0.4988812,0.0000184,-0.0000276\

 Normal termination of Gaussian 16 at Wed Apr  9 00:16:12 2025.
