 Gaussian 16, Revision C.01,

 ----------------------------------------------------------------------
 #t hf aug-cc-pvdz symm=none int=(grid=ultrafine) guess=(read,tcheck) s
 table=opt
 ----------------------------------------------------------------------
 -----
 title
 -----
 Symbolic Z-matrix:
 Charge =  0 Multiplicity = 2

 SCF Done:  E(UHF) =  -666.741561691     A.U. after   18 cycles
 Normal termination of Gaussian 16 at Wed Apr  9 00:35:57 2025.
 Gaussian 16:  ES64L-G16RevC.01  3-Jul-2019

 ----------------------------------------------------------------------
 #t hf aug-cc-pvdz iop(5/13=1,5/36=2,99/5=2) pseudo=read geom=check gue
 ss=(read,tcheck) scf=(maxcycle=1)
 ----------------------------------------------------------------------
 -----
 title
 -----
 Structure from the checkpoint file:  "BDE49_nonexpt_480_mol2.chk"
 Charge =  0 Multiplicity = 2

                         Standard orientation:
 ---------------------------------------------------------------------
 Center     Atomic      Atomic             Coordinates (Angstroms)
 Number     Number       Type             X           Y           Z
 ---------------------------------------------------------------------
      1          1           0        2.583485    0.197157    0.923443
      2          5           0        2.346672   -0.144223   -0.198015
      3         15           0       -0.356519   -0.005462   -0.094226
      4          8           0       -1.451711   -0.238105   -1.025767
      5          8           0       -0.387927   -0.909277    1.224416
      6          1           0       -0.920434   -1.703510    1.093648
      7          8           0       -0.153207    1.461216    0.484045
      8          1           0       -0.987078    1.901108    0.689082
      9          8           0        1.110152   -0.262798   -0.720533
 ---------------------------------------------------------------------

 SCF Done:  E(UHF) =  -667.099360644     A.U. after    2 cycles

 The electronic state is 2-A.
 Alpha  occ. eigenvalues --  -84.48327 -20.61622 -20.61345 -20.60384 -20.52396
 Alpha  occ. eigenvalues --   -7.67552  -6.93117  -4.47300  -4.46558  -4.46518
 Alpha  occ. eigenvalues --   -1.58281  -1.50270  -1.50010  -1.41046  -0.90833
 Alpha  occ. eigenvalues --   -0.80271  -0.76360  -0.69208  -0.67574  -0.64397
 Alpha  occ. eigenvalues --   -0.60448  -0.59531  -0.59036  -0.55681  -0.54246
 Alpha  occ. eigenvalues --   -0.48458  -0.47828  -0.35535
 Alpha virt. eigenvalues --    0.02988   0.03803   0.05024   0.05178   0.05827
 Alpha virt. eigenvalues --    0.08594   0.10196   0.10295   0.11186   0.11530
 Alpha virt. eigenvalues --    0.12840   0.14649   0.18222   0.19456   0.20406

  Beta  occ. eigenvalues --  -84.48290 -20.61611 -20.61333 -20.60252 -20.52389
  Beta  occ. eigenvalues --   -7.65579  -6.93060  -4.47250  -4.46501  -4.46449
  Beta  occ. eigenvalues --   -1.58136  -1.49987  -1.49932  -1.41010  -0.89950
  Beta  occ. eigenvalues --   -0.79257  -0.76300  -0.68828  -0.66573  -0.63695
  Beta  occ. eigenvalues --   -0.60197  -0.59287  -0.57107  -0.54302  -0.53902
  Beta  occ. eigenvalues --   -0.48339  -0.47819
  Beta virt. eigenvalues --    0.02948   0.03988   0.04360   0.05563   0.05815
  Beta virt. eigenvalues --    0.08240   0.09408   0.10256   0.10734   0.11497
  Beta virt. eigenvalues --    0.13619   0.14125   0.16416   0.18289   0.19494

 Mulliken charges and spin densities:
               1          2
     1  H    0.151647   0.062092
     2  B    0.037205   1.058868
     3  P    4.198741   0.018162
     4  O   -1.351323   0.000510
     5  O   -1.270854   0.003705
     6  H    0.377058  -0.000397
     7  O   -1.244900   0.002273
     8  H    0.378103   0.000365
     9  O   -1.275676  -0.145578
 Sum of Mulliken charges =  -0.00000   1.00000

 Dipole moment (field-independent basis, Debye):
    X=             -0.3020    Y=              0.2312    Z=              2.8124  Tot=              2.8380
                          Isotropic Fermi Contact Couplings
        Atom                 a.u.       MegaHertz       Gauss      10(-4) cm-1
     1  H(1)               0.02781     124.30106      44.35371      41.46237
     2  B(11)              0.33807     484.90951     173.02777     161.74840
     3  P(31)              0.05976     108.23494      38.62092      36.10329
     4  O(17)              0.00034      -0.20664      -0.07373      -0.06893
     5  O(17)              0.00116      -0.70379      -0.25113      -0.23476
     6  H(1)              -0.00009      -0.39935      -0.14250      -0.13321
     7  O(17)              0.00136      -0.82181      -0.29324      -0.27413
     8  H(1)               0.00003       0.15021       0.05360       0.05010

 Normal termination of Gaussian 16 at Wed Apr  9 00:36:00 2025.
