 Gaussian 16, Revision C.01,

 ----------------------------------------------------------------------
 #t hf aug-cc-pvdz symm=none int=(grid=ultrafine) guess=(read,tcheck) s
 table=(opt,rrhf)
 ----------------------------------------------------------------------
 -----
 title
 -----
 Symbolic Z-matrix:
 Charge =  0 Multiplicity = 1

 SCF Done:  E(RHF) =  -1097.36722578     A.U. after   12 cycles
 Normal termination of Gaussian 16 at Wed Apr  9 00:40:30 2025.
 Gaussian 16:  ES64L-G16RevC.01  3-Jul-2019

 ----------------------------------------------------------------------
 #t hf aug-cc-pvdz iop(5/13=1,5/36=2,99/5=2) pseudo=read geom=check gue
 ss=(read,tcheck) scf=(maxcycle=1)
 ----------------------------------------------------------------------
 -----
 title
 -----
 Structure from the checkpoint file:  "BDE49_nonexpt_650_mol1.chk"
 Charge =  0 Multiplicity = 1

                         Standard orientation:
 ---------------------------------------------------------------------
 Center     Atomic      Atomic             Coordinates (Angstroms)
 Number     Number       Type             X           Y           Z
 ---------------------------------------------------------------------
      1         17           0        2.026838   -0.962346    0.133962
      2         17           0        0.521948    1.689160    0.037108
      3          8           0       -0.587980   -0.787873   -0.390876
      4          6           0       -1.918110   -0.264920   -0.607847
      5          1           0       -2.325595   -0.850521   -1.432978
      6          1           0       -1.854790    0.780563   -0.915069
      7          6           0       -2.757149   -0.426341    0.646738
      8          1           0       -2.777989   -1.470628    0.964837
      9          1           0       -3.783134   -0.104568    0.448383
     10          1           0       -2.361404    0.180207    1.464484
     11          5           0        0.505786   -0.088067   -0.108834
 ---------------------------------------------------------------------

 SCF Done:  E(RHF) =  -1097.70334590     A.U. after    2 cycles

 The electronic state is 1-A.
 Alpha  occ. eigenvalues -- -105.57379-105.56576 -20.58333 -11.31635 -11.24645
 Alpha  occ. eigenvalues --  -10.62388 -10.61581  -7.79283  -7.78994  -7.78972
 Alpha  occ. eigenvalues --   -7.78485  -7.78190  -7.78157  -7.73551  -1.50333
 Alpha  occ. eigenvalues --   -1.09828  -1.05917  -1.03939  -0.88479  -0.74933
 Alpha  occ. eigenvalues --   -0.68608  -0.65056  -0.63359  -0.59912  -0.56646
 Alpha  occ. eigenvalues --   -0.53613  -0.53511  -0.49832  -0.49602  -0.47772
 Alpha  occ. eigenvalues --   -0.46922  -0.45801
 Alpha virt. eigenvalues --    0.03303   0.04024   0.04507   0.04959   0.06661
 Alpha virt. eigenvalues --    0.07183   0.07400   0.07493   0.10745   0.11237
 Alpha virt. eigenvalues --    0.12483   0.13331   0.14386   0.14909   0.15249

 Mulliken charges:
               1
     1  Cl  -0.384563
     2  Cl  -0.363895
     3  O   -0.973984
     4  C    0.648015
     5  H    0.033243
     6  H    0.178859
     7  C   -0.472890
     8  H    0.191703
     9  H    0.175856
    10  H    0.117395
    11  B    0.850261
 Sum of Mulliken charges =  -0.00000

 Dipole moment (field-independent basis, Debye):
    X=             -2.9274    Y=              0.1679    Z=             -0.3791  Tot=              2.9566

 Test job not archived.
 1\1\GINC-SE179\SP\RHF\Aug-CC-pVDZ\C2H5B1Cl2O1\OHZDE\09-Apr-2025\0\\#t
 hf aug-cc-pvdz iop(5/13=1,5/36=2,99/5=2) pseudo=read geom=check guess=
 (read,tcheck) scf=(maxcycle=1)\\title\\0,1\Cl,0,2.026838,-0.962347,0.1
 33962\Cl,0,0.521949,1.68916,0.037108\O,0,-0.58798,-0.787873,-0.390876\
 C,0,-1.91811,-0.264919,-0.607847\H,0,-2.325595,-0.85052,-1.432978\H,0,
 -1.85479,0.780564,-0.915069\C,0,-2.757149,-0.42634,0.646738\H,0,-2.777
 989,-1.470627,0.964837\H,0,-3.783134,-0.104567,0.448383\H,0,-2.361404,
 0.180208,1.464484\B,0,0.505786,-0.088067,-0.108834\\Version=ES64L-G16R

 Normal termination of Gaussian 16 at Wed Apr  9 00:40:34 2025.
