 Gaussian 16, Revision C.01,

 ----------------------------------------------------------------------
 #t hf aug-cc-pvdz symm=none int=(grid=ultrafine) guess=(read,tcheck) s
 table=(opt,rrhf)
 ----------------------------------------------------------------------
 -----
 title
 -----
 Symbolic Z-matrix:
 Charge =  0 Multiplicity = 1

 SCF Done:  E(RHF) =  -841.223807632     A.U. after   14 cycles
 Normal termination of Gaussian 16 at Tue Apr  8 22:41:38 2025.
 Gaussian 16:  ES64L-G16RevC.01  3-Jul-2019

 ----------------------------------------------------------------------
 #t hf aug-cc-pvdz iop(5/13=1,5/36=2,99/5=2) pseudo=read geom=check gue
 ss=(read,tcheck) scf=(maxcycle=1)
 ----------------------------------------------------------------------
 -----
 title
 -----
 Structure from the checkpoint file:  "BDE49_expt_1256_mol1.chk"
 Charge =  0 Multiplicity = 1

                         Standard orientation:
 ---------------------------------------------------------------------
 Center     Atomic      Atomic             Coordinates (Angstroms)
 Number     Number       Type             X           Y           Z
 ---------------------------------------------------------------------
      1          6           0        0.998382   -0.937149    0.000041
      2          6           0       -0.320665   -1.368545    0.000030
      3          6           0        1.345459    0.406548    0.000035
      4          6           0        0.312345    1.333181    0.000020
      5          6           0       -1.024873    0.961929    0.000009
      6          6           0       -1.310787   -0.396100    0.000015
      7          1           0       -0.567106   -2.420298    0.000034
      8          7           0       -2.735401   -0.826520    0.000004
      9          8           0       -3.579967    0.053252   -0.000017
     10          8           0       -2.951584   -2.026752    0.000005
     11          1           0       -1.812528    1.701198   -0.000002
     12          7           0        0.651903    2.782141    0.000015
     13          7           0        2.083511   -1.955617    0.000059
     14          1           0        2.379514    0.719025    0.000043
     15          8           0        3.230992   -1.542605   -0.000078
     16          8           0        1.744012   -3.126953   -0.000081
     17          8           0        1.836087    3.073687    0.000001
     18          8           0       -0.279433    3.569477   -0.000020
 ---------------------------------------------------------------------

 SCF Done:  E(RHF) =  -842.026055904     A.U. after    2 cycles

 The electronic state is 1-A.
 Alpha  occ. eigenvalues --  -20.62921 -20.62920 -20.62919 -20.62916 -20.62915
 Alpha  occ. eigenvalues --  -20.62915 -15.83413 -15.83413 -15.83410 -11.37393
 Alpha  occ. eigenvalues --  -11.37389 -11.37389 -11.35375 -11.35372 -11.35371
 Alpha  occ. eigenvalues --   -1.71190  -1.71099  -1.71099  -1.55018  -1.55018
 Alpha  occ. eigenvalues --   -1.54867  -1.28511  -1.18679  -1.18679  -1.06555
 Alpha  occ. eigenvalues --   -1.04118  -1.04118  -0.89693  -0.89693  -0.87023
 Alpha  occ. eigenvalues --   -0.81136  -0.81136  -0.80975  -0.79111  -0.78509
 Alpha  occ. eigenvalues --   -0.78508  -0.77888  -0.77888  -0.77486  -0.73594
 Alpha  occ. eigenvalues --   -0.64854  -0.64854  -0.61110  -0.54980  -0.53567
 Alpha  occ. eigenvalues --   -0.53567  -0.52681  -0.52540  -0.52540  -0.48814
 Alpha  occ. eigenvalues --   -0.48814  -0.48679  -0.45111  -0.45111
 Alpha virt. eigenvalues --   -0.02452  -0.02451   0.01277   0.02767   0.04917
 Alpha virt. eigenvalues --    0.04918   0.07541   0.08588   0.08588   0.08667
 Alpha virt. eigenvalues --    0.09416   0.09416   0.11872   0.11872   0.12618

 Mulliken charges:
               1
     1  C   -0.017083
     2  C    0.075203
     3  C    0.075067
     4  C   -0.017022
     5  C    0.075054
     6  C   -0.017085
     7  H   -0.156873
     8  N    3.129130
     9  O   -1.515104
    10  O   -1.515194
    11  H   -0.156880
    12  N    3.129150
    13  N    3.129133
    14  H   -0.156907
    15  O   -1.515115
    16  O   -1.515174
    17  O   -1.515112
    18  O   -1.515187
 Sum of Mulliken charges =  -0.00000

 Dipole moment (field-independent basis, Debye):
    X=             -0.0002    Y=             -0.0002    Z=              0.0003  Tot=              0.0004

 Test job not archived.
 1\1\GINC-SE070\SP\RHF\Aug-CC-pVDZ\C6H3N3O6\OHZDE\08-Apr-2025\0\\#t hf
 aug-cc-pvdz iop(5/13=1,5/36=2,99/5=2) pseudo=read geom=check guess=(re
 ad,tcheck) scf=(maxcycle=1)\\title\\0,1\C,0,-0.999319,-0.93615,-0.0000
 41\C,0,0.319296,-1.368865,-0.00003\C,0,-1.345052,0.407893,-0.000035\C,
 0,-0.311012,1.333493,-0.00002\C,0,1.025834,0.960904,-0.000009\C,0,1.31
 039,-0.397411,-0.000015\H,0,0.564685,-2.420864,-0.000034\N,0,2.734573,
 -0.829255,-0.000004\O,0,3.580018,0.049672,0.000017\O,0,2.949555,-2.029
 703,-0.000005\H,0,1.814228,1.699384,0.000002\N,0,-0.64912,2.782792,-0.

 Normal termination of Gaussian 16 at Tue Apr  8 22:41:53 2025.
