 Gaussian 16, Revision C.01,

 ----------------------------------------------------------------------
 #t hf aug-cc-pvdz symm=none int=(grid=ultrafine) guess=(read,tcheck) s
 table=(opt,rrhf)
 ----------------------------------------------------------------------
 -----
 title
 -----
 Symbolic Z-matrix:
 Charge =  0 Multiplicity = 1

 SCF Done:  E(RHF) =  -469.549926765     A.U. after   12 cycles
 Normal termination of Gaussian 16 at Tue Apr  8 23:54:32 2025.
 Gaussian 16:  ES64L-G16RevC.01  3-Jul-2019

 ----------------------------------------------------------------------
 #t hf aug-cc-pvdz iop(5/13=1,5/36=2,99/5=2) pseudo=read geom=check gue
 ss=(read,tcheck) scf=(maxcycle=1)
 ----------------------------------------------------------------------
 -----
 title
 -----
 Structure from the checkpoint file:  "BDE49_nonexpt_1961_mol1.chk"
 Charge =  0 Multiplicity = 1

                         Standard orientation:
 ---------------------------------------------------------------------
 Center     Atomic      Atomic             Coordinates (Angstroms)
 Number     Number       Type             X           Y           Z
 ---------------------------------------------------------------------
      1         14           0        1.849015    0.081708   -0.268332
      2          6           0        0.381288   -0.032888    0.912636
      3          5           0       -0.998792   -0.111676    0.166489
      4          1           0        1.940915   -1.126029   -1.121853
      5          1           0        3.118419    0.218815    0.487008
      6          8           0       -1.424884   -1.363769   -0.179124
      7          6           0       -1.849727    1.175471   -0.174904
      8          1           0        1.718083    1.264858   -1.155623
      9          1           0       -2.260415   -1.361095   -0.655850
     10          1           0       -1.227684    1.971851   -0.596679
     11          1           0       -2.275836    1.587423    0.748919
     12          1           0       -2.681682    0.997546   -0.865052
     13          1           0        0.439820    0.843809    1.567146
     14          1           0        0.545838   -0.928051    1.522782
 ---------------------------------------------------------------------

 SCF Done:  E(RHF) =  -469.776361902     A.U. after    2 cycles

 The electronic state is 1-A.
 Alpha  occ. eigenvalues --  -69.52342 -20.55604 -11.20986 -11.19799  -7.60840
 Alpha  occ. eigenvalues --   -6.19370  -3.94748  -3.94742  -3.94737  -1.45634
 Alpha  occ. eigenvalues --   -0.97484  -0.93719  -0.74787  -0.71146  -0.62612
 Alpha  occ. eigenvalues --   -0.59700  -0.56973  -0.55078  -0.52730  -0.51637
 Alpha  occ. eigenvalues --   -0.48516  -0.46943  -0.45795  -0.43621
 Alpha virt. eigenvalues --    0.02886   0.03888   0.03935   0.04476   0.06215
 Alpha virt. eigenvalues --    0.06429   0.06921   0.07753   0.07892   0.09268
 Alpha virt. eigenvalues --    0.09427   0.10284   0.10870   0.11198   0.12029

 Mulliken charges:
               1
     1  Si   0.886438
     2  C   -0.636279
     3  B    1.687080
     4  H   -0.164461
     5  H   -0.213823
     6  O   -1.252502
     7  C   -0.465355
     8  H   -0.207668
     9  H    0.565755
    10  H    0.079347
    11  H    0.105863
    12  H   -0.129190
    13  H   -0.105483
    14  H   -0.149724
 Sum of Mulliken charges =  -0.00000

 Dipole moment (field-independent basis, Debye):
    X=             -1.5695    Y=              0.7225    Z=              0.0266  Tot=              1.7280

 Test job not archived.
 1\1\GINC-SE341\SP\RHF\Aug-CC-pVDZ\C2H9B1O1Si1\OHZDE\08-Apr-2025\0\\#t
 hf aug-cc-pvdz iop(5/13=1,5/36=2,99/5=2) pseudo=read geom=check guess=
 (read,tcheck) scf=(maxcycle=1)\\title\\0,1\Si,0,1.849015,0.081708,-0.2
 68332\C,0,0.381288,-0.032888,0.912636\B,0,-0.998792,-0.111676,0.166489
 \H,0,1.940915,-1.126029,-1.121853\H,0,3.118419,0.218815,0.487008\O,0,-
 1.424884,-1.363769,-0.179124\C,0,-1.849727,1.175471,-0.174904\H,0,1.71
 8083,1.264858,-1.155623\H,0,-2.260415,-1.361095,-0.65585\H,0,-1.227684
 ,1.971851,-0.596679\H,0,-2.275836,1.587423,0.748919\H,0,-2.681682,0.99

 Normal termination of Gaussian 16 at Tue Apr  8 23:54:35 2025.
