 Gaussian 16, Revision C.01,

 ----------------------------------------------------------------------
 #t hf aug-cc-pvdz symm=none int=(grid=ultrafine) guess=(read,tcheck) s
 table=(opt,rrhf)
 ----------------------------------------------------------------------
 -----
 title
 -----
 Symbolic Z-matrix:
 Charge =  0 Multiplicity = 1

 SCF Done:  E(RHF) =  -189.264934881     A.U. after   12 cycles
 Normal termination of Gaussian 16 at Tue Apr  8 23:05:45 2025.
 Gaussian 16:  ES64L-G16RevC.01  3-Jul-2019

 ----------------------------------------------------------------------
 #t hf aug-cc-pvdz iop(5/13=1,5/36=2,99/5=2) pseudo=read geom=check gue
 ss=(read,tcheck) scf=(maxcycle=1)
 ----------------------------------------------------------------------
 -----
 title
 -----
 Structure from the checkpoint file:  "BDE49_expt_413_mol1.chk"
 Charge =  0 Multiplicity = 1

                         Standard orientation:
 ---------------------------------------------------------------------
 Center     Atomic      Atomic             Coordinates (Angstroms)
 Number     Number       Type             X           Y           Z
 ---------------------------------------------------------------------
      1          6           0        0.849482   -1.072948    0.064923
      2          7           0       -0.007055    0.019359   -0.380107
      3          1           0        0.917419   -1.136628    1.168684
      4          1           0        1.857537   -0.933430   -0.333175
      5          1           0        0.464576   -2.024832   -0.310306
      6          7           0        0.459848    1.297072    0.054021
      7          1           0        1.258653    1.545771   -0.520960
      8          1           0        0.786802    1.246656    1.025774
      9          6           0       -1.384685   -0.149202    0.059927
     10          1           0       -1.784334   -1.081384   -0.347222
     11          1           0       -1.977754    0.686015   -0.310856
     12          1           0       -1.481228   -0.184285    1.161563
 ---------------------------------------------------------------------

 SCF Done:  E(RHF) =  -189.472965176     A.U. after    2 cycles

 The electronic state is 1-A.
 Alpha  occ. eigenvalues --  -15.51475 -15.50955 -11.25564 -11.24728  -1.27652
 Alpha  occ. eigenvalues --   -1.07845  -0.96276  -0.84789  -0.71537  -0.68764
 Alpha  occ. eigenvalues --   -0.64606  -0.60542  -0.55708  -0.54589  -0.52560
 Alpha  occ. eigenvalues --   -0.45494  -0.40488
 Alpha virt. eigenvalues --    0.03556   0.04974   0.05168   0.05343   0.06312
 Alpha virt. eigenvalues --    0.06547   0.07345   0.07445   0.10935   0.14466
 Alpha virt. eigenvalues --    0.15510   0.16340   0.16654   0.17090   0.18714

 Mulliken charges:
               1
     1  C   -0.333957
     2  N   -0.350360
     3  H    0.172797
     4  H    0.089595
     5  H    0.104932
     6  N   -0.068720
     7  H    0.152578
     8  H    0.198972
     9  C   -0.366216
    10  H    0.127096
    11  H    0.059883
    12  H    0.213399
 Sum of Mulliken charges =  -0.00000

 Dipole moment (field-independent basis, Debye):
    X=              1.0465    Y=             -1.0748    Z=              1.1042  Tot=              1.8626

 Test job not archived.
 1\1\GINC-SE069\SP\RHF\Aug-CC-pVDZ\C2H8N2\OHZDE\08-Apr-2025\0\\#t hf au
 g-cc-pvdz iop(5/13=1,5/36=2,99/5=2) pseudo=read geom=check guess=(read
 ,tcheck) scf=(maxcycle=1)\\title\\0,1\C,0,0.849481,-1.072949,0.064923\
 N,0,-0.007055,0.019359,-0.380107\H,0,0.917418,-1.136629,1.168684\H,0,1
 .857536,-0.933431,-0.333175\H,0,0.464575,-2.024832,-0.310306\N,0,0.459
 849,1.297072,0.054021\H,0,1.258654,1.54577,-0.52096\H,0,0.786803,1.246
 655,1.025774\C,0,-1.384685,-0.149201,0.059927\H,0,-1.784335,-1.081383,
 -0.347222\H,0,-1.977753,0.686017,-0.310856\H,0,-1.481228,-0.184284,1.1

 Normal termination of Gaussian 16 at Tue Apr  8 23:05:48 2025.
