 Gaussian 16, Revision C.01,

 ----------------------------------------------------------------------
 #t hf aug-cc-pvdz symm=none int=(grid=ultrafine) guess=(read,tcheck) s
 table=(opt,rrhf)
 ----------------------------------------------------------------------
 -----
 title
 -----
 Symbolic Z-matrix:
 Charge =  0 Multiplicity = 1

 SCF Done:  E(RHF) =  -752.351361033     A.U. after   13 cycles
 Normal termination of Gaussian 16 at Wed Apr  9 00:25:11 2025.
 Gaussian 16:  ES64L-G16RevC.01  3-Jul-2019

 ----------------------------------------------------------------------
 #t hf aug-cc-pvdz iop(5/13=1,5/36=2,99/5=2) pseudo=read geom=check gue
 ss=(read,tcheck) scf=(maxcycle=1)
 ----------------------------------------------------------------------
 -----
 title
 -----
 Structure from the checkpoint file:  "BDE49_nonexpt_270_mol1.chk"
 Charge =  0 Multiplicity = 1

                         Standard orientation:
 ---------------------------------------------------------------------
 Center     Atomic      Atomic             Coordinates (Angstroms)
 Number     Number       Type             X           Y           Z
 ---------------------------------------------------------------------
      1          6           0        0.263638    0.455910    0.000007
      2          5           0       -1.138918   -0.314333    0.000014
      3          8           0       -2.247739    0.479614   -0.000018
      4          6           0        0.443853    1.296741    1.265607
      5          1           0        0.389345    0.685305    2.168367
      6          1           0       -0.355952    2.041417    1.309560
      7          6           0        0.443834    1.296754   -1.265589
      8         17           0        1.625460   -0.834311   -0.000010
      9          1           0       -0.355971    2.041430   -1.309523
     10          1           0        0.389313    0.685326   -2.168354
     11          1           0        1.405937    1.815091   -1.256983
     12          1           0        1.405956    1.815078    1.256991
     13          1           0       -3.061784   -0.035889   -0.000029
     14          8           0       -1.281894   -1.664267    0.000006
     15          1           0       -0.425954   -2.112020    0.000014
 ---------------------------------------------------------------------

 SCF Done:  E(RHF) =  -752.731971749     A.U. after    2 cycles

 The electronic state is 1-A.
 Alpha  occ. eigenvalues -- -105.55069 -20.56522 -20.56321 -11.30036 -11.24427
 Alpha  occ. eigenvalues --  -11.24406 -10.59868  -7.76776  -7.76480  -7.76455
 Alpha  occ. eigenvalues --   -7.64976  -1.49015  -1.44873  -1.12242  -0.99643
 Alpha  occ. eigenvalues --   -0.95533  -0.82329  -0.76103  -0.73259  -0.65976
 Alpha  occ. eigenvalues --   -0.61877  -0.60887  -0.59493  -0.57659  -0.56894
 Alpha  occ. eigenvalues --   -0.55440  -0.51934  -0.50050  -0.49910  -0.48016
 Alpha  occ. eigenvalues --   -0.44347  -0.43908
 Alpha virt. eigenvalues --    0.03166   0.04213   0.04287   0.04826   0.06246
 Alpha virt. eigenvalues --    0.06321   0.06841   0.07507   0.07978   0.09945
 Alpha virt. eigenvalues --    0.10356   0.11157   0.11808   0.13421   0.14489

 Mulliken charges:
               1
     1  C   -1.139160
     2  B    2.114431
     3  O   -1.329595
     4  C   -0.038863
     5  H    0.121378
     6  H    0.217695
     7  C   -0.038871
     8  Cl  -0.291696
     9  H    0.217696
    10  H    0.121381
    11  H    0.195201
    12  H    0.195203
    13  H    0.487777
    14  O   -1.373320
    15  H    0.540742
 Sum of Mulliken charges =   0.00000

 Dipole moment (field-independent basis, Debye):
    X=             -1.0809    Y=              0.9722    Z=              0.0001  Tot=              1.4538

 Test job not archived.
 1\1\GINC-SE162\SP\RHF\Aug-CC-pVDZ\C3H8B1Cl1O2\OHZDE\09-Apr-2025\0\\#t
 hf aug-cc-pvdz iop(5/13=1,5/36=2,99/5=2) pseudo=read geom=check guess=
 (read,tcheck) scf=(maxcycle=1)\\title\\0,1\C,0,0.263638,0.45591,0.0000
 07\B,0,-1.138918,-0.314333,0.000014\O,0,-2.247739,0.479614,-0.000018\C
 ,0,0.443853,1.296741,1.265607\H,0,0.389345,0.685305,2.168367\H,0,-0.35
 5952,2.041417,1.30956\C,0,0.443834,1.296754,-1.265589\Cl,0,1.62546,-0.
 834311,-0.00001\H,0,-0.355971,2.04143,-1.309523\H,0,0.389313,0.685326,
 -2.168354\H,0,1.405937,1.815091,-1.256983\H,0,1.405956,1.815078,1.2569

 Normal termination of Gaussian 16 at Wed Apr  9 00:25:17 2025.
