 Gaussian 16, Revision C.01,

 ----------------------------------------------------------------------
 #t hf aug-cc-pvdz symm=none int=(grid=ultrafine) guess=(read,tcheck) s
 table=(opt,rrhf)
 ----------------------------------------------------------------------
 -----
 title
 -----
 Symbolic Z-matrix:
 Charge =  0 Multiplicity = 1

 SCF Done:  E(RHF) =  -120.532520042     A.U. after   11 cycles
 Normal termination of Gaussian 16 at Wed Apr  9 00:34:46 2025.
 Gaussian 16:  ES64L-G16RevC.01  3-Jul-2019

 ----------------------------------------------------------------------
 #t hf aug-cc-pvdz iop(5/13=1,5/36=2,99/5=2) pseudo=read geom=check gue
 ss=(read,tcheck) scf=(maxcycle=1)
 ----------------------------------------------------------------------
 -----
 title
 -----
 Structure from the checkpoint file:  "BDE49_nonexpt_452_mol1.chk"
 Charge =  0 Multiplicity = 1

                         Standard orientation:
 ---------------------------------------------------------------------
 Center     Atomic      Atomic             Coordinates (Angstroms)
 Number     Number       Type             X           Y           Z
 ---------------------------------------------------------------------
      1          1           0       -2.370269   -0.383687   -0.000005
      2          1           0       -1.365490    1.446525    0.000002
      3          7           0       -0.147250   -0.418163   -0.000001
      4          5           0       -1.360971    0.252480   -0.000003
      5          6           0        1.185457    0.171278    0.000003
      6          1           0       -0.144416   -1.429221   -0.000004
      7          1           0        1.092631    1.257348    0.000008
      8          1           0        1.755203   -0.126943   -0.886579
      9          1           0        1.755200   -0.126950    0.886584
 ---------------------------------------------------------------------

 SCF Done:  E(RHF) =  -120.665216884     A.U. after    2 cycles

 The electronic state is 1-A.
 Alpha  occ. eigenvalues --  -15.49650 -11.26558  -7.57276  -1.19295  -0.93101
 Alpha  occ. eigenvalues --   -0.75841  -0.66683  -0.61022  -0.57774  -0.54119
 Alpha  occ. eigenvalues --   -0.46702  -0.43682
 Alpha virt. eigenvalues --    0.03427   0.04611   0.04838   0.05473   0.06353
 Alpha virt. eigenvalues --    0.06571   0.06959   0.10077   0.11742   0.13487
 Alpha virt. eigenvalues --    0.14447   0.14692   0.15658   0.16371   0.17491

 Mulliken charges:
               1
     1  H    0.233623
     2  H    0.091656
     3  N    0.301287
     4  B   -0.492581
     5  C   -0.462119
     6  H    0.052463
     7  H    0.039328
     8  H    0.118172
     9  H    0.118171
 Sum of Mulliken charges =  -0.00000

 Dipole moment (field-independent basis, Debye):
    X=              1.4847    Y=             -0.7233    Z=             -0.0000  Tot=              1.6515

 Test job not archived.
 1\1\GINC-SE419\SP\RHF\Aug-CC-pVDZ\C1H6B1N1\OHZDE\09-Apr-2025\0\\#t hf
 aug-cc-pvdz iop(5/13=1,5/36=2,99/5=2) pseudo=read geom=check guess=(re
 ad,tcheck) scf=(maxcycle=1)\\title\\0,1\H,0,-2.370269,-0.383687,-0.000
 005\H,0,-1.36549,1.446525,0.000002\N,0,-0.14725,-0.418163,-0.000001\B,
 0,-1.360971,0.25248,-0.000003\C,0,1.185457,0.171278,0.000003\H,0,-0.14
 4416,-1.429221,-0.000004\H,0,1.092631,1.257348,0.000008\H,0,1.755203,-
 0.126943,-0.886579\H,0,1.7552,-0.12695,0.886584\\Version=ES64L-G16RevC
 .01\State=1-A\HF=-120.6652169\RMSD=1.007e-02\Dipole=0.5841105,-0.28456

 Normal termination of Gaussian 16 at Wed Apr  9 00:34:47 2025.
