 Gaussian 16, Revision C.01,

 ----------------------------------------------------------------------
 #t hf aug-cc-pvdz symm=none int=(grid=ultrafine) guess=(read,tcheck) s
 table=(opt,rrhf)
 ----------------------------------------------------------------------
 -----
 title
 -----
 Symbolic Z-matrix:
 Charge =  0 Multiplicity = 1

 SCF Done:  E(RHF) =  -664.377528425     A.U. after   13 cycles
 Normal termination of Gaussian 16 at Tue Apr  8 23:23:02 2025.
 Gaussian 16:  ES64L-G16RevC.01  3-Jul-2019

 ----------------------------------------------------------------------
 #t hf aug-cc-pvdz iop(5/13=1,5/36=2,99/5=2) pseudo=read geom=check gue
 ss=(read,tcheck) scf=(maxcycle=1)
 ----------------------------------------------------------------------
 -----
 title
 -----
 Structure from the checkpoint file:  "BDE49_nonexpt_1217_mol1.chk"
 Charge =  0 Multiplicity = 1

                         Standard orientation:
 ---------------------------------------------------------------------
 Center     Atomic      Atomic             Coordinates (Angstroms)
 Number     Number       Type             X           Y           Z
 ---------------------------------------------------------------------
      1         16           0       -2.299315   -0.044102   -0.000034
      2          8           0       -0.718294   -0.745879    0.000001
      3          6           0        0.359529    0.082606    0.000042
      4          8           0        0.280272    1.283156    0.000015
      5          6           0        1.635431   -0.733206    0.000016
      6          6           0        2.892162    0.133979    0.000006
      7          1           0        1.601366   -1.393265   -0.872268
      8          1           0        1.601389   -1.393279    0.872289
      9          1           0        2.925068    0.777830   -0.880481
     10          1           0        3.784090   -0.496337   -0.000012
     11          1           0        2.925092    0.777814    0.880504
     12          1           0       -1.866516    1.234380    0.000009
 ---------------------------------------------------------------------

 SCF Done:  E(RHF) =  -664.705193883     A.U. after    2 cycles

 The electronic state is 1-A.
 Alpha  occ. eigenvalues --  -94.01835 -20.61581 -20.55122 -11.40434 -11.26486
 Alpha  occ. eigenvalues --  -11.23933  -8.29276  -6.27143  -6.26910  -6.26629
 Alpha  occ. eigenvalues --   -1.55086  -1.46361  -1.08263  -1.01123  -0.89809
 Alpha  occ. eigenvalues --   -0.78934  -0.72192  -0.67969  -0.67646  -0.61017
 Alpha  occ. eigenvalues --   -0.58534  -0.54217  -0.53488  -0.51954  -0.51933
 Alpha  occ. eigenvalues --   -0.50138  -0.45745  -0.38114
 Alpha virt. eigenvalues --    0.03481   0.04462   0.04656   0.04767   0.05777
 Alpha virt. eigenvalues --    0.07693   0.08721   0.09104   0.11216   0.11397
 Alpha virt. eigenvalues --    0.13065   0.14811   0.15130   0.15529   0.15750

 Mulliken charges:
               1
     1  S    0.253524
     2  O   -1.359703
     3  C    1.813061
     4  O   -1.163208
     5  C   -0.571028
     6  C   -0.286478
     7  H    0.222680
     8  H    0.222683
     9  H    0.171248
    10  H    0.127274
    11  H    0.171246
    12  H    0.398702
 Sum of Mulliken charges =  -0.00000

 Dipole moment (field-independent basis, Debye):
    X=              1.1387    Y=             -0.9786    Z=              0.0001  Tot=              1.5014

 Test job not archived.
 1\1\GINC-SE105\SP\RHF\Aug-CC-pVDZ\C3H6O2S1\OHZDE\08-Apr-2025\0\\#t hf
 aug-cc-pvdz iop(5/13=1,5/36=2,99/5=2) pseudo=read geom=check guess=(re
 ad,tcheck) scf=(maxcycle=1)\\title\\0,1\S,0,-2.299315,-0.044102,-0.000
 034\O,0,-0.718294,-0.745879,0.000001\C,0,0.359529,0.082606,0.000042\O,
 0,0.280272,1.283156,0.000015\C,0,1.635431,-0.733206,0.000016\C,0,2.892
 162,0.133979,0.000006\H,0,1.601366,-1.393265,-0.872268\H,0,1.601389,-1
 .393279,0.872289\H,0,2.925068,0.77783,-0.880481\H,0,3.78409,-0.496337,
 -0.000012\H,0,2.925092,0.777814,0.880504\H,0,-1.866516,1.23438,0.00000

 Normal termination of Gaussian 16 at Tue Apr  8 23:23:06 2025.
