 Gaussian 16, Revision C.01,

 ----------------------------------------------------------------------
 #t hf aug-cc-pvdz symm=none int=(grid=ultrafine) guess=(read,tcheck) s
 table=(opt,rrhf)
 ----------------------------------------------------------------------
 -----
 title
 -----
 Symbolic Z-matrix:
 Charge =  0 Multiplicity = 1

 SCF Done:  E(RHF) =  -193.081503218     A.U. after   13 cycles
 Normal termination of Gaussian 16 at Wed Apr  9 00:35:46 2025.
 Gaussian 16:  ES64L-G16RevC.01  3-Jul-2019

 ----------------------------------------------------------------------
 #t hf aug-cc-pvdz iop(5/13=1,5/36=2,99/5=2) pseudo=read geom=check gue
 ss=(read,tcheck) scf=(maxcycle=1)
 ----------------------------------------------------------------------
 -----
 title
 -----
 Structure from the checkpoint file:  "BDE49_nonexpt_510_mol1.chk"
 Charge =  0 Multiplicity = 1

                         Standard orientation:
 ---------------------------------------------------------------------
 Center     Atomic      Atomic             Coordinates (Angstroms)
 Number     Number       Type             X           Y           Z
 ---------------------------------------------------------------------
      1          1           0       -2.714228   -0.763587   -0.000201
      2          5           0       -1.912658    0.114798   -0.000020
      3          6           0        0.643966   -0.025226    0.000009
      4          8           0        1.805128    0.076939   -0.000008
      5          7           0       -0.541656   -0.219435    0.000010
      6          1           0       -2.235706    1.261487    0.000243
 ---------------------------------------------------------------------

 SCF Done:  E(RHF) =  -193.267946680     A.U. after    2 cycles

 The electronic state is 1-A.
 Alpha  occ. eigenvalues --  -20.61319 -15.53301 -11.43325  -7.64918  -1.56032
 Alpha  occ. eigenvalues --   -1.28373  -0.90951  -0.74561  -0.68290  -0.67183
 Alpha  occ. eigenvalues --   -0.63405  -0.56052  -0.49954  -0.44956
 Alpha virt. eigenvalues --    0.03387   0.04174   0.04773   0.04893   0.08123
 Alpha virt. eigenvalues --    0.09293   0.09466   0.10269   0.10904   0.13590
 Alpha virt. eigenvalues --    0.13691   0.18519   0.20488   0.21094   0.22586

 Mulliken charges:
               1
     1  H    0.190023
     2  B   -0.394665
     3  C    0.110566
     4  O   -0.759910
     5  N    0.681141
     6  H    0.172845
 Sum of Mulliken charges =   0.00000

 Dipole moment (field-independent basis, Debye):
    X=             -1.1319    Y=              0.3471    Z=             -0.0001  Tot=              1.1840

 Test job not archived.
 1\1\GINC-SE460\SP\RHF\Aug-CC-pVDZ\C1H2B1N1O1\OHZDE\09-Apr-2025\0\\#t h
 f aug-cc-pvdz iop(5/13=1,5/36=2,99/5=2) pseudo=read geom=check guess=(
 read,tcheck) scf=(maxcycle=1)\\title\\0,1\H,0,-2.714228,-0.763587,-0.0
 00201\B,0,-1.912658,0.114798,-0.00002\C,0,0.643966,-0.025226,0.000009\
 O,0,1.805128,0.076939,-0.000008\N,0,-0.541656,-0.219435,0.00001\H,0,-2
 .235706,1.261487,0.000243\\Version=ES64L-G16RevC.01\State=1-A\HF=-193.
 2679467\RMSD=1.589e-02\Dipole=-0.4453418,0.1365747,-0.0000255\Quadrupo
 le=-1.715781,0.1384902,1.5772908,-0.3879878,0.0001133,-0.0002777\PG=C0

 Normal termination of Gaussian 16 at Wed Apr  9 00:35:48 2025.
