 Gaussian 16, Revision C.01,

 ----------------------------------------------------------------------
 #t hf aug-cc-pvdz symm=none int=(grid=ultrafine) guess=(read,tcheck) s
 table=(opt,rrhf)
 ----------------------------------------------------------------------
 -----
 title
 -----
 Symbolic Z-matrix:
 Charge =  0 Multiplicity = 1

 SCF Done:  E(RHF) =  -464.448681214     A.U. after   12 cycles
 Normal termination of Gaussian 16 at Wed Apr  9 00:41:26 2025.
 Gaussian 16:  ES64L-G16RevC.01  3-Jul-2019

 ----------------------------------------------------------------------
 #t hf aug-cc-pvdz iop(5/13=1,5/36=2,99/5=2) pseudo=read geom=check gue
 ss=(read,tcheck) scf=(maxcycle=1)
 ----------------------------------------------------------------------
 -----
 title
 -----
 Structure from the checkpoint file:  "BDE49_nonexpt_608_mol1.chk"
 Charge =  0 Multiplicity = 1

                         Standard orientation:
 ---------------------------------------------------------------------
 Center     Atomic      Atomic             Coordinates (Angstroms)
 Number     Number       Type             X           Y           Z
 ---------------------------------------------------------------------
      1          6           0        1.988878   -1.270014    0.446708
      2          6           0        0.996575   -1.264189   -0.726193
      3          6           0        2.853530   -0.000267    0.458312
      4          1           0        2.622683   -2.160934    0.395785
      5          1           0        1.440150   -1.346908    1.395003
      6          6           0        1.988641    1.269336    0.448997
      7          1           0        3.499012    0.000593   -0.429734
      8          1           0        3.520044   -0.000990    1.327036
      9          6           0        0.996364    1.265447   -0.723929
     10          1           0        2.622283    2.160464    0.399704
     11          1           0        1.439863    1.344403    1.397407
     12          6           0        0.112298    0.000570   -0.744600
     13          1           0        1.558634    1.311533   -1.665095
     14          1           0        0.354850    2.150649   -0.690473
     15          1           0        0.355218   -2.149563   -0.694315
     16          1           0        1.558845   -1.308493   -1.667442
     17          5           0       -2.271284   -0.000200    0.184349
     18          8           0       -3.163106   -0.001305    1.243337
     19          8           0       -2.802666    0.001276   -1.085523
     20          1           0       -3.762907    0.001246   -1.054451
     21          1           0       -2.748707   -0.002374    2.108550
     22          7           0       -0.864757   -0.000497    0.347008
     23          1           0       -0.474203    0.001348   -1.664488
     24          1           0       -0.467589   -0.001564    1.273424
 ---------------------------------------------------------------------

 SCF Done:  E(RHF) =  -464.936964046     A.U. after    2 cycles

 The electronic state is 1-A.
 Alpha  occ. eigenvalues --  -20.54614 -20.53700 -15.47456 -11.25695 -11.22657
 Alpha  occ. eigenvalues --  -11.22646 -11.22597 -11.22154 -11.22120  -7.63334
 Alpha  occ. eigenvalues --   -1.46605  -1.42371  -1.19092  -1.09493  -1.00394
 Alpha  occ. eigenvalues --   -0.98614  -0.83621  -0.83571  -0.77984  -0.75687
 Alpha  occ. eigenvalues --   -0.73701  -0.66821  -0.65374  -0.63242  -0.61900
 Alpha  occ. eigenvalues --   -0.60666  -0.57169  -0.56539  -0.54791  -0.53548
 Alpha  occ. eigenvalues --   -0.53473  -0.52705  -0.51403  -0.49575  -0.48182
 Alpha  occ. eigenvalues --   -0.46395  -0.45401  -0.43801  -0.39997
 Alpha virt. eigenvalues --    0.02915   0.03603   0.03714   0.03911   0.05044
 Alpha virt. eigenvalues --    0.05364   0.05576   0.05808   0.05995   0.08031
 Alpha virt. eigenvalues --    0.08336   0.08840   0.08888   0.09526   0.10566

 Mulliken charges:
               1
     1  C   -0.209071
     2  C   -0.017441
     3  C   -0.238979
     4  H    0.094682
     5  H    0.168658
     6  C   -0.209113
     7  H    0.149306
     8  H    0.080200
     9  C   -0.017592
    10  H    0.094687
    11  H    0.168690
    12  C   -1.756767
    13  H    0.175165
    14  H    0.093547
    15  H    0.093559
    16  H    0.175122
    17  B    1.653538
    18  O   -1.566253
    19  O   -1.323770
    20  H    0.530360
    21  H    0.531703
    22  N    1.235131
    23  H    0.022222
    24  H    0.072414
 Sum of Mulliken charges =   0.00000

 Dipole moment (field-independent basis, Debye):
    X=              1.1580    Y=             -0.0019    Z=              1.3457  Tot=              1.7753

 Test job not archived.
 1\1\GINC-SE363\SP\RHF\Aug-CC-pVDZ\C6H14B1N1O2\OHZDE\09-Apr-2025\0\\#t
 hf aug-cc-pvdz iop(5/13=1,5/36=2,99/5=2) pseudo=read geom=check guess=
 (read,tcheck) scf=(maxcycle=1)\\title\\0,1\C,0,-1.988878,1.270014,0.44
 6708\C,0,-0.996575,1.264189,-0.726193\C,0,-2.85353,0.000267,0.458312\H
 ,0,-2.622683,2.160934,0.395785\H,0,-1.44015,1.346908,1.395003\C,0,-1.9
 88641,-1.269336,0.448997\H,0,-3.499012,-0.000593,-0.429734\H,0,-3.5200
 44,0.00099,1.327036\C,0,-0.996364,-1.265447,-0.723929\H,0,-2.622283,-2
 .160464,0.399704\H,0,-1.439863,-1.344403,1.397407\C,0,-0.112298,-0.000

 Normal termination of Gaussian 16 at Wed Apr  9 00:41:41 2025.
