 Gaussian 16, Revision C.01,

 ----------------------------------------------------------------------
 #t hf aug-cc-pvdz symm=none int=(grid=ultrafine) guess=(read,tcheck) s
 table=(opt,rrhf)
 ----------------------------------------------------------------------
 -----
 title
 -----
 Symbolic Z-matrix:
 Charge =  0 Multiplicity = 1

 SCF Done:  E(RHF) =  -510.620459228     A.U. after   12 cycles

 1\1\GINC-SE339\Stability\RHF\Aug-CC-pVDZ\B2Cl1H3\OHZDE\08-Apr-2025\0\\
 #t hf aug-cc-pvdz symm=none int=(grid=ultrafine) guess=(read,tcheck) s
 table=(opt,rrhf)\\title\\0,1\B,0,1.905791,-0.26085,-0.000034\B,0,0.537
 251,0.668237,0.000203\Cl,0,-1.03255,-0.156835,-0.00006\H,0,2.422436,-0
 .615314,1.016735\H,0,2.423299,-0.613535,-1.016982\H,0,0.492404,1.85810
 4,0.000417\\Version=ES64L-G16RevC.01\HF=-510.6204592\RMSD=9.259e-09\Di
 pole=0.4666388,0.21742,0.0001055\Quadrupole=-0.4661074,0.2559188,0.210
 1885,1.0024806,0.0008107,0.0009683\PG=Unknown\\@

 Normal termination of Gaussian 16 at Tue Apr  8 23:39:05 2025.
 Gaussian 16:  ES64L-G16RevC.01  3-Jul-2019

 ----------------------------------------------------------------------
 #t hf aug-cc-pvdz iop(5/13=1,5/36=2,99/5=2) pseudo=read geom=check gue
 ss=(read,tcheck) scf=(maxcycle=1)
 ----------------------------------------------------------------------
 -----
 title
 -----
 Structure from the checkpoint file:  "BDE49_nonexpt_15_mol1.chk"
 Charge =  0 Multiplicity = 1

                         Standard orientation:
 ---------------------------------------------------------------------
 Center     Atomic      Atomic             Coordinates (Angstroms)
 Number     Number       Type             X           Y           Z
 ---------------------------------------------------------------------
      1          5           0       -1.905791   -0.260850    0.000034
      2          5           0       -0.537251    0.668237   -0.000203
      3         17           0        1.032550   -0.156835    0.000060
      4          1           0       -2.422436   -0.615314   -1.016735
      5          1           0       -2.423299   -0.613535    1.016982
      6          1           0       -0.492404    1.858104   -0.000417
 ---------------------------------------------------------------------

 SCF Done:  E(RHF) =  -510.749486122     A.U. after    2 cycles

 The electronic state is 1-A.
 Alpha  occ. eigenvalues -- -105.56796 -10.61780  -7.78664  -7.78409  -7.78347
 Alpha  occ. eigenvalues --   -7.64569  -7.60293  -1.07059  -0.76493  -0.65943
 Alpha  occ. eigenvalues --   -0.55754  -0.51951  -0.51306  -0.48349  -0.42521
 Alpha virt. eigenvalues --    0.02825   0.03803   0.04211   0.04638   0.06025
 Alpha virt. eigenvalues --    0.06779   0.07455   0.09308   0.09311   0.09612
 Alpha virt. eigenvalues --    0.13375   0.14343   0.14869   0.16010   0.17127

 Mulliken charges:
               1
     1  B   -0.370066
     2  B    0.068483
     3  Cl  -0.360462
     4  H    0.216694
     5  H    0.216768
     6  H    0.228585
 Sum of Mulliken charges =  -0.00000

 Dipole moment (field-independent basis, Debye):
    X=             -1.1844    Y=              0.5393    Z=             -0.0003  Tot=              1.3014

 Test job not archived.
 1\1\GINC-SE339\SP\RHF\Aug-CC-pVDZ\B2Cl1H3\OHZDE\08-Apr-2025\0\\#t hf a
 ug-cc-pvdz iop(5/13=1,5/36=2,99/5=2) pseudo=read geom=check guess=(rea
 d,tcheck) scf=(maxcycle=1)\\title\\0,1\B,0,1.905791,-0.26085,-0.000034
 \B,0,0.537251,0.668237,0.000203\Cl,0,-1.03255,-0.156835,-0.00006\H,0,2
 .422436,-0.615314,1.016735\H,0,2.423299,-0.613535,-1.016982\H,0,0.4924
 04,1.858104,0.000417\\Version=ES64L-G16RevC.01\State=1-A\HF=-510.74948
 61\RMSD=1.834e-02\Dipole=0.4659658,0.212173,0.000102\Quadrupole=-0.393
 8855,0.2449526,0.1489329,0.9827076,0.0007873,0.000945\PG=C01 [X(B2Cl1H

 Normal termination of Gaussian 16 at Tue Apr  8 23:39:07 2025.
