 Gaussian 16, Revision C.01,

 ----------------------------------------------------------------------
 #t hf aug-cc-pvdz symm=none int=(grid=ultrafine) guess=(read,tcheck) s
 table=(opt,rrhf)
 ----------------------------------------------------------------------
 -----
 title
 -----
 Symbolic Z-matrix:
 Charge =  0 Multiplicity = 1

 SCF Done:  E(RHF) =  -885.818075455     A.U. after   15 cycles
 Normal termination of Gaussian 16 at Wed Apr  9 00:12:12 2025.
 Gaussian 16:  ES64L-G16RevC.01  3-Jul-2019

 ----------------------------------------------------------------------
 #t hf aug-cc-pvdz iop(5/13=1,5/36=2,99/5=2) pseudo=read geom=check gue
 ss=(read,tcheck) scf=(maxcycle=1)
 ----------------------------------------------------------------------
 -----
 title
 -----
 Structure from the checkpoint file:  "BDE49_nonexpt_2367_mol1.chk"
 Charge =  0 Multiplicity = 1

                         Standard orientation:
 ---------------------------------------------------------------------
 Center     Atomic      Atomic             Coordinates (Angstroms)
 Number     Number       Type             X           Y           Z
 ---------------------------------------------------------------------
      1         14           0       -1.921820   -0.791695   -0.624506
      2         14           0       -2.912465    0.928714    0.660822
      3          8           0       -0.396509   -1.214601   -0.098941
      4          1           0       -1.888800   -0.391806   -2.054821
      5          1           0       -2.700577   -2.040445   -0.493291
      6          1           0       -4.324917    1.069869    0.225144
      7          1           0       -2.228719    2.229011    0.464008
      8          6           0        0.783987   -0.522971   -0.065783
      9          1           0       -2.890301    0.587878    2.103114
     10          6           0        1.848829   -1.110016    0.621886
     11          6           0        0.955092    0.714080   -0.690986
     12          6           0        3.075115   -0.458323    0.683536
     13          6           0        3.253234    0.779218    0.064398
     14          6           0        2.189464    1.358468   -0.620931
     15          1           0        1.693126   -2.070964    1.096633
     16          1           0        3.896659   -0.920406    1.219476
     17          1           0        4.210479    1.284173    0.115611
     18          1           0        2.314262    2.318616   -1.108882
     19          1           0        0.136520    1.169881   -1.236608
 ---------------------------------------------------------------------

 SCF Done:  E(RHF) =  -886.197479975     A.U. after    2 cycles

 The electronic state is 1-A.
 Alpha  occ. eigenvalues --  -69.56757 -69.52989 -20.56179 -11.31512 -11.25128
 Alpha  occ. eigenvalues --  -11.24978 -11.24391 -11.23896 -11.23848  -6.23371
 Alpha  occ. eigenvalues --   -6.20216  -3.98834  -3.98688  -3.98662  -3.95572
 Alpha  occ. eigenvalues --   -3.95567  -3.95560  -1.47605  -1.15313  -1.02404
 Alpha  occ. eigenvalues --   -1.01235  -0.85931  -0.84113  -0.78088  -0.74269
 Alpha  occ. eigenvalues --   -0.69962  -0.66855  -0.64317  -0.62063  -0.60470
 Alpha  occ. eigenvalues --   -0.59980  -0.55275  -0.53071  -0.51582  -0.50024
 Alpha  occ. eigenvalues --   -0.49327  -0.49078  -0.46647  -0.41176  -0.35302
 Alpha  occ. eigenvalues --   -0.32504
 Alpha virt. eigenvalues --    0.03468   0.03707   0.03808   0.04025   0.04993
 Alpha virt. eigenvalues --    0.05277   0.06837   0.07056   0.07216   0.07536
 Alpha virt. eigenvalues --    0.08228   0.09234   0.09531   0.09969   0.10146

 Mulliken charges:
               1
     1  Si   1.095470
     2  Si   0.297964
     3  O   -2.298641
     4  H   -0.055997
     5  H   -0.185344
     6  H   -0.148695
     7  H   -0.106139
     8  C    1.788596
     9  H   -0.119938
    10  C   -0.208477
    11  C   -0.041189
    12  C    0.699751
    13  C    0.023726
    14  C    0.513256
    15  H   -0.267395
    16  H   -0.210831
    17  H   -0.219353
    18  H   -0.220494
    19  H   -0.336271
 Sum of Mulliken charges =   0.00000

 Dipole moment (field-independent basis, Debye):
    X=             -0.0824    Y=              0.6085    Z=             -0.1553  Tot=              0.6334

 Test job not archived.
 1\1\GINC-SE082\SP\RHF\Aug-CC-pVDZ\C6H10O1Si2\OHZDE\09-Apr-2025\0\\#t h
 f aug-cc-pvdz iop(5/13=1,5/36=2,99/5=2) pseudo=read geom=check guess=(
 read,tcheck) scf=(maxcycle=1)\\title\\0,1\Si,0,-1.92182,-0.791695,-0.6
 24506\Si,0,-2.912465,0.928714,0.660822\O,0,-0.396509,-1.214601,-0.0989
 41\H,0,-1.8888,-0.391806,-2.054821\H,0,-2.700577,-2.040445,-0.493291\H
 ,0,-4.324917,1.06987,0.225144\H,0,-2.228719,2.229011,0.464008\C,0,0.78
 3987,-0.522971,-0.065783\H,0,-2.890301,0.587878,2.103114\C,0,1.848829,
 -1.110016,0.621886\C,0,0.955092,0.71408,-0.690986\C,0,3.075115,-0.4583

 Normal termination of Gaussian 16 at Wed Apr  9 00:12:22 2025.
