 Gaussian 16, Revision C.01,

 ----------------------------------------------------------------------
 #t hf aug-cc-pvdz symm=none int=(grid=ultrafine) guess=(read,tcheck) s
 table=(opt,rrhf)
 ----------------------------------------------------------------------
 -----
 title
 -----
 Symbolic Z-matrix:
 Charge =  0 Multiplicity = 1

 SCF Done:  E(RHF) =  -639.463669697     A.U. after   12 cycles
 Normal termination of Gaussian 16 at Wed Apr  9 00:08:25 2025.
 Gaussian 16:  ES64L-G16RevC.01  3-Jul-2019

 ----------------------------------------------------------------------
 #t hf aug-cc-pvdz iop(5/13=1,5/36=2,99/5=2) pseudo=read geom=check gue
 ss=(read,tcheck) scf=(maxcycle=1)
 ----------------------------------------------------------------------
 -----
 title
 -----
 Structure from the checkpoint file:  "BDE49_nonexpt_2218_mol1.chk"
 Charge =  0 Multiplicity = 1

                         Standard orientation:
 ---------------------------------------------------------------------
 Center     Atomic      Atomic             Coordinates (Angstroms)
 Number     Number       Type             X           Y           Z
 ---------------------------------------------------------------------
      1          8           0       -0.015275    0.282772    0.346212
      2         14           0        1.569199   -0.114968    0.036204
      3          6           0        2.186086   -0.905433    1.614858
      4          1           0        1.597360   -1.792808    1.863635
      5          1           0        2.113105   -0.209057    2.454837
      6          6           0        1.675402   -1.321957   -1.401615
      7          1           0        2.714315   -1.616356   -1.582974
      8          1           0        1.294091   -0.886102   -2.330319
      9          1           0        1.102762   -2.231814   -1.198488
     10          6           0        2.563599    1.428013   -0.370916
     11          1           0        2.515437    2.155982    0.444363
     12          1           0        2.203825    1.918932   -1.280496
     13          1           0        3.617291    1.177487   -0.531820
     14          1           0        3.232778   -1.211457    1.520848
     15          6           0       -0.930558    0.911577   -0.545616
     16          6           0       -2.253373    1.162257    0.172178
     17          1           0       -1.086511    0.279937   -1.430281
     18          1           0       -0.522222    1.869022   -0.895868
     19          6           0       -2.950340   -0.102098    0.694995
     20          1           0       -2.918064    1.696412   -0.519375
     21          1           0       -2.058237    1.839230    1.010639
     22          6           0       -3.437984   -1.055865   -0.400899
     23          1           0       -3.804685    0.204178    1.308530
     24          1           0       -2.261791   -0.627643    1.362751
     25          1           0       -4.126669   -0.553458   -1.088437
     26          1           0       -3.966977   -1.909865    0.030941
     27          1           0       -2.609384   -1.454205   -0.992947
 ---------------------------------------------------------------------

 SCF Done:  E(RHF) =  -639.881998348     A.U. after    2 cycles

 The electronic state is 1-A.
 Alpha  occ. eigenvalues --  -69.53016 -20.51767 -11.28198 -11.22304 -11.21992
 Alpha  occ. eigenvalues --  -11.21834 -11.20650 -11.20626 -11.20353  -6.19658
 Alpha  occ. eigenvalues --   -3.95122  -3.94975  -3.94954  -1.42174  -1.06608
 Alpha  occ. eigenvalues --   -0.98008  -0.96192  -0.92661  -0.92559  -0.86917
 Alpha  occ. eigenvalues --   -0.77812  -0.69953  -0.65352  -0.62177  -0.59485
 Alpha  occ. eigenvalues --   -0.58236  -0.57674  -0.56345  -0.56156  -0.55133
 Alpha  occ. eigenvalues --   -0.54433  -0.54241  -0.53412  -0.53147  -0.49287
 Alpha  occ. eigenvalues --   -0.48511  -0.47410  -0.45569  -0.45256  -0.42421
 Alpha  occ. eigenvalues --   -0.40767
 Alpha virt. eigenvalues --    0.03241   0.03404   0.03474   0.03899   0.05033
 Alpha virt. eigenvalues --    0.05321   0.05442   0.06128   0.06282   0.07638
 Alpha virt. eigenvalues --    0.07799   0.08048   0.08442   0.08727   0.09434

 Mulliken charges:
               1
     1  O   -2.283727
     2  Si   3.766426
     3  C   -0.643637
     4  H   -0.012836
     5  H   -0.012781
     6  C   -0.634744
     7  H   -0.035340
     8  H   -0.044860
     9  H   -0.029218
    10  C   -0.632433
    11  H   -0.028062
    12  H   -0.067193
    13  H   -0.032115
    14  H   -0.023814
    15  C    0.611152
    16  C   -0.467345
    17  H    0.085023
    18  H    0.075704
    19  C   -0.218515
    20  H    0.164763
    21  H    0.141639
    22  C   -0.366437
    23  H    0.108511
    24  H    0.185672
    25  H    0.147229
    26  H    0.113781
    27  H    0.133155
 Sum of Mulliken charges =  -0.00000

 Dipole moment (field-independent basis, Debye):
    X=              0.2555    Y=              0.2787    Z=             -0.7670  Tot=              0.8551

 Test job not archived.
 1\1\GINC-SE250\SP\RHF\Aug-CC-pVDZ\C7H18O1Si1\OHZDE\09-Apr-2025\0\\#t h
 f aug-cc-pvdz iop(5/13=1,5/36=2,99/5=2) pseudo=read geom=check guess=(
 read,tcheck) scf=(maxcycle=1)\\title\\0,1\O,0,0.015275,-0.282772,0.346
 212\Si,0,-1.569199,0.114968,0.036204\C,0,-2.186086,0.905433,1.614858\H
 ,0,-1.59736,1.792808,1.863635\H,0,-2.113105,0.209057,2.454837\C,0,-1.6
 75402,1.321957,-1.401615\H,0,-2.714315,1.616356,-1.582974\H,0,-1.29409
 1,0.886102,-2.330319\H,0,-1.102762,2.231814,-1.198488\C,0,-2.563599,-1
 .428013,-0.370916\H,0,-2.515437,-2.155982,0.444363\H,0,-2.203825,-1.91

 Normal termination of Gaussian 16 at Wed Apr  9 00:08:43 2025.
