 Gaussian 16, Revision C.01,

 ----------------------------------------------------------------------
 #t hf aug-cc-pvdz symm=none int=(grid=ultrafine) guess=(read,tcheck) s
 table=(opt,rrhf)
 ----------------------------------------------------------------------
 -----
 title
 -----
 Symbolic Z-matrix:
 Charge =  0 Multiplicity = 1

 SCF Done:  E(RHF) =  -838.852481107     A.U. after   13 cycles
 Normal termination of Gaussian 16 at Wed Apr  9 00:21:06 2025.
 Gaussian 16:  ES64L-G16RevC.01  3-Jul-2019

 ----------------------------------------------------------------------
 #t hf aug-cc-pvdz iop(5/13=1,5/36=2,99/5=2) pseudo=read geom=check gue
 ss=(read,tcheck) scf=(maxcycle=1)
 ----------------------------------------------------------------------
 -----
 title
 -----
 Structure from the checkpoint file:  "BDE49_nonexpt_2628_mol1.chk"
 Charge =  0 Multiplicity = 1

                         Standard orientation:
 ---------------------------------------------------------------------
 Center     Atomic      Atomic             Coordinates (Angstroms)
 Number     Number       Type             X           Y           Z
 ---------------------------------------------------------------------
      1          9           0        1.531511   -0.750862   -0.000050
      2         16           0        0.596569    0.648160    0.000045
      3         15           0       -1.301715   -0.300877   -0.000149
      4          1           0       -1.902020    0.451311   -1.040196
      5          1           0       -1.900951    0.449042    1.042168
 ---------------------------------------------------------------------

 SCF Done:  E(RHF) =  -839.046870513     A.U. after    2 cycles

 The electronic state is 1-A.
 Alpha  occ. eigenvalues --  -94.04188 -84.32440 -26.46972  -8.31551  -6.79472
 Alpha  occ. eigenvalues --   -6.29297  -6.29041  -6.28738  -4.31546  -4.31455
 Alpha  occ. eigenvalues --   -4.30915  -1.56642  -1.02856  -0.84465  -0.65466
 Alpha  occ. eigenvalues --   -0.65135  -0.62898  -0.55169  -0.48694  -0.39379
 Alpha  occ. eigenvalues --   -0.38389
 Alpha virt. eigenvalues --    0.03391   0.05675   0.06216   0.06245   0.09747
 Alpha virt. eigenvalues --    0.09964   0.11103   0.13202   0.14704   0.16805
 Alpha virt. eigenvalues --    0.17459   0.19325   0.22523   0.23679   0.28077

 Mulliken charges:
               1
     1  F   -0.595693
     2  S    0.205548
     3  P   -0.638345
     4  H    0.514203
     5  H    0.514287
 Sum of Mulliken charges =  -0.00000

 Dipole moment (field-independent basis, Debye):
    X=             -2.6440    Y=              0.6677    Z=              0.0003  Tot=              2.7270

 Test job not archived.
 1\1\GINC-SE162\SP\RHF\Aug-CC-pVDZ\F1H2P1S1\OHZDE\09-Apr-2025\0\\#t hf
 aug-cc-pvdz iop(5/13=1,5/36=2,99/5=2) pseudo=read geom=check guess=(re
 ad,tcheck) scf=(maxcycle=1)\\title\\0,1\F,0,1.531511,-0.750862,-0.0000
 5\S,0,0.596569,0.64816,0.000045\P,0,-1.301715,-0.300877,-0.000149\H,0,
 -1.90202,0.451311,-1.040196\H,0,-1.900951,0.449042,1.042168\\Version=E
 S64L-G16RevC.01\State=1-A\HF=-839.0468705\RMSD=2.657e-02\Dipole=-1.040
 2356,0.2627055,0.0001319\Quadrupole=0.9976777,-1.0463201,0.0486424,0.3
 810905,0.0000859,-0.0018286\PG=C01 [X(F1H2P1S1)]\\@

 Normal termination of Gaussian 16 at Wed Apr  9 00:21:07 2025.
