 Gaussian 16, Revision C.01,

 ----------------------------------------------------------------------
 #t hf aug-cc-pvdz symm=none int=(grid=ultrafine) guess=(read,tcheck) s
 table=(opt,rrhf)
 ----------------------------------------------------------------------
 -----
 title
 -----
 Symbolic Z-matrix:
 Charge =  0 Multiplicity = 1

 SCF Done:  E(RHF) =  -643.086865883     A.U. after   15 cycles
 Normal termination of Gaussian 16 at Tue Apr  8 23:36:42 2025.
 Gaussian 16:  ES64L-G16RevC.01  3-Jul-2019

 ----------------------------------------------------------------------
 #t hf aug-cc-pvdz iop(5/13=1,5/36=2,99/5=2) pseudo=read geom=check gue
 ss=(read,tcheck) scf=(maxcycle=1)
 ----------------------------------------------------------------------
 -----
 title
 -----
 Structure from the checkpoint file:  "BDE49_nonexpt_1512_mol1.chk"
 Charge =  0 Multiplicity = 1

                         Standard orientation:
 ---------------------------------------------------------------------
 Center     Atomic      Atomic             Coordinates (Angstroms)
 Number     Number       Type             X           Y           Z
 ---------------------------------------------------------------------
      1          6           0        0.095886   -0.215874   -0.057073
      2          6           0       -0.394257    1.088959   -0.132631
      3          6           0       -1.770830    1.298325   -0.071213
      4          7           0       -2.671249    0.319588    0.051247
      5          6           0       -2.195365   -0.929207    0.115884
      6          6           0       -0.842448   -1.246887    0.064709
      7          1           0        0.287535    1.925155   -0.229731
      8          1           0       -2.169090    2.308562   -0.122579
      9          1           0       -2.936635   -1.717597    0.217044
     10          1           0       -0.532845   -2.285487    0.127429
     11          7           0        2.620604    0.842436    0.267541
     12         15           0        1.886883   -0.605777   -0.248233
     13          1           0        1.955645   -1.433705    0.907983
     14          1           0        3.506483    1.057332   -0.163195
     15          1           0        2.582268    1.126335    1.236973
 ---------------------------------------------------------------------

 SCF Done:  E(RHF) =  -643.441373087     A.U. after    2 cycles

 The electronic state is 1-A.
 Alpha  occ. eigenvalues --  -84.30618 -15.50900 -15.50206 -11.27983 -11.27965
 Alpha  occ. eigenvalues --  -11.26734 -11.24892 -11.24514  -6.77326  -4.30266
 Alpha  occ. eigenvalues --   -4.30017  -4.29052  -1.25624  -1.18203  -1.09309
 Alpha  occ. eigenvalues --   -1.03563  -0.90001  -0.87565  -0.81442  -0.72314
 Alpha  occ. eigenvalues --   -0.70592  -0.69391  -0.65638  -0.61311  -0.59827
 Alpha  occ. eigenvalues --   -0.56399  -0.54608  -0.53141  -0.46228  -0.44802
 Alpha  occ. eigenvalues --   -0.41593  -0.35671  -0.33577
 Alpha virt. eigenvalues --    0.02814   0.03884   0.04445   0.05278   0.05431
 Alpha virt. eigenvalues --    0.06487   0.07172   0.07369   0.08197   0.09509
 Alpha virt. eigenvalues --    0.10271   0.10669   0.11775   0.12355   0.13601

 Mulliken charges:
               1
     1  C   -0.300876
     2  C    1.002678
     3  C   -1.279639
     4  N    1.040232
     5  C   -1.014883
     6  C    0.861097
     7  H   -0.265343
     8  H   -0.192428
     9  H   -0.186625
    10  H   -0.233653
    11  N    0.071943
    12  P    0.223631
    13  H    0.319405
    14  H    0.007601
    15  H   -0.053140
 Sum of Mulliken charges =  -0.00000

 Dipole moment (field-independent basis, Debye):
    X=              3.5286    Y=             -0.1636    Z=              0.9647  Tot=              3.6618

 Test job not archived.
 1\1\GINC-SE345\SP\RHF\Aug-CC-pVDZ\C5H7N2P1\OHZDE\08-Apr-2025\0\\#t hf
 aug-cc-pvdz iop(5/13=1,5/36=2,99/5=2) pseudo=read geom=check guess=(re
 ad,tcheck) scf=(maxcycle=1)\\title\\0,1\C,0,0.095886,-0.215874,-0.0570
 73\C,0,-0.394257,1.088959,-0.132631\C,0,-1.77083,1.298325,-0.071213\N,
 0,-2.671249,0.319588,0.051247\C,0,-2.195365,-0.929207,0.115884\C,0,-0.
 842448,-1.246887,0.064709\H,0,0.287535,1.925155,-0.229731\H,0,-2.16909
 ,2.308562,-0.122579\H,0,-2.936635,-1.717597,0.217044\H,0,-0.532845,-2.
 285487,0.127429\N,0,2.620604,0.842436,0.267541\P,0,1.886883,-0.605777,

 Normal termination of Gaussian 16 at Tue Apr  8 23:36:48 2025.
