 Gaussian 16, Revision C.01,

 ----------------------------------------------------------------------
 #t hf aug-cc-pvdz symm=none int=(grid=ultrafine) guess=(read,tcheck) s
 table=(opt,rrhf)
 ----------------------------------------------------------------------
 -----
 title
 -----
 Symbolic Z-matrix:
 Charge =  0 Multiplicity = 1

 SCF Done:  E(RHF) =  -1451.78050157     A.U. after   14 cycles
 Normal termination of Gaussian 16 at Wed Apr  9 00:00:32 2025.
 Gaussian 16:  ES64L-G16RevC.01  3-Jul-2019

 ----------------------------------------------------------------------
 #t hf aug-cc-pvdz iop(5/13=1,5/36=2,99/5=2) pseudo=read geom=check gue
 ss=(read,tcheck) scf=(maxcycle=1)
 ----------------------------------------------------------------------
 -----
 title
 -----
 Structure from the checkpoint file:  "BDE49_nonexpt_2110_mol1.chk"
 Charge =  0 Multiplicity = 1

                         Standard orientation:
 ---------------------------------------------------------------------
 Center     Atomic      Atomic             Coordinates (Angstroms)
 Number     Number       Type             X           Y           Z
 ---------------------------------------------------------------------
      1         14           0       -0.263211   -0.000055    0.323650
      2          7           0        1.521447   -0.001968   -0.250956
      3          8           0        1.754240   -0.000499   -1.450199
      4          8           0        2.368764   -0.002194    0.639707
      5          6           0       -0.307400   -0.000784    2.163399
      6          1           0        0.197733   -0.888911    2.548109
      7          1           0       -1.344399    0.000314    2.507452
      8          1           0        0.199861    0.885803    2.548860
      9         17           0       -1.090876    1.683123   -0.495623
     10         17           0       -1.094888   -1.680559   -0.497041
 ---------------------------------------------------------------------

 SCF Done:  E(RHF) =  -1452.20251098     A.U. after    2 cycles

 The electronic state is 1-A.
 Alpha  occ. eigenvalues -- -105.60165-105.60164 -69.68619 -20.60550 -20.60498
 Alpha  occ. eigenvalues --  -15.77156 -11.27026 -10.65165 -10.65163  -7.82059
 Alpha  occ. eigenvalues --   -7.82055  -7.81725  -7.81723  -7.81716  -7.81715
 Alpha  occ. eigenvalues --   -6.34602  -4.09950  -4.09922  -4.09777  -1.67048
 Alpha  occ. eigenvalues --   -1.51324  -1.12633  -1.08301  -1.01539  -0.99090
 Alpha  occ. eigenvalues --   -0.82395  -0.75263  -0.74122  -0.69685  -0.62779
 Alpha  occ. eigenvalues --   -0.61404  -0.58136  -0.58133  -0.54132  -0.51413
 Alpha  occ. eigenvalues --   -0.50473  -0.50002  -0.49919  -0.47393  -0.45709
 Alpha virt. eigenvalues --    0.02939   0.03701   0.04765   0.05058   0.05933
 Alpha virt. eigenvalues --    0.07246   0.08002   0.08165   0.10610   0.13020
 Alpha virt. eigenvalues --    0.13199   0.13816   0.14497   0.14775   0.15983

 Mulliken charges:
               1
     1  Si   1.934561
     2  N    1.819239
     3  O   -1.268804
     4  O   -1.109023
     5  C   -0.682774
     6  H    0.154496
     7  H    0.081893
     8  H    0.154486
     9  Cl  -0.542021
    10  Cl  -0.542052
 Sum of Mulliken charges =  -0.00000

 Dipole moment (field-independent basis, Debye):
    X=             -2.9131    Y=              0.0006    Z=              2.8854  Tot=              4.1002

 Test job not archived.
 1\1\GINC-SE454\SP\RHF\Aug-CC-pVDZ\C1H3Cl2N1O2Si1\OHZDE\09-Apr-2025\0\\
 #t hf aug-cc-pvdz iop(5/13=1,5/36=2,99/5=2) pseudo=read geom=check gue
 ss=(read,tcheck) scf=(maxcycle=1)\\title\\0,1\Si,0,-0.263211,-0.000056
 ,0.32365\N,0,1.521447,-0.001967,-0.250956\O,0,1.75424,-0.000497,-1.450
 199\O,0,2.368764,-0.002192,0.639707\C,0,-0.3074,-0.000785,2.163399\H,0
 ,0.197734,-0.888911,2.548109\H,0,-1.344399,0.000312,2.507452\H,0,0.199
 86,0.885803,2.54886\Cl,0,-1.090878,1.683122,-0.495623\Cl,0,-1.094886,-
 1.68056,-0.497041\\Version=ES64L-G16RevC.01\State=1-A\HF=-1452.202511\

 Normal termination of Gaussian 16 at Wed Apr  9 00:00:37 2025.
