 Gaussian 16, Revision C.01,

 ----------------------------------------------------------------------
 #t hf aug-cc-pvdz symm=none int=(grid=ultrafine) guess=(read,tcheck) s
 table=(opt,rrhf)
 ----------------------------------------------------------------------
 -----
 title
 -----
 Symbolic Z-matrix:
 Charge =  0 Multiplicity = 1

 SCF Done:  E(RHF) =  -230.993137126     A.U. after   13 cycles
 Normal termination of Gaussian 16 at Tue Apr  8 22:32:31 2025.
 Gaussian 16:  ES64L-G16RevC.01  3-Jul-2019

 ----------------------------------------------------------------------
 #t hf aug-cc-pvdz iop(5/13=1,5/36=2,99/5=2) pseudo=read geom=check gue
 ss=(read,tcheck) scf=(maxcycle=1)
 ----------------------------------------------------------------------
 -----
 title
 -----
 Structure from the checkpoint file:  "BDE49_expt_1057_mol1.chk"
 Charge =  0 Multiplicity = 1

                         Standard orientation:
 ---------------------------------------------------------------------
 Center     Atomic      Atomic             Coordinates (Angstroms)
 Number     Number       Type             X           Y           Z
 ---------------------------------------------------------------------
      1          6           0       -1.228656    0.491426    0.377279
      2          8           0       -1.837626   -0.697733   -0.124390
      3          1           0       -2.602338   -0.898716    0.421923
      4          6           0        0.066930    0.717113   -0.400007
      5          1           0       -1.004111    0.398348    1.449010
      6          1           0       -1.891256    1.357786    0.240410
      7          6           0        1.077764   -0.375337   -0.191929
      8          1           0        0.490827    1.685574   -0.114863
      9          1           0       -0.197531    0.776695   -1.463352
     10          6           0        2.326816   -0.189597    0.224671
     11          1           0        0.722115   -1.381082   -0.399341
     12          1           0        2.714405    0.801419    0.444222
     13          1           0        3.011774   -1.019780    0.357027
 ---------------------------------------------------------------------

 SCF Done:  E(RHF) =  -231.239453099     A.U. after    2 cycles

 The electronic state is 1-A.
 Alpha  occ. eigenvalues --  -20.55028 -11.28853 -11.23624 -11.23505 -11.22640
 Alpha  occ. eigenvalues --   -1.44848  -1.07829  -0.98511  -0.85215  -0.75892
 Alpha  occ. eigenvalues --   -0.70725  -0.65324  -0.63080  -0.59019  -0.56671
 Alpha  occ. eigenvalues --   -0.52459  -0.50797  -0.49014  -0.44117  -0.36563
 Alpha virt. eigenvalues --    0.03496   0.04097   0.04204   0.04774   0.06105
 Alpha virt. eigenvalues --    0.06542   0.07343   0.08723   0.10913   0.12306
 Alpha virt. eigenvalues --    0.13745   0.13971   0.14803   0.15777   0.16666

 Mulliken charges:
               1
     1  C    0.623493
     2  O   -1.115317
     3  H    0.309878
     4  C   -0.680168
     5  H    0.111357
     6  H    0.089405
     7  C    0.766205
     8  H    0.140070
     9  H    0.233087
    10  C   -0.172158
    11  H   -0.140998
    12  H   -0.077262
    13  H   -0.087592
 Sum of Mulliken charges =   0.00000

 Dipole moment (field-independent basis, Debye):
    X=             -0.9359    Y=              0.9023    Z=              1.1702  Tot=              1.7491

 Test job not archived.
 1\1\GINC-SE080\SP\RHF\Aug-CC-pVDZ\C4H8O1\OHZDE\08-Apr-2025\0\\#t hf au
 g-cc-pvdz iop(5/13=1,5/36=2,99/5=2) pseudo=read geom=check guess=(read
 ,tcheck) scf=(maxcycle=1)\\title\\0,1\C,0,1.228656,0.491426,-0.377279\
 O,0,1.837626,-0.697733,0.12439\H,0,2.602338,-0.898716,-0.421923\C,0,-0
 .06693,0.717113,0.400007\H,0,1.004111,0.398348,-1.44901\H,0,1.891256,1
 .357786,-0.24041\C,0,-1.077764,-0.375337,0.191929\H,0,-0.490827,1.6855
 74,0.114863\H,0,0.197531,0.776695,1.463352\C,0,-2.326816,-0.189597,-0.
 224671\H,0,-0.722115,-1.381082,0.399341\H,0,-2.714405,0.801419,-0.4442

 Normal termination of Gaussian 16 at Tue Apr  8 22:32:34 2025.
