 Gaussian 16, Revision C.01,

 ----------------------------------------------------------------------
 #t hf aug-cc-pvdz symm=none int=(grid=ultrafine) guess=(read,tcheck) s
 table=(opt,rrhf)
 ----------------------------------------------------------------------
 -----
 title
 -----
 Symbolic Z-matrix:
 Charge =  0 Multiplicity = 1

 SCF Done:  E(RHF) =  -839.962084381     A.U. after   11 cycles

 1\1\GINC-SE362\Stability\RHF\Aug-CC-pVDZ\C4H12P2\OHZDE\08-Apr-2025\0\\
 #t hf aug-cc-pvdz symm=none int=(grid=ultrafine) guess=(read,tcheck) s
 table=(opt,rrhf)\\title\\0,1\P,0,-0.942518,0.000001,-0.614488\P,0,0.94
 2518,0.,0.614488\C,0,-1.815441,1.419164,0.221963\C,0,-1.81544,-1.41916
 5,0.221961\C,0,1.815441,1.419164,-0.221963\C,0,1.81544,-1.419165,-0.22
 1961\H,0,1.352117,-2.36309,0.073376\H,0,2.853249,-1.440221,0.121448\H,
 0,1.803914,-1.341923,-1.312402\H,0,-1.352119,2.36309,-0.073372\H,0,-1.
 803916,1.34192,1.312404\H,0,-2.85325,1.44022,-0.121447\H,0,-1.352117,-

 Normal termination of Gaussian 16 at Tue Apr  8 23:40:39 2025.
 Gaussian 16:  ES64L-G16RevC.01  3-Jul-2019

 ----------------------------------------------------------------------
 #t hf aug-cc-pvdz iop(5/13=1,5/36=2,99/5=2) pseudo=read geom=check gue
 ss=(read,tcheck) scf=(maxcycle=1)
 ----------------------------------------------------------------------
 -----
 title
 -----
 Structure from the checkpoint file:  "BDE49_nonexpt_1631_mol1.chk"
 Charge =  0 Multiplicity = 1

                         Standard orientation:
 ---------------------------------------------------------------------
 Center     Atomic      Atomic             Coordinates (Angstroms)
 Number     Number       Type             X           Y           Z
 ---------------------------------------------------------------------
      1         15           0       -0.942518   -0.000001    0.614488
      2         15           0        0.942518   -0.000000   -0.614488
      3          6           0       -1.815441   -1.419164   -0.221963
      4          6           0       -1.815440    1.419165   -0.221961
      5          6           0        1.815441   -1.419164    0.221963
      6          6           0        1.815440    1.419165    0.221961
      7          1           0        1.352117    2.363090   -0.073376
      8          1           0        2.853249    1.440220   -0.121448
      9          1           0        1.803914    1.341923    1.312402
     10          1           0       -1.352119   -2.363090    0.073372
     11          1           0       -1.803916   -1.341920   -1.312404
     12          1           0       -2.853250   -1.440220    0.121447
     13          1           0       -1.352117    2.363090    0.073376
     14          1           0       -2.853249    1.440221    0.121449
     15          1           0       -1.803914    1.341923   -1.312402
     16          1           0        1.352119   -2.363090   -0.073373
     17          1           0        1.803916   -1.341921    1.312404
     18          1           0        2.853250   -1.440221   -0.121447
 ---------------------------------------------------------------------

 SCF Done:  E(RHF) =  -840.235481700     A.U. after    2 cycles

 The electronic state is 1-A.
 Alpha  occ. eigenvalues --  -84.26318 -84.26312 -11.23512 -11.23509 -11.23506
 Alpha  occ. eigenvalues --  -11.23504  -6.73376  -6.73361  -4.26034  -4.25825
 Alpha  occ. eigenvalues --   -4.25655  -4.25498  -4.25076  -4.24964  -1.02634
 Alpha  occ. eigenvalues --   -0.99310  -0.94410  -0.93218  -0.78264  -0.68418
 Alpha  occ. eigenvalues --   -0.59924  -0.59226  -0.58653  -0.57190  -0.56894
 Alpha  occ. eigenvalues --   -0.56029  -0.55691  -0.54823  -0.46813  -0.43969
 Alpha  occ. eigenvalues --   -0.39132  -0.36092  -0.27348
 Alpha virt. eigenvalues --    0.03866   0.03961   0.04137   0.04889   0.05683
 Alpha virt. eigenvalues --    0.05737   0.06686   0.06805   0.08114   0.08820
 Alpha virt. eigenvalues --    0.09241   0.09276   0.10030   0.11146   0.12042

 Mulliken charges:
               1
     1  P    1.022688
     2  P    1.022688
     3  C   -0.818378
     4  C   -0.818376
     5  C   -0.818377
     6  C   -0.818376
     7  H    0.075639
     8  H    0.069276
     9  H    0.162118
    10  H    0.075639
    11  H    0.162118
    12  H    0.069276
    13  H    0.075639
    14  H    0.069276
    15  H    0.162118
    16  H    0.075639
    17  H    0.162117
    18  H    0.069276
 Sum of Mulliken charges =   0.00000

 Dipole moment (field-independent basis, Debye):
    X=              0.0000    Y=              0.0000    Z=              0.0000  Tot=              0.0000

 Test job not archived.
 1\1\GINC-SE362\SP\RHF\Aug-CC-pVDZ\C4H12P2\OHZDE\08-Apr-2025\0\\#t hf a
 ug-cc-pvdz iop(5/13=1,5/36=2,99/5=2) pseudo=read geom=check guess=(rea
 d,tcheck) scf=(maxcycle=1)\\title\\0,1\P,0,-0.942518,0.000001,-0.61448
 8\P,0,0.942518,0.,0.614488\C,0,-1.815441,1.419164,0.221963\C,0,-1.8154
 4,-1.419165,0.221961\C,0,1.815441,1.419164,-0.221963\C,0,1.81544,-1.41
 9165,-0.221961\H,0,1.352117,-2.36309,0.073376\H,0,2.853249,-1.440221,0
 .121448\H,0,1.803914,-1.341923,-1.312402\H,0,-1.352119,2.36309,-0.0733
 72\H,0,-1.803916,1.34192,1.312404\H,0,-2.85325,1.44022,-0.121447\H,0,-

 Normal termination of Gaussian 16 at Tue Apr  8 23:40:45 2025.
