 Gaussian 16, Revision C.01,

 ----------------------------------------------------------------------
 #t hf aug-cc-pvdz symm=none int=(grid=ultrafine) guess=(read,tcheck) s
 table=(opt,rrhf)
 ----------------------------------------------------------------------
 -----
 title
 -----
 Symbolic Z-matrix:
 Charge =  0 Multiplicity = 1

 SCF Done:  E(RHF) =  -530.161729055     A.U. after   12 cycles
 Normal termination of Gaussian 16 at Wed Apr  9 00:34:44 2025.
 Gaussian 16:  ES64L-G16RevC.01  3-Jul-2019

 ----------------------------------------------------------------------
 #t hf aug-cc-pvdz iop(5/13=1,5/36=2,99/5=2) pseudo=read geom=check gue
 ss=(read,tcheck) scf=(maxcycle=1)
 ----------------------------------------------------------------------
 -----
 title
 -----
 Structure from the checkpoint file:  "BDE49_nonexpt_416_mol1.chk"
 Charge =  0 Multiplicity = 1

                         Standard orientation:
 ---------------------------------------------------------------------
 Center     Atomic      Atomic             Coordinates (Angstroms)
 Number     Number       Type             X           Y           Z
 ---------------------------------------------------------------------
      1          9           0        1.663972   -1.359157   -0.938736
      2          5           0        1.308715   -0.348524   -0.167475
      3          9           0        2.282390    0.432226    0.280768
      4          6           0       -0.197312   -0.116607    0.302624
      5          8           0       -1.015443   -0.636380   -0.735814
      6          8           0       -0.495527    1.246567    0.574886
      7          6           0       -2.418217   -0.671276   -0.480073
      8          1           0       -2.896430   -0.854765   -1.442068
      9          1           0       -2.775170    0.279146   -0.072683
     10          1           0       -2.685731   -1.482877    0.205476
     11          6           0       -0.271922    2.143401   -0.509954
     12          1           0       -0.647291    3.114952   -0.190000
     13          1           0       -0.806947    1.823683   -1.409061
     14          1           0        0.797237    2.237834   -0.737112
     15          6           0       -0.387819   -0.838079    1.646146
     16          1           0       -0.292470   -1.918537    1.518646
     17          1           0       -1.372789   -0.606994    2.055938
     18          1           0        0.358138   -0.493574    2.364920
 ---------------------------------------------------------------------

 SCF Done:  E(RHF) =  -530.684135038     A.U. after    2 cycles

 The electronic state is 1-A.
 Alpha  occ. eigenvalues --  -26.48042 -26.47874 -20.55715 -20.55572 -11.34072
 Alpha  occ. eigenvalues --  -11.28676 -11.28580 -11.24260  -7.71867  -1.63227
 Alpha  occ. eigenvalues --   -1.59129  -1.50149  -1.43727  -1.04455  -0.95468
 Alpha  occ. eigenvalues --   -0.93203  -0.83907  -0.79324  -0.74678  -0.73567
 Alpha  occ. eigenvalues --   -0.69899  -0.68900  -0.66997  -0.65001  -0.63680
 Alpha  occ. eigenvalues --   -0.62706  -0.61832  -0.60550  -0.59613  -0.56942
 Alpha  occ. eigenvalues --   -0.54653  -0.53093  -0.52021  -0.45517  -0.44235
 Alpha  occ. eigenvalues --   -0.43265
 Alpha virt. eigenvalues --    0.03457   0.03771   0.04089   0.04187   0.06019
 Alpha virt. eigenvalues --    0.06183   0.06522   0.06537   0.07623   0.09415
 Alpha virt. eigenvalues --    0.09608   0.09750   0.10760   0.12927   0.13612

 Mulliken charges:
               1
     1  F   -0.854196
     2  B    1.739030
     3  F   -0.727934
     4  C    2.091607
     5  O   -1.715794
     6  O   -1.615667
     7  C    0.211594
     8  H   -0.011669
     9  H    0.200566
    10  H    0.141721
    11  C    0.187536
    12  H   -0.011125
    13  H    0.219728
    14  H    0.113413
    15  C   -0.404811
    16  H    0.186470
    17  H    0.175327
    18  H    0.074204
 Sum of Mulliken charges =  -0.00000

 Dipole moment (field-independent basis, Debye):
    X=             -1.7458    Y=              0.3566    Z=              0.4196  Tot=              1.8305

 Test job not archived.
 1\1\GINC-SE162\SP\RHF\Aug-CC-pVDZ\C4H9B1F2O2\OHZDE\09-Apr-2025\0\\#t h
 f aug-cc-pvdz iop(5/13=1,5/36=2,99/5=2) pseudo=read geom=check guess=(
 read,tcheck) scf=(maxcycle=1)\\title\\0,1\F,0,1.663972,-1.359157,-0.93
 8736\B,0,1.308715,-0.348524,-0.167475\F,0,2.28239,0.432226,0.280768\C,
 0,-0.197312,-0.116607,0.302624\O,0,-1.015443,-0.63638,-0.735814\O,0,-0
 .495527,1.246567,0.574886\C,0,-2.418217,-0.671276,-0.480073\H,0,-2.896
 43,-0.854765,-1.442068\H,0,-2.77517,0.279146,-0.072683\H,0,-2.685731,-
 1.482877,0.205476\C,0,-0.271922,2.143401,-0.509954\H,0,-0.647291,3.114

 Normal termination of Gaussian 16 at Wed Apr  9 00:34:52 2025.
