 Gaussian 16, Revision C.01,

 ----------------------------------------------------------------------
 #t hf aug-cc-pvdz symm=none int=(grid=ultrafine) guess=(read,tcheck) s
 table=(opt,rrhf)
 ----------------------------------------------------------------------
 -----
 title
 -----
 Symbolic Z-matrix:
 Charge =  0 Multiplicity = 1

 SCF Done:  E(RHF) =  -691.037689481     A.U. after   15 cycles
 Normal termination of Gaussian 16 at Tue Apr  8 23:17:16 2025.
 Gaussian 16:  ES64L-G16RevC.01  3-Jul-2019

 ----------------------------------------------------------------------
 #t hf aug-cc-pvdz iop(5/13=1,5/36=2,99/5=2) pseudo=read geom=check gue
 ss=(read,tcheck) scf=(maxcycle=1)
 ----------------------------------------------------------------------
 -----
 title
 -----
 Structure from the checkpoint file:  "BDE49_nonexpt_1037_mol1.chk"
 Charge =  0 Multiplicity = 1

                         Standard orientation:
 ---------------------------------------------------------------------
 Center     Atomic      Atomic             Coordinates (Angstroms)
 Number     Number       Type             X           Y           Z
 ---------------------------------------------------------------------
      1         17           0        2.038022   -0.582171    0.086463
      2          8           0        0.421659   -0.399551   -0.527228
      3          6           0       -0.374794    0.515742    0.265008
      4          6           0       -1.808237    0.223623   -0.190602
      5          6           0        0.049771    1.959810    0.039194
      6          1           0       -0.073839    2.234027   -1.011523
      7          1           0        1.095883    2.106631    0.314393
      8          1           0       -0.557399    2.633195    0.650271
      9          1           0       -0.263605    0.243279    1.321081
     10          6           0       -2.302791   -1.179103    0.168776
     11          1           0       -1.862318    0.381837   -1.273106
     12          1           0       -2.451176    0.982753    0.268179
     13          1           0       -1.665837   -1.942457   -0.280377
     14          1           0       -3.324281   -1.333592   -0.187344
     15          1           0       -2.300763   -1.332780    1.252126
 ---------------------------------------------------------------------

 SCF Done:  E(RHF) =  -691.359758093     A.U. after    2 cycles

 The electronic state is 1-A.
 Alpha  occ. eigenvalues -- -105.60939 -20.61750 -11.30525 -11.24188 -11.23449
 Alpha  occ. eigenvalues --  -11.22768 -10.65174  -7.82152  -7.81642  -7.81618
 Alpha  occ. eigenvalues --   -1.46905  -1.08984  -1.00911  -0.99608  -0.87590
 Alpha  occ. eigenvalues --   -0.80552  -0.68355  -0.64842  -0.63148  -0.59887
 Alpha  occ. eigenvalues --   -0.57596  -0.56452  -0.53922  -0.52800  -0.50285
 Alpha  occ. eigenvalues --   -0.49623  -0.47736  -0.45913  -0.42619
 Alpha virt. eigenvalues --    0.03599   0.03934   0.04049   0.04968   0.06213
 Alpha virt. eigenvalues --    0.06646   0.06746   0.07867   0.08520   0.09635
 Alpha virt. eigenvalues --    0.11718   0.12300   0.13436   0.14923   0.15916

 Mulliken charges:
               1
     1  Cl   0.236416
     2  O   -1.247910
     3  C    0.499351
     4  C   -0.308677
     5  C   -0.357576
     6  H    0.241166
     7  H    0.146027
     8  H    0.202381
     9  H    0.133117
    10  C   -0.340650
    11  H    0.143986
    12  H    0.168574
    13  H    0.203125
    14  H    0.129597
    15  H    0.151073
 Sum of Mulliken charges =  -0.00000

 Dipole moment (field-independent basis, Debye):
    X=             -1.6089    Y=              1.2840    Z=              0.7908  Tot=              2.2051

 Test job not archived.
 1\1\GINC-SE364\SP\RHF\Aug-CC-pVDZ\C4H9Cl1O1\OHZDE\08-Apr-2025\0\\#t hf
  aug-cc-pvdz iop(5/13=1,5/36=2,99/5=2) pseudo=read geom=check guess=(r
 ead,tcheck) scf=(maxcycle=1)\\title\\0,1\Cl,0,2.038022,-0.582171,0.086
 463\O,0,0.421659,-0.399551,-0.527228\C,0,-0.374794,0.515742,0.265008\C
 ,0,-1.808237,0.223623,-0.190602\C,0,0.049771,1.95981,0.039194\H,0,-0.0
 73839,2.234027,-1.011523\H,0,1.095883,2.106631,0.314393\H,0,-0.557399,
 2.633195,0.650271\H,0,-0.263605,0.243279,1.321081\C,0,-2.302791,-1.179
 103,0.168776\H,0,-1.862318,0.381837,-1.273106\H,0,-2.451176,0.982753,0

 Normal termination of Gaussian 16 at Tue Apr  8 23:17:20 2025.
