 Gaussian 16, Revision C.01,

 ----------------------------------------------------------------------
 #t hf aug-cc-pvdz symm=none int=(grid=ultrafine) guess=(read,tcheck) s
 table=(opt,rrhf)
 ----------------------------------------------------------------------
 -----
 title
 -----
 Symbolic Z-matrix:
 Charge =  0 Multiplicity = 1

 SCF Done:  E(RHF) =  -650.767758637     A.U. after   15 cycles
 Normal termination of Gaussian 16 at Wed Apr  9 00:04:36 2025.
 Gaussian 16:  ES64L-G16RevC.01  3-Jul-2019

 ----------------------------------------------------------------------
 #t hf aug-cc-pvdz iop(5/13=1,5/36=2,99/5=2) pseudo=read geom=check gue
 ss=(read,tcheck) scf=(maxcycle=1)
 ----------------------------------------------------------------------
 -----
 title
 -----
 Structure from the checkpoint file:  "BDE49_nonexpt_2189_mol1.chk"
 Charge =  0 Multiplicity = 1

                         Standard orientation:
 ---------------------------------------------------------------------
 Center     Atomic      Atomic             Coordinates (Angstroms)
 Number     Number       Type             X           Y           Z
 ---------------------------------------------------------------------
      1          6           0       -2.189081    1.015900    0.003678
      2          6           0       -2.066597   -0.384384    0.007702
      3          6           0       -0.786941   -0.951798    0.005235
      4          6           0       -1.051427    1.810511   -0.003648
      5          6           0        0.225802    1.251825   -0.006712
      6          6           0        0.344043   -0.139459   -0.002051
      7          1           0       -3.174057    1.470101    0.012176
      8          1           0       -0.651872   -2.027248    0.013839
      9          1           0       -1.157475    2.889720   -0.008203
     10          1           0        1.103993    1.886357   -0.013959
     11          8           0        1.557735   -0.777531   -0.006713
     12         14           0        3.100193   -0.164782    0.001420
     13          7           0       -3.198004   -1.195113    0.074621
     14          1           0       -4.049598   -0.776708   -0.268683
     15          1           0       -3.075275   -2.139619   -0.258689
     16          1           0        3.976775   -1.349388   -0.001282
     17          1           0        3.342684    0.657234    1.209100
     18          1           0        3.351473    0.666952   -1.198046
 ---------------------------------------------------------------------

 SCF Done:  E(RHF) =  -651.169944481     A.U. after    2 cycles

 The electronic state is 1-A.
 Alpha  occ. eigenvalues --  -69.56554 -20.55907 -15.51210 -11.31392 -11.29022
 Alpha  occ. eigenvalues --  -11.25008 -11.22746 -11.22677 -11.22536  -6.23148
 Alpha  occ. eigenvalues --   -3.98654  -3.98503  -3.98479  -1.47376  -1.22747
 Alpha  occ. eigenvalues --   -1.12935  -1.01427  -0.99427  -0.85418  -0.84712
 Alpha  occ. eigenvalues --   -0.77235  -0.72789  -0.70732  -0.67452  -0.64322
 Alpha  occ. eigenvalues --   -0.63954  -0.60370  -0.60202  -0.55490  -0.54860
 Alpha  occ. eigenvalues --   -0.53246  -0.51478  -0.48674  -0.47022  -0.45162
 Alpha  occ. eigenvalues --   -0.33391  -0.31136
 Alpha virt. eigenvalues --    0.03085   0.03556   0.03890   0.04967   0.05097
 Alpha virt. eigenvalues --    0.05857   0.06663   0.07592   0.09057   0.09406
 Alpha virt. eigenvalues --    0.10021   0.10940   0.11224   0.11983   0.12230

 Mulliken charges:
               1
     1  C    0.538089
     2  C   -0.974130
     3  C    0.377708
     4  C    0.360103
     5  C   -0.232840
     6  C    1.780698
     7  H   -0.292346
     8  H   -0.291841
     9  H   -0.228209
    10  H   -0.331654
    11  O   -2.336049
    12  Si   1.331994
    13  N    0.724061
    14  H    0.016131
    15  H    0.018788
    16  H   -0.182997
    17  H   -0.138321
    18  H   -0.139187
 Sum of Mulliken charges =  -0.00000

 Dipole moment (field-independent basis, Debye):
    X=             -0.6955    Y=              0.1302    Z=             -0.9874  Tot=              1.2147

 Test job not archived.
 1\1\GINC-SE335\SP\RHF\Aug-CC-pVDZ\C6H9N1O1Si1\OHZDE\09-Apr-2025\0\\#t
 hf aug-cc-pvdz iop(5/13=1,5/36=2,99/5=2) pseudo=read geom=check guess=
 (read,tcheck) scf=(maxcycle=1)\\title\\0,1\C,0,2.189081,1.0159,-0.0036
 78\C,0,2.066597,-0.384384,-0.007702\C,0,0.786941,-0.951798,-0.005235\C
 ,0,1.051427,1.810511,0.003648\C,0,-0.225802,1.251825,0.006712\C,0,-0.3
 44043,-0.139459,0.002051\H,0,3.174057,1.470101,-0.012176\H,0,0.651872,
 -2.027248,-0.013839\H,0,1.157475,2.88972,0.008203\H,0,-1.103993,1.8863
 57,0.013959\O,0,-1.557735,-0.777531,0.006713\Si,0,-3.100193,-0.164782,

 Normal termination of Gaussian 16 at Wed Apr  9 00:04:45 2025.
