 Gaussian 16, Revision C.01,

 ----------------------------------------------------------------------
 #t hf aug-cc-pvdz symm=none int=(grid=ultrafine) guess=(read,tcheck) s
 table=(opt,rrhf)
 ----------------------------------------------------------------------
 -----
 title
 -----
 Symbolic Z-matrix:
 Charge =  0 Multiplicity = 1

 SCF Done:  E(RHF) =  -396.604949313     A.U. after   15 cycles
 Normal termination of Gaussian 16 at Tue Apr  8 22:52:05 2025.
 Gaussian 16:  ES64L-G16RevC.01  3-Jul-2019

 ----------------------------------------------------------------------
 #t hf aug-cc-pvdz iop(5/13=1,5/36=2,99/5=2) pseudo=read geom=check gue
 ss=(read,tcheck) scf=(maxcycle=1)
 ----------------------------------------------------------------------
 -----
 title
 -----
 Structure from the checkpoint file:  "BDE49_expt_1791_mol1.chk"
 Charge =  0 Multiplicity = 1

                         Standard orientation:
 ---------------------------------------------------------------------
 Center     Atomic      Atomic             Coordinates (Angstroms)
 Number     Number       Type             X           Y           Z
 ---------------------------------------------------------------------
      1          6           0        0.646538    0.829308   -0.086759
      2          8           0       -0.209667   -0.321920   -0.305607
      3          7           0       -1.573203   -0.109366    0.022368
      4          8           0       -1.883035    0.984103    0.432077
      5          8           0       -2.251046   -1.080032   -0.163175
      6          6           0        2.055498    0.380253   -0.443758
      7          1           0        0.570329    1.137973    0.958623
      8          1           0        0.307312    1.650162   -0.721865
      9          6           0        2.609467   -0.713203    0.473499
     10          1           0        2.691533    1.270978   -0.396182
     11          1           0        2.065099    0.045444   -1.485453
     12          1           0        2.640909   -0.376151    1.514042
     13          1           0        3.625931   -0.985861    0.180814
     14          1           0        1.992273   -1.612346    0.429189
 ---------------------------------------------------------------------

 SCF Done:  E(RHF) =  -397.001470034     A.U. after    2 cycles

 The electronic state is 1-A.
 Alpha  occ. eigenvalues --  -20.65045 -20.61632 -20.61524 -15.85798 -11.32082
 Alpha  occ. eigenvalues --  -11.25852 -11.24009  -1.73239  -1.55704  -1.51916
 Alpha  occ. eigenvalues --   -1.09621  -0.99324  -0.91793  -0.84075  -0.82592
 Alpha  occ. eigenvalues --   -0.80380  -0.78008  -0.67740  -0.63795  -0.62994
 Alpha  occ. eigenvalues --   -0.59284  -0.54201  -0.53853  -0.51401  -0.51227
 Alpha  occ. eigenvalues --   -0.50202  -0.49895  -0.47640
 Alpha virt. eigenvalues --    0.03209   0.03776   0.03894   0.04859   0.06399
 Alpha virt. eigenvalues --    0.06710   0.07478   0.07748   0.10451   0.11602
 Alpha virt. eigenvalues --    0.13889   0.13958   0.14766   0.15270   0.15847

 Mulliken charges:
               1
     1  C    0.430689
     2  O   -1.239415
     3  N    2.818938
     4  O   -1.139338
     5  O   -1.169068
     6  C   -0.491333
     7  H    0.150059
     8  H    0.099415
     9  C   -0.263072
    10  H    0.179004
    11  H    0.158175
    12  H    0.144858
    13  H    0.118385
    14  H    0.202703
 Sum of Mulliken charges =  -0.00000

 Dipole moment (field-independent basis, Debye):
    X=              3.5654    Y=              1.3462    Z=             -0.1465  Tot=              3.8139

 Test job not archived.
 1\1\GINC-SE226\SP\RHF\Aug-CC-pVDZ\C3H7N1O3\OHZDE\08-Apr-2025\0\\#t hf
 aug-cc-pvdz iop(5/13=1,5/36=2,99/5=2) pseudo=read geom=check guess=(re
 ad,tcheck) scf=(maxcycle=1)\\title\\0,1\C,0,0.646538,0.829308,-0.08675
 9\O,0,-0.209667,-0.32192,-0.305607\N,0,-1.573203,-0.109366,0.022368\O,
 0,-1.883035,0.984103,0.432077\O,0,-2.251046,-1.080032,-0.163175\C,0,2.
 055498,0.380253,-0.443758\H,0,0.570329,1.137973,0.958623\H,0,0.307312,
 1.650162,-0.721865\C,0,2.609467,-0.713203,0.473499\H,0,2.691533,1.2709
 78,-0.396182\H,0,2.065099,0.045444,-1.485453\H,0,2.640909,-0.376151,1.

 Normal termination of Gaussian 16 at Tue Apr  8 22:52:10 2025.
