 Gaussian 16, Revision C.01,

 ----------------------------------------------------------------------
 #t hf aug-cc-pvdz symm=none int=(grid=ultrafine) guess=(read,tcheck) s
 table=(opt,rrhf)
 ----------------------------------------------------------------------
 -----
 title
 -----
 Symbolic Z-matrix:
 Charge =  0 Multiplicity = 1

 SCF Done:  E(RHF) =  -1215.82812956     A.U. after   17 cycles
 Normal termination of Gaussian 16 at Tue Apr  8 22:54:37 2025.
 Gaussian 16:  ES64L-G16RevC.01  3-Jul-2019

 ----------------------------------------------------------------------
 #t hf aug-cc-pvdz iop(5/13=1,5/36=2,99/5=2) pseudo=read geom=check gue
 ss=(read,tcheck) scf=(maxcycle=1)
 ----------------------------------------------------------------------
 -----
 title
 -----
 Structure from the checkpoint file:  "BDE49_expt_1827_mol1.chk"
 Charge =  0 Multiplicity = 1

                         Standard orientation:
 ---------------------------------------------------------------------
 Center     Atomic      Atomic             Coordinates (Angstroms)
 Number     Number       Type             X           Y           Z
 ---------------------------------------------------------------------
      1          7           0       -3.243970   -0.005209    0.954337
      2          8           0       -2.439548   -0.009642    1.791507
      3         16           0       -2.565186    0.004813   -0.885905
      4          6           0       -0.827400    0.003174   -0.584128
      5          6           0       -0.134239    1.211333   -0.428834
      6          6           0        1.229041    1.214288   -0.157411
      7          6           0        1.898552    0.000157   -0.031951
      8          6           0        1.228915   -1.212527   -0.170001
      9          6           0       -0.134372   -1.206603   -0.441394
     10          1           0       -0.666028    2.149405   -0.528396
     11          1           0        1.768164    2.145518   -0.042290
     12         17           0        3.617668   -0.001692    0.307668
     13          1           0       -0.666256   -2.143533   -0.550721
     14          1           0        1.767934   -2.144964   -0.064569
 ---------------------------------------------------------------------

 SCF Done:  E(RHF) =  -1216.30742268     A.U. after    2 cycles

 The electronic state is 1-A.
 Alpha  occ. eigenvalues -- -105.58495 -93.98498 -20.67127 -15.71262 -11.33120
 Alpha  occ. eigenvalues --  -11.29197 -11.27814 -11.27813 -11.27212 -11.27200
 Alpha  occ. eigenvalues --  -10.63292  -8.26407  -7.80258  -7.79855  -7.79841
 Alpha  occ. eigenvalues --   -6.24166  -6.24006  -6.23785  -1.67963  -1.20486
 Alpha  occ. eigenvalues --   -1.13026  -1.06940  -1.05239  -1.00124  -0.92215
 Alpha  occ. eigenvalues --   -0.87589  -0.82804  -0.74905  -0.73348  -0.69611
 Alpha  occ. eigenvalues --   -0.69280  -0.67380  -0.66261  -0.63291  -0.58167
 Alpha  occ. eigenvalues --   -0.56824  -0.54669  -0.51128  -0.49459  -0.47760
 Alpha  occ. eigenvalues --   -0.41100  -0.39548  -0.37657  -0.35450
 Alpha virt. eigenvalues --    0.03574   0.03651   0.03749   0.04597   0.04868
 Alpha virt. eigenvalues --    0.05727   0.07465   0.07714   0.08075   0.09447
 Alpha virt. eigenvalues --    0.10514   0.11706   0.12062   0.12710   0.12910

 Mulliken charges:
               1
     1  N    0.665842
     2  O   -0.870138
     3  S    0.165830
     4  C    0.668693
     5  C   -0.028970
     6  C    0.462965
     7  C   -0.436542
     8  C    0.462839
     9  C   -0.028550
    10  H   -0.201802
    11  H   -0.172612
    12  Cl  -0.313087
    13  H   -0.201852
    14  H   -0.172614
 Sum of Mulliken charges =  -0.00000

 Dipole moment (field-independent basis, Debye):
    X=              0.8721    Y=              0.0018    Z=             -0.3140  Tot=              0.9269

 Test job not archived.
 1\1\GINC-SE455\SP\RHF\Aug-CC-pVDZ\C6H4Cl1N1O1S1\OHZDE\08-Apr-2025\0\\#
 t hf aug-cc-pvdz iop(5/13=1,5/36=2,99/5=2) pseudo=read geom=check gues
 s=(read,tcheck) scf=(maxcycle=1)\\title\\0,1\N,0,3.24397,0.005209,0.95
 4337\O,0,2.439548,0.009642,1.791507\S,0,2.565186,-0.004813,-0.885905\C
 ,0,0.8274,-0.003174,-0.584128\C,0,0.134239,-1.211333,-0.428834\C,0,-1.
 229041,-1.214288,-0.157411\C,0,-1.898552,-0.000157,-0.031951\C,0,-1.22
 8915,1.212527,-0.170001\C,0,0.134372,1.206603,-0.441394\H,0,0.666028,-
 2.149405,-0.528396\H,0,-1.768164,-2.145518,-0.04229\Cl,0,-3.617668,0.0

 Normal termination of Gaussian 16 at Tue Apr  8 22:54:44 2025.
