 Gaussian 16, Revision C.01,

 ----------------------------------------------------------------------
 #t hf aug-cc-pvdz symm=none int=(grid=ultrafine) guess=(read,tcheck) s
 table=(opt,rrhf)
 ----------------------------------------------------------------------
 -----
 title
 -----
 Symbolic Z-matrix:
 Charge =  0 Multiplicity = 1

 SCF Done:  E(RHF) =  -976.918095087     A.U. after   14 cycles
 Normal termination of Gaussian 16 at Tue Apr  8 23:45:23 2025.
 Gaussian 16:  ES64L-G16RevC.01  3-Jul-2019

 ----------------------------------------------------------------------
 #t hf aug-cc-pvdz iop(5/13=1,5/36=2,99/5=2) pseudo=read geom=check gue
 ss=(read,tcheck) scf=(maxcycle=1)
 ----------------------------------------------------------------------
 -----
 title
 -----
 Structure from the checkpoint file:  "BDE49_nonexpt_1746_mol1.chk"
 Charge =  0 Multiplicity = 1

                         Standard orientation:
 ---------------------------------------------------------------------
 Center     Atomic      Atomic             Coordinates (Angstroms)
 Number     Number       Type             X           Y           Z
 ---------------------------------------------------------------------
      1          6           0       -0.522383    2.069670   -0.564383
      2         14           0       -0.302761    0.521155    0.437779
      3          1           0       -0.559707    1.845587   -1.632718
      4          1           0        0.327345    2.732558   -0.379024
      5          1           0       -1.441230    2.590038   -0.284568
      6          6           0        1.395383   -0.273544    0.037008
      7         17           0       -1.798375   -0.884353   -0.020902
      8          8           0        2.370903    0.410580    0.213916
      9          8           0        1.502457   -1.539311   -0.426610
     10          1           0        0.619431   -1.928565   -0.502864
     11          1           0       -0.359690    0.751317    1.891412
 ---------------------------------------------------------------------

 SCF Done:  E(RHF) =  -977.255068110     A.U. after    2 cycles

 The electronic state is 1-A.
 Alpha  occ. eigenvalues -- -105.58120 -69.60476 -20.61114 -20.55393 -11.39231
 Alpha  occ. eigenvalues --  -11.25084 -10.63093  -7.79969  -7.79693  -7.79671
 Alpha  occ. eigenvalues --   -6.27164  -4.02587  -4.02431  -4.02389  -1.55118
 Alpha  occ. eigenvalues --   -1.46609  -1.07762  -0.98641  -0.86136  -0.79895
 Alpha  occ. eigenvalues --   -0.68252  -0.67017  -0.63407  -0.60563  -0.60020
 Alpha  occ. eigenvalues --   -0.56659  -0.54064  -0.53360  -0.50553  -0.48803
 Alpha  occ. eigenvalues --   -0.46927  -0.42399
 Alpha virt. eigenvalues --    0.03086   0.04188   0.04386   0.05143   0.06598
 Alpha virt. eigenvalues --    0.07172   0.07449   0.09600   0.10216   0.11195
 Alpha virt. eigenvalues --    0.11738   0.13708   0.14161   0.14489   0.15313

 Mulliken charges:
               1
     1  C   -0.650509
     2  Si   1.599096
     3  H    0.095225
     4  H    0.103863
     5  H    0.048064
     6  C    1.342757
     7  Cl  -0.602842
     8  O   -1.076577
     9  O   -1.108643
    10  H    0.439108
    11  H   -0.189543
 Sum of Mulliken charges =  -0.00000

 Dipole moment (field-independent basis, Debye):
    X=             -2.9647    Y=              0.9576    Z=             -0.1909  Tot=              3.1214

 Test job not archived.
 1\1\GINC-SE186\SP\RHF\Aug-CC-pVDZ\C2H5Cl1O2Si1\OHZDE\08-Apr-2025\0\\#t
  hf aug-cc-pvdz iop(5/13=1,5/36=2,99/5=2) pseudo=read geom=check guess
 =(read,tcheck) scf=(maxcycle=1)\\title\\0,1\C,0,-0.522383,2.06967,-0.5
 64383\Si,0,-0.302761,0.521155,0.437779\H,0,-0.559707,1.845587,-1.63271
 8\H,0,0.327345,2.732558,-0.379024\H,0,-1.44123,2.590038,-0.284568\C,0,
 1.395383,-0.273544,0.037008\Cl,0,-1.798375,-0.884353,-0.020902\O,0,2.3
 70903,0.41058,0.213916\O,0,1.502457,-1.539311,-0.42661\H,0,0.619431,-1
 .928565,-0.502864\H,0,-0.35969,0.751317,1.891412\\Version=ES64L-G16Rev

 Normal termination of Gaussian 16 at Tue Apr  8 23:45:28 2025.
