 Gaussian 16, Revision C.01,

 ----------------------------------------------------------------------
 #t hf aug-cc-pvdz symm=none int=(grid=ultrafine) guess=(read,tcheck) s
 table=(opt,rrhf)
 ----------------------------------------------------------------------
 -----
 title
 -----
 Symbolic Z-matrix:
 Charge =  0 Multiplicity = 1

 SCF Done:  E(RHF) =  -1484.22156947     A.U. after   15 cycles
 Normal termination of Gaussian 16 at Tue Apr  8 22:49:53 2025.
 Gaussian 16:  ES64L-G16RevC.01  3-Jul-2019

 ----------------------------------------------------------------------
 #t hf aug-cc-pvdz iop(5/13=1,5/36=2,99/5=2) pseudo=read geom=check gue
 ss=(read,tcheck) scf=(maxcycle=1)
 ----------------------------------------------------------------------
 -----
 title
 -----
 Structure from the checkpoint file:  "BDE49_expt_1681_mol1.chk"
 Charge =  0 Multiplicity = 1

                         Standard orientation:
 ---------------------------------------------------------------------
 Center     Atomic      Atomic             Coordinates (Angstroms)
 Number     Number       Type             X           Y           Z
 ---------------------------------------------------------------------
      1          6           0        0.586822    2.007072    0.000004
      2          6           0        1.879120    1.495766    0.000000
      3          6           0        2.063254    0.118358   -0.000003
      4          6           0        0.976026   -0.746198   -0.000003
      5          6           0       -0.322923   -0.237797    0.000000
      6          6           0       -0.510478    1.150907    0.000003
      7          1           0        0.423836    3.076679    0.000006
      8          1           0        2.732014    2.161642    0.000001
      9         17           0       -2.103966    1.866347    0.000007
     10          1           0        1.133055   -1.814875   -0.000006
     11         17           0        3.683968   -0.540836   -0.000007
     12          6           0       -1.483933   -1.208910    0.000000
     13          9           0       -1.054722   -2.489073   -0.000004
     14          9           0       -2.265766   -1.057257   -1.086336
     15          9           0       -2.265763   -1.057262    1.086338
 ---------------------------------------------------------------------

 SCF Done:  E(RHF) =  -1484.90729117     A.U. after    2 cycles

 The electronic state is 1-A.
 Alpha  occ. eigenvalues -- -105.59412-105.59398 -26.51560 -26.51016 -26.51013
 Alpha  occ. eigenvalues --  -11.53708 -11.34854 -11.33896 -11.30709 -11.29556
 Alpha  occ. eigenvalues --  -11.29367 -11.28997 -10.64234 -10.64187  -7.81201
 Alpha  occ. eigenvalues --   -7.81157  -7.80788  -7.80766  -7.80749  -7.80731
 Alpha  occ. eigenvalues --   -1.72102  -1.62015  -1.61708  -1.23176  -1.15784
 Alpha  occ. eigenvalues --   -1.09997  -1.08251  -1.00175  -0.96826  -0.89581
 Alpha  occ. eigenvalues --   -0.86908  -0.81515  -0.81489  -0.79176  -0.72172
 Alpha  occ. eigenvalues --   -0.71942  -0.69392  -0.68722  -0.66992  -0.64252
 Alpha  occ. eigenvalues --   -0.63929  -0.62503  -0.62230  -0.61195  -0.59349
 Alpha  occ. eigenvalues --   -0.57000  -0.55638  -0.53933  -0.48867  -0.48475
 Alpha  occ. eigenvalues --   -0.48149  -0.40056  -0.36620
 Alpha virt. eigenvalues --    0.02959   0.04250   0.04701   0.05800   0.06435
 Alpha virt. eigenvalues --    0.07509   0.07770   0.09083   0.09795   0.10741
 Alpha virt. eigenvalues --    0.11604   0.12264   0.12332   0.12487   0.13335

 Mulliken charges:
               1
     1  C    0.661571
     2  C   -0.010447
     3  C   -0.169045
     4  C    0.038916
     5  C    1.745382
     6  C   -1.366259
     7  H   -0.190529
     8  H   -0.164203
     9  Cl  -0.363923
    10  H   -0.163272
    11  Cl  -0.331696
    12  C    2.701387
    13  F   -0.860001
    14  F   -0.763940
    15  F   -0.763940
 Sum of Mulliken charges =  -0.00000

 Dipole moment (field-independent basis, Debye):
    X=              1.8642    Y=              1.7954    Z=              0.0000  Tot=              2.5882

 Test job not archived.
 1\1\GINC-SE252\SP\RHF\Aug-CC-pVDZ\C7H3Cl2F3\OHZDE\08-Apr-2025\0\\#t hf
  aug-cc-pvdz iop(5/13=1,5/36=2,99/5=2) pseudo=read geom=check guess=(r
 ead,tcheck) scf=(maxcycle=1)\\title\\0,1\C,0,0.586822,2.007072,0.00000
 4\C,0,1.87912,1.495766,0.\C,0,2.063254,0.118358,-0.000003\C,0,0.976026
 ,-0.746198,-0.000003\C,0,-0.322923,-0.237797,0.\C,0,-0.510478,1.150907
 ,0.000003\H,0,0.423836,3.076679,0.000006\H,0,2.732014,2.161642,0.00000
 1\Cl,0,-2.103966,1.866347,0.000007\H,0,1.133055,-1.814875,-0.000006\Cl
 ,0,3.683968,-0.540836,-0.000007\C,0,-1.483933,-1.20891,0.\F,0,-1.05472

 Normal termination of Gaussian 16 at Tue Apr  8 22:50:03 2025.
