 Gaussian 16, Revision C.01,

 ----------------------------------------------------------------------
 #t hf aug-cc-pvdz symm=none int=(grid=ultrafine) guess=(read,tcheck) s
 table=(opt,rrhf)
 ----------------------------------------------------------------------
 -----
 title
 -----
 Symbolic Z-matrix:
 Charge =  0 Multiplicity = 1

 SCF Done:  E(RHF) =  -743.555099618     A.U. after   13 cycles
 Normal termination of Gaussian 16 at Tue Apr  8 22:47:36 2025.
 Gaussian 16:  ES64L-G16RevC.01  3-Jul-2019

 ----------------------------------------------------------------------
 #t hf aug-cc-pvdz iop(5/13=1,5/36=2,99/5=2) pseudo=read geom=check gue
 ss=(read,tcheck) scf=(maxcycle=1)
 ----------------------------------------------------------------------
 -----
 title
 -----
 Structure from the checkpoint file:  "BDE49_expt_1601_mol1.chk"
 Charge =  0 Multiplicity = 1

                         Standard orientation:
 ---------------------------------------------------------------------
 Center     Atomic      Atomic             Coordinates (Angstroms)
 Number     Number       Type             X           Y           Z
 ---------------------------------------------------------------------
      1         16           0       -1.374459   -0.199625   -0.000000
      2          6           0       -2.662296    1.056139   -0.000000
      3          8           0       -1.457062   -0.915471    1.259733
      4          8           0       -1.457062   -0.915472   -1.259732
      5          1           0       -2.578207    1.661403    0.901873
      6          1           0       -3.605917    0.509697   -0.000000
      7          1           0       -2.578207    1.661403   -0.901874
      8          6           0        0.158782    0.764861   -0.000000
      9          6           0        1.377153   -0.160986   -0.000000
     10          1           0        0.130140    1.395903    0.892057
     11          1           0        0.130140    1.395902   -0.892057
     12          6           0        2.697862    0.620171   -0.000000
     13          1           0        1.329104   -0.810661   -0.878791
     14          1           0        1.329104   -0.810660    0.878791
     15          6           0        3.923123   -0.298096   -0.000000
     16          1           0        2.732656    1.276775   -0.877455
     17          1           0        2.732656    1.276775    0.877454
     18          1           0        3.932225   -0.943811   -0.882978
     19          1           0        3.932225   -0.943811    0.882978
     20          1           0        4.850669    0.280091   -0.000000
 ---------------------------------------------------------------------

 SCF Done:  E(RHF) =  -743.987090564     A.U. after    2 cycles

 The electronic state is 1-A.
 Alpha  occ. eigenvalues --  -94.18139 -20.52655 -20.52652 -11.28622 -11.28520
 Alpha  occ. eigenvalues --  -11.24950 -11.24484 -11.23250  -8.43537  -6.41651
 Alpha  occ. eigenvalues --   -6.41422  -6.41359  -1.54532  -1.42652  -1.11526
 Alpha  occ. eigenvalues --   -1.06565  -1.01452  -0.91411  -0.82571  -0.81053
 Alpha  occ. eigenvalues --   -0.69485  -0.68615  -0.66857  -0.65323  -0.61641
 Alpha  occ. eigenvalues --   -0.61265  -0.59868  -0.59672  -0.56435  -0.53283
 Alpha  occ. eigenvalues --   -0.51083  -0.50164  -0.49169  -0.48003  -0.47650
 Alpha  occ. eigenvalues --   -0.45103  -0.42557
 Alpha virt. eigenvalues --    0.02710   0.03301   0.03626   0.04284   0.05284
 Alpha virt. eigenvalues --    0.05578   0.06302   0.07363   0.08224   0.08763
 Alpha virt. eigenvalues --    0.08871   0.10298   0.10902   0.12162   0.13274

 Mulliken charges:
               1
     1  S    3.286610
     2  C   -0.615576
     3  O   -1.583319
     4  O   -1.583319
     5  H    0.229067
     6  H    0.246930
     7  H    0.229069
     8  C   -0.813787
     9  C   -0.063652
    10  H    0.161750
    11  H    0.161749
    12  C   -0.256415
    13  H    0.142940
    14  H    0.142938
    15  C   -0.372820
    16  H    0.118294
    17  H    0.118292
    18  H    0.166521
    19  H    0.166521
    20  H    0.118206
 Sum of Mulliken charges =  -0.00000

 Dipole moment (field-independent basis, Debye):
    X=              1.1515    Y=              4.7741    Z=             -0.0000  Tot=              4.9110

 Test job not archived.
 1\1\GINC-SE435\SP\RHF\Aug-CC-pVDZ\C5H12O2S1\OHZDE\08-Apr-2025\0\\#t hf
  aug-cc-pvdz iop(5/13=1,5/36=2,99/5=2) pseudo=read geom=check guess=(r
 ead,tcheck) scf=(maxcycle=1)\\title\\0,1\S,0,-1.374459,-0.199625,0.\C,
 0,-2.662296,1.056139,0.\O,0,-1.457062,-0.915471,1.259733\O,0,-1.457062
 ,-0.915472,-1.259732\H,0,-2.578207,1.661403,0.901873\H,0,-3.605917,0.5
 09697,0.\H,0,-2.578207,1.661403,-0.901874\C,0,0.158782,0.764861,0.\C,0
 ,1.377153,-0.160986,0.\H,0,0.13014,1.395903,0.892057\H,0,0.13014,1.395
 902,-0.892057\C,0,2.697862,0.620171,0.\H,0,1.329104,-0.810661,-0.87879

 Normal termination of Gaussian 16 at Tue Apr  8 22:47:45 2025.
