 Gaussian 16, Revision C.01,

 ----------------------------------------------------------------------
 #t hf aug-cc-pvdz symm=none int=(grid=ultrafine) guess=(read,tcheck) s
 table=(opt,rrhf)
 ----------------------------------------------------------------------
 -----
 title
 -----
 Symbolic Z-matrix:
 Charge =  0 Multiplicity = 1

 SCF Done:  E(RHF) =  -179.433804690     A.U. after   12 cycles
 Normal termination of Gaussian 16 at Wed Apr  9 00:29:45 2025.
 Gaussian 16:  ES64L-G16RevC.01  3-Jul-2019

 ----------------------------------------------------------------------
 #t hf aug-cc-pvdz iop(5/13=1,5/36=2,99/5=2) pseudo=read geom=check gue
 ss=(read,tcheck) scf=(maxcycle=1)
 ----------------------------------------------------------------------
 -----
 title
 -----
 Structure from the checkpoint file:  "BDE49_nonexpt_327_mol1.chk"
 Charge =  0 Multiplicity = 1

                         Standard orientation:
 ---------------------------------------------------------------------
 Center     Atomic      Atomic             Coordinates (Angstroms)
 Number     Number       Type             X           Y           Z
 ---------------------------------------------------------------------
      1          6           0       -0.683513    0.733652    0.000005
      2          5           0        0.878344    0.609910    0.000011
      3          8           0        1.454672   -0.620716   -0.000006
      4          6           0       -1.487627   -0.574161   -0.000003
      5          1           0       -0.961932    1.357127   -0.863235
      6          1           0       -0.961936    1.357119    0.863248
      7          1           0       -1.254620   -1.181957   -0.878158
      8          1           0       -2.565198   -0.386940   -0.000004
      9          1           0       -1.254623   -1.181965    0.878149
     10          1           0        2.415590   -0.589717   -0.000015
     11          1           0        1.580463    1.585567   -0.000003
 ---------------------------------------------------------------------

 SCF Done:  E(RHF) =  -179.626178665     A.U. after    2 cycles

 The electronic state is 1-A.
 Alpha  occ. eigenvalues --  -20.56161 -11.21580 -11.20295  -7.60731  -1.46144
 Alpha  occ. eigenvalues --   -1.01583  -0.84983  -0.74934  -0.64741  -0.59935
 Alpha  occ. eigenvalues --   -0.58146  -0.54051  -0.52700  -0.48818  -0.48369
 Alpha  occ. eigenvalues --   -0.43981
 Alpha virt. eigenvalues --    0.03219   0.04179   0.04212   0.04628   0.06620
 Alpha virt. eigenvalues --    0.07067   0.07445   0.08422   0.09087   0.11467
 Alpha virt. eigenvalues --    0.12044   0.14716   0.14909   0.16046   0.17047

 Mulliken charges:
               1
     1  C   -0.376416
     2  B    0.861256
     3  O   -1.003357
     4  C   -0.493429
     5  H    0.081237
     6  H    0.081237
     7  H    0.130039
     8  H    0.121270
     9  H    0.130042
    10  H    0.553988
    11  H   -0.085867
 Sum of Mulliken charges =  -0.00000

 Dipole moment (field-independent basis, Debye):
    X=              1.0609    Y=              0.4793    Z=              0.0000  Tot=              1.1641

 Test job not archived.
 1\1\GINC-SE187\SP\RHF\Aug-CC-pVDZ\C2H7B1O1\OHZDE\09-Apr-2025\0\\#t hf
 aug-cc-pvdz iop(5/13=1,5/36=2,99/5=2) pseudo=read geom=check guess=(re
 ad,tcheck) scf=(maxcycle=1)\\title\\0,1\C,0,-0.683513,0.733652,0.00000
 5\B,0,0.878344,0.60991,0.000011\O,0,1.454672,-0.620716,-0.000006\C,0,-
 1.487627,-0.574161,-0.000003\H,0,-0.961932,1.357127,-0.863235\H,0,-0.9
 61936,1.357119,0.863248\H,0,-1.25462,-1.181957,-0.878158\H,0,-2.565198
 ,-0.38694,-0.000004\H,0,-1.254623,-1.181965,0.878149\H,0,2.41559,-0.58
 9717,-0.000015\H,0,1.580463,1.585567,-0.000003\\Version=ES64L-G16RevC.

 Normal termination of Gaussian 16 at Wed Apr  9 00:29:48 2025.
