 Gaussian 16, Revision C.01,

 ----------------------------------------------------------------------
 #t hf aug-cc-pvdz symm=none int=(grid=ultrafine) guess=(read,tcheck) s
 table=(opt,rrhf)
 ----------------------------------------------------------------------
 -----
 title
 -----
 Symbolic Z-matrix:
 Charge =  0 Multiplicity = 1

 SCF Done:  E(RHF) =  -330.293115332     A.U. after   10 cycles

 1\1\GINC-SE461\Stability\RHF\Aug-CC-pVDZ\C1H6Si1\OHZDE\08-Apr-2025\0\\
 #t hf aug-cc-pvdz symm=none int=(grid=ultrafine) guess=(read,tcheck) s
 table=(opt,rrhf)\\title\\0,1\Si,0,-0.634984,0.000001,0.\C,0,1.243607,0
 .000001,0.000002\H,0,1.634968,0.659438,0.779248\H,0,1.634964,0.345126,
 -0.960714\H,0,1.63496,-1.004568,0.181467\H,0,-1.158927,1.365754,-0.246
 707\H,0,-1.158929,-0.469232,1.306123\H,0,-1.158907,-0.896541,-1.05942\
 \Version=ES64L-G16RevC.01\HF=-330.2931153\RMSD=2.914e-09\Dipole=0.2878
 586,0.0000085,0.0000009\Quadrupole=-0.1815152,0.0907578,0.0907574,-0.0

 Normal termination of Gaussian 16 at Tue Apr  8 22:44:26 2025.
 Gaussian 16:  ES64L-G16RevC.01  3-Jul-2019

 ----------------------------------------------------------------------
 #t hf aug-cc-pvdz iop(5/13=1,5/36=2,99/5=2) pseudo=read geom=check gue
 ss=(read,tcheck) scf=(maxcycle=1)
 ----------------------------------------------------------------------
 -----
 title
 -----
 Structure from the checkpoint file:  "BDE49_expt_1536_mol1.chk"
 Charge =  0 Multiplicity = 1

                         Standard orientation:
 ---------------------------------------------------------------------
 Center     Atomic      Atomic             Coordinates (Angstroms)
 Number     Number       Type             X           Y           Z
 ---------------------------------------------------------------------
      1         14           0       -0.634984    0.000001   -0.000000
      2          6           0        1.243607    0.000001    0.000002
      3          1           0        1.634968    0.660988    0.777933
      4          1           0        1.634964    0.343212   -0.961400
      5          1           0        1.634960   -1.004205    0.183467
      6          1           0       -1.158927    1.365260   -0.249427
      7          1           0       -1.158929   -0.466630    1.307055
      8          1           0       -1.158907   -0.898649   -1.057633
 ---------------------------------------------------------------------

 SCF Done:  E(RHF) =  -330.376868472     A.U. after    2 cycles

 The electronic state is 1-A.
 Alpha  occ. eigenvalues --  -69.52341 -11.22195  -6.19421  -3.94794  -3.94794
 Alpha  occ. eigenvalues --   -3.94787  -0.95627  -0.72015  -0.57146  -0.57146
 Alpha  occ. eigenvalues --   -0.47405  -0.47405  -0.46605
 Alpha virt. eigenvalues --    0.03684   0.04419   0.04977   0.04977   0.07725
 Alpha virt. eigenvalues --    0.08557   0.08557   0.09740   0.09740   0.15856
 Alpha virt. eigenvalues --    0.16232   0.16359   0.16359   0.16668   0.20089

 Mulliken charges:
               1
     1  Si   1.201967
     2  C   -0.619255
     3  H    0.051935
     4  H    0.051939
     5  H    0.051937
     6  H   -0.246175
     7  H   -0.246175
     8  H   -0.246173
 Sum of Mulliken charges =   0.00000

 Dipole moment (field-independent basis, Debye):
    X=              0.7258    Y=              0.0000    Z=              0.0000  Tot=              0.7258

 Test job not archived.
 1\1\GINC-SE461\SP\RHF\Aug-CC-pVDZ\C1H6Si1\OHZDE\08-Apr-2025\0\\#t hf a
 ug-cc-pvdz iop(5/13=1,5/36=2,99/5=2) pseudo=read geom=check guess=(rea
 d,tcheck) scf=(maxcycle=1)\\title\\0,1\Si,0,-0.634984,0.000001,0.\C,0,
 1.243607,0.000001,0.000002\H,0,1.634968,0.659438,0.779248\H,0,1.634964
 ,0.345126,-0.960714\H,0,1.63496,-1.004568,0.181467\H,0,-1.158927,1.365
 754,-0.246707\H,0,-1.158929,-0.469232,1.306123\H,0,-1.158907,-0.896541
 ,-1.05942\\Version=ES64L-G16RevC.01\State=1-A\HF=-330.3768685\RMSD=5.4
 78e-03\Dipole=0.2855551,0.000008,0.0000008\Quadrupole=-0.1268782,0.063

 Normal termination of Gaussian 16 at Tue Apr  8 22:44:28 2025.
