 Gaussian 16, Revision C.01,

 ----------------------------------------------------------------------
 #t hf aug-cc-pvdz symm=none int=(grid=ultrafine) guess=(read,tcheck) s
 table=(opt,rrhf)
 ----------------------------------------------------------------------
 -----
 title
 -----
 Symbolic Z-matrix:
 Charge =  0 Multiplicity = 1

 SCF Done:  E(RHF) =  -901.191129006     A.U. after   15 cycles
 Normal termination of Gaussian 16 at Tue Apr  8 23:42:50 2025.
 Gaussian 16:  ES64L-G16RevC.01  3-Jul-2019

 ----------------------------------------------------------------------
 #t hf aug-cc-pvdz iop(5/13=1,5/36=2,99/5=2) pseudo=read geom=check gue
 ss=(read,tcheck) scf=(maxcycle=1)
 ----------------------------------------------------------------------
 -----
 title
 -----
 Structure from the checkpoint file:  "BDE49_nonexpt_1653_mol1.chk"
 Charge =  0 Multiplicity = 1

                         Standard orientation:
 ---------------------------------------------------------------------
 Center     Atomic      Atomic             Coordinates (Angstroms)
 Number     Number       Type             X           Y           Z
 ---------------------------------------------------------------------
      1          6           0        0.641467   -0.388900    0.378295
      2         15           0       -2.774018   -0.101832   -0.429344
      3          6           0       -2.261856    1.691161   -0.621884
      4          1           0       -1.203814    1.824181   -0.849795
      5          1           0       -2.495601    2.222259    0.303556
      6          1           0       -2.857779    2.138644   -1.420013
      7          6           0        1.312729   -1.057159   -0.659311
      8          6           0        2.587929   -0.667795   -1.059354
      9          6           0        3.219824    0.403969   -0.430054
     10          6           0        2.572146    1.080703    0.600650
     11          6           0        1.296354    0.686354    1.000122
     12          1           0        0.810414    1.217754    1.812470
     13          1           0        0.837913   -1.896568   -1.158482
     14          1           0        3.090490   -1.201000   -1.858912
     15          1           0        4.213666    0.707290   -0.740007
     16          1           0        3.061147    1.912067    1.096531
     17         14           0       -1.093183   -0.894141    0.892154
     18          1           0       -2.198517   -0.601929   -1.628263
     19          1           0       -1.339555   -0.394860    2.267576
     20          1           0       -1.215081   -2.372386    0.874547
 ---------------------------------------------------------------------

 SCF Done:  E(RHF) =  -901.554814118     A.U. after    2 cycles

 The electronic state is 1-A.
 Alpha  occ. eigenvalues --  -84.25697 -69.53403 -11.25307 -11.25298 -11.25219
 Alpha  occ. eigenvalues --  -11.24892 -11.24876 -11.24070 -11.23794  -6.72893
 Alpha  occ. eigenvalues --   -6.20431  -4.25262  -4.25135  -4.24617  -3.95759
 Alpha  occ. eigenvalues --   -3.95754  -3.95745  -1.15772  -1.02228  -1.02221
 Alpha  occ. eigenvalues --   -0.98249  -0.84414  -0.83859  -0.80346  -0.73356
 Alpha  occ. eigenvalues --   -0.68412  -0.64630  -0.63965  -0.60526  -0.58251
 Alpha  occ. eigenvalues --   -0.57798  -0.56448  -0.51816  -0.51095  -0.49840
 Alpha  occ. eigenvalues --   -0.46902  -0.46247  -0.41523  -0.35815  -0.35217
 Alpha  occ. eigenvalues --   -0.31563
 Alpha virt. eigenvalues --    0.03226   0.03443   0.03782   0.04289   0.05167
 Alpha virt. eigenvalues --    0.05290   0.05987   0.06865   0.07024   0.07535
 Alpha virt. eigenvalues --    0.08350   0.08591   0.09483   0.09644   0.11057

 Mulliken charges:
               1
     1  C   -0.593620
     2  P   -0.487217
     3  C   -0.728518
     4  H    0.070157
     5  H    0.128941
     6  H    0.045700
     7  C    0.278732
     8  C    0.553104
     9  C    0.295081
    10  C    0.431596
    11  C    0.236800
    12  H   -0.317604
    13  H   -0.343557
    14  H   -0.215829
    15  H   -0.212502
    16  H   -0.220213
    17  Si   0.998905
    18  H    0.406218
    19  H   -0.145154
    20  H   -0.181017
 Sum of Mulliken charges =  -0.00000

 Dipole moment (field-independent basis, Debye):
    X=              1.2921    Y=              0.9919    Z=             -0.5654  Tot=              1.7243

 Test job not archived.
 1\1\GINC-SE273\SP\RHF\Aug-CC-pVDZ\C7H11P1Si1\OHZDE\08-Apr-2025\0\\#t h
 f aug-cc-pvdz iop(5/13=1,5/36=2,99/5=2) pseudo=read geom=check guess=(
 read,tcheck) scf=(maxcycle=1)\\title\\0,1\C,0,0.641467,-0.3889,0.37829
 5\P,0,-2.774018,-0.101832,-0.429344\C,0,-2.261856,1.691161,-0.621884\H
 ,0,-1.203814,1.824181,-0.849795\H,0,-2.495601,2.222259,0.303556\H,0,-2
 .857779,2.138644,-1.420013\C,0,1.312729,-1.057159,-0.659311\C,0,2.5879
 29,-0.667795,-1.059354\C,0,3.219824,0.403969,-0.430054\C,0,2.572146,1.
 080703,0.60065\C,0,1.296354,0.686354,1.000122\H,0,0.810414,1.217754,1.

 Normal termination of Gaussian 16 at Tue Apr  8 23:43:03 2025.
