 Gaussian 16, Revision C.01,

 ----------------------------------------------------------------------
 #t hf aug-cc-pvdz symm=none int=(grid=ultrafine) guess=(read,tcheck) s
 table=(opt,rrhf)
 ----------------------------------------------------------------------
 -----
 title
 -----
 Symbolic Z-matrix:
 Charge =  0 Multiplicity = 1

 SCF Done:  E(RHF) =  -835.796256574     A.U. after   16 cycles
 Normal termination of Gaussian 16 at Tue Apr  8 23:30:01 2025.
 Gaussian 16:  ES64L-G16RevC.01  3-Jul-2019

 ----------------------------------------------------------------------
 #t hf aug-cc-pvdz iop(5/13=1,5/36=2,99/5=2) pseudo=read geom=check gue
 ss=(read,tcheck) scf=(maxcycle=1)
 ----------------------------------------------------------------------
 -----
 title
 -----
 Structure from the checkpoint file:  "BDE49_nonexpt_1327_mol1.chk"
 Charge =  0 Multiplicity = 1

                         Standard orientation:
 ---------------------------------------------------------------------
 Center     Atomic      Atomic             Coordinates (Angstroms)
 Number     Number       Type             X           Y           Z
 ---------------------------------------------------------------------
      1          6           0       -2.358800   -1.531942   -0.011774
      2          6           0       -0.969370   -1.466022   -0.026916
      3          6           0       -3.095172   -0.352723    0.014898
      4          6           0       -2.443756    0.878897    0.025848
      5          6           0       -1.049937    0.974576    0.010974
      6          6           0       -0.311884   -0.229395   -0.016795
      7          1           0       -2.857022   -2.494212   -0.020999
      8          1           0       -0.372328   -2.369453   -0.048402
      9         15           0        1.484006   -0.321028   -0.015239
     10          8           0        2.032670   -1.683995    0.031725
     11          8           0        2.019936    0.603911    1.203439
     12          1           0       -3.029682    1.791680    0.046807
     13          1           0       -4.179071   -0.386516    0.027472
     14          6           0       -0.395146    2.334507    0.017953
     15          1           0       -1.146775    3.121748    0.092569
     16          1           0        0.183606    2.494111   -0.894882
     17          1           0        0.297986    2.435364    0.856049
     18          1           0        2.294199    0.051896    1.945785
     19          8           0        1.880794    0.577541   -1.283185
     20          1           0        2.826196    0.543768   -1.476787
 ---------------------------------------------------------------------

 SCF Done:  E(RHF) =  -836.342888952     A.U. after    2 cycles

 The electronic state is 1-A.
 Alpha  occ. eigenvalues --  -84.42626 -20.59104 -20.58757 -20.49862 -11.27130
 Alpha  occ. eigenvalues --  -11.25952 -11.25899 -11.25378 -11.24742 -11.24724
 Alpha  occ. eigenvalues --  -11.23661  -6.87874  -4.42050  -4.41268  -4.41048
 Alpha  occ. eigenvalues --   -1.53004  -1.46953  -1.38428  -1.17067  -1.05972
 Alpha  occ. eigenvalues --   -1.03599  -0.94901  -0.88483  -0.83060  -0.80995
 Alpha  occ. eigenvalues --   -0.73367  -0.71294  -0.68092  -0.65743  -0.64966
 Alpha  occ. eigenvalues --   -0.62725  -0.61276  -0.59477  -0.58518  -0.56700
 Alpha  occ. eigenvalues --   -0.55199  -0.54237  -0.53517  -0.51149  -0.50906
 Alpha  occ. eigenvalues --   -0.48635  -0.45361  -0.44850  -0.36325  -0.34697
 Alpha virt. eigenvalues --    0.03218   0.03435   0.03812   0.04647   0.04875
 Alpha virt. eigenvalues --    0.05820   0.06935   0.07851   0.08105   0.08195
 Alpha virt. eigenvalues --    0.09455   0.09997   0.10464   0.11631   0.12526

 Mulliken charges:
               1
     1  C    0.077178
     2  C   -0.400338
     3  C    0.023512
     4  C    0.949933
     5  C   -0.269125
     6  C    0.087691
     7  H   -0.221089
     8  H   -0.393002
     9  P    4.563242
    10  O   -1.463267
    11  O   -1.356641
    12  H   -0.309454
    13  H   -0.227811
    14  C   -0.749977
    15  H   -0.018812
    16  H    0.284533
    17  H    0.242539
    18  H    0.286717
    19  O   -1.474863
    20  H    0.369036
 Sum of Mulliken charges =  -0.00000

 Dipole moment (field-independent basis, Debye):
    X=             -1.2001    Y=              2.2094    Z=              0.6526  Tot=              2.5976

 Test job not archived.
 1\1\GINC-SE403\SP\RHF\Aug-CC-pVDZ\C7H9O3P1\OHZDE\08-Apr-2025\0\\#t hf
 aug-cc-pvdz iop(5/13=1,5/36=2,99/5=2) pseudo=read geom=check guess=(re
 ad,tcheck) scf=(maxcycle=1)\\title\\0,1\C,0,-2.3588,-1.531942,-0.01177
 4\C,0,-0.96937,-1.466022,-0.026916\C,0,-3.095172,-0.352723,0.014898\C,
 0,-2.443756,0.878897,0.025848\C,0,-1.049937,0.974576,0.010974\C,0,-0.3
 11884,-0.229395,-0.016795\H,0,-2.857022,-2.494212,-0.020999\H,0,-0.372
 328,-2.369453,-0.048402\P,0,1.484006,-0.321028,-0.015239\O,0,2.03267,-
 1.683995,0.031725\O,0,2.019936,0.603911,1.203439\H,0,-3.029682,1.79168

 Normal termination of Gaussian 16 at Tue Apr  8 23:30:14 2025.
