 Gaussian 16, Revision C.01,

 ----------------------------------------------------------------------
 #t hf aug-cc-pvdz symm=none int=(grid=ultrafine) guess=(read,tcheck) s
 table=opt
 ----------------------------------------------------------------------
 -----
 title
 -----
 Symbolic Z-matrix:
 Charge =  0 Multiplicity = 2

 SCF Done:  E(UHF) =  -276.332818900     A.U. after   16 cycles
 Normal termination of Gaussian 16 at Tue Apr  8 22:38:40 2025.
 Gaussian 16:  ES64L-G16RevC.01  3-Jul-2019

 ----------------------------------------------------------------------
 #t hf aug-cc-pvdz iop(5/13=1,5/36=2,99/5=2) pseudo=read geom=check gue
 ss=(read,tcheck) scf=(maxcycle=1)
 ----------------------------------------------------------------------
 -----
 title
 -----
 Structure from the checkpoint file:  "BDE49_expt_125_mol2.chk"
 Charge =  0 Multiplicity = 2

                         Standard orientation:
 ---------------------------------------------------------------------
 Center     Atomic      Atomic             Coordinates (Angstroms)
 Number     Number       Type             X           Y           Z
 ---------------------------------------------------------------------
      1          6           0       -0.672144    0.472562   -0.313904
      2          1           0       -0.871942    0.809490   -1.323436
      3          6           0        0.643980    0.488331    0.334613
      4          9           0       -1.572101   -0.412476    0.148447
      5          1           0        0.543084    0.297255    1.405437
      6          1           0        1.135957    1.449036    0.165436
      7          9           0        1.501199   -0.512095   -0.189747
 ---------------------------------------------------------------------

 SCF Done:  E(UHF) =  -276.594524460     A.U. after    2 cycles

 The electronic state is 2-A.
 Alpha  occ. eigenvalues --  -26.48734 -26.45290 -11.34849 -11.34188  -1.62114
 Alpha  occ. eigenvalues --   -1.56928  -1.06093  -0.88111  -0.75058  -0.72928
 Alpha  occ. eigenvalues --   -0.71332  -0.67461  -0.66985  -0.61161  -0.54083
 Alpha  occ. eigenvalues --   -0.53632  -0.40274
 Alpha virt. eigenvalues --    0.03494   0.04254   0.05516   0.09070   0.10843
 Alpha virt. eigenvalues --    0.11895   0.12123   0.15090   0.15759   0.16705
 Alpha virt. eigenvalues --    0.20332   0.23634   0.26046   0.27892   0.28591

  Beta  occ. eigenvalues --  -26.48266 -26.44881 -11.34450 -11.32235  -1.60655
  Beta  occ. eigenvalues --   -1.55802  -1.02291  -0.84713  -0.74204  -0.71121
  Beta  occ. eigenvalues --   -0.67434  -0.66360  -0.63404  -0.60497  -0.53693
  Beta  occ. eigenvalues --   -0.52851
  Beta virt. eigenvalues --    0.03536   0.04295   0.05525   0.06371   0.10774
  Beta virt. eigenvalues --    0.11773   0.11988   0.14015   0.15577   0.15885
  Beta virt. eigenvalues --    0.17098   0.21391   0.23795   0.26395   0.28236

 Mulliken charges and spin densities:
               1          2
     1  C    0.674104   1.179580
     2  H    0.072864  -0.079013
     3  C    0.367947  -0.174152
     4  F   -0.694283   0.027574
     5  H    0.109603   0.004296
     6  H    0.139588   0.003830
     7  F   -0.669821   0.037884
 Sum of Mulliken charges =  -0.00000   1.00000

 Dipole moment (field-independent basis, Debye):
    X=             -0.1165    Y=              2.1507    Z=              0.0705  Tot=              2.1550
                          Isotropic Fermi Contact Couplings
        Atom                 a.u.       MegaHertz       Gauss      10(-4) cm-1
     1  C(13)              0.25667     288.54424     102.95976      96.24800
     2  H(1)              -0.02251    -100.59769     -35.89576     -33.55578
     3  C(13)             -0.02477     -27.85119      -9.93800      -9.29016
     4  F(19)              0.06090     256.24931      91.43613      85.47557
     5  H(1)               0.00281      12.53922       4.47431       4.18263
     6  H(1)               0.00251      11.23434       4.00869       3.74737
     7  F(19)              0.06877     289.35576     103.24933      96.51869
 --------------------------------------------------------

 Normal termination of Gaussian 16 at Tue Apr  8 22:38:42 2025.
