 Gaussian 16, Revision C.01,

 ----------------------------------------------------------------------
 #t hf aug-cc-pvdz symm=none int=(grid=ultrafine) guess=(read,tcheck) s
 table=opt
 ----------------------------------------------------------------------
 -----
 title
 -----
 Symbolic Z-matrix:
 Charge =  0 Multiplicity = 2

 SCF Done:  E(UHF) =  -195.726634942     A.U. after   16 cycles
 Normal termination of Gaussian 16 at Tue Apr  8 22:37:50 2025.
 Gaussian 16:  ES64L-G16RevC.01  3-Jul-2019

 ----------------------------------------------------------------------
 #t hf aug-cc-pvdz iop(5/13=1,5/36=2,99/5=2) pseudo=read geom=check gue
 ss=(read,tcheck) scf=(maxcycle=1)
 ----------------------------------------------------------------------
 -----
 title
 -----
 Structure from the checkpoint file:  "BDE49_expt_11_mol2.chk"
 Charge =  0 Multiplicity = 2

                         Standard orientation:
 ---------------------------------------------------------------------
 Center     Atomic      Atomic             Coordinates (Angstroms)
 Number     Number       Type             X           Y           Z
 ---------------------------------------------------------------------
      1          6           0        2.615452   -0.222961   -0.072258
      2          6           0        1.293342    0.454285    0.049892
      3          1           0        2.601858   -0.998250   -0.848373
      4          1           0        2.908168   -0.732566    0.861865
      5          1           0        3.415481    0.482058   -0.312104
      6          6           0        0.020532   -0.323329    0.101065
      7          1           0        1.267384    1.503104    0.331357
      8          6           0       -1.244445    0.526974   -0.084007
      9          1           0       -0.055844   -0.861741    1.064793
     10          1           0        0.043363   -1.118481   -0.659254
     11          6           0       -2.537460   -0.288836   -0.010853
     12          1           0       -1.187491    1.044029   -1.048327
     13          1           0       -1.261635    1.310691    0.682562
     14          1           0       -2.563307   -1.060292   -0.786927
     15          1           0       -3.417589    0.345727   -0.145453
     16          1           0       -2.634911   -0.791079    0.956832
 ---------------------------------------------------------------------

 SCF Done:  E(UHF) =  -195.946744573     A.U. after    2 cycles

 The electronic state is 2-A.
 Alpha  occ. eigenvalues --  -11.23089 -11.22601 -11.22510 -11.22435 -11.22112
 Alpha  occ. eigenvalues --   -1.08765  -1.01970  -0.92715  -0.82259  -0.78354
 Alpha  occ. eigenvalues --   -0.64383  -0.61577  -0.58510  -0.58004  -0.56084
 Alpha  occ. eigenvalues --   -0.53521  -0.51064  -0.48239  -0.47684  -0.47066
 Alpha  occ. eigenvalues --   -0.32914
 Alpha virt. eigenvalues --    0.03738   0.03810   0.04106   0.04158   0.05979
 Alpha virt. eigenvalues --    0.06122   0.06596   0.07467   0.09144   0.09270
 Alpha virt. eigenvalues --    0.10100   0.11367   0.13924   0.14385   0.14522

  Beta  occ. eigenvalues --  -11.22842 -11.22769 -11.22551 -11.22119 -11.20602
  Beta  occ. eigenvalues --   -1.06981  -0.99924  -0.92678  -0.81195  -0.74546
  Beta  occ. eigenvalues --   -0.63267  -0.61001  -0.57105  -0.56035  -0.55345
  Beta  occ. eigenvalues --   -0.52909  -0.50565  -0.47593  -0.47252  -0.46860
  Beta virt. eigenvalues --    0.03758   0.03835   0.04122   0.04183   0.05999
  Beta virt. eigenvalues --    0.06118   0.06527   0.07337   0.09159   0.09268
  Beta virt. eigenvalues --    0.10022   0.11081   0.11952   0.14179   0.14479

 Mulliken charges and spin densities:
               1          2
     1  C   -0.632953  -0.269684
     2  C    0.464852   1.517097
     3  H    0.174367   0.015837
     4  H    0.222889   0.044409
     5  H    0.142031   0.002234
     6  C   -0.645860  -0.308721
     7  H   -0.192112  -0.078282
     8  C   -0.215472   0.031061
     9  H    0.190897   0.043929
    10  H    0.166794   0.012849
    11  C   -0.401127  -0.004444
    12  H    0.144553  -0.001356
    13  H    0.131941  -0.004441
    14  H    0.166233   0.000120
    15  H    0.119602  -0.000081
    16  H    0.163366  -0.000531
 Sum of Mulliken charges =  -0.00000   1.00000

 Dipole moment (field-independent basis, Debye):
    X=              0.0092    Y=             -0.0475    Z=              0.1292  Tot=              0.1379
                          Isotropic Fermi Contact Couplings
        Atom                 a.u.       MegaHertz       Gauss      10(-4) cm-1
     1  C(13)             -0.06093     -68.49559     -24.44093     -22.84767
     2  C(13)              0.22725     255.47613      91.16024      85.21766
     3  H(1)               0.01059      47.31894      16.88457      15.78390
     4  H(1)               0.02476     110.69392      39.49834      36.92352
     5  H(1)               0.00438      19.58760       6.98934       6.53372
     6  C(13)             -0.05954     -66.92908     -23.88196     -22.32514
     7  H(1)              -0.02395    -107.04149     -38.19507     -35.70520
     8  C(13)              0.01033      11.60969       4.14262       3.87257

 Normal termination of Gaussian 16 at Tue Apr  8 22:37:55 2025.
