 Gaussian 16, Revision C.01,

 ----------------------------------------------------------------------
 #t hf aug-cc-pvdz symm=none int=(grid=ultrafine) guess=(read,tcheck) s
 table=(opt,rrhf)
 ----------------------------------------------------------------------
 -----
 title
 -----
 Symbolic Z-matrix:
 Charge =  0 Multiplicity = 1

 SCF Done:  E(RHF) =  -611.909313186     A.U. after   15 cycles
 Normal termination of Gaussian 16 at Wed Apr  9 00:01:01 2025.
 Gaussian 16:  ES64L-G16RevC.01  3-Jul-2019

 ----------------------------------------------------------------------
 #t hf aug-cc-pvdz iop(5/13=1,5/36=2,99/5=2) pseudo=read geom=check gue
 ss=(read,tcheck) scf=(maxcycle=1)
 ----------------------------------------------------------------------
 -----
 title
 -----
 Structure from the checkpoint file:  "BDE49_nonexpt_2105_mol1.chk"
 Charge =  0 Multiplicity = 1

                         Standard orientation:
 ---------------------------------------------------------------------
 Center     Atomic      Atomic             Coordinates (Angstroms)
 Number     Number       Type             X           Y           Z
 ---------------------------------------------------------------------
      1         14           0       -0.079417    0.614619    0.588296
      2          7           0        1.249699   -0.580556   -0.009382
      3          8           0        2.351596   -0.092869   -0.252611
      4          8           0        0.984613   -1.776558   -0.114399
      5          6           0       -1.698180   -0.314957    0.639848
      6          6           0       -2.253276   -0.769247   -0.722616
      7          1           0       -2.420227    0.335575    1.151018
      8          1           0       -1.555452   -1.179849    1.295868
      9          1           0       -1.558991   -1.451713   -1.216669
     10          1           0       -2.433077    0.077086   -1.391268
     11          6           0        0.009294    2.063419   -0.578550
     12          1           0       -0.659671    2.862454   -0.245480
     13          1           0       -0.277625    1.779048   -1.593856
     14          1           0        1.028115    2.454129   -0.607076
     15          1           0       -3.203437   -1.295097   -0.599398
     16          1           0        0.407606    0.957723    1.940382
 ---------------------------------------------------------------------

 SCF Done:  E(RHF) =  -612.270017214     A.U. after    2 cycles

 The electronic state is 1-A.
 Alpha  occ. eigenvalues --  -69.58036 -20.58218 -20.58113 -15.74354 -11.24593
 Alpha  occ. eigenvalues --  -11.24552 -11.24375  -6.24936  -4.00335  -4.00174
 Alpha  occ. eigenvalues --   -4.00159  -1.64394  -1.48540  -1.05138  -0.99785
 Alpha  occ. eigenvalues --   -0.96152  -0.87175  -0.79868  -0.72926  -0.71474
 Alpha  occ. eigenvalues --   -0.66641  -0.62882  -0.61379  -0.58665  -0.57670
 Alpha  occ. eigenvalues --   -0.54573  -0.52177  -0.49455  -0.48579  -0.46126
 Alpha  occ. eigenvalues --   -0.45286  -0.43705
 Alpha virt. eigenvalues --    0.02565   0.03643   0.03824   0.04407   0.05669
 Alpha virt. eigenvalues --    0.05950   0.06401   0.07093   0.07604   0.08393
 Alpha virt. eigenvalues --    0.09159   0.09709   0.10994   0.12699   0.13296

 Mulliken charges:
               1
     1  Si   1.731711
     2  N    1.797106
     3  O   -1.270366
     4  O   -1.173997
     5  C   -0.570257
     6  C   -0.389413
     7  H    0.062647
     8  H    0.109541
     9  H    0.172349
    10  H    0.139933
    11  C   -0.604817
    12  H    0.029470
    13  H    0.093165
    14  H    0.042490
    15  H    0.102091
    16  H   -0.271651
 Sum of Mulliken charges =  -0.00000

 Dipole moment (field-independent basis, Debye):
    X=             -3.9304    Y=              2.7840    Z=              0.7569  Tot=              4.8756

 Test job not archived.
 1\1\GINC-SE095\SP\RHF\Aug-CC-pVDZ\C3H9N1O2Si1\OHZDE\09-Apr-2025\0\\#t
 hf aug-cc-pvdz iop(5/13=1,5/36=2,99/5=2) pseudo=read geom=check guess=
 (read,tcheck) scf=(maxcycle=1)\\title\\0,1\Si,0,0.079417,0.614619,-0.5
 88296\N,0,-1.249699,-0.580556,0.009382\O,0,-2.351596,-0.092869,0.25261
 1\O,0,-0.984613,-1.776558,0.114399\C,0,1.69818,-0.314957,-0.639848\C,0
 ,2.253276,-0.769247,0.722616\H,0,2.420227,0.335575,-1.151018\H,0,1.555
 452,-1.179849,-1.295868\H,0,1.558991,-1.451713,1.216669\H,0,2.433077,0
 .077086,1.391268\C,0,-0.009294,2.063419,0.57855\H,0,0.659671,2.862454,

 Normal termination of Gaussian 16 at Wed Apr  9 00:01:07 2025.
