 Gaussian 16, Revision C.01,

 ----------------------------------------------------------------------
 #t hf aug-cc-pvdz symm=none int=(grid=ultrafine) guess=(read,tcheck) s
 table=opt
 ----------------------------------------------------------------------
 -----
 title
 -----
 Symbolic Z-matrix:
 Charge =  0 Multiplicity = 2

 SCF Done:  E(UHF) =  -2211.40916021     A.U. after   20 cycles

 1\1\GINC-SE073\Stability\UHF\Aug-CC-pVDZ\C1Cl3S2\OHZDE\09-Apr-2025\0\\
 #t hf aug-cc-pvdz symm=none int=(grid=ultrafine) guess=(read,tcheck) s
 table=opt\\title\\0,2\S,0,-2.558708,-0.044925,0.000013\S,0,-0.96729,1.
 102196,-0.000018\C,0,0.552292,-0.02867,-0.000002\Cl,0,1.930348,1.11608
 5,-0.000026\Cl,0,0.596652,-1.050548,-1.459058\Cl,0,0.59666,-1.050497,1
 .459089\\Version=ES64L-G16RevC.01\HF=-2211.4091602\S2=0.768155\S2-1=0.
 \S2A=0.750224\RMSD=6.735e-09\Dipole=-0.0879203,0.0395318,0.0000002\Qua
 drupole=0.1721781,-0.269228,0.0970499,1.0210577,-0.0000204,0.0000008\P

 Normal termination of Gaussian 16 at Wed Apr  9 00:50:05 2025.
 Gaussian 16:  ES64L-G16RevC.01  3-Jul-2019

 ----------------------------------------------------------------------
 #t hf aug-cc-pvdz iop(5/13=1,5/36=2,99/5=2) pseudo=read geom=check gue
 ss=(read,tcheck) scf=(maxcycle=1)
 ----------------------------------------------------------------------
 -----
 title
 -----
 Structure from the checkpoint file:  "BDE49_nonexpt_915_mol2.chk"
 Charge =  0 Multiplicity = 2

                         Standard orientation:
 ---------------------------------------------------------------------
 Center     Atomic      Atomic             Coordinates (Angstroms)
 Number     Number       Type             X           Y           Z
 ---------------------------------------------------------------------
      1         16           0       -2.558708   -0.044924    0.000013
      2         16           0       -0.967290    1.102196   -0.000018
      3          6           0        0.552292   -0.028670   -0.000002
      4         17           0        1.930348    1.116084   -0.000026
      5         17           0        0.596652   -1.050548   -1.459058
      6         17           0        0.596660   -1.050497    1.459089
 ---------------------------------------------------------------------

 SCF Done:  E(UHF) =  -2211.78502387     A.U. after    2 cycles

 The electronic state is 2-A.
 Alpha  occ. eigenvalues -- -105.61194-105.60780-105.60779 -94.03864 -94.01057
 Alpha  occ. eigenvalues --  -11.48064 -10.66002 -10.65607 -10.65600  -8.31746
 Alpha  occ. eigenvalues --   -8.29174  -7.82947  -7.82571  -7.82566  -7.82508
 Alpha  occ. eigenvalues --   -7.82505  -7.82109  -7.82106  -7.82102  -7.82101
 Alpha  occ. eigenvalues --   -6.29447  -6.29412  -6.29171  -6.28039  -6.26643
 Alpha  occ. eigenvalues --   -6.26228  -1.23939  -1.14273  -1.08452  -1.08154
 Alpha  occ. eigenvalues --   -0.94421  -0.80715  -0.65793  -0.65689  -0.65160
 Alpha  occ. eigenvalues --   -0.55757  -0.54772  -0.51630  -0.51285  -0.49327
 Alpha  occ. eigenvalues --   -0.48316  -0.47840  -0.47037  -0.41093  -0.39334
 Alpha virt. eigenvalues --    0.05347   0.05954   0.07988   0.08139   0.08165
 Alpha virt. eigenvalues --    0.08791   0.10805   0.11667   0.12545   0.13095
 Alpha virt. eigenvalues --    0.13099   0.14833   0.15527   0.15672   0.17820

  Beta  occ. eigenvalues -- -105.61196-105.60772-105.60771 -94.03647 -94.00235
  Beta  occ. eigenvalues --  -11.48143 -10.66005 -10.65600 -10.65593  -8.31493
  Beta  occ. eigenvalues --   -8.28231  -7.82954  -7.82538  -7.82533  -7.82518
  Beta  occ. eigenvalues --   -7.82502  -7.82103  -7.82103  -7.82099  -7.82097
  Beta  occ. eigenvalues --   -6.29321  -6.29094  -6.28444  -6.26194  -6.25711
  Beta  occ. eigenvalues --   -6.24415  -1.23657  -1.11329  -1.08436  -1.08086
  Beta  occ. eigenvalues --   -0.89682  -0.78957  -0.65538  -0.65401  -0.64534
  Beta  occ. eigenvalues --   -0.54080  -0.52991  -0.50590  -0.49161  -0.48953
  Beta  occ. eigenvalues --   -0.47667  -0.47009  -0.43417  -0.39396
  Beta virt. eigenvalues --   -0.01802   0.05415   0.06320   0.08059   0.08195
  Beta virt. eigenvalues --    0.08235   0.08814   0.11136   0.11750   0.12840
  Beta virt. eigenvalues --    0.13358   0.13944   0.14898   0.16179   0.16577

 Mulliken charges and spin densities:
               1          2
     1  S    0.022750   0.906158
     2  S    0.413753   0.128110
     3  C   -1.125496  -0.041193
     4  Cl   0.289656  -0.002132
     5  Cl   0.199668   0.004529
     6  Cl   0.199669   0.004529
 Sum of Mulliken charges =  -0.00000   1.00000

 Dipole moment (field-independent basis, Debye):
    X=             -0.2245    Y=              0.0876    Z=              0.0000  Tot=              0.2410
                          Isotropic Fermi Contact Couplings
        Atom                 a.u.       MegaHertz       Gauss      10(-4) cm-1
     1  S(33)              0.19365      66.51347      23.73366      22.18651
     2  S(33)              0.09219      31.66508      11.29889      10.56233
     3  C(13)             -0.01542     -17.33015      -6.18383      -5.78071
     4  Cl(35)            -0.00223      -0.97764      -0.34885      -0.32611
     5  Cl(35)            -0.00078      -0.34335      -0.12251      -0.11453
     6  Cl(35)            -0.00078      -0.34337      -0.12252      -0.11454
 --------------------------------------------------------
       Center         ----  Spin Dipole Couplings  ----

 Normal termination of Gaussian 16 at Wed Apr  9 00:50:08 2025.
