 Gaussian 16, Revision C.01,

 ----------------------------------------------------------------------
 #t hf aug-cc-pvdz symm=none int=(grid=ultrafine) guess=(read,tcheck) s
 table=(opt,rrhf)
 ----------------------------------------------------------------------
 -----
 title
 -----
 Symbolic Z-matrix:
 Charge =  0 Multiplicity = 1

 SCF Done:  E(RHF) =  -567.772502621     A.U. after   16 cycles
 Normal termination of Gaussian 16 at Wed Apr  9 00:35:13 2025.
 Gaussian 16:  ES64L-G16RevC.01  3-Jul-2019

 ----------------------------------------------------------------------
 #t hf aug-cc-pvdz iop(5/13=1,5/36=2,99/5=2) pseudo=read geom=check gue
 ss=(read,tcheck) scf=(maxcycle=1)
 ----------------------------------------------------------------------
 -----
 title
 -----
 Structure from the checkpoint file:  "BDE49_nonexpt_432_mol1.chk"
 Charge =  0 Multiplicity = 1

                         Standard orientation:
 ---------------------------------------------------------------------
 Center     Atomic      Atomic             Coordinates (Angstroms)
 Number     Number       Type             X           Y           Z
 ---------------------------------------------------------------------
      1          9           0       -3.388233    0.032791   -0.000019
      2          9           0       -2.227806   -1.905266   -0.000018
      3          5           0       -2.203685   -0.573035    0.000020
      4          6           0       -0.879500    0.215993    0.000012
      5          6           0        0.346980   -0.474615    0.000009
      6          6           0        1.550024    0.229726    0.000002
      7          6           0        1.529119    1.632056   -0.000002
      8          6           0       -0.883968    1.615920    0.000007
      9          1           0       -1.825920    2.151230    0.000009
     10          6           0        0.321964    2.315874    0.000000
     11          1           0        0.323412    3.399993   -0.000003
     12          1           0        2.476744    2.157467   -0.000007
     13          1           0        0.336609   -1.556328    0.000013
     14          8           0        2.786846   -0.340101    0.000000
     15          6           0        2.878947   -1.759091    0.000005
     16          1           0        2.416168   -2.191332   -0.893936
     17          1           0        2.416174   -2.191325    0.893952
     18          1           0        3.943430   -1.986621    0.000002
 ---------------------------------------------------------------------

 SCF Done:  E(RHF) =  -568.327509924     A.U. after    2 cycles

 The electronic state is 1-A.
 Alpha  occ. eigenvalues --  -26.47331 -26.47238 -20.58049 -11.31688 -11.30253
 Alpha  occ. eigenvalues --  -11.25688 -11.25641 -11.25559 -11.25434 -11.24126
 Alpha  occ. eigenvalues --   -7.71499  -1.62375  -1.58330  -1.50502  -1.16329
 Alpha  occ. eigenvalues --   -1.04036  -1.03014  -0.95635  -0.86545  -0.83311
 Alpha  occ. eigenvalues --   -0.79665  -0.75184  -0.73683  -0.69249  -0.68713
 Alpha  occ. eigenvalues --   -0.68416  -0.68027  -0.66423  -0.63681  -0.62723
 Alpha  occ. eigenvalues --   -0.61373  -0.59584  -0.58165  -0.54330  -0.53885
 Alpha  occ. eigenvalues --   -0.53054  -0.49194  -0.48134  -0.36668  -0.33138
 Alpha virt. eigenvalues --    0.03210   0.03472   0.04069   0.04461   0.04995
 Alpha virt. eigenvalues --    0.05209   0.06175   0.06359   0.06584   0.08449
 Alpha virt. eigenvalues --    0.09062   0.10453   0.10918   0.11575   0.12482

 Mulliken charges:
               1
     1  F   -0.798466
     2  F   -0.776986
     3  B    1.087294
     4  C    1.087980
     5  C   -0.394060
     6  C    1.995258
     7  C    0.003450
     8  C   -0.073506
     9  H   -0.302438
    10  C    0.509027
    11  H   -0.200789
    12  H   -0.268400
    13  H   -0.463450
    14  O   -1.887063
    15  C    0.159786
    16  H    0.187462
    17  H    0.187461
    18  H   -0.052560
 Sum of Mulliken charges =  -0.00000

 Dipole moment (field-independent basis, Debye):
    X=              2.0257    Y=             -0.0128    Z=              0.0001  Tot=              2.0258

 Test job not archived.
 1\1\GINC-SE460\SP\RHF\Aug-CC-pVDZ\C7H7B1F2O1\OHZDE\09-Apr-2025\0\\#t h
 f aug-cc-pvdz iop(5/13=1,5/36=2,99/5=2) pseudo=read geom=check guess=(
 read,tcheck) scf=(maxcycle=1)\\title\\0,1\F,0,-3.388233,0.032791,-0.00
 0019\F,0,-2.227806,-1.905266,-0.000018\B,0,-2.203685,-0.573035,0.00002
 \C,0,-0.8795,0.215993,0.000012\C,0,0.34698,-0.474615,0.000009\C,0,1.55
 0024,0.229726,0.000002\C,0,1.529119,1.632056,-0.000002\C,0,-0.883968,1
 .61592,0.000007\H,0,-1.82592,2.15123,0.000009\C,0,0.321964,2.315874,0.
 \H,0,0.323412,3.399993,-0.000003\H,0,2.476744,2.157467,-0.000007\H,0,0

 Normal termination of Gaussian 16 at Wed Apr  9 00:35:22 2025.
