 Gaussian 16, Revision C.01,

 ----------------------------------------------------------------------
 #t hf aug-cc-pvdz symm=none int=(grid=ultrafine) guess=(read,tcheck) s
 table=(opt,rrhf)
 ----------------------------------------------------------------------
 -----
 title
 -----
 Symbolic Z-matrix:
 Charge =  0 Multiplicity = 1

 SCF Done:  E(RHF) =  -719.293949766     A.U. after   16 cycles
 Normal termination of Gaussian 16 at Wed Apr  9 00:54:09 2025.
 Gaussian 16:  ES64L-G16RevC.01  3-Jul-2019

 ----------------------------------------------------------------------
 #t hf aug-cc-pvdz iop(5/13=1,5/36=2,99/5=2) pseudo=read geom=check gue
 ss=(read,tcheck) scf=(maxcycle=1)
 ----------------------------------------------------------------------
 -----
 title
 -----
 Structure from the checkpoint file:  "BDE49_nonexpt_993_mol1.chk"
 Charge =  0 Multiplicity = 1

                         Standard orientation:
 ---------------------------------------------------------------------
 Center     Atomic      Atomic             Coordinates (Angstroms)
 Number     Number       Type             X           Y           Z
 ---------------------------------------------------------------------
      1          6           0       -1.249228    0.189319   -0.279980
      2         16           0        0.113513   -0.905827    0.300350
      3          7           0        1.583135    0.099593   -0.111057
      4          8           0        1.427530    1.166828   -0.668235
      5          8           0        2.631214   -0.414725    0.212897
      6          6           0       -2.479892   -0.711794   -0.448483
      7          1           0       -2.784335   -1.160850    0.501175
      8          1           0       -2.302710   -1.512240   -1.169211
      9          6           0       -1.495304    1.360493    0.668887
     10          1           0       -0.922032    0.554460   -1.255045
     11          1           0       -2.296824    1.991877    0.271979
     12          1           0       -0.602918    1.977412    0.773232
     13          1           0       -1.796643    1.006981    1.658217
     14          1           0       -3.316097   -0.106489   -0.808381
 ---------------------------------------------------------------------

 SCF Done:  E(RHF) =  -719.675450250     A.U. after    2 cycles

 The electronic state is 1-A.
 Alpha  occ. eigenvalues --  -94.02247 -20.60221 -20.60160 -15.80528 -11.30631
 Alpha  occ. eigenvalues --  -11.26346 -11.24980  -8.30040  -6.27833  -6.27565
 Alpha  occ. eigenvalues --   -6.27345  -1.68496  -1.52679  -1.15479  -1.06425
 Alpha  occ. eigenvalues --   -0.96738  -0.90821  -0.82352  -0.76907  -0.75692
 Alpha  occ. eigenvalues --   -0.75323  -0.65607  -0.62497  -0.60337  -0.57497
 Alpha  occ. eigenvalues --   -0.53780  -0.53043  -0.50947  -0.47838  -0.46954
 Alpha  occ. eigenvalues --   -0.46350  -0.41205
 Alpha virt. eigenvalues --    0.02847   0.03732   0.03908   0.05065   0.06129
 Alpha virt. eigenvalues --    0.06250   0.06516   0.07711   0.07937   0.08862
 Alpha virt. eigenvalues --    0.11921   0.12507   0.13421   0.14987   0.15204

 Mulliken charges:
               1
     1  C   -1.066798
     2  S    0.692838
     3  N    1.801946
     4  O   -1.193395
     5  O   -1.216006
     6  C   -0.099790
     7  H    0.207090
     8  H    0.147061
     9  C   -0.271388
    10  H    0.252542
    11  H    0.182794
    12  H    0.141151
    13  H    0.229387
    14  H    0.192569
 Sum of Mulliken charges =   0.00000

 Dipole moment (field-independent basis, Debye):
    X=             -4.7172    Y=             -0.2173    Z=             -0.0800  Tot=              4.7229

 Test job not archived.
 1\1\GINC-SE120\SP\RHF\Aug-CC-pVDZ\C3H7N1O2S1\OHZDE\09-Apr-2025\0\\#t h
 f aug-cc-pvdz iop(5/13=1,5/36=2,99/5=2) pseudo=read geom=check guess=(
 read,tcheck) scf=(maxcycle=1)\\title\\0,1\C,0,-1.249228,0.189319,-0.27
 998\S,0,0.113513,-0.905827,0.30035\N,0,1.583135,0.099593,-0.111057\O,0
 ,1.42753,1.166828,-0.668235\O,0,2.631214,-0.414724,0.212897\C,0,-2.479
 892,-0.711795,-0.448483\H,0,-2.784335,-1.160851,0.501175\H,0,-2.30271,
 -1.512241,-1.169211\C,0,-1.495304,1.360493,0.668887\H,0,-0.922032,0.55
 446,-1.255045\H,0,-2.296825,1.991876,0.271979\H,0,-0.602919,1.977412,0

 Normal termination of Gaussian 16 at Wed Apr  9 00:54:22 2025.
