 Gaussian 16, Revision C.01,

 ----------------------------------------------------------------------
 #t hf aug-cc-pvdz symm=none int=(grid=ultrafine) guess=(read,tcheck) s
 table=(opt,rrhf)
 ----------------------------------------------------------------------
 -----
 title
 -----
 Symbolic Z-matrix:
 Charge =  0 Multiplicity = 1

 SCF Done:  E(RHF) =  -828.739203637     A.U. after   16 cycles
 Normal termination of Gaussian 16 at Tue Apr  8 23:37:01 2025.
 Gaussian 16:  ES64L-G16RevC.01  3-Jul-2019

 ----------------------------------------------------------------------
 #t hf aug-cc-pvdz iop(5/13=1,5/36=2,99/5=2) pseudo=read geom=check gue
 ss=(read,tcheck) scf=(maxcycle=1)
 ----------------------------------------------------------------------
 -----
 title
 -----
 Structure from the checkpoint file:  "BDE49_nonexpt_1517_mol1.chk"
 Charge =  0 Multiplicity = 1

                         Standard orientation:
 ---------------------------------------------------------------------
 Center     Atomic      Atomic             Coordinates (Angstroms)
 Number     Number       Type             X           Y           Z
 ---------------------------------------------------------------------
      1         15           0       -0.266947   -0.169373   -0.781724
      2          7           0        1.251450   -1.050338   -0.025815
      3          7           0       -0.172992    1.386846   -0.060960
      4          8           0        1.344149   -2.244168   -0.241377
      5          8           0        2.060611   -0.381485    0.615370
      6          8           0        0.115757    1.507337    1.304384
      7          8           0        0.692658    2.218349   -0.817796
      8          6           0       -1.458879   -0.963472    0.388873
      9          6           0       -2.899873   -0.506912    0.127366
     10          1           0       -1.156465   -0.745123    1.414860
     11          1           0       -1.349054   -2.038117    0.218981
     12          1           0       -3.015346    0.562158    0.313709
     13          1           0       -3.584836   -1.040370    0.790678
     14          1           0       -3.206975   -0.709260   -0.902202
     15          1           0        0.202825    3.048669   -0.882954
     16          1           0        1.011967    1.129123    1.398130
 ---------------------------------------------------------------------

 SCF Done:  E(RHF) =  -829.262654041     A.U. after    2 cycles

 The electronic state is 1-A.
 Alpha  occ. eigenvalues --  -84.37384 -20.61745 -20.60972 -20.60321 -20.59730
 Alpha  occ. eigenvalues --  -15.77330 -15.63805 -11.27589 -11.25866  -6.83842
 Alpha  occ. eigenvalues --   -4.36680  -4.36307  -4.35537  -1.66978  -1.56651
 Alpha  occ. eigenvalues --   -1.51104  -1.46888  -1.13252  -1.05789  -0.99919
 Alpha  occ. eigenvalues --   -0.89694  -0.84141  -0.78019  -0.77306  -0.75056
 Alpha  occ. eigenvalues --   -0.73580  -0.69057  -0.66795  -0.65259  -0.63410
 Alpha  occ. eigenvalues --   -0.58115  -0.56197  -0.53925  -0.51344  -0.50722
 Alpha  occ. eigenvalues --   -0.50041  -0.48779  -0.45936  -0.44694  -0.39818
 Alpha virt. eigenvalues --    0.03238   0.03830   0.04307   0.04811   0.05466
 Alpha virt. eigenvalues --    0.05963   0.07215   0.07568   0.08008   0.09535
 Alpha virt. eigenvalues --    0.10337   0.12465   0.13751   0.14422   0.14899

 Mulliken charges:
               1
     1  P    1.024659
     2  N    2.092220
     3  N    1.392030
     4  O   -1.347399
     5  O   -1.272641
     6  O   -1.215167
     7  O   -1.098593
     8  C   -0.631251
     9  C   -0.458046
    10  H    0.159320
    11  H    0.158893
    12  H    0.181596
    13  H    0.122764
    14  H    0.169668
    15  H    0.321103
    16  H    0.400843
 Sum of Mulliken charges =  -0.00000

 Dipole moment (field-independent basis, Debye):
    X=             -3.7815    Y=              1.3029    Z=             -0.7537  Tot=              4.0700

 Test job not archived.
 1\1\GINC-SE393\SP\RHF\Aug-CC-pVDZ\C2H7N2O4P1\OHZDE\08-Apr-2025\0\\#t h
 f aug-cc-pvdz iop(5/13=1,5/36=2,99/5=2) pseudo=read geom=check guess=(
 read,tcheck) scf=(maxcycle=1)\\title\\0,1\P,0,-0.266947,-0.169373,-0.7
 81724\N,0,1.25145,-1.050338,-0.025815\N,0,-0.172992,1.386846,-0.06096\
 O,0,1.34415,-2.244168,-0.241377\O,0,2.060611,-0.381484,0.61537\O,0,0.1
 15757,1.507337,1.304384\O,0,0.692657,2.218349,-0.817796\C,0,-1.458879,
 -0.963473,0.388873\C,0,-2.899873,-0.506913,0.127366\H,0,-1.156465,-0.7
 45123,1.41486\H,0,-1.349053,-2.038118,0.218981\H,0,-3.015346,0.562157,

 Normal termination of Gaussian 16 at Tue Apr  8 23:37:09 2025.
