 Gaussian 16, Revision C.01,

 ----------------------------------------------------------------------
 #t hf aug-cc-pvdz symm=none int=(grid=ultrafine) guess=(read,tcheck) s
 table=(opt,rrhf)
 ----------------------------------------------------------------------
 -----
 title
 -----
 Symbolic Z-matrix:
 Charge =  0 Multiplicity = 1

 SCF Done:  E(RHF) =  -918.036156706     A.U. after   13 cycles
 Normal termination of Gaussian 16 at Tue Apr  8 23:46:16 2025.
 Gaussian 16:  ES64L-G16RevC.01  3-Jul-2019

 ----------------------------------------------------------------------
 #t hf aug-cc-pvdz iop(5/13=1,5/36=2,99/5=2) pseudo=read geom=check gue
 ss=(read,tcheck) scf=(maxcycle=1)
 ----------------------------------------------------------------------
 -----
 title
 -----
 Structure from the checkpoint file:  "BDE49_nonexpt_1781_mol1.chk"
 Charge =  0 Multiplicity = 1

                         Standard orientation:
 ---------------------------------------------------------------------
 Center     Atomic      Atomic             Coordinates (Angstroms)
 Number     Number       Type             X           Y           Z
 ---------------------------------------------------------------------
      1         14           0       -0.315194   -0.886356   -0.000002
      2          6           0        1.331517    0.078797   -0.000032
      3         17           0       -1.985261    0.385059    0.000004
      4          7           0        1.366497    1.432986   -0.000005
      5          1           0        0.520643    1.979786    0.000006
      6          1           0        2.260591    1.904787    0.000012
      7          8           0        2.321638   -0.638785    0.000019
      8          1           0       -0.373369   -1.707495    1.219490
      9          1           0       -0.373392   -1.707506   -1.219484
 ---------------------------------------------------------------------

 SCF Done:  E(RHF) =  -918.313444341     A.U. after    2 cycles

 The electronic state is 1-A.
 Alpha  occ. eigenvalues -- -105.57318 -69.59776 -20.53209 -15.54714 -11.36508
 Alpha  occ. eigenvalues --  -10.62300  -7.79179  -7.78889  -7.78872  -6.26465
 Alpha  occ. eigenvalues --   -4.01900  -4.01737  -4.01707  -1.47254  -1.23815
 Alpha  occ. eigenvalues --   -1.06659  -0.87895  -0.80159  -0.75074  -0.66837
 Alpha  occ. eigenvalues --   -0.60943  -0.58743  -0.54803  -0.54525  -0.49606
 Alpha  occ. eigenvalues --   -0.47303  -0.44856  -0.41383
 Alpha virt. eigenvalues --    0.02910   0.04671   0.05377   0.05427   0.06323
 Alpha virt. eigenvalues --    0.06807   0.08640   0.10884   0.11112   0.12066
 Alpha virt. eigenvalues --    0.12869   0.13871   0.14532   0.16023   0.16646

 Mulliken charges:
               1
     1  Si   1.262550
     2  C    0.048124
     3  Cl  -0.573926
     4  N    0.562714
     5  H    0.057847
     6  H    0.069755
     7  O   -1.117588
     8  H   -0.154737
     9  H   -0.154739
 Sum of Mulliken charges =  -0.00000

 Dipole moment (field-independent basis, Debye):
    X=             -0.8892    Y=              1.7751    Z=             -0.0000  Tot=              1.9854

 Test job not archived.
 1\1\GINC-SE460\SP\RHF\Aug-CC-pVDZ\C1H4Cl1N1O1Si1\OHZDE\08-Apr-2025\0\\
 #t hf aug-cc-pvdz iop(5/13=1,5/36=2,99/5=2) pseudo=read geom=check gue
 ss=(read,tcheck) scf=(maxcycle=1)\\title\\0,1\Si,0,0.315194,-0.886356,
 0.000002\C,0,-1.331517,0.078797,0.000032\Cl,0,1.985261,0.385059,-0.000
 004\N,0,-1.366497,1.432986,0.000005\H,0,-0.520643,1.979786,-0.000006\H
 ,0,-2.260591,1.904787,-0.000012\O,0,-2.321638,-0.638785,-0.000019\H,0,
 0.373369,-1.707495,-1.21949\H,0,0.373392,-1.707506,1.219484\\Version=E
 S64L-G16RevC.01\State=1-A\HF=-918.3134443\RMSD=1.001e-02\Dipole=0.3498

 Normal termination of Gaussian 16 at Tue Apr  8 23:46:19 2025.
