 Gaussian 16, Revision C.01,

 ----------------------------------------------------------------------
 #t hf aug-cc-pvdz symm=none int=(grid=ultrafine) guess=(read,tcheck) s
 table=(opt,rrhf)
 ----------------------------------------------------------------------
 -----
 title
 -----
 Symbolic Z-matrix:
 Charge =  0 Multiplicity = 1

 SCF Done:  E(RHF) =  -271.978824348     A.U. after   14 cycles
 Normal termination of Gaussian 16 at Wed Apr  9 00:27:17 2025.
 Gaussian 16:  ES64L-G16RevC.01  3-Jul-2019

 ----------------------------------------------------------------------
 #t hf aug-cc-pvdz iop(5/13=1,5/36=2,99/5=2) pseudo=read geom=check gue
 ss=(read,tcheck) scf=(maxcycle=1)
 ----------------------------------------------------------------------
 -----
 title
 -----
 Structure from the checkpoint file:  "BDE49_nonexpt_282_mol1.chk"
 Charge =  0 Multiplicity = 1

                         Standard orientation:
 ---------------------------------------------------------------------
 Center     Atomic      Atomic             Coordinates (Angstroms)
 Number     Number       Type             X           Y           Z
 ---------------------------------------------------------------------
      1          6           0        0.000000   -0.000000   -1.004500
      2          6           0        0.000000    1.194470   -0.261610
      3          6           0        0.000000    1.143402    1.129515
      4          7           0        0.000000    0.000000    1.822669
      5          6           0       -0.000000   -1.143402    1.129515
      6          6           0       -0.000000   -1.194470   -0.261610
      7          1           0        0.000000    2.153136   -0.768664
      8          1           0        0.000000    2.056971    1.717647
      9          1           0       -0.000000   -2.056971    1.717647
     10          1           0       -0.000000   -2.153136   -0.768664
     11          5           0        0.000000   -0.000000   -2.549491
     12          1           0        0.000000    1.030555   -3.148529
     13          1           0       -0.000000   -1.030555   -3.148529
 ---------------------------------------------------------------------

 SCF Done:  E(RHF) =  -272.256720090     A.U. after    2 cycles

 The electronic state is 1-A1.
 Alpha  occ. eigenvalues --  -15.51839 -11.28382 -11.28382 -11.26028 -11.26022
 Alpha  occ. eigenvalues --  -11.24563  -7.61057  -1.26512  -1.09317  -1.04331
 Alpha  occ. eigenvalues --   -0.88137  -0.87927  -0.75815  -0.69693  -0.67608
 Alpha  occ. eigenvalues --   -0.66105  -0.61601  -0.56547  -0.54153  -0.53236
 Alpha  occ. eigenvalues --   -0.49327  -0.45428  -0.41124  -0.36141
 Alpha virt. eigenvalues --    0.01733   0.03280   0.03478   0.04087   0.04768
 Alpha virt. eigenvalues --    0.05275   0.06294   0.07746   0.08000   0.09574
 Alpha virt. eigenvalues --    0.10508   0.11456   0.12733   0.12754   0.13092

 Mulliken charges:
               1
     1  C    0.035440
     2  C    0.881033
     3  C   -0.898078
     4  N    1.024833
     5  C   -0.898078
     6  C    0.881033
     7  H   -0.248928
     8  H   -0.168209
     9  H   -0.168209
    10  H   -0.248928
    11  B   -0.631071
    12  H    0.219581
    13  H    0.219581
 Sum of Mulliken charges =  -0.00000

 Dipole moment (field-independent basis, Debye):
    X=              0.0000    Y=             -0.0000    Z=             -1.7661  Tot=              1.7661

 Test job not archived.
 1\1\GINC-SE249\SP\RHF\Aug-CC-pVDZ\C5H6B1N1\OHZDE\09-Apr-2025\0\\#t hf
 aug-cc-pvdz iop(5/13=1,5/36=2,99/5=2) pseudo=read geom=check guess=(re
 ad,tcheck) scf=(maxcycle=1)\\title\\0,1\C,0,0.,0.,-1.0045\C,0,0.,1.194
 47,-0.26161\C,0,0.,1.143402,1.129515\N,0,0.,0.,1.822669\C,0,0.,-1.1434
 02,1.129515\C,0,0.,-1.19447,-0.26161\H,0,0.,2.153136,-0.768664\H,0,0.,
 2.056971,1.717647\H,0,0.,-2.056971,1.717647\H,0,0.,-2.153136,-0.768664
 \B,0,0.,0.,-2.549491\H,0,0.,1.030555,-3.148529\H,0,0.,-1.030555,-3.148
 529\\Version=ES64L-G16RevC.01\State=1-A1\HF=-272.2567201\RMSD=4.634e-0

 Normal termination of Gaussian 16 at Wed Apr  9 00:27:21 2025.
