 Gaussian 16, Revision C.01,

 ----------------------------------------------------------------------
 #t hf aug-cc-pvdz symm=none int=(grid=ultrafine) guess=(read,tcheck) s
 table=(opt,rrhf)
 ----------------------------------------------------------------------
 -----
 title
 -----
 Symbolic Z-matrix:
 Charge =  0 Multiplicity = 1

 SCF Done:  E(RHF) =  -879.756899641     A.U. after   19 cycles
 Normal termination of Gaussian 16 at Wed Apr  9 00:26:45 2025.
 Gaussian 16:  ES64L-G16RevC.01  3-Jul-2019

 ----------------------------------------------------------------------
 #t hf aug-cc-pvdz iop(5/13=1,5/36=2,99/5=2) pseudo=read geom=check gue
 ss=(read,tcheck) scf=(maxcycle=1)
 ----------------------------------------------------------------------
 -----
 title
 -----
 Structure from the checkpoint file:  "BDE49_nonexpt_2701_mol1.chk"
 Charge =  0 Multiplicity = 1

                         Standard orientation:
 ---------------------------------------------------------------------
 Center     Atomic      Atomic             Coordinates (Angstroms)
 Number     Number       Type             X           Y           Z
 ---------------------------------------------------------------------
      1          9           0       -2.542268   -1.451806    0.843496
      2          6           0       -0.980005    0.507246   -0.097052
      3         16           0       -2.473568   -0.350312   -0.442746
      4          6           0        0.298709   -0.145945   -0.077163
      5          6           0        0.452604   -1.551354   -0.152163
      6          1           0       -0.430329   -2.173979   -0.205324
      7          6           0        1.703909   -2.121789   -0.122161
      8          1           0        1.804178   -3.199554   -0.181044
      9          6           0        2.859829   -1.319134   -0.009934
     10          1           0        3.838245   -1.785041    0.014926
     11          6           0        2.742615    0.046884    0.071877
     12          1           0        3.625212    0.671107    0.162594
     13          6           0        1.468580    0.669402    0.041459
     14          6           0        1.331888    2.081550    0.114946
     15          1           0        2.229459    2.685912    0.193845
     16          6           0        0.095614    2.677207    0.097256
     17          1           0        0.003165    3.754635    0.166257
     18          6           0       -1.068306    1.883785    0.016630
     19          1           0       -2.045057    2.351049    0.039063
 ---------------------------------------------------------------------

 SCF Done:  E(RHF) =  -880.292586675     A.U. after    2 cycles

 The electronic state is 1-A.
 Alpha  occ. eigenvalues --  -94.03381 -26.45705 -11.28869 -11.27488 -11.27090
 Alpha  occ. eigenvalues --  -11.26961 -11.26575 -11.26040 -11.25743 -11.25560
 Alpha  occ. eigenvalues --  -11.25478 -11.25105  -8.30625  -6.28422  -6.28135
 Alpha  occ. eigenvalues --   -6.27853  -1.55176  -1.19956  -1.13435  -1.08990
 Alpha  occ. eigenvalues --   -1.02833  -1.02199  -0.96022  -0.87300  -0.86593
 Alpha  occ. eigenvalues --   -0.81788  -0.73475  -0.72334  -0.71068  -0.66066
 Alpha  occ. eigenvalues --   -0.65150  -0.63852  -0.62990  -0.61918  -0.61504
 Alpha  occ. eigenvalues --   -0.59114  -0.57138  -0.55589  -0.53161  -0.51911
 Alpha  occ. eigenvalues --   -0.48157  -0.47462  -0.42486  -0.37498  -0.34509
 Alpha  occ. eigenvalues --   -0.31473
 Alpha virt. eigenvalues --    0.02862   0.03083   0.03716   0.03823   0.04560
 Alpha virt. eigenvalues --    0.05440   0.07049   0.07311   0.07822   0.08366
 Alpha virt. eigenvalues --    0.08921   0.09974   0.11149   0.11728   0.11874

 Mulliken charges:
               1
     1  F   -0.674334
     2  C    0.280800
     3  S    0.584024
     4  C    1.622275
     5  C   -0.051049
     6  H   -0.247346
     7  C   -0.272826
     8  H   -0.226734
     9  C   -0.045398
    10  H   -0.237611
    11  C   -0.019731
    12  H   -0.308246
    13  C    1.066734
    14  C   -0.146204
    15  H   -0.296221
    16  C    0.070025
    17  H   -0.229156
    18  C   -0.649491
    19  H   -0.219512
 Sum of Mulliken charges =   0.00000

 Dipole moment (field-independent basis, Debye):
    X=              2.5636    Y=              1.8900    Z=             -0.5559  Tot=              3.2331

 Test job not archived.
 1\1\GINC-SE016\SP\RHF\Aug-CC-pVDZ\C10H7F1S1\OHZDE\09-Apr-2025\0\\#t hf
  aug-cc-pvdz iop(5/13=1,5/36=2,99/5=2) pseudo=read geom=check guess=(r
 ead,tcheck) scf=(maxcycle=1)\\title\\0,1\F,0,-2.542268,-1.451806,0.843
 496\C,0,-0.980005,0.507246,-0.097052\S,0,-2.473568,-0.350312,-0.442746
 \C,0,0.298709,-0.145945,-0.077163\C,0,0.452604,-1.551354,-0.152163\H,0
 ,-0.430329,-2.173979,-0.205324\C,0,1.703909,-2.121789,-0.122161\H,0,1.
 804178,-3.199554,-0.181044\C,0,2.859829,-1.319134,-0.009934\H,0,3.8382
 45,-1.785041,0.014926\C,0,2.742615,0.046884,0.071877\H,0,3.625212,0.67

 Normal termination of Gaussian 16 at Wed Apr  9 00:26:59 2025.
