 Gaussian 16, Revision C.01,

 ----------------------------------------------------------------------
 #t hf aug-cc-pvdz symm=none int=(grid=ultrafine) guess=(read,tcheck) s
 table=opt
 ----------------------------------------------------------------------
 -----
 title
 -----
 Symbolic Z-matrix:
 Charge =  0 Multiplicity = 2

 SCF Done:  E(UHF) =  -290.625877825     A.U. after   13 cycles
 Normal termination of Gaussian 16 at Tue Apr  8 22:44:25 2025.
 Gaussian 16:  ES64L-G16RevC.01  3-Jul-2019

 ----------------------------------------------------------------------
 #t hf aug-cc-pvdz iop(5/13=1,5/36=2,99/5=2) pseudo=read geom=check gue
 ss=(read,tcheck) scf=(maxcycle=1)
 ----------------------------------------------------------------------
 -----
 title
 -----
 Structure from the checkpoint file:  "BDE49_expt_1536_mol2.chk"
 Charge =  0 Multiplicity = 2

                         Standard orientation:
 ---------------------------------------------------------------------
 Center     Atomic      Atomic             Coordinates (Angstroms)
 Number     Number       Type             X           Y           Z
 ---------------------------------------------------------------------
      1         14           0        0.000003   -0.000000   -0.079992
      2          1           0       -0.782344   -1.174932    0.373289
      3          1           0       -0.626391    1.264973    0.373290
      4          1           0        1.408696   -0.090036    0.373302
 ---------------------------------------------------------------------

 SCF Done:  E(UHF) =  -290.657304349     A.U. after    2 cycles

 The electronic state is 2-A.
 Alpha  occ. eigenvalues --  -69.54307  -6.21472  -3.97473  -3.96537  -3.96537
 Alpha  occ. eigenvalues --   -0.75463  -0.50077  -0.50077  -0.34350
 Alpha virt. eigenvalues --    0.03879   0.05798   0.05798   0.06801   0.08964
 Alpha virt. eigenvalues --    0.08964   0.14443   0.17729   0.18099   0.18099
 Alpha virt. eigenvalues --    0.19881   0.19881   0.32040   0.35744   0.35744

  Beta  occ. eigenvalues --  -69.53734  -6.20606  -3.96133  -3.96133  -3.95275
  Beta  occ. eigenvalues --   -0.70652  -0.49267  -0.49266
  Beta virt. eigenvalues --    0.01841   0.04146   0.05925   0.05925   0.09198
  Beta virt. eigenvalues --    0.09198   0.09859   0.15832   0.19661   0.19661
  Beta virt. eigenvalues --    0.19822   0.22390   0.22390   0.33100   0.36128

 Mulliken charges and spin densities:
               1          2
     1  Si   0.578915   1.034714
     2  H   -0.192972  -0.011572
     3  H   -0.192972  -0.011572
     4  H   -0.192971  -0.011570
 Sum of Mulliken charges =  -0.00000   1.00000

 Dipole moment (field-independent basis, Debye):
    X=              0.0000    Y=             -0.0000    Z=              0.0378  Tot=              0.0378
                          Isotropic Fermi Contact Couplings
        Atom                 a.u.       MegaHertz       Gauss      10(-4) cm-1
     1  Si(29)             0.57788    -513.57927    -183.25785    -171.31160
     2  H(1)               0.00043       1.94421       0.69374       0.64852
     3  H(1)               0.00043       1.94376       0.69358       0.64837
     4  H(1)               0.00044       1.94747       0.69490       0.64961
 --------------------------------------------------------
       Center         ----  Spin Dipole Couplings  ----
                      3XX-RR        3YY-RR        3ZZ-RR
 --------------------------------------------------------

 Normal termination of Gaussian 16 at Tue Apr  8 22:44:26 2025.
