 Gaussian 16, Revision C.01,

 ----------------------------------------------------------------------
 #t hf aug-cc-pvdz symm=none int=(grid=ultrafine) guess=(read,tcheck) s
 table=opt
 ----------------------------------------------------------------------
 -----
 title
 -----
 Symbolic Z-matrix:
 Charge =  0 Multiplicity = 2

 SCF Done:  E(UHF) =  -192.402803717     A.U. after   19 cycles
 Normal termination of Gaussian 16 at Wed Apr  9 00:35:47 2025.
 Gaussian 16:  ES64L-G16RevC.01  3-Jul-2019

 ----------------------------------------------------------------------
 #t hf aug-cc-pvdz iop(5/13=1,5/36=2,99/5=2) pseudo=read geom=check gue
 ss=(read,tcheck) scf=(maxcycle=1)
 ----------------------------------------------------------------------
 -----
 title
 -----
 Structure from the checkpoint file:  "BDE49_nonexpt_509_mol2.chk"
 Charge =  0 Multiplicity = 2

                         Standard orientation:
 ---------------------------------------------------------------------
 Center     Atomic      Atomic             Coordinates (Angstroms)
 Number     Number       Type             X           Y           Z
 ---------------------------------------------------------------------
      1          5           0       -1.745971    0.289922    0.000002
      2          6           0        0.596119   -0.084276   -0.000002
      3          7           0        1.706047    0.232207    0.000000
      4          8           0       -0.636119   -0.506202   -0.000001
      5          1           0       -1.700235    1.480221    0.000004
 ---------------------------------------------------------------------

 SCF Done:  E(UHF) =  -192.580497973     A.U. after    2 cycles

 The electronic state is 2-A.
 Alpha  occ. eigenvalues --  -20.67387 -15.53129 -11.36841  -7.71442  -1.60540
 Alpha  occ. eigenvalues --   -1.25229  -0.93125  -0.75655  -0.69106  -0.63917
 Alpha  occ. eigenvalues --   -0.62653  -0.51101  -0.50116  -0.40833
 Alpha virt. eigenvalues --    0.02062   0.04116   0.04208   0.04976   0.08519
 Alpha virt. eigenvalues --    0.09790   0.11024   0.12186   0.12295   0.14077
 Alpha virt. eigenvalues --    0.17200   0.17973   0.20746   0.21570   0.21925

  Beta  occ. eigenvalues --  -20.67305 -15.53308 -11.36547  -7.69322  -1.60159
  Beta  occ. eigenvalues --   -1.25407  -0.91185  -0.74079  -0.69125  -0.62872
  Beta  occ. eigenvalues --   -0.60381  -0.51102  -0.50551
  Beta virt. eigenvalues --    0.02525   0.03114   0.04245   0.05017   0.06925
  Beta virt. eigenvalues --    0.10579   0.10843   0.11625   0.12291   0.13212
  Beta virt. eigenvalues --    0.15282   0.17491   0.18114   0.21114   0.21982

 Mulliken charges and spin densities:
               1          2
     1  B    0.124955   1.039764
     2  C   -0.206060   0.115197
     3  N    0.666435  -0.057877
     4  O   -0.726948  -0.145673
     5  H    0.141617   0.048588
 Sum of Mulliken charges =  -0.00000   1.00000

 Dipole moment (field-independent basis, Debye):
    X=             -3.6417    Y=             -0.0205    Z=             -0.0000  Tot=              3.6418
                          Isotropic Fermi Contact Couplings
        Atom                 a.u.       MegaHertz       Gauss      10(-4) cm-1
     1  B(11)              0.36873     528.89193     188.72179     176.41936
     2  C(13)              0.06443      72.43546      25.84677      24.16187
     3  N(14)             -0.01327      -4.28631      -1.52946      -1.42976
     4  O(17)              0.12286     -74.47508     -26.57456     -24.84221
     5  H(1)               0.02521     112.68949      40.21041      37.58917
 --------------------------------------------------------
       Center         ----  Spin Dipole Couplings  ----
                      3XX-RR        3YY-RR        3ZZ-RR

 Normal termination of Gaussian 16 at Wed Apr  9 00:35:48 2025.
