 Gaussian 16, Revision C.01,

 ----------------------------------------------------------------------
 #t hf aug-cc-pvdz symm=none int=(grid=ultrafine) guess=(read,tcheck) s
 table=opt
 ----------------------------------------------------------------------
 -----
 title
 -----
 Symbolic Z-matrix:
 Charge =  0 Multiplicity = 2

 SCF Done:  E(UHF) =  -365.544937132     A.U. after   14 cycles

 1\1\GINC-SE284\Stability\UHF\Aug-CC-pVDZ\H3O1Si1\OHZDE\08-Apr-2025\0\\
 #t hf aug-cc-pvdz symm=none int=(grid=ultrafine) guess=(read,tcheck) s
 table=opt\\title\\0,2\Si,0,-0.570755,0.018785,-0.107593\O,0,1.074688,-
 0.111703,0.067357\H,0,-1.122097,-1.230864,0.472851\H,0,-1.101996,1.206
 635,0.628171\H,0,1.617155,0.65487,-0.13357\\Version=ES64L-G16RevC.01\H
 F=-365.5449371\S2=0.75409\S2-1=0.\S2A=0.750008\RMSD=6.225e-09\Dipole=0
 .0503233,0.5168824,-0.1596554\Quadrupole=0.6525436,0.1752806,-0.827824
 2,2.1202261,-0.6117594,-0.1706734\PG=Unknown\\@

 Normal termination of Gaussian 16 at Tue Apr  8 23:50:15 2025.
 Gaussian 16:  ES64L-G16RevC.01  3-Jul-2019

 ----------------------------------------------------------------------
 #t hf aug-cc-pvdz iop(5/13=1,5/36=2,99/5=2) pseudo=read geom=check gue
 ss=(read,tcheck) scf=(maxcycle=1)
 ----------------------------------------------------------------------
 -----
 title
 -----
 Structure from the checkpoint file:  "BDE49_nonexpt_1866_mol3.chk"
 Charge =  0 Multiplicity = 2

                         Standard orientation:
 ---------------------------------------------------------------------
 Center     Atomic      Atomic             Coordinates (Angstroms)
 Number     Number       Type             X           Y           Z
 ---------------------------------------------------------------------
      1         14           0       -0.570755    0.018785   -0.107593
      2          8           0        1.074688   -0.111703    0.067357
      3          1           0       -1.122097   -1.230864    0.472851
      4          1           0       -1.101996    1.206635    0.628171
      5          1           0        1.617155    0.654870   -0.133570
 ---------------------------------------------------------------------

 SCF Done:  E(UHF) =  -365.650072273     A.U. after    2 cycles

 The electronic state is 2-A.
 Alpha  occ. eigenvalues --  -69.56941 -20.55952  -6.23607  -3.99465  -3.98754
 Alpha  occ. eigenvalues --   -3.98612  -1.44451  -0.77605  -0.65122  -0.56562
 Alpha  occ. eigenvalues --   -0.54540  -0.48162  -0.33527
 Alpha virt. eigenvalues --    0.03437   0.04825   0.05986   0.06586   0.07737
 Alpha virt. eigenvalues --    0.09186   0.13591   0.15784   0.18032   0.19204
 Alpha virt. eigenvalues --    0.21025   0.22628   0.23070   0.27080   0.27849

  Beta  occ. eigenvalues --  -69.56415 -20.55523  -6.22781  -3.98444  -3.98283
  Beta  occ. eigenvalues --   -3.97482  -1.43320  -0.75365  -0.62749  -0.54699
  Beta  occ. eigenvalues --   -0.51591  -0.46739
  Beta virt. eigenvalues --    0.02705   0.04016   0.05113   0.06116   0.07755
  Beta virt. eigenvalues --    0.09186   0.09500   0.14962   0.16873   0.20608
  Beta virt. eigenvalues --    0.21134   0.21809   0.23342   0.23692   0.27507

 Mulliken charges and spin densities:
               1          2
     1  Si   1.266944   0.849314
     2  O   -1.270946   0.059945
     3  H   -0.203274   0.039231
     4  H   -0.205806   0.057894
     5  H    0.413082  -0.006384
 Sum of Mulliken charges =   0.00000   1.00000

 Dipole moment (field-independent basis, Debye):
    X=              0.1719    Y=              1.2742    Z=             -0.3435  Tot=              1.3308
                          Isotropic Fermi Contact Couplings
        Atom                 a.u.       MegaHertz       Gauss      10(-4) cm-1
     1  Si(29)             0.65536    -582.44050    -207.82926    -194.28124
     2  O(17)              0.04155     -25.18583      -8.98693      -8.40109
     3  H(1)               0.01236      55.26038      19.71828      18.43288
     4  H(1)               0.01714      76.62913      27.34318      25.56073
     5  H(1)              -0.00191      -8.55442      -3.05243      -2.85345
 --------------------------------------------------------
       Center         ----  Spin Dipole Couplings  ----
                      3XX-RR        3YY-RR        3ZZ-RR

 Normal termination of Gaussian 16 at Tue Apr  8 23:50:16 2025.
