 Gaussian 16, Revision C.01,

 ----------------------------------------------------------------------
 #t hf aug-cc-pvdz symm=none int=(grid=ultrafine) guess=(read,tcheck) s
 table=(opt,rrhf)
 ----------------------------------------------------------------------
 -----
 title
 -----
 Symbolic Z-matrix:
 Charge =  0 Multiplicity = 1

 SCF Done:  E(RHF) =  -544.460387752     A.U. after   12 cycles
 Normal termination of Gaussian 16 at Wed Apr  9 00:45:17 2025.
 Gaussian 16:  ES64L-G16RevC.01  3-Jul-2019

 ----------------------------------------------------------------------
 #t hf aug-cc-pvdz iop(5/13=1,5/36=2,99/5=2) pseudo=read geom=check gue
 ss=(read,tcheck) scf=(maxcycle=1)
 ----------------------------------------------------------------------
 -----
 title
 -----
 Structure from the checkpoint file:  "BDE49_nonexpt_774_mol1.chk"
 Charge =  0 Multiplicity = 1

                         Standard orientation:
 ---------------------------------------------------------------------
 Center     Atomic      Atomic             Coordinates (Angstroms)
 Number     Number       Type             X           Y           Z
 ---------------------------------------------------------------------
      1         14           0        0.320765   -1.068061   -0.186536
      2          5           0       -1.325508    0.128309   -0.043415
      3          8           0       -2.477753   -0.196111    0.625042
      4          8           0       -1.280278    1.341522   -0.663416
      5          6           0        1.920134   -0.082853   -0.413015
      6          6           0        2.203909    0.927640    0.711583
      7          1           0        2.286359    0.433752    1.684634
      8          1           0        1.405955    1.671738    0.782536
      9          1           0        3.140522    1.465957    0.538224
     10          1           0        1.851022    0.439328   -1.373866
     11          1           0        2.752033   -0.789468   -0.508647
     12          1           0       -2.443842   -1.050195    1.063016
     13          1           0       -2.102566    1.837499   -0.553053
     14          1           0        0.152138   -2.012370   -1.326387
     15          1           0        0.415203   -1.916955    1.037699
 ---------------------------------------------------------------------

 SCF Done:  E(RHF) =  -544.758168798     A.U. after    2 cycles

 The electronic state is 1-A.
 Alpha  occ. eigenvalues --  -69.50639 -20.56575 -20.55855 -11.22717 -11.21821
 Alpha  occ. eigenvalues --   -7.64087  -6.17906  -3.93264  -3.93243  -3.93209
 Alpha  occ. eigenvalues --   -1.48553  -1.44116  -1.02097  -0.84906  -0.78068
 Alpha  occ. eigenvalues --   -0.74354  -0.69801  -0.61246  -0.60480  -0.58061
 Alpha  occ. eigenvalues --   -0.56847  -0.55976  -0.52227  -0.50093  -0.49377
 Alpha  occ. eigenvalues --   -0.46499  -0.43665  -0.41179
 Alpha virt. eigenvalues --    0.03432   0.03923   0.04149   0.04484   0.05913
 Alpha virt. eigenvalues --    0.06479   0.06769   0.07185   0.07695   0.09342
 Alpha virt. eigenvalues --    0.09878   0.10050   0.10361   0.10747   0.11574

 Mulliken charges:
               1
     1  Si   0.716496
     2  B    1.586456
     3  O   -1.305325
     4  O   -1.289220
     5  C   -0.610303
     6  C   -0.360409
     7  H    0.162082
     8  H    0.129708
     9  H    0.100611
    10  H    0.136983
    11  H    0.037143
    12  H    0.530819
    13  H    0.495635
    14  H   -0.232901
    15  H   -0.097773
 Sum of Mulliken charges =  -0.00000

 Dipole moment (field-independent basis, Debye):
    X=             -0.4468    Y=             -0.1856    Z=              0.6510  Tot=              0.8111

 Test job not archived.
 1\1\GINC-SE115\SP\RHF\Aug-CC-pVDZ\C2H9B1O2Si1\OHZDE\09-Apr-2025\0\\#t
 hf aug-cc-pvdz iop(5/13=1,5/36=2,99/5=2) pseudo=read geom=check guess=
 (read,tcheck) scf=(maxcycle=1)\\title\\0,1\Si,0,0.320765,-1.068061,-0.
 186536\B,0,-1.325508,0.128309,-0.043415\O,0,-2.477753,-0.196111,0.6250
 42\O,0,-1.280278,1.341522,-0.663416\C,0,1.920134,-0.082853,-0.413015\C
 ,0,2.203909,0.92764,0.711583\H,0,2.286359,0.433752,1.684634\H,0,1.4059
 55,1.671738,0.782536\H,0,3.140522,1.465957,0.538224\H,0,1.851022,0.439
 328,-1.373866\H,0,2.752033,-0.789468,-0.508647\H,0,-2.443842,-1.050195

 Normal termination of Gaussian 16 at Wed Apr  9 00:45:23 2025.
