 Gaussian 16, Revision C.01,

 ----------------------------------------------------------------------
 #t hf aug-cc-pvdz symm=none int=(grid=ultrafine) guess=(read,tcheck) s
 table=(opt,rrhf)
 ----------------------------------------------------------------------
 -----
 title
 -----
 Symbolic Z-matrix:
 Charge =  0 Multiplicity = 1

 SCF Done:  E(RHF) =  -198.600455642     A.U. after   12 cycles
 Normal termination of Gaussian 16 at Wed Apr  9 00:37:02 2025.
 Gaussian 16:  ES64L-G16RevC.01  3-Jul-2019

 ----------------------------------------------------------------------
 #t hf aug-cc-pvdz iop(5/13=1,5/36=2,99/5=2) pseudo=read geom=check gue
 ss=(read,tcheck) scf=(maxcycle=1)
 ----------------------------------------------------------------------
 -----
 title
 -----
 Structure from the checkpoint file:  "BDE49_nonexpt_554_mol1.chk"
 Charge =  0 Multiplicity = 1

                         Standard orientation:
 ---------------------------------------------------------------------
 Center     Atomic      Atomic             Coordinates (Angstroms)
 Number     Number       Type             X           Y           Z
 ---------------------------------------------------------------------
      1          5           0       -1.424640   -1.190666   -0.244963
      2          7           0       -0.588359   -0.132810    0.092047
      3          6           0        0.778173   -0.330758    0.592264
      4          6           0        1.870726    0.055444   -0.409457
      5          1           0        0.880144   -1.383988    0.855839
      6          1           0        0.902391    0.249585    1.515775
      7          1           0        1.773285   -0.528906   -1.327819
      8          1           0        2.857455   -0.142059    0.018589
      9          6           0       -1.001433    1.265909   -0.007297
     10          1           0       -2.037898    1.314523   -0.336423
     11          1           0       -0.385663    1.820619   -0.722518
     12          1           0       -0.916901    1.763689    0.966173
     13          1           0        1.833200    1.115178   -0.673106
     14          1           0       -2.524759   -0.960890   -0.645880
     15          1           0       -1.024338   -2.308322   -0.123204
 ---------------------------------------------------------------------

 SCF Done:  E(RHF) =  -198.819369080     A.U. after    2 cycles

 The electronic state is 1-A.
 Alpha  occ. eigenvalues --  -15.49480 -11.26450 -11.26031 -11.22850  -7.56756
 Alpha  occ. eigenvalues --   -1.21408  -1.01734  -0.93255  -0.84658  -0.72928
 Alpha  occ. eigenvalues --   -0.65967  -0.62299  -0.61273  -0.56999  -0.55985
 Alpha  occ. eigenvalues --   -0.53521  -0.52096  -0.49862  -0.46056  -0.41038
 Alpha virt. eigenvalues --    0.03666   0.04033   0.04269   0.04619   0.05320
 Alpha virt. eigenvalues --    0.05959   0.06113   0.06546   0.07106   0.09745
 Alpha virt. eigenvalues --    0.09905   0.11931   0.12328   0.13887   0.14120

 Mulliken charges:
               1
     1  B   -0.692007
     2  N    0.643144
     3  C   -0.625235
     4  C   -0.334091
     5  H    0.025922
     6  H    0.106384
     7  H    0.149404
     8  H    0.156325
     9  C   -0.393927
    10  H   -0.028409
    11  H    0.184536
    12  H    0.197163
    13  H    0.129783
    14  H    0.251281
    15  H    0.229727
 Sum of Mulliken charges =  -0.00000

 Dipole moment (field-independent basis, Debye):
    X=              1.0702    Y=              1.2051    Z=              0.3834  Tot=              1.6566

 Test job not archived.
 1\1\GINC-SE457\SP\RHF\Aug-CC-pVDZ\C3H10B1N1\OHZDE\09-Apr-2025\0\\#t hf
  aug-cc-pvdz iop(5/13=1,5/36=2,99/5=2) pseudo=read geom=check guess=(r
 ead,tcheck) scf=(maxcycle=1)\\title\\0,1\B,0,-1.42464,-1.190666,-0.244
 963\N,0,-0.588359,-0.13281,0.092047\C,0,0.778173,-0.330758,0.592264\C,
 0,1.870726,0.055444,-0.409457\H,0,0.880144,-1.383988,0.855839\H,0,0.90
 2391,0.249585,1.515775\H,0,1.773285,-0.528906,-1.327819\H,0,2.857455,-
 0.142059,0.018589\C,0,-1.001433,1.265909,-0.007297\H,0,-2.037898,1.314
 523,-0.336423\H,0,-0.385663,1.820619,-0.722518\H,0,-0.916901,1.763689,

 Normal termination of Gaussian 16 at Wed Apr  9 00:37:06 2025.
