 Gaussian 16, Revision C.01,

 ----------------------------------------------------------------------
 #t hf aug-cc-pvdz symm=none int=(grid=ultrafine) guess=(read,tcheck) s
 table=(opt,rrhf)
 ----------------------------------------------------------------------
 -----
 title
 -----
 Symbolic Z-matrix:
 Charge =  0 Multiplicity = 1

 SCF Done:  E(RHF) =  -350.450707265     A.U. after   13 cycles
 Normal termination of Gaussian 16 at Wed Apr  9 00:39:29 2025.
 Gaussian 16:  ES64L-G16RevC.01  3-Jul-2019

 ----------------------------------------------------------------------
 #t hf aug-cc-pvdz iop(5/13=1,5/36=2,99/5=2) pseudo=read geom=check gue
 ss=(read,tcheck) scf=(maxcycle=1)
 ----------------------------------------------------------------------
 -----
 title
 -----
 Structure from the checkpoint file:  "BDE49_nonexpt_593_mol1.chk"
 Charge =  0 Multiplicity = 1

                         Standard orientation:
 ---------------------------------------------------------------------
 Center     Atomic      Atomic             Coordinates (Angstroms)
 Number     Number       Type             X           Y           Z
 ---------------------------------------------------------------------
      1          6           0        0.785158    0.083384   -0.000014
      2          5           0       -1.777110   -0.086007    0.000011
      3          6           0       -2.073031    1.456507   -0.000016
      4          1           0       -1.613368    1.945442    0.865260
      5          1           0       -3.143809    1.677309   -0.000022
      6          1           0       -1.613363    1.945417   -0.865302
      7          8           0        0.866409    1.290794   -0.000011
      8          6           0        2.013009   -0.825870    0.000007
      9          6           0       -2.947495   -1.145931    0.000014
     10          1           0       -2.633557   -2.194966    0.000024
     11          1           0       -3.595098   -0.989771   -0.871573
     12          1           0       -3.595104   -0.989757    0.871595
     13          6           0        3.329191   -0.055162    0.000004
     14          1           0        1.946907   -1.484751   -0.874845
     15          1           0        1.946896   -1.484726    0.874876
     16          1           0        3.404247    0.587316   -0.878900
     17          1           0        4.177574   -0.743634    0.000020
     18          1           0        3.404235    0.587343    0.878890
     19          7           0       -0.434495   -0.602789    0.000004
     20          1           0       -0.330812   -1.609583    0.000014
 ---------------------------------------------------------------------

 SCF Done:  E(RHF) =  -350.822570079     A.U. after    2 cycles

 The electronic state is 1-A.
 Alpha  occ. eigenvalues --  -20.51886 -15.51338 -11.36184 -11.25453 -11.23016
 Alpha  occ. eigenvalues --  -11.20589 -11.18849  -7.59255  -1.46752  -1.21637
 Alpha  occ. eigenvalues --   -1.05666  -0.97073  -0.92402  -0.89958  -0.80511
 Alpha  occ. eigenvalues --   -0.74074  -0.69734  -0.64880  -0.61699  -0.58839
 Alpha  occ. eigenvalues --   -0.58037  -0.55075  -0.54807  -0.53188  -0.52839
 Alpha  occ. eigenvalues --   -0.52454  -0.51505  -0.50173  -0.46368  -0.44684
 Alpha  occ. eigenvalues --   -0.41938
 Alpha virt. eigenvalues --    0.02733   0.03866   0.04070   0.04197   0.05176
 Alpha virt. eigenvalues --    0.05207   0.05222   0.06878   0.06926   0.08227
 Alpha virt. eigenvalues --    0.08954   0.09187   0.09789   0.10445   0.10668

 Mulliken charges:
               1
     1  C    0.111542
     2  B    0.660517
     3  C   -0.472568
     4  H    0.148983
     5  H   -0.125683
     6  H    0.148971
     7  O   -1.206570
     8  C   -0.386999
     9  C   -0.432754
    10  H   -0.084202
    11  H    0.099166
    12  H    0.099173
    13  C   -0.354199
    14  H    0.202180
    15  H    0.202179
    16  H    0.170763
    17  H    0.126518
    18  H    0.170767
    19  N    0.898028
    20  H    0.024188
 Sum of Mulliken charges =  -0.00000

 Dipole moment (field-independent basis, Debye):
    X=              0.1781    Y=             -3.2570    Z=              0.0000  Tot=              3.2619

 Test job not archived.
 1\1\GINC-SE222\SP\RHF\Aug-CC-pVDZ\C5H12B1N1O1\OHZDE\09-Apr-2025\0\\#t
 hf aug-cc-pvdz iop(5/13=1,5/36=2,99/5=2) pseudo=read geom=check guess=
 (read,tcheck) scf=(maxcycle=1)\\title\\0,1\C,0,-0.785158,0.083384,0.00
 0014\B,0,1.77711,-0.086007,-0.000011\C,0,2.073031,1.456507,0.000016\H,
 0,1.613368,1.945442,-0.86526\H,0,3.143809,1.677309,0.000022\H,0,1.6133
 63,1.945417,0.865302\O,0,-0.866409,1.290794,0.000011\C,0,-2.013009,-0.
 82587,-0.000007\C,0,2.947495,-1.145931,-0.000014\H,0,2.633557,-2.19496
 6,-0.000024\H,0,3.595098,-0.989771,0.871573\H,0,3.595104,-0.989757,-0.

 Normal termination of Gaussian 16 at Wed Apr  9 00:39:38 2025.
