 Gaussian 16, Revision C.01,

 ----------------------------------------------------------------------
 #t hf aug-cc-pvdz symm=none int=(grid=ultrafine) guess=(read,tcheck) s
 table=(opt,rrhf)
 ----------------------------------------------------------------------
 -----
 title
 -----
 Symbolic Z-matrix:
 Charge =  0 Multiplicity = 1

 SCF Done:  E(RHF) =  -721.637090875     A.U. after   15 cycles
 Normal termination of Gaussian 16 at Tue Apr  8 22:50:39 2025.
 Gaussian 16:  ES64L-G16RevC.01  3-Jul-2019

 ----------------------------------------------------------------------
 #t hf aug-cc-pvdz iop(5/13=1,5/36=2,99/5=2) pseudo=read geom=check gue
 ss=(read,tcheck) scf=(maxcycle=1)
 ----------------------------------------------------------------------
 -----
 title
 -----
 Structure from the checkpoint file:  "BDE49_expt_1738_mol1.chk"
 Charge =  0 Multiplicity = 1

                         Standard orientation:
 ---------------------------------------------------------------------
 Center     Atomic      Atomic             Coordinates (Angstroms)
 Number     Number       Type             X           Y           Z
 ---------------------------------------------------------------------
      1          6           0       -1.489424   -1.163237   -0.000006
      2          6           0       -2.187975    0.038951   -0.000001
      3          7           0       -1.555683    1.218241    0.000002
      4          7           0       -0.151237   -1.198760    0.000006
      5          6           0        0.457061   -0.032689    0.000022
      6          6           0       -0.227191    1.188508    0.000008
      7          1           0       -2.003565   -2.118823   -0.000001
      8          1           0       -3.272648    0.059424    0.000003
      9          1           0        0.306513    2.132217   -0.000003
     10         17           0        2.211959   -0.023434   -0.000012
 ---------------------------------------------------------------------

 SCF Done:  E(RHF) =  -721.974526123     A.U. after    2 cycles

 The electronic state is 1-A.
 Alpha  occ. eigenvalues -- -105.58639 -15.55138 -15.55023 -11.36210 -11.31115
 Alpha  occ. eigenvalues --  -11.30945 -11.30353 -10.63456  -7.80418  -7.79999
 Alpha  occ. eigenvalues --   -7.79994  -1.33504  -1.24883  -1.12896  -1.04082
 Alpha  occ. eigenvalues --   -0.94524  -0.90967  -0.77506  -0.75510  -0.68932
 Alpha  occ. eigenvalues --   -0.63292  -0.63226  -0.59073  -0.56566  -0.52161
 Alpha  occ. eigenvalues --   -0.48685  -0.47957  -0.46366  -0.37492
 Alpha virt. eigenvalues --    0.03187   0.03301   0.04553   0.04720   0.07641
 Alpha virt. eigenvalues --    0.07988   0.08569   0.10443   0.10908   0.11252
 Alpha virt. eigenvalues --    0.12091   0.13255   0.13511   0.14783   0.15218

 Mulliken charges:
               1
     1  C   -0.180911
     2  C   -0.500863
     3  N    0.977785
     4  N    1.254869
     5  C   -0.966801
     6  C   -0.338740
     7  H   -0.102668
     8  H   -0.094311
     9  H    0.009940
    10  Cl  -0.058300
 Sum of Mulliken charges =  -0.00000

 Dipole moment (field-independent basis, Debye):
    X=             -1.6610    Y=             -0.0564    Z=              0.0000  Tot=              1.6620

 Test job not archived.
 1\1\GINC-SE342\SP\RHF\Aug-CC-pVDZ\C4H3Cl1N2\OHZDE\08-Apr-2025\0\\#t hf
  aug-cc-pvdz iop(5/13=1,5/36=2,99/5=2) pseudo=read geom=check guess=(r
 ead,tcheck) scf=(maxcycle=1)\\title\\0,1\C,0,1.489424,-1.163237,0.0000
 06\C,0,2.187975,0.038951,0.000001\N,0,1.555683,1.218241,-0.000002\N,0,
 0.151237,-1.19876,-0.000006\C,0,-0.457061,-0.032689,-0.000022\C,0,0.22
 7191,1.188508,-0.000008\H,0,2.003565,-2.118823,0.000001\H,0,3.272648,0
 .059424,-0.000003\H,0,-0.306513,2.132217,0.000003\Cl,0,-2.211959,-0.02
 3434,0.000012\\Version=ES64L-G16RevC.01\State=1-A\HF=-721.9745261\RMSD

 Normal termination of Gaussian 16 at Tue Apr  8 22:50:42 2025.
