 Gaussian 16, Revision C.01,

 ----------------------------------------------------------------------
 #t hf aug-cc-pvdz symm=none int=(grid=ultrafine) guess=(read,tcheck) s
 table=(opt,rrhf)
 ----------------------------------------------------------------------
 -----
 title
 -----
 Symbolic Z-matrix:
 Charge =  0 Multiplicity = 1

 SCF Done:  E(RHF) =  -694.322989426     A.U. after   12 cycles
 Normal termination of Gaussian 16 at Tue Apr  8 22:48:49 2025.
 Gaussian 16:  ES64L-G16RevC.01  3-Jul-2019

 ----------------------------------------------------------------------
 #t hf aug-cc-pvdz iop(5/13=1,5/36=2,99/5=2) pseudo=read geom=check gue
 ss=(read,tcheck) scf=(maxcycle=1)
 ----------------------------------------------------------------------
 -----
 title
 -----
 Structure from the checkpoint file:  "BDE49_expt_1666_mol1.chk"
 Charge =  0 Multiplicity = 1

                         Standard orientation:
 ---------------------------------------------------------------------
 Center     Atomic      Atomic             Coordinates (Angstroms)
 Number     Number       Type             X           Y           Z
 ---------------------------------------------------------------------
      1          6           0       -1.364242    0.403663    0.390743
      2          6           0       -0.019973    0.792023   -0.217277
      3          6           0        1.180775   -0.024904    0.268362
      4          1           0        0.141074    1.849805    0.031459
      5          1           0       -0.097766    0.738223   -1.308897
      6          6           0       -2.499065    1.341066    0.008136
      7          1           0       -2.276690    2.349598    0.371849
      8          1           0       -3.443880    1.017880    0.447071
      9          1           0       -2.619138    1.384723   -1.076759
     10         17           0       -1.820637   -1.309035   -0.124412
     11          1           0       -1.281408    0.326374    1.476024
     12          6           0        2.507566    0.442136   -0.341699
     13          1           0        1.022006   -1.081144    0.029761
     14          1           0        1.243111    0.038921    1.362531
     15          6           0        3.710610   -0.371302    0.143665
     16          1           0        2.664425    1.501954   -0.106069
     17          1           0        2.442394    0.379911   -1.434589
     18          1           0        3.823457   -0.301169    1.230027
     19          1           0        4.640248   -0.017495   -0.310044
     20          1           0        3.598968   -1.430083   -0.108927
 ---------------------------------------------------------------------

 SCF Done:  E(RHF) =  -694.663588759     A.U. after    2 cycles

 The electronic state is 1-A.
 Alpha  occ. eigenvalues -- -105.54210 -11.30809 -11.24258 -11.24150 -11.23069
 Alpha  occ. eigenvalues --  -11.22946 -11.22420 -10.59015  -7.75939  -7.75604
 Alpha  occ. eigenvalues --   -7.75593  -1.13177  -1.06726  -0.99425  -0.97438
 Alpha  occ. eigenvalues --   -0.88604  -0.80507  -0.79340  -0.66624  -0.63513
 Alpha  occ. eigenvalues --   -0.61526  -0.60853  -0.57737  -0.56400  -0.54834
 Alpha  occ. eigenvalues --   -0.52413  -0.51336  -0.49009  -0.48159  -0.47539
 Alpha  occ. eigenvalues --   -0.47263  -0.43354  -0.43295
 Alpha virt. eigenvalues --    0.03278   0.03494   0.03557   0.04460   0.05451
 Alpha virt. eigenvalues --    0.05697   0.05974   0.07143   0.08146   0.08615
 Alpha virt. eigenvalues --    0.08948   0.10056   0.10864   0.11581   0.12424

 Mulliken charges:
               1
     1  C   -0.472920
     2  C   -0.216189
     3  C   -0.244772
     4  H    0.172032
     5  H    0.130137
     6  C   -0.234994
     7  H    0.198067
     8  H    0.136716
     9  H    0.223521
    10  Cl  -0.148055
    11  H    0.162282
    12  C   -0.242841
    13  H    0.149207
    14  H    0.107990
    15  C   -0.399930
    16  H    0.112351
    17  H    0.121856
    18  H    0.164004
    19  H    0.118545
    20  H    0.162992
 Sum of Mulliken charges =   0.00000

 Dipole moment (field-independent basis, Debye):
    X=              0.7993    Y=              2.3505    Z=              0.5377  Tot=              2.5402

 Test job not archived.
 1\1\GINC-SE049\SP\RHF\Aug-CC-pVDZ\C6H13Cl1\OHZDE\08-Apr-2025\0\\#t hf
 aug-cc-pvdz iop(5/13=1,5/36=2,99/5=2) pseudo=read geom=check guess=(re
 ad,tcheck) scf=(maxcycle=1)\\title\\0,1\C,0,-1.364242,0.403663,0.39074
 3\C,0,-0.019973,0.792023,-0.217277\C,0,1.180775,-0.024904,0.268362\H,0
 ,0.141074,1.849805,0.031459\H,0,-0.097766,0.738223,-1.308897\C,0,-2.49
 9065,1.341066,0.008136\H,0,-2.27669,2.349598,0.371849\H,0,-3.44388,1.0
 1788,0.447071\H,0,-2.619138,1.384723,-1.076759\Cl,0,-1.820637,-1.30903
 5,-0.124412\H,0,-1.281408,0.326374,1.476024\C,0,2.507566,0.442136,-0.3

 Normal termination of Gaussian 16 at Tue Apr  8 22:48:58 2025.
