 Gaussian 16, Revision C.01,

 ----------------------------------------------------------------------
 #t hf aug-cc-pvdz symm=none int=(grid=ultrafine) guess=(read,tcheck) s
 table=(opt,rrhf)
 ----------------------------------------------------------------------
 -----
 title
 -----
 Symbolic Z-matrix:
 Charge =  0 Multiplicity = 1

 SCF Done:  E(RHF) =  -1375.28023729     A.U. after   13 cycles
 Normal termination of Gaussian 16 at Wed Apr  9 00:49:19 2025.
 Gaussian 16:  ES64L-G16RevC.01  3-Jul-2019

 ----------------------------------------------------------------------
 #t hf aug-cc-pvdz iop(5/13=1,5/36=2,99/5=2) pseudo=read geom=check gue
 ss=(read,tcheck) scf=(maxcycle=1)
 ----------------------------------------------------------------------
 -----
 title
 -----
 Structure from the checkpoint file:  "BDE49_nonexpt_866_mol1.chk"
 Charge =  0 Multiplicity = 1

                         Standard orientation:
 ---------------------------------------------------------------------
 Center     Atomic      Atomic             Coordinates (Angstroms)
 Number     Number       Type             X           Y           Z
 ---------------------------------------------------------------------
      1         16           0       -0.568566   -1.397887   -0.258800
      2          5           0       -1.612314    0.055963   -0.026988
      3         16           0       -1.022967    1.739634   -0.408929
      4          6           0        1.065772   -0.772368   -0.849126
      5          6           0        2.021071   -0.375650    0.276669
      6          1           0        0.890582    0.052452   -1.542394
      7          6           0        3.388620    0.076449   -0.254119
      8          1           0        2.150904   -1.226426    0.954196
      9          1           0        1.574008    0.428202    0.870026
     10          6           0        4.358720    0.468465    0.864176
     11          1           0        3.251044    0.926182   -0.933120
     12          1           0        3.829291   -0.727935   -0.855337
     13          1           0        3.959931    1.293682    1.461638
     14          1           0        5.322776    0.786714    0.459011
     15          1           0        4.542925   -0.371662    1.540602
     16          1           0        1.475339   -1.601927   -1.430174
     17         16           0       -3.313899   -0.161395    0.591661
     18          1           0       -2.159093    2.394856   -0.113297
     19          1           0       -3.294309   -1.500961    0.715267
 ---------------------------------------------------------------------

 SCF Done:  E(RHF) =  -1375.66014325     A.U. after    2 cycles

 The electronic state is 1-A.
 Alpha  occ. eigenvalues --  -93.96060 -93.95723 -93.94872 -11.27870 -11.24009
 Alpha  occ. eigenvalues --  -11.23710 -11.22892  -8.24357  -8.24009  -8.23181
 Alpha  occ. eigenvalues --   -7.67641  -6.22197  -6.22055  -6.21883  -6.21851
 Alpha  occ. eigenvalues --   -6.21709  -6.21533  -6.20996  -6.20827  -6.20696
 Alpha  occ. eigenvalues --   -1.11041  -1.06587  -1.03080  -1.00604  -0.95237
 Alpha  occ. eigenvalues --   -0.85480  -0.80788  -0.68032  -0.65352  -0.61274
 Alpha  occ. eigenvalues --   -0.60935  -0.58650  -0.58200  -0.54718  -0.52586
 Alpha  occ. eigenvalues --   -0.51585  -0.49348  -0.48392  -0.48115  -0.45790
 Alpha  occ. eigenvalues --   -0.45455  -0.43406  -0.38135  -0.36544
 Alpha virt. eigenvalues --    0.03487   0.03620   0.03791   0.04138   0.05159
 Alpha virt. eigenvalues --    0.05473   0.06058   0.06678   0.07217   0.08021
 Alpha virt. eigenvalues --    0.08533   0.08848   0.09856   0.10137   0.10664

 Mulliken charges:
               1
     1  S    0.172425
     2  B    1.195296
     3  S   -0.602825
     4  C   -0.749419
     5  C   -0.375263
     6  H    0.139564
     7  C   -0.298592
     8  H    0.155785
     9  H    0.133323
    10  C   -0.395753
    11  H    0.122773
    12  H    0.119782
    13  H    0.161735
    14  H    0.121144
    15  H    0.162137
    16  H    0.155645
    17  S   -0.772735
    18  H    0.278893
    19  H    0.276086
 Sum of Mulliken charges =  -0.00000

 Dipole moment (field-independent basis, Debye):
    X=              1.4488    Y=              0.0277    Z=             -0.2349  Tot=              1.4680

 Test job not archived.
 1\1\GINC-SE074\SP\RHF\Aug-CC-pVDZ\C4H11B1S3\OHZDE\09-Apr-2025\0\\#t hf
  aug-cc-pvdz iop(5/13=1,5/36=2,99/5=2) pseudo=read geom=check guess=(r
 ead,tcheck) scf=(maxcycle=1)\\title\\0,1\S,0,-0.568566,-1.397887,-0.25
 88\B,0,-1.612314,0.055963,-0.026988\S,0,-1.022967,1.739634,-0.408929\C
 ,0,1.065772,-0.772368,-0.849126\C,0,2.021071,-0.37565,0.276669\H,0,0.8
 90582,0.052452,-1.542394\C,0,3.38862,0.076449,-0.254119\H,0,2.150904,-
 1.226426,0.954196\H,0,1.574008,0.428202,0.870026\C,0,4.35872,0.468465,
 0.864176\H,0,3.251044,0.926182,-0.93312\H,0,3.829291,-0.727935,-0.8553

 Normal termination of Gaussian 16 at Wed Apr  9 00:49:29 2025.
