 Gaussian 16, Revision C.01,

 ----------------------------------------------------------------------
 #t hf aug-cc-pvdz symm=none int=(grid=ultrafine) guess=(read,tcheck) s
 table=opt
 ----------------------------------------------------------------------
 -----
 title
 -----
 Symbolic Z-matrix:
 Charge =  0 Multiplicity = 2

 SCF Done:  E(UHF) =  -957.411117809     A.U. after   16 cycles

 1\1\GINC-SE074\Stability\UHF\Aug-CC-pVDZ\C1H1Cl2\OHZDE\08-Apr-2025\0\\
 #t hf aug-cc-pvdz symm=none int=(grid=ultrafine) guess=(read,tcheck) s
 table=opt\\title\\0,2\C,0,-0.000046,0.688699,-0.095737\H,0,0.000181,1.
 707156,0.263058\Cl,0,-1.479314,-0.171743,0.009159\Cl,0,1.47932,-0.1717
 48,0.009156\\Version=ES64L-G16RevC.01\HF=-957.4111178\S2=0.767743\S2-1
 =0.\S2A=0.750258\RMSD=9.027e-09\Dipole=-0.0001752,0.464797,0.1031291\Q
 uadrupole=-0.5833713,1.4092312,-0.8258599,0.000403,0.0000773,0.3813696
 \PG=Unknown\\@

 Normal termination of Gaussian 16 at Tue Apr  8 22:29:16 2025.
 Gaussian 16:  ES64L-G16RevC.01  3-Jul-2019

 ----------------------------------------------------------------------
 #t hf aug-cc-pvdz iop(5/13=1,5/36=2,99/5=2) pseudo=read geom=check gue
 ss=(read,tcheck) scf=(maxcycle=1)
 ----------------------------------------------------------------------
 -----
 title
 -----
 Structure from the checkpoint file:  "BDE49_expt_1015_mol2.chk"
 Charge =  0 Multiplicity = 2

                         Standard orientation:
 ---------------------------------------------------------------------
 Center     Atomic      Atomic             Coordinates (Angstroms)
 Number     Number       Type             X           Y           Z
 ---------------------------------------------------------------------
      1          6           0       -0.000046    0.688699   -0.095737
      2          1           0        0.000180    1.707156    0.263058
      3         17           0       -1.479314   -0.171744    0.009159
      4         17           0        1.479320   -0.171748    0.009156
 ---------------------------------------------------------------------

 SCF Done:  E(UHF) =  -957.599875720     A.U. after    2 cycles

 The electronic state is 2-A.
 Alpha  occ. eigenvalues -- -105.59837-105.59835 -11.37777 -10.64680 -10.64672
 Alpha  occ. eigenvalues --   -7.81537  -7.81534  -7.81340  -7.81336  -7.81195
 Alpha  occ. eigenvalues --   -7.81193  -1.19141  -1.07806  -0.87581  -0.67341
 Alpha  occ. eigenvalues --   -0.62661  -0.61203  -0.50463  -0.48956  -0.47649
 Alpha  occ. eigenvalues --   -0.37912
 Alpha virt. eigenvalues --    0.03803   0.07236   0.07904   0.11412   0.12571
 Alpha virt. eigenvalues --    0.13809   0.15185   0.15858   0.15968   0.16525
 Alpha virt. eigenvalues --    0.18227   0.21035   0.24479   0.27995   0.29834

  Beta  occ. eigenvalues -- -105.59796-105.59794 -11.34887 -10.64634 -10.64626
  Beta  occ. eigenvalues --   -7.81727  -7.81723  -7.81167  -7.81165  -7.80975
  Beta  occ. eigenvalues --   -7.80972  -1.15880  -1.07343  -0.81950  -0.65490
  Beta  occ. eigenvalues --   -0.61370  -0.53098  -0.48780  -0.48127  -0.47472
  Beta virt. eigenvalues --    0.03847   0.06534   0.07624   0.08011   0.12930
  Beta virt. eigenvalues --    0.13467   0.13922   0.15264   0.15911   0.16841
  Beta virt. eigenvalues --    0.17765   0.18241   0.23184   0.25926   0.28054

 Mulliken charges and spin densities:
               1          2
     1  C   -0.249889   1.135462
     2  H    0.210245  -0.094984
     3  Cl   0.019877  -0.020223
     4  Cl   0.019767  -0.020255
 Sum of Mulliken charges =  -0.00000   1.00000

 Dipole moment (field-independent basis, Debye):
    X=             -0.0004    Y=              1.1803    Z=              0.2619  Tot=              1.2090
                          Isotropic Fermi Contact Couplings
        Atom                 a.u.       MegaHertz       Gauss      10(-4) cm-1
     1  C(13)              0.33159     372.77504     133.01541     124.34437
     2  H(1)              -0.01923     -85.97239     -30.67709     -28.67730
     3  Cl(35)             0.03819      16.74606       5.97541       5.58588
     4  Cl(35)             0.03818      16.74205       5.97398       5.58455
 --------------------------------------------------------
       Center         ----  Spin Dipole Couplings  ----
                      3XX-RR        3YY-RR        3ZZ-RR
 --------------------------------------------------------

 Normal termination of Gaussian 16 at Tue Apr  8 22:29:18 2025.
