 Gaussian 16, Revision C.01,

 ----------------------------------------------------------------------
 #t hf aug-cc-pvdz symm=none int=(grid=ultrafine) guess=(read,tcheck) s
 table=opt
 ----------------------------------------------------------------------
 -----
 title
 -----
 Symbolic Z-matrix:
 Charge =  0 Multiplicity = 2

 SCF Done:  E(UHF) =  -479.331048319     A.U. after   21 cycles
 Normal termination of Gaussian 16 at Tue Apr  8 23:57:27 2025.
 Gaussian 16:  ES64L-G16RevC.01  3-Jul-2019

 ----------------------------------------------------------------------
 #t hf aug-cc-pvdz iop(5/13=1,5/36=2,99/5=2) pseudo=read geom=check gue
 ss=(read,tcheck) scf=(maxcycle=1)
 ----------------------------------------------------------------------
 -----
 title
 -----
 Structure from the checkpoint file:  "BDE49_nonexpt_2043_mol2.chk"
 Charge =  0 Multiplicity = 2

                         Standard orientation:
 ---------------------------------------------------------------------
 Center     Atomic      Atomic             Coordinates (Angstroms)
 Number     Number       Type             X           Y           Z
 ---------------------------------------------------------------------
      1         14           0        1.560496    0.076495    0.222143
      2          8           0        0.095701   -0.531762   -0.359658
      3          8           0       -0.919556    0.517735   -0.276579
      4          6           0       -2.080208   -0.104177    0.248863
      5          1           0       -2.832923    0.687657    0.247347
      6          1           0       -1.915087   -0.462085    1.270055
      7          1           0       -2.403614   -0.928287   -0.393027
      8          1           0        2.496996   -1.000401   -0.193417
      9          1           0        1.879772    1.369462   -0.444233
 ---------------------------------------------------------------------

 SCF Done:  E(UHF) =  -479.548152320     A.U. after    2 cycles

 The electronic state is 2-A.
 Alpha  occ. eigenvalues --  -69.57430 -20.62020 -20.59978 -11.29517  -6.24106
 Alpha  occ. eigenvalues --   -3.99937  -3.99219  -3.99085  -1.57437  -1.29051
 Alpha  occ. eigenvalues --   -0.92844  -0.76120  -0.67368  -0.65756  -0.64443
 Alpha  occ. eigenvalues --   -0.57205  -0.53785  -0.51558  -0.48253  -0.44649
 Alpha  occ. eigenvalues --   -0.34499
 Alpha virt. eigenvalues --    0.03791   0.04579   0.05036   0.05845   0.06890
 Alpha virt. eigenvalues --    0.07345   0.07822   0.09406   0.11968   0.13923
 Alpha virt. eigenvalues --    0.14797   0.15557   0.16372   0.17166   0.18596

  Beta  occ. eigenvalues --  -69.56890 -20.62122 -20.59515 -11.29512  -6.23253
  Beta  occ. eigenvalues --   -3.98895  -3.98755  -3.97921  -1.57065  -1.28474
  Beta  occ. eigenvalues --   -0.92821  -0.73393  -0.66959  -0.65501  -0.62778
  Beta  occ. eigenvalues --   -0.55684  -0.53112  -0.50419  -0.47304  -0.43414
  Beta virt. eigenvalues --    0.02501   0.03981   0.04902   0.05097   0.06330
  Beta virt. eigenvalues --    0.07180   0.07458   0.09389   0.09845   0.12210
  Beta virt. eigenvalues --    0.14941   0.15226   0.16368   0.16517   0.17352

 Mulliken charges and spin densities:
               1          2
     1  Si   1.176697   0.837069
     2  O   -0.860902   0.055308
     3  O   -0.725013  -0.024994
     4  C    0.406189   0.011169
     5  H    0.054627  -0.000819
     6  H    0.124907  -0.001374
     7  H    0.140533   0.000761
     8  H   -0.153609   0.049266
     9  H   -0.163430   0.073613
 Sum of Mulliken charges =  -0.00000   1.00000

 Dipole moment (field-independent basis, Debye):
    X=             -0.6325    Y=             -0.0464    Z=              1.0407  Tot=              1.2187
                          Isotropic Fermi Contact Couplings
        Atom                 a.u.       MegaHertz       Gauss      10(-4) cm-1
     1  Si(29)             0.69023    -613.42971    -218.88697    -204.61813
     2  O(17)              0.03899     -23.63396      -8.43318      -7.88344
     3  O(17)              0.00199      -1.20637      -0.43046      -0.40240
     4  C(13)              0.00046       0.51301       0.18306       0.17112
     5  H(1)              -0.00051      -2.28295      -0.81461      -0.76151
     6  H(1)              -0.00006      -0.26803      -0.09564      -0.08940
     7  H(1)              -0.00009      -0.38614      -0.13778      -0.12880
     8  H(1)               0.01315      58.78126      20.97461      19.60732

 Normal termination of Gaussian 16 at Tue Apr  8 23:57:30 2025.
