 Gaussian 16, Revision C.01,

 ----------------------------------------------------------------------
 #t hf aug-cc-pvdz symm=none int=(grid=ultrafine) guess=(read,tcheck) s
 table=(opt,rrhf)
 ----------------------------------------------------------------------
 -----
 title
 -----
 Symbolic Z-matrix:
 Charge =  0 Multiplicity = 1

 SCF Done:  E(RHF) =  -805.932339072     A.U. after   12 cycles
 Normal termination of Gaussian 16 at Wed Apr  9 00:15:52 2025.
 Gaussian 16:  ES64L-G16RevC.01  3-Jul-2019

 ----------------------------------------------------------------------
 #t hf aug-cc-pvdz iop(5/13=1,5/36=2,99/5=2) pseudo=read geom=check gue
 ss=(read,tcheck) scf=(maxcycle=1)
 ----------------------------------------------------------------------
 -----
 title
 -----
 Structure from the checkpoint file:  "BDE49_nonexpt_2511_mol1.chk"
 Charge =  0 Multiplicity = 1

                         Standard orientation:
 ---------------------------------------------------------------------
 Center     Atomic      Atomic             Coordinates (Angstroms)
 Number     Number       Type             X           Y           Z
 ---------------------------------------------------------------------
      1         16           0        1.383456    0.053189   -0.716355
      2          6           0        2.042515   -0.902929    0.712878
      3          1           0        2.266030   -0.244236    1.552191
      4          1           0        2.967386   -1.368225    0.372733
      5          1           0        1.349212   -1.684468    1.022774
      6         14           0       -0.322737    1.022444    0.185074
      7          6           0       -1.718698   -0.150919    0.662863
      8          6           0       -2.352595   -0.922173   -0.506517
      9          1           0       -2.476312    0.457848    1.173603
     10          1           0       -1.342795   -0.848207    1.420843
     11          1           0       -2.782483   -0.240817   -1.246268
     12          1           0       -3.154552   -1.580317   -0.160157
     13          1           0       -1.613721   -1.540394   -1.022593
     14          1           0       -0.777348    1.977697   -0.852100
     15          1           0        0.120255    1.762002    1.394272
 ---------------------------------------------------------------------

 SCF Done:  E(RHF) =  -806.163836971     A.U. after    2 cycles

 The electronic state is 1-A.
 Alpha  occ. eigenvalues --  -93.93009 -69.54448 -11.27127 -11.23236 -11.22814
 Alpha  occ. eigenvalues --   -8.21274  -6.21323  -6.19075  -6.18939  -6.18742
 Alpha  occ. eigenvalues --   -3.96709  -3.96633  -3.96587  -1.05201  -1.02679
 Alpha  occ. eigenvalues --   -0.88412  -0.85234  -0.69943  -0.61997  -0.60140
 Alpha  occ. eigenvalues --   -0.59399  -0.58221  -0.53834  -0.50677  -0.50540
 Alpha  occ. eigenvalues --   -0.46994  -0.45396  -0.41903  -0.35651
 Alpha virt. eigenvalues --    0.03360   0.03831   0.04198   0.04223   0.05987
 Alpha virt. eigenvalues --    0.06515   0.06661   0.07151   0.07712   0.09130
 Alpha virt. eigenvalues --    0.09573   0.10545   0.11854   0.12386   0.13590

 Mulliken charges:
               1
     1  S   -0.405103
     2  C   -0.689582
     3  H    0.151365
     4  H    0.142350
     5  H    0.125273
     6  Si   1.374228
     7  C   -0.556351
     8  C   -0.407679
     9  H    0.070667
    10  H    0.105429
    11  H    0.136931
    12  H    0.110259
    13  H    0.133062
    14  H   -0.164841
    15  H   -0.126007
 Sum of Mulliken charges =  -0.00000

 Dipole moment (field-independent basis, Debye):
    X=             -0.7644    Y=             -0.8898    Z=              1.7585  Tot=              2.1139

 Test job not archived.
 1\1\GINC-SE396\SP\RHF\Aug-CC-pVDZ\C3H10S1Si1\OHZDE\09-Apr-2025\0\\#t h
 f aug-cc-pvdz iop(5/13=1,5/36=2,99/5=2) pseudo=read geom=check guess=(
 read,tcheck) scf=(maxcycle=1)\\title\\0,1\S,0,1.383456,0.053189,-0.716
 355\C,0,2.042515,-0.902929,0.712878\H,0,2.26603,-0.244236,1.552191\H,0
 ,2.967386,-1.368225,0.372733\H,0,1.349212,-1.684468,1.022774\Si,0,-0.3
 22737,1.022444,0.185074\C,0,-1.718698,-0.150919,0.662863\C,0,-2.352595
 ,-0.922173,-0.506517\H,0,-2.476312,0.457848,1.173603\H,0,-1.342795,-0.
 848207,1.420843\H,0,-2.782483,-0.240817,-1.246268\H,0,-3.154552,-1.580

 Normal termination of Gaussian 16 at Wed Apr  9 00:15:56 2025.
