 Gaussian 16, Revision C.01,

 ----------------------------------------------------------------------
 #t hf aug-cc-pvdz symm=none int=(grid=ultrafine) guess=(read,tcheck) s
 table=(opt,rrhf)
 ----------------------------------------------------------------------
 -----
 title
 -----
 Symbolic Z-matrix:
 Charge =  0 Multiplicity = 1

 SCF Done:  E(RHF) =  -440.393471864     A.U. after   11 cycles
 Normal termination of Gaussian 16 at Tue Apr  8 23:51:20 2025.
 Gaussian 16:  ES64L-G16RevC.01  3-Jul-2019

 ----------------------------------------------------------------------
 #t hf aug-cc-pvdz iop(5/13=1,5/36=2,99/5=2) pseudo=read geom=check gue
 ss=(read,tcheck) scf=(maxcycle=1)
 ----------------------------------------------------------------------
 -----
 title
 -----
 Structure from the checkpoint file:  "BDE49_nonexpt_1900_mol1.chk"
 Charge =  0 Multiplicity = 1

                         Standard orientation:
 ---------------------------------------------------------------------
 Center     Atomic      Atomic             Coordinates (Angstroms)
 Number     Number       Type             X           Y           Z
 ---------------------------------------------------------------------
      1          6           0       -1.057050   -0.508384   -0.430718
      2         14           0        0.732115   -0.570899    0.166320
      3          7           0        1.411594    0.962459   -0.224001
      4          1           0        1.499530   -1.641617   -0.516885
      5          1           0        0.708875   -0.914333    1.620833
      6          7           0       -1.723559    0.638875    0.225206
      7          1           0       -1.872101    0.437780    1.209530
      8          1           0       -2.642353    0.799657   -0.176291
      9          1           0        0.804784    1.758649   -0.075142
     10          1           0        2.373021    1.186114   -0.013473
     11          1           0       -1.566076   -1.475582   -0.292937
     12          1           0       -1.029246   -0.317123   -1.508247
 ---------------------------------------------------------------------

 SCF Done:  E(RHF) =  -440.591520997     A.U. after    2 cycles

 The electronic state is 1-A.
 Alpha  occ. eigenvalues --  -69.52680 -15.49210 -15.46679 -11.24196  -6.19551
 Alpha  occ. eigenvalues --   -3.94942  -3.94917  -3.94862  -1.17388  -1.12850
 Alpha  occ. eigenvalues --   -0.90505  -0.73036  -0.68889  -0.68249  -0.63340
 Alpha  occ. eigenvalues --   -0.57408  -0.56317  -0.49568  -0.46969  -0.42955
 Alpha  occ. eigenvalues --   -0.41051
 Alpha virt. eigenvalues --    0.03419   0.04357   0.04715   0.05503   0.06510
 Alpha virt. eigenvalues --    0.06730   0.07285   0.07566   0.09312   0.10127
 Alpha virt. eigenvalues --    0.10513   0.12520   0.14814   0.15535   0.16271

 Mulliken charges:
               1
     1  C   -0.766072
     2  Si   0.881019
     3  N   -0.064266
     4  H   -0.175251
     5  H   -0.165379
     6  N   -0.044407
     7  H    0.158578
     8  H    0.111792
     9  H    0.033502
    10  H   -0.057485
    11  H   -0.000915
    12  H    0.088883
 Sum of Mulliken charges =  -0.00000

 Dipole moment (field-independent basis, Debye):
    X=             -1.0097    Y=             -0.2482    Z=              0.5748  Tot=              1.1881

 Test job not archived.
 1\1\GINC-SE368\SP\RHF\Aug-CC-pVDZ\C1H8N2Si1\OHZDE\08-Apr-2025\0\\#t hf
  aug-cc-pvdz iop(5/13=1,5/36=2,99/5=2) pseudo=read geom=check guess=(r
 ead,tcheck) scf=(maxcycle=1)\\title\\0,1\C,0,-1.05705,-0.508384,-0.430
 718\Si,0,0.732115,-0.570899,0.16632\N,0,1.411594,0.962459,-0.224001\H,
 0,1.49953,-1.641617,-0.516885\H,0,0.708875,-0.914333,1.620833\N,0,-1.7
 23559,0.638875,0.225206\H,0,-1.872101,0.43778,1.20953\H,0,-2.642353,0.
 799657,-0.176291\H,0,0.804784,1.758649,-0.075142\H,0,2.373021,1.186114
 ,-0.013473\H,0,-1.566076,-1.475582,-0.292937\H,0,-1.029246,-0.317123,-

 Normal termination of Gaussian 16 at Tue Apr  8 23:51:23 2025.
