 Gaussian 16, Revision C.01,

 ----------------------------------------------------------------------
 #t hf aug-cc-pvdz symm=none int=(grid=ultrafine) guess=(read,tcheck) s
 table=(opt,rrhf)
 ----------------------------------------------------------------------
 -----
 title
 -----
 Symbolic Z-matrix:
 Charge =  0 Multiplicity = 1

 SCF Done:  E(RHF) =  -498.080165931     A.U. after   13 cycles
 Normal termination of Gaussian 16 at Tue Apr  8 23:57:26 2025.
 Gaussian 16:  ES64L-G16RevC.01  3-Jul-2019

 ----------------------------------------------------------------------
 #t hf aug-cc-pvdz iop(5/13=1,5/36=2,99/5=2) pseudo=read geom=check gue
 ss=(read,tcheck) scf=(maxcycle=1)
 ----------------------------------------------------------------------
 -----
 title
 -----
 Structure from the checkpoint file:  "BDE49_nonexpt_2048_mol1.chk"
 Charge =  0 Multiplicity = 1

                         Standard orientation:
 ---------------------------------------------------------------------
 Center     Atomic      Atomic             Coordinates (Angstroms)
 Number     Number       Type             X           Y           Z
 ---------------------------------------------------------------------
      1         14           0        1.821647   -0.286671    0.000001
      2          6           0       -0.009294    0.296148   -0.000037
      3          8           0       -0.221046    1.501718    0.000014
      4          7           0       -1.000230   -0.643278   -0.000008
      5          6           0       -2.416618   -0.300909    0.000013
      6          1           0       -0.735155   -1.615493    0.000003
      7          1           0       -2.488141    0.785321   -0.000001
      8          1           0       -2.915852   -0.692898    0.890455
      9          1           0       -2.915885   -0.692922   -0.890401
     10          1           0        2.468536    0.257841    1.211215
     11          1           0        2.468574    0.257840   -1.211192
     12          1           0        1.940308   -1.768521    0.000002
 ---------------------------------------------------------------------

 SCF Done:  E(RHF) =  -498.326351344     A.U. after    2 cycles

 The electronic state is 1-A.
 Alpha  occ. eigenvalues --  -69.54424 -20.51255 -15.53442 -11.34575 -11.27276
 Alpha  occ. eigenvalues --   -6.21556  -3.96932  -3.96913  -3.96898  -1.45391
 Alpha  occ. eigenvalues --   -1.23906  -0.97671  -0.83291  -0.79419  -0.68243
 Alpha  occ. eigenvalues --   -0.65732  -0.64236  -0.56530  -0.56063  -0.55184
 Alpha  occ. eigenvalues --   -0.50234  -0.49413  -0.41768  -0.39950
 Alpha virt. eigenvalues --    0.02876   0.04066   0.04781   0.05092   0.05917
 Alpha virt. eigenvalues --    0.06213   0.06877   0.07388   0.09307   0.10175
 Alpha virt. eigenvalues --    0.12110   0.12401   0.13470   0.14112   0.14145

 Mulliken charges:
               1
     1  Si   0.929025
     2  C    0.161738
     3  O   -1.142166
     4  N    0.502999
     5  C   -0.315919
     6  H    0.104680
     7  H    0.060926
     8  H    0.129083
     9  H    0.129093
    10  H   -0.184288
    11  H   -0.184283
    12  H   -0.190887
 Sum of Mulliken charges =   0.00000

 Dipole moment (field-independent basis, Debye):
    X=             -0.5341    Y=             -3.4514    Z=             -0.0000  Tot=              3.4925

 Test job not archived.
 1\1\GINC-SE460\SP\RHF\Aug-CC-pVDZ\C2H7N1O1Si1\OHZDE\08-Apr-2025\0\\#t
 hf aug-cc-pvdz iop(5/13=1,5/36=2,99/5=2) pseudo=read geom=check guess=
 (read,tcheck) scf=(maxcycle=1)\\title\\0,1\Si,0,-1.821647,-0.286671,-0
 .000001\C,0,0.009294,0.296148,0.000037\O,0,0.221046,1.501718,-0.000014
 \N,0,1.00023,-0.643278,0.000008\C,0,2.416618,-0.300909,-0.000013\H,0,0
 .735155,-1.615493,-0.000003\H,0,2.488141,0.785321,0.000001\H,0,2.91585
 2,-0.692898,-0.890455\H,0,2.915885,-0.692922,0.890401\H,0,-2.468536,0.
 257841,-1.211215\H,0,-2.468574,0.25784,1.211192\H,0,-1.940308,-1.76852

 Normal termination of Gaussian 16 at Tue Apr  8 23:57:29 2025.
