 Gaussian 16, Revision C.01,

 ----------------------------------------------------------------------
 #t hf aug-cc-pvdz symm=none int=(grid=ultrafine) guess=(read,tcheck) s
 table=(opt,rrhf)
 ----------------------------------------------------------------------
 -----
 title
 -----
 Symbolic Z-matrix:
 Charge =  0 Multiplicity = 1

 SCF Done:  E(RHF) =  -1030.45859867     A.U. after   14 cycles

 1\1\GINC-SE059\Stability\RHF\Aug-CC-pVDZ\C6H14S2\OHZDE\08-Apr-2025\0\\
 #t hf aug-cc-pvdz symm=none int=(grid=ultrafine) guess=(read,tcheck) s
 table=(opt,rrhf)\\title\\0,1\S,0,-0.912256,-0.935908,-0.930604\S,0,0.4
 46671,-1.520404,0.536068\C,0,1.565364,-0.071153,0.747187\C,0,-2.378915
 ,-0.36131,0.030823\C,0,-2.24001,0.975508,0.759498\H,0,-2.643997,-1.161
 903,0.722679\H,0,-3.164523,-0.310315,-0.732082\C,0,2.476673,0.20898,-0
 .445523\H,0,2.153525,-0.34369,1.631204\H,0,0.96657,0.803303,1.008475\C
 ,0,3.413619,1.396356,-0.195343\H,0,1.858509,0.404698,-1.326851\H,0,3.0

 Normal termination of Gaussian 16 at Tue Apr  8 23:01:11 2025.
 Gaussian 16:  ES64L-G16RevC.01  3-Jul-2019

 ----------------------------------------------------------------------
 #t hf aug-cc-pvdz iop(5/13=1,5/36=2,99/5=2) pseudo=read geom=check gue
 ss=(read,tcheck) scf=(maxcycle=1)
 ----------------------------------------------------------------------
 -----
 title
 -----
 Structure from the checkpoint file:  "BDE49_expt_1958_mol1.chk"
 Charge =  0 Multiplicity = 1

                         Standard orientation:
 ---------------------------------------------------------------------
 Center     Atomic      Atomic             Coordinates (Angstroms)
 Number     Number       Type             X           Y           Z
 ---------------------------------------------------------------------
      1         16           0       -0.912256   -0.935908   -0.930604
      2         16           0        0.446671   -1.520404    0.536068
      3          6           0        1.565364   -0.071153    0.747187
      4          6           0       -2.378915   -0.361310    0.030823
      5          6           0       -2.240010    0.975508    0.759498
      6          1           0       -2.643997   -1.161903    0.722679
      7          1           0       -3.164523   -0.310315   -0.732082
      8          6           0        2.476673    0.208980   -0.445523
      9          1           0        2.153525   -0.343690    1.631204
     10          1           0        0.966570    0.803303    1.008475
     11          6           0        3.413619    1.396356   -0.195343
     12          1           0        1.858509    0.404698   -1.326851
     13          1           0        3.059883   -0.690221   -0.666842
     14          1           0        2.850802    2.314761   -0.002274
     15          1           0        4.054303    1.576676   -1.062369
     16          1           0        4.064095    1.217726    0.666471
     17          6           0       -2.038522    2.182527   -0.159053
     18          1           0       -1.420086    0.903843    1.481213
     19          1           0       -3.150394    1.118653    1.354712
     20          1           0       -1.132190    2.078579   -0.760282
     21          1           0       -1.954990    3.105308    0.420714
     22          1           0       -2.881414    2.298137   -0.847723
 ---------------------------------------------------------------------

 SCF Done:  E(RHF) =  -1030.84475409     A.U. after    2 cycles

 The electronic state is 1-A.
 Alpha  occ. eigenvalues --  -93.96275 -93.96213 -11.27028 -11.26996 -11.24090
 Alpha  occ. eigenvalues --  -11.23607 -11.23044 -11.22825  -8.24173  -8.24114
 Alpha  occ. eigenvalues --   -6.21985  -6.21916  -6.21767  -6.21712  -6.21558
 Alpha  occ. eigenvalues --   -6.21504  -1.11888  -1.08283  -1.03444  -0.97539
 Alpha  occ. eigenvalues --   -0.91451  -0.85704  -0.81187  -0.77389  -0.65357
 Alpha  occ. eigenvalues --   -0.63783  -0.63045  -0.59898  -0.58217  -0.56703
 Alpha  occ. eigenvalues --   -0.56546  -0.53322  -0.51465  -0.51068  -0.49958
 Alpha  occ. eigenvalues --   -0.49221  -0.48273  -0.46654  -0.43554  -0.35894
 Alpha  occ. eigenvalues --   -0.35162
 Alpha virt. eigenvalues --    0.03303   0.03483   0.03511   0.04198   0.05112
 Alpha virt. eigenvalues --    0.05527   0.05773   0.06818   0.07022   0.07953
 Alpha virt. eigenvalues --    0.08278   0.08747   0.09696   0.10063   0.10987

 Mulliken charges:
               1
     1  S    0.119411
     2  S    0.163376
     3  C   -0.486124
     4  C   -0.504836
     5  C   -0.393814
     6  H    0.166723
     7  H    0.243479
     8  C   -0.461911
     9  H    0.257009
    10  H    0.082421
    11  C   -0.415200
    12  H    0.210911
    13  H    0.186251
    14  H    0.157128
    15  H    0.118058
    16  H    0.166038
    17  C   -0.402759
    18  H    0.192404
    19  H    0.156071
    20  H    0.168539
    21  H    0.124286
    22  H    0.152540
 Sum of Mulliken charges =  -0.00000

 Dipole moment (field-independent basis, Debye):
    X=             -0.2265    Y=              2.0818    Z=              0.9807  Tot=              2.3124

 Test job not archived.
 1\1\GINC-SE059\SP\RHF\Aug-CC-pVDZ\C6H14S2\OHZDE\08-Apr-2025\0\\#t hf a
 ug-cc-pvdz iop(5/13=1,5/36=2,99/5=2) pseudo=read geom=check guess=(rea
 d,tcheck) scf=(maxcycle=1)\\title\\0,1\S,0,-0.912256,-0.935908,-0.9306
 04\S,0,0.446671,-1.520404,0.536068\C,0,1.565364,-0.071153,0.747187\C,0
 ,-2.378915,-0.36131,0.030823\C,0,-2.24001,0.975508,0.759498\H,0,-2.643
 997,-1.161903,0.722679\H,0,-3.164523,-0.310315,-0.732082\C,0,2.476673,
 0.20898,-0.445523\H,0,2.153525,-0.34369,1.631204\H,0,0.96657,0.803303,
 1.008475\C,0,3.413619,1.396356,-0.195343\H,0,1.858509,0.404698,-1.3268

 Normal termination of Gaussian 16 at Tue Apr  8 23:01:24 2025.
