 Gaussian 16, Revision C.01,

 ----------------------------------------------------------------------
 #t hf aug-cc-pvdz symm=none int=(grid=ultrafine) guess=(read,tcheck) s
 table=(opt,rrhf)
 ----------------------------------------------------------------------
 -----
 title
 -----
 Symbolic Z-matrix:
 Charge =  0 Multiplicity = 1

 SCF Done:  E(RHF) =  -1030.96131560     A.U. after   15 cycles
 Normal termination of Gaussian 16 at Tue Apr  8 23:32:45 2025.
 Gaussian 16:  ES64L-G16RevC.01  3-Jul-2019

 ----------------------------------------------------------------------
 #t hf aug-cc-pvdz iop(5/13=1,5/36=2,99/5=2) pseudo=read geom=check gue
 ss=(read,tcheck) scf=(maxcycle=1)
 ----------------------------------------------------------------------
 -----
 title
 -----
 Structure from the checkpoint file:  "BDE49_nonexpt_1419_mol1.chk"
 Charge =  0 Multiplicity = 1

                         Standard orientation:
 ---------------------------------------------------------------------
 Center     Atomic      Atomic             Coordinates (Angstroms)
 Number     Number       Type             X           Y           Z
 ---------------------------------------------------------------------
      1          6           0        0.094333    2.096652    0.003673
      2          6           0       -1.133176    1.435925   -0.013065
      3          6           0       -1.189483    0.038163   -0.011640
      4          6           0        1.283210    1.375205    0.009079
      5          6           0        1.221491   -0.015862    0.000617
      6          6           0        0.007072   -0.690433   -0.007146
      7          1           0        0.126912    3.180089    0.005559
      8          1           0       -2.052604    2.010167   -0.031762
      9         15           0       -2.860947   -0.760606   -0.028544
     10          1           0        2.242727    1.875635    0.015510
     11          1           0       -0.001102   -1.772719   -0.008321
     12         17           0        2.716445   -0.940627    0.002045
     13          1           0       -2.786677   -1.387893    1.243690
     14          1           0       -2.495298   -1.943427   -0.720393
 ---------------------------------------------------------------------

 SCF Done:  E(RHF) =  -1031.31700363     A.U. after    2 cycles

 The electronic state is 1-A.
 Alpha  occ. eigenvalues -- -105.57615 -84.28445 -11.31795 -11.26873 -11.26665
 Alpha  occ. eigenvalues --  -11.26626 -11.26350 -11.26138 -10.62409  -7.79374
 Alpha  occ. eigenvalues --   -7.78978  -7.78960  -6.75501  -4.28311  -4.27768
 Alpha  occ. eigenvalues --   -4.27520  -1.19122  -1.10311  -1.04652  -0.99600
 Alpha  occ. eigenvalues --   -0.89788  -0.84835  -0.80136  -0.71960  -0.67683
 Alpha  occ. eigenvalues --   -0.64465  -0.60739  -0.58750  -0.56425  -0.53007
 Alpha  occ. eigenvalues --   -0.51943  -0.49176  -0.47756  -0.46732  -0.37248
 Alpha  occ. eigenvalues --   -0.35709  -0.34811
 Alpha virt. eigenvalues --    0.03299   0.03803   0.04364   0.05743   0.06040
 Alpha virt. eigenvalues --    0.06189   0.07957   0.08151   0.08425   0.09741
 Alpha virt. eigenvalues --    0.10502   0.11296   0.11830   0.12968   0.13443

 Mulliken charges:
               1
     1  C    0.508231
     2  C   -0.599082
     3  C    0.479050
     4  C    0.027265
     5  C    0.253079
     6  C    0.331337
     7  H   -0.200751
     8  H   -0.239218
     9  P   -0.683065
    10  H   -0.162947
    11  H   -0.180769
    12  Cl  -0.329059
    13  H    0.440599
    14  H    0.355330
 Sum of Mulliken charges =   0.00000

 Dipole moment (field-independent basis, Debye):
    X=             -0.8672    Y=              1.0277    Z=              0.1281  Tot=              1.3508

 Test job not archived.
 1\1\GINC-SE187\SP\RHF\Aug-CC-pVDZ\C6H6Cl1P1\OHZDE\08-Apr-2025\0\\#t hf
  aug-cc-pvdz iop(5/13=1,5/36=2,99/5=2) pseudo=read geom=check guess=(r
 ead,tcheck) scf=(maxcycle=1)\\title\\0,1\C,0,0.094333,2.096652,0.00367
 3\C,0,-1.133176,1.435925,-0.013065\C,0,-1.189483,0.038163,-0.01164\C,0
 ,1.28321,1.375205,0.009079\C,0,1.221491,-0.015862,0.000617\C,0,0.00707
 2,-0.690433,-0.007146\H,0,0.126912,3.180089,0.005559\H,0,-2.052604,2.0
 10167,-0.031762\P,0,-2.860947,-0.760606,-0.028544\H,0,2.242727,1.87563
 5,0.01551\H,0,-0.001102,-1.772719,-0.008321\Cl,0,2.716445,-0.940627,0.

 Normal termination of Gaussian 16 at Tue Apr  8 23:32:51 2025.
