 Gaussian 16, Revision C.01,

 ----------------------------------------------------------------------
 #t hf aug-cc-pvdz symm=none int=(grid=ultrafine) guess=(read,tcheck) s
 table=(opt,rrhf)
 ----------------------------------------------------------------------
 -----
 title
 -----
 Symbolic Z-matrix:
 Charge =  0 Multiplicity = 1

 SCF Done:  E(RHF) =  -1215.82739366     A.U. after   18 cycles
 Normal termination of Gaussian 16 at Tue Apr  8 22:54:44 2025.
 Gaussian 16:  ES64L-G16RevC.01  3-Jul-2019

 ----------------------------------------------------------------------
 #t hf aug-cc-pvdz iop(5/13=1,5/36=2,99/5=2) pseudo=read geom=check gue
 ss=(read,tcheck) scf=(maxcycle=1)
 ----------------------------------------------------------------------
 -----
 title
 -----
 Structure from the checkpoint file:  "BDE49_expt_1826_mol1.chk"
 Charge =  0 Multiplicity = 1

                         Standard orientation:
 ---------------------------------------------------------------------
 Center     Atomic      Atomic             Coordinates (Angstroms)
 Number     Number       Type             X           Y           Z
 ---------------------------------------------------------------------
      1          7           0       -2.955897   -0.850613    0.736483
      2          8           0       -2.254198   -0.695432    1.647509
      3         16           0       -2.253612   -0.264079   -1.000247
      4          6           0       -0.670715    0.346079   -0.510183
      5          6           0       -0.518388    1.682012   -0.116898
      6          6           0        0.725498    2.143450    0.301181
      7          6           0        1.823255    1.286980    0.342131
      8          6           0        1.657090   -0.041185   -0.040012
      9          6           0        0.425041   -0.525810   -0.461108
     10          1           0        2.793987    1.639491    0.665230
     11          1           0       -1.371076    2.348179   -0.148552
     12          1           0        0.845157    3.178164    0.600298
     13         17           0        3.032313   -1.130069    0.012678
     14          1           0        0.314589   -1.560806   -0.754675
 ---------------------------------------------------------------------

 SCF Done:  E(RHF) =  -1216.30662364     A.U. after    2 cycles

 The electronic state is 1-A.
 Alpha  occ. eigenvalues -- -105.58191 -93.98551 -20.67289 -15.71450 -11.32509
 Alpha  occ. eigenvalues --  -11.29599 -11.27829 -11.27731 -11.27384 -11.27137
 Alpha  occ. eigenvalues --  -10.62985  -8.26464  -7.79952  -7.79551  -7.79533
 Alpha  occ. eigenvalues --   -6.24222  -6.24063  -6.23840  -1.68171  -1.20474
 Alpha  occ. eigenvalues --   -1.12409  -1.08619  -1.03151  -1.00392  -0.93756
 Alpha  occ. eigenvalues --   -0.86094  -0.82716  -0.74621  -0.73489  -0.72027
 Alpha  occ. eigenvalues --   -0.69214  -0.67516  -0.65079  -0.61766  -0.59343
 Alpha  occ. eigenvalues --   -0.56790  -0.54173  -0.51357  -0.49316  -0.47419
 Alpha  occ. eigenvalues --   -0.41581  -0.39599  -0.36835  -0.35808
 Alpha virt. eigenvalues --    0.03080   0.03587   0.04014   0.04536   0.04853
 Alpha virt. eigenvalues --    0.05831   0.07652   0.07771   0.08154   0.09298
 Alpha virt. eigenvalues --    0.10344   0.11057   0.12086   0.12518   0.13210

 Mulliken charges:
               1
     1  N    0.673905
     2  O   -0.862291
     3  S    0.076888
     4  C    0.769569
     5  C   -0.265413
     6  C    0.333428
     7  C    0.162530
     8  C   -0.062490
     9  C    0.213305
    10  H   -0.162440
    11  H   -0.209776
    12  H   -0.204911
    13  Cl  -0.321055
    14  H   -0.141250
 Sum of Mulliken charges =  -0.00000

 Dipole moment (field-independent basis, Debye):
    X=              0.8882    Y=              2.1940    Z=              0.3198  Tot=              2.3885

 Test job not archived.
 1\1\GINC-SE080\SP\RHF\Aug-CC-pVDZ\C6H4Cl1N1O1S1\OHZDE\08-Apr-2025\0\\#
 t hf aug-cc-pvdz iop(5/13=1,5/36=2,99/5=2) pseudo=read geom=check gues
 s=(read,tcheck) scf=(maxcycle=1)\\title\\0,1\N,0,-2.955897,-0.850613,0
 .736483\O,0,-2.254198,-0.695432,1.647509\S,0,-2.253612,-0.264079,-1.00
 0247\C,0,-0.670715,0.346079,-0.510183\C,0,-0.518388,1.682012,-0.116898
 \C,0,0.725498,2.14345,0.301181\C,0,1.823255,1.28698,0.342131\C,0,1.657
 09,-0.041185,-0.040012\C,0,0.425041,-0.52581,-0.461108\H,0,2.793987,1.
 639491,0.66523\H,0,-1.371076,2.348179,-0.148552\H,0,0.845157,3.178164,

 Normal termination of Gaussian 16 at Tue Apr  8 22:54:51 2025.
