 Gaussian 16, Revision C.01,

 ----------------------------------------------------------------------
 #t hf aug-cc-pvdz symm=none int=(grid=ultrafine) guess=(read,tcheck) s
 table=(opt,rrhf)
 ----------------------------------------------------------------------
 -----
 title
 -----
 Symbolic Z-matrix:
 Charge =  0 Multiplicity = 1

 SCF Done:  E(RHF) =  -3335.22221614     A.U. after   11 cycles
 Normal termination of Gaussian 16 at Wed Apr  9 00:09:08 2025.
 Gaussian 16:  ES64L-G16RevC.01  3-Jul-2019

 ----------------------------------------------------------------------
 #t hf aug-cc-pvdz iop(5/13=1,5/36=2,99/5=2) pseudo=read geom=check gue
 ss=(read,tcheck) scf=(maxcycle=1)
 ----------------------------------------------------------------------
 -----
 title
 -----
 Structure from the checkpoint file:  "BDE49_nonexpt_2316_mol1.chk"
 Charge =  0 Multiplicity = 1

                         Standard orientation:
 ---------------------------------------------------------------------
 Center     Atomic      Atomic             Coordinates (Angstroms)
 Number     Number       Type             X           Y           Z
 ---------------------------------------------------------------------
      1         14           0        1.175698   -0.000004    0.000005
      2         14           0       -1.175698    0.000004   -0.000006
      3         17           0       -1.863279    1.932964   -0.110266
      4         17           0        1.863280   -1.932964    0.110266
      5         17           0       -1.863333   -0.870997    1.729090
      6         17           0        1.863333    0.870996   -1.729090
      7         17           0       -1.863269   -1.061951   -1.618880
      8         17           0        1.863268    1.061952    1.618880
 ---------------------------------------------------------------------

 SCF Done:  E(RHF) =  -3335.74540618     A.U. after    2 cycles

 The electronic state is 1-A.
 Alpha  occ. eigenvalues -- -105.59700-105.59700-105.59700-105.59700-105.59700
 Alpha  occ. eigenvalues -- -105.59700 -69.69098 -69.69098 -10.64719 -10.64719
 Alpha  occ. eigenvalues --  -10.64701 -10.64701 -10.64701 -10.64701  -7.81607
 Alpha  occ. eigenvalues --   -7.81603  -7.81596  -7.81596  -7.81595  -7.81595
 Alpha  occ. eigenvalues --   -7.81263  -7.81263  -7.81263  -7.81263  -7.81263
 Alpha  occ. eigenvalues --   -7.81259  -7.81259  -7.81258  -7.81255  -7.81255
 Alpha  occ. eigenvalues --   -7.81254  -7.81253  -6.34910  -6.34899  -4.10253
 Alpha  occ. eigenvalues --   -4.10253  -4.10242  -4.10242  -4.10111  -4.10021
 Alpha  occ. eigenvalues --   -1.13503  -1.12365  -1.07863  -1.07863  -1.07444
 Alpha  occ. eigenvalues --   -1.07444  -0.77886  -0.71005  -0.60994  -0.60994
 Alpha  occ. eigenvalues --   -0.60577  -0.59610  -0.59609  -0.53372  -0.52892
 Alpha  occ. eigenvalues --   -0.52892  -0.52344  -0.52344  -0.50752  -0.50752
 Alpha  occ. eigenvalues --   -0.49388  -0.49388  -0.48809  -0.48397  -0.44282
 Alpha virt. eigenvalues --    0.04791   0.04867   0.05581   0.05581   0.07402
 Alpha virt. eigenvalues --    0.07506   0.07541   0.07541   0.08328   0.08328
 Alpha virt. eigenvalues --    0.11338   0.11338   0.11710   0.13807   0.14238

 Mulliken charges:
               1
     1  Si   1.548204
     2  Si   1.548204
     3  Cl  -0.516068
     4  Cl  -0.516068
     5  Cl  -0.516068
     6  Cl  -0.516067
     7  Cl  -0.516068
     8  Cl  -0.516068
 Sum of Mulliken charges =  -0.00000

 Dipole moment (field-independent basis, Debye):
    X=             -0.0000    Y=              0.0000    Z=             -0.0000  Tot=              0.0000

 Test job not archived.
 1\1\GINC-SE329\SP\RHF\Aug-CC-pVDZ\Cl6Si2\OHZDE\09-Apr-2025\0\\#t hf au
 g-cc-pvdz iop(5/13=1,5/36=2,99/5=2) pseudo=read geom=check guess=(read
 ,tcheck) scf=(maxcycle=1)\\title\\0,1\Si,0,1.175698,-0.000004,0.000005
 \Si,0,-1.175698,0.000004,-0.000006\Cl,0,-1.863279,1.932365,-0.120312\C
 l,0,1.86328,-1.932365,0.120312\Cl,0,-1.863332,-0.861997,1.733595\Cl,0,
 1.863332,0.861996,-1.733595\Cl,0,-1.863269,-1.070352,-1.613337\Cl,0,1.
 863269,1.070353,1.613337\\Version=ES64L-G16RevC.01\State=1-A\HF=-3335.
 7454062\RMSD=2.657e-03\Dipole=-0.000001,0.0000005,-0.0000046\Quadrupol

 Normal termination of Gaussian 16 at Wed Apr  9 00:09:13 2025.
