 Gaussian 16, Revision C.01,

 ----------------------------------------------------------------------
 #t hf aug-cc-pvdz symm=none int=(grid=ultrafine) guess=(read,tcheck) s
 table=opt
 ----------------------------------------------------------------------
 -----
 title
 -----
 Symbolic Z-matrix:
 Charge =  0 Multiplicity = 2

 SCF Done:  E(UHF) =  -672.388505592     A.U. after   21 cycles
 Normal termination of Gaussian 16 at Tue Apr  8 23:50:21 2025.
 Gaussian 16:  ES64L-G16RevC.01  3-Jul-2019

 ----------------------------------------------------------------------
 #t hf aug-cc-pvdz iop(5/13=1,5/36=2,99/5=2) pseudo=read geom=check gue
 ss=(read,tcheck) scf=(maxcycle=1)
 ----------------------------------------------------------------------
 -----
 title
 -----
 Structure from the checkpoint file:  "BDE49_nonexpt_187_mol2.chk"
 Charge =  0 Multiplicity = 2

                         Standard orientation:
 ---------------------------------------------------------------------
 Center     Atomic      Atomic             Coordinates (Angstroms)
 Number     Number       Type             X           Y           Z
 ---------------------------------------------------------------------
      1         17           0       -1.918228   -0.046392   -0.124567
      2          5           0       -0.401736   -0.065065    0.671584
      3          6           0        1.034864    0.095406    0.097215
      4          8           0        1.482511    1.205478   -0.096420
      5          8           0        1.740299   -1.040176   -0.083302
      6          1           0        2.626889   -0.780871   -0.385796
 ---------------------------------------------------------------------

 SCF Done:  E(UHF) =  -672.664107961     A.U. after    2 cycles

 The electronic state is 2-A.
 Alpha  occ. eigenvalues -- -105.60679 -20.62013 -20.56409 -11.40109 -10.65690
 Alpha  occ. eigenvalues --   -7.82596  -7.82317  -7.82236  -7.71258  -1.56408
 Alpha  occ. eigenvalues --   -1.47340  -1.11884  -0.91742  -0.76027  -0.72493
 Alpha  occ. eigenvalues --   -0.66190  -0.65021  -0.59768  -0.54689  -0.52900
 Alpha  occ. eigenvalues --   -0.50605  -0.47026  -0.37291
 Alpha virt. eigenvalues --    0.03329   0.04149   0.04893   0.05275   0.06467
 Alpha virt. eigenvalues --    0.07618   0.11765   0.12368   0.13221   0.14795
 Alpha virt. eigenvalues --    0.15006   0.16699   0.16949   0.19405   0.21013

  Beta  occ. eigenvalues -- -105.60616 -20.62042 -20.55907 -11.40160 -10.65618
  Beta  occ. eigenvalues --   -7.82543  -7.82273  -7.82027  -7.69246  -1.56220
  Beta  occ. eigenvalues --   -1.46486  -1.10978  -0.90481  -0.74552  -0.72149
  Beta  occ. eigenvalues --   -0.65082  -0.63471  -0.59001  -0.52917  -0.51795
  Beta  occ. eigenvalues --   -0.48061  -0.45682
  Beta virt. eigenvalues --    0.03037   0.03711   0.05028   0.05301   0.06289
  Beta virt. eigenvalues --    0.08135   0.08748   0.11848   0.12624   0.14916
  Beta virt. eigenvalues --    0.14978   0.16302   0.17002   0.17254   0.19609

 Mulliken charges and spin densities:
               1          2
     1  Cl  -0.165743   0.014186
     2  B    0.172526   0.954078
     3  C    1.717966  -0.099218
     4  O   -1.034374   0.126581
     5  O   -1.041329   0.006353
     6  H    0.350954  -0.001980
 Sum of Mulliken charges =   0.00000   1.00000

 Dipole moment (field-independent basis, Debye):
    X=              0.1977    Y=             -1.5057    Z=             -0.1319  Tot=              1.5243
                          Isotropic Fermi Contact Couplings
        Atom                 a.u.       MegaHertz       Gauss      10(-4) cm-1
     1  Cl(35)             0.05852      25.65729       9.15516       8.55835
     2  B(11)              0.31619     453.52638     161.82949     151.28012
     3  C(13)              0.01915      21.52670       7.68126       7.18053
     4  O(17)              0.03755     -22.76085      -8.12164      -7.59220
     5  O(17)             -0.00641       3.88566       1.38650       1.29612
     6  H(1)              -0.00010      -0.45632      -0.16283      -0.15221
 --------------------------------------------------------
       Center         ----  Spin Dipole Couplings  ----

 1\1\GINC-SE082\SP\UHF\Aug-CC-pVDZ\C1H1B1Cl1O2(2)\OHZDE\08-Apr-2025\0\\
 #t hf aug-cc-pvdz iop(5/13=1,5/36=2,99/5=2) pseudo=read geom=check gue
 ss=(read,tcheck) scf=(maxcycle=1)\\title\\0,2\Cl,0,-1.918228,-0.046392
 ,-0.124567\B,0,-0.401736,-0.065065,0.671584\C,0,1.034864,0.095406,0.09
 7215\O,0,1.482511,1.205478,-0.09642\O,0,1.740299,-1.040176,-0.083302\H
 ,0,2.626889,-0.780871,-0.385796\\Version=ES64L-G16RevC.01\State=2-A\HF
 =-672.664108\S2=0.765649\S2-1=0.\S2A=0.750115\RMSD=7.241e-03\Dipole=0.
 0777618,-0.5923783,-0.0518899\Quadrupole=3.1513403,-2.9251537,-0.22618

 Normal termination of Gaussian 16 at Tue Apr  8 23:50:23 2025.
