 Gaussian 16, Revision C.01,

 ----------------------------------------------------------------------
 #t hf aug-cc-pvdz symm=none int=(grid=ultrafine) guess=(read,tcheck) s
 table=(opt,rrhf)
 ----------------------------------------------------------------------
 -----
 title
 -----
 Symbolic Z-matrix:
 Charge =  0 Multiplicity = 1

 SCF Done:  E(RHF) =  -437.730281746     A.U. after   11 cycles
 Normal termination of Gaussian 16 at Tue Apr  8 22:45:26 2025.
 Gaussian 16:  ES64L-G16RevC.01  3-Jul-2019

 ----------------------------------------------------------------------
 #t hf aug-cc-pvdz iop(5/13=1,5/36=2,99/5=2) pseudo=read geom=check gue
 ss=(read,tcheck) scf=(maxcycle=1)
 ----------------------------------------------------------------------
 -----
 title
 -----
 Structure from the checkpoint file:  "BDE49_expt_1545_mol1.chk"
 Charge =  0 Multiplicity = 1

                         Standard orientation:
 ---------------------------------------------------------------------
 Center     Atomic      Atomic             Coordinates (Angstroms)
 Number     Number       Type             X           Y           Z
 ---------------------------------------------------------------------
      1          6           0       -1.163284    0.020145    0.000002
      2         16           0        0.665889   -0.086845   -0.000001
      3          1           0       -1.529902    0.521235   -0.895050
      4          1           0       -1.529900    0.521223    0.895061
      5          1           0       -1.524621   -1.008379   -0.000005
      6          1           0        0.909894    1.234579    0.000007
 ---------------------------------------------------------------------

 SCF Done:  E(RHF) =  -437.837785739     A.U. after    2 cycles

 The electronic state is 1-A.
 Alpha  occ. eigenvalues --  -93.94969 -11.27158  -8.23038  -6.20895  -6.20749
 Alpha  occ. eigenvalues --   -6.20515  -1.05891  -0.88637  -0.61605  -0.59967
 Alpha  occ. eigenvalues --   -0.53575  -0.46804  -0.36501
 Alpha virt. eigenvalues --    0.03513   0.04617   0.05502   0.06039   0.10207
 Alpha virt. eigenvalues --    0.11885   0.13787   0.14194   0.15891   0.16076
 Alpha virt. eigenvalues --    0.16807   0.21405   0.24541   0.26062   0.26318

 Mulliken charges:
               1
     1  C   -0.690027
     2  S   -0.106958
     3  H    0.155865
     4  H    0.155864
     5  H    0.158542
     6  H    0.326715
 Sum of Mulliken charges =  -0.00000

 Dipole moment (field-independent basis, Debye):
    X=             -1.4854    Y=              0.9132    Z=              0.0000  Tot=              1.7436

 Test job not archived.
 1\1\GINC-SE126\SP\RHF\Aug-CC-pVDZ\C1H4S1\OHZDE\08-Apr-2025\0\\#t hf au
 g-cc-pvdz iop(5/13=1,5/36=2,99/5=2) pseudo=read geom=check guess=(read
 ,tcheck) scf=(maxcycle=1)\\title\\0,1\C,0,-1.163284,0.020145,0.000002\
 S,0,0.665889,-0.086845,-0.000001\H,0,-1.529902,0.521235,-0.89505\H,0,-
 1.5299,0.521223,0.895061\H,0,-1.524621,-1.008379,-0.000005\H,0,0.90989
 4,1.234579,0.000007\\Version=ES64L-G16RevC.01\State=1-A\HF=-437.837785
 7\RMSD=5.800e-03\Dipole=-0.5843871,0.3592795,0.0000029\Quadrupole=0.48
 85718,1.0812384,-1.5698103,1.0575314,0.000004,0.000016\PG=C01 [X(C1H4S

 Normal termination of Gaussian 16 at Tue Apr  8 22:45:28 2025.
