 Gaussian 16, Revision C.01,

 ----------------------------------------------------------------------
 #t hf aug-cc-pvdz symm=none int=(grid=ultrafine) guess=(read,tcheck) s
 table=(opt,rrhf)
 ----------------------------------------------------------------------
 -----
 title
 -----
 Symbolic Z-matrix:
 Charge =  0 Multiplicity = 1

 SCF Done:  E(RHF) =  -498.124808798     A.U. after   13 cycles
 Normal termination of Gaussian 16 at Wed Apr  9 00:01:30 2025.
 Gaussian 16:  ES64L-G16RevC.01  3-Jul-2019

 ----------------------------------------------------------------------
 #t hf aug-cc-pvdz iop(5/13=1,5/36=2,99/5=2) pseudo=read geom=check gue
 ss=(read,tcheck) scf=(maxcycle=1)
 ----------------------------------------------------------------------
 -----
 title
 -----
 Structure from the checkpoint file:  "BDE49_nonexpt_2151_mol1.chk"
 Charge =  0 Multiplicity = 1

                         Standard orientation:
 ---------------------------------------------------------------------
 Center     Atomic      Atomic             Coordinates (Angstroms)
 Number     Number       Type             X           Y           Z
 ---------------------------------------------------------------------
      1          7           0       -0.161434   -0.705699   -0.000009
      2         14           0       -1.795513   -0.046822    0.000004
      3          6           0        0.914385    0.154423    0.000003
      4          1           0        0.021236   -1.698922   -0.000021
      5          6           0        2.293932   -0.476914    0.000007
      6          1           0        2.428724   -1.106529    0.884094
      7          1           0        3.043674    0.311248   -0.000252
      8          1           0        2.428566   -1.106983   -0.883780
      9          8           0        0.733373    1.359651   -0.000013
     10          1           0       -2.056573    0.752365   -1.212170
     11          1           0       -2.056564    0.752339    1.212196
     12          1           0       -2.658742   -1.250382   -0.000006
 ---------------------------------------------------------------------

 SCF Done:  E(RHF) =  -498.371891603     A.U. after    2 cycles

 The electronic state is 1-A.
 Alpha  occ. eigenvalues --  -69.55263 -20.51847 -15.51446 -11.36678 -11.25421
 Alpha  occ. eigenvalues --   -6.22025  -3.97472  -3.97392  -3.97347  -1.46684
 Alpha  occ. eigenvalues --   -1.21217  -1.01358  -0.83056  -0.77832  -0.69204
 Alpha  occ. eigenvalues --   -0.64405  -0.63389  -0.58758  -0.55981  -0.55835
 Alpha  occ. eigenvalues --   -0.49162  -0.48909  -0.43327  -0.43180
 Alpha virt. eigenvalues --    0.02749   0.04364   0.04627   0.04789   0.06183
 Alpha virt. eigenvalues --    0.06374   0.06996   0.07455   0.09553   0.10376
 Alpha virt. eigenvalues --    0.11508   0.13129   0.13910   0.14778   0.15006

 Mulliken charges:
               1
     1  N    0.334229
     2  Si   0.693845
     3  C    0.530758
     4  H   -0.059097
     5  C   -0.444760
     6  H    0.224664
     7  H    0.139847
     8  H    0.224583
     9  O   -1.254699
    10  H   -0.126631
    11  H   -0.126639
    12  H   -0.136099
 Sum of Mulliken charges =  -0.00000

 Dipole moment (field-independent basis, Debye):
    X=              0.7030    Y=             -3.4907    Z=              0.0001  Tot=              3.5608

 Test job not archived.
 1\1\GINC-SE457\SP\RHF\Aug-CC-pVDZ\C2H7N1O1Si1\OHZDE\09-Apr-2025\0\\#t
 hf aug-cc-pvdz iop(5/13=1,5/36=2,99/5=2) pseudo=read geom=check guess=
 (read,tcheck) scf=(maxcycle=1)\\title\\0,1\N,0,-0.161434,-0.705699,-0.
 000009\Si,0,-1.795513,-0.046822,0.000004\C,0,0.914385,0.154423,0.00000
 3\H,0,0.021236,-1.698922,-0.000021\C,0,2.293932,-0.476914,0.000007\H,0
 ,2.428724,-1.106529,0.884094\H,0,3.043674,0.311248,-0.000252\H,0,2.428
 566,-1.106983,-0.88378\O,0,0.733373,1.359651,-0.000013\H,0,-2.056573,0
 .752365,-1.21217\H,0,-2.056564,0.752339,1.212196\H,0,-2.658742,-1.2503

 Normal termination of Gaussian 16 at Wed Apr  9 00:01:34 2025.
