 Gaussian 16, Revision C.01,

 ----------------------------------------------------------------------
 #t hf aug-cc-pvdz symm=none int=(grid=ultrafine) guess=(read,tcheck) s
 table=(opt,rrhf)
 ----------------------------------------------------------------------
 -----
 title
 -----
 Symbolic Z-matrix:
 Charge =  0 Multiplicity = 1

 SCF Done:  E(RHF) =  -432.402463231     A.U. after   13 cycles
 Normal termination of Gaussian 16 at Wed Apr  9 00:46:08 2025.
 Gaussian 16:  ES64L-G16RevC.01  3-Jul-2019

 ----------------------------------------------------------------------
 #t hf aug-cc-pvdz iop(5/13=1,5/36=2,99/5=2) pseudo=read geom=check gue
 ss=(read,tcheck) scf=(maxcycle=1)
 ----------------------------------------------------------------------
 -----
 title
 -----
 Structure from the checkpoint file:  "BDE49_nonexpt_809_mol1.chk"
 Charge =  0 Multiplicity = 1

                         Standard orientation:
 ---------------------------------------------------------------------
 Center     Atomic      Atomic             Coordinates (Angstroms)
 Number     Number       Type             X           Y           Z
 ---------------------------------------------------------------------
      1          5           0       -2.538942    0.707761   -0.068650
      2          6           0        0.665698    0.129392   -0.525092
      3          6           0        1.988755   -0.478309   -0.090482
      4          6           0        1.604515    0.884529    0.405037
      5          1           0        1.325149    0.986343    1.448202
      6          1           0        2.128702    1.743661    0.002917
      7          1           0        2.776535   -0.550385   -0.831423
      8          1           0        1.968972   -1.301768    0.614871
      9         14           0       -0.964368   -0.538561    0.097655
     10          1           0        0.650671    0.500402   -1.546977
     11          1           0       -0.764120   -0.985698    1.503631
     12          1           0       -1.361820   -1.748050   -0.686099
     13          1           0       -3.522597    0.533093    0.583507
     14          1           0       -2.559440    1.609775   -0.849328
 ---------------------------------------------------------------------

 SCF Done:  E(RHF) =  -432.593227108     A.U. after    2 cycles

 The electronic state is 1-A.
 Alpha  occ. eigenvalues --  -69.50809 -11.24044 -11.23921 -11.22591  -7.60447
 Alpha  occ. eigenvalues --   -6.18075  -3.93434  -3.93417  -3.93383  -1.13633
 Alpha  occ. eigenvalues --   -0.83341  -0.82488  -0.74646  -0.68393  -0.65358
 Alpha  occ. eigenvalues --   -0.60647  -0.52351  -0.50564  -0.48941  -0.46258
 Alpha  occ. eigenvalues --   -0.44923  -0.41745  -0.39756
 Alpha virt. eigenvalues --    0.02723   0.03488   0.03881   0.03998   0.05008
 Alpha virt. eigenvalues --    0.05578   0.05842   0.06761   0.07999   0.08530
 Alpha virt. eigenvalues --    0.08754   0.09559   0.10390   0.11235   0.11928

 Mulliken charges:
               1
     1  B   -1.074697
     2  C   -0.063066
     3  C    0.226367
     4  C    0.233604
     5  H   -0.143247
     6  H   -0.094045
     7  H   -0.086249
     8  H   -0.133160
     9  Si   0.821520
    10  H   -0.176822
    11  H   -0.124097
    12  H   -0.199490
    13  H    0.400843
    14  H    0.412539
 Sum of Mulliken charges =  -0.00000

 Dipole moment (field-independent basis, Debye):
    X=              0.4876    Y=              0.5908    Z=             -0.2479  Tot=              0.8051

 Test job not archived.
 1\1\GINC-SE460\SP\RHF\Aug-CC-pVDZ\C3H9B1Si1\OHZDE\09-Apr-2025\0\\#t hf
  aug-cc-pvdz iop(5/13=1,5/36=2,99/5=2) pseudo=read geom=check guess=(r
 ead,tcheck) scf=(maxcycle=1)\\title\\0,1\B,0,-2.538942,0.707761,-0.068
 65\C,0,0.665698,0.129392,-0.525092\C,0,1.988755,-0.478309,-0.090482\C,
 0,1.604515,0.884529,0.405037\H,0,1.325149,0.986343,1.448202\H,0,2.1287
 02,1.743661,0.002917\H,0,2.776535,-0.550385,-0.831423\H,0,1.968972,-1.
 301768,0.614871\Si,0,-0.964368,-0.538561,0.097655\H,0,0.650671,0.50040
 2,-1.546977\H,0,-0.76412,-0.985698,1.503631\H,0,-1.36182,-1.74805,-0.6

 Normal termination of Gaussian 16 at Wed Apr  9 00:46:12 2025.
