 Gaussian 16, Revision C.01,

 ----------------------------------------------------------------------
 #t hf aug-cc-pvdz symm=none int=(grid=ultrafine) guess=(read,tcheck) s
 table=(opt,rrhf)
 ----------------------------------------------------------------------
 -----
 title
 -----
 Symbolic Z-matrix:
 Charge =  0 Multiplicity = 1

 SCF Done:  E(RHF) =  -913.322055607     A.U. after   13 cycles
 Normal termination of Gaussian 16 at Tue Apr  8 23:57:24 2025.
 Gaussian 16:  ES64L-G16RevC.01  3-Jul-2019

 ----------------------------------------------------------------------
 #t hf aug-cc-pvdz iop(5/13=1,5/36=2,99/5=2) pseudo=read geom=check gue
 ss=(read,tcheck) scf=(maxcycle=1)
 ----------------------------------------------------------------------
 -----
 title
 -----
 Structure from the checkpoint file:  "BDE49_nonexpt_2037_mol1.chk"
 Charge =  0 Multiplicity = 1

                         Standard orientation:
 ---------------------------------------------------------------------
 Center     Atomic      Atomic             Coordinates (Angstroms)
 Number     Number       Type             X           Y           Z
 ---------------------------------------------------------------------
      1         14           0        1.747754    0.048726    0.007337
      2         16           0       -0.474873   -0.146840    0.062130
      3          8           0       -0.867601   -1.299749   -0.704737
      4          8           0       -0.968163    0.076189    1.405749
      5          8           0       -0.913008    1.178921   -0.814428
      6          1           0       -1.352172    1.791182   -0.204790
      7          1           0        2.248854   -1.118928    0.753084
      8          1           0        2.076719    1.322233    0.672415
      9          1           0        2.146180    0.029898   -1.410178
 ---------------------------------------------------------------------

 SCF Done:  E(RHF) =  -913.639775499     A.U. after    2 cycles

 The electronic state is 1-A.
 Alpha  occ. eigenvalues --  -94.22552 -69.59787 -20.62051 -20.55803 -20.55488
 Alpha  occ. eigenvalues --   -8.47567  -6.45656  -6.45522  -6.45281  -6.26802
 Alpha  occ. eigenvalues --   -4.02215  -4.02092  -4.02089  -1.60575  -1.48425
 Alpha  occ. eigenvalues --   -1.45838  -0.95111  -0.80619  -0.74522  -0.69583
 Alpha  occ. eigenvalues --   -0.68575  -0.63725  -0.56960  -0.55128  -0.54390
 Alpha  occ. eigenvalues --   -0.51246  -0.50304  -0.47799  -0.44296
 Alpha virt. eigenvalues --    0.02446   0.03928   0.05171   0.05439   0.06191
 Alpha virt. eigenvalues --    0.08046   0.08169   0.09887   0.11805   0.12504
 Alpha virt. eigenvalues --    0.13710   0.14930   0.15714   0.16454   0.18187

 Mulliken charges:
               1
     1  Si   1.087726
     2  S    3.011570
     3  O   -1.389359
     4  O   -1.394559
     5  O   -1.216663
     6  H    0.382390
     7  H   -0.181439
     8  H   -0.152350
     9  H   -0.147317
 Sum of Mulliken charges =   0.00000

 Dipole moment (field-independent basis, Debye):
    X=              3.6242    Y=              2.6384    Z=             -0.0645  Tot=              4.4833

 Test job not archived.
 1\1\GINC-SE253\SP\RHF\Aug-CC-pVDZ\H4O3S1Si1\OHZDE\08-Apr-2025\0\\#t hf
  aug-cc-pvdz iop(5/13=1,5/36=2,99/5=2) pseudo=read geom=check guess=(r
 ead,tcheck) scf=(maxcycle=1)\\title\\0,1\Si,0,-1.747754,-0.048726,0.00
 7337\S,0,0.474873,0.14684,0.06213\O,0,0.867601,1.299749,-0.704737\O,0,
 0.968163,-0.076189,1.405749\O,0,0.913008,-1.178921,-0.814428\H,0,1.352
 173,-1.791182,-0.20479\H,0,-2.248854,1.118927,0.753084\H,0,-2.076719,-
 1.322234,0.672415\H,0,-2.14618,-0.029899,-1.410178\\Version=ES64L-G16R
 evC.01\State=1-A\HF=-913.6397755\RMSD=5.970e-03\Dipole=-1.4258697,-1.0

 Normal termination of Gaussian 16 at Tue Apr  8 23:57:28 2025.
