 Gaussian 16, Revision C.01,

 ----------------------------------------------------------------------
 #t hf aug-cc-pvdz symm=none int=(grid=ultrafine) guess=(read,tcheck) s
 table=opt
 ----------------------------------------------------------------------
 -----
 title
 -----
 Symbolic Z-matrix:
 Charge =  0 Multiplicity = 2

 SCF Done:  E(UHF) =  -588.919189626     A.U. after   20 cycles
 Normal termination of Gaussian 16 at Tue Apr  8 23:15:58 2025.
 Gaussian 16:  ES64L-G16RevC.01  3-Jul-2019

 ----------------------------------------------------------------------
 #t hf aug-cc-pvdz iop(5/13=1,5/36=2,99/5=2) pseudo=read geom=check gue
 ss=(read,tcheck) scf=(maxcycle=1)
 ----------------------------------------------------------------------
 -----
 title
 -----
 Structure from the checkpoint file:  "BDE49_nonexpt_1005_mol2.chk"
 Charge =  0 Multiplicity = 2

                         Standard orientation:
 ---------------------------------------------------------------------
 Center     Atomic      Atomic             Coordinates (Angstroms)
 Number     Number       Type             X           Y           Z
 ---------------------------------------------------------------------
      1          6           0       -0.989368   -0.762376    0.000087
      2          6           0        0.139225    0.239337    0.000175
      3         16           0        1.822028   -0.313701   -0.000115
      4          8           0        0.010411    1.443792   -0.000018
      5          6           0       -2.376000   -0.117875    0.000032
      6          1           0       -0.847939   -1.408635    0.873935
      7          1           0       -0.847853   -1.408597   -0.873777
      8          1           0       -2.517332    0.510553    0.880916
      9          1           0       -3.148506   -0.889542   -0.000024
     10          1           0       -2.517245    0.510594   -0.880837
 ---------------------------------------------------------------------

 SCF Done:  E(UHF) =  -589.168206019     A.U. after    2 cycles

 The electronic state is 2-A.
 Alpha  occ. eigenvalues --  -93.99465 -20.55614 -11.38201 -11.27211 -11.24427
 Alpha  occ. eigenvalues --   -8.27672  -6.26848  -6.25045  -6.24753  -1.49682
 Alpha  occ. eigenvalues --   -1.10037  -1.04958  -0.90575  -0.75309  -0.67561
 Alpha  occ. eigenvalues --   -0.65834  -0.63208  -0.56546  -0.56046  -0.53836
 Alpha  occ. eigenvalues --   -0.51442  -0.47388  -0.42277  -0.41064
 Alpha virt. eigenvalues --    0.03240   0.04412   0.04452   0.05522   0.07446
 Alpha virt. eigenvalues --    0.07593   0.10430   0.11743   0.11860   0.12054
 Alpha virt. eigenvalues --    0.13088   0.14088   0.15509   0.15614   0.16343

  Beta  occ. eigenvalues --  -93.98544 -20.55410 -11.38313 -11.27208 -11.24412
  Beta  occ. eigenvalues --   -8.26612  -6.24535  -6.24176  -6.22762  -1.49140
  Beta  occ. eigenvalues --   -1.08638  -0.99560  -0.89129  -0.74378  -0.66042
  Beta  occ. eigenvalues --   -0.65818  -0.61970  -0.55867  -0.55637  -0.53661
  Beta  occ. eigenvalues --   -0.51360  -0.41488  -0.38826
  Beta virt. eigenvalues --   -0.01179   0.03286   0.04417   0.04695   0.05561
  Beta virt. eigenvalues --    0.07587   0.07598   0.10890   0.11623   0.12032
  Beta virt. eigenvalues --    0.12540   0.13207   0.14727   0.15656   0.16377

 Mulliken charges and spin densities:
               1          2
     1  C   -0.580485   0.004360
     2  C    0.632598  -0.111794
     3  S    0.306169   1.093358
     4  O   -1.166913   0.016230
     5  C   -0.226104  -0.002844
     6  H    0.278046   0.000541
     7  H    0.278016   0.000537
     8  H    0.168439  -0.000307
     9  H    0.141789   0.000226
    10  H    0.168445  -0.000307
 Sum of Mulliken charges =  -0.00000   1.00000

 Dipole moment (field-independent basis, Debye):
    X=             -1.3081    Y=             -2.6591    Z=              0.0002  Tot=              2.9635
                          Isotropic Fermi Contact Couplings
        Atom                 a.u.       MegaHertz       Gauss      10(-4) cm-1
     1  C(13)              0.00074       0.83048       0.29634       0.27702
     2  C(13)             -0.01805     -20.29456      -7.24160      -6.76954
     3  S(33)              0.20351      69.89863      24.94157      23.31567
     4  O(17)              0.02699     -16.36242      -5.83852      -5.45792
     5  C(13)              0.00286       3.21107       1.14579       1.07110
     6  H(1)               0.00009       0.41538       0.14822       0.13856
     7  H(1)               0.00009       0.41580       0.14837       0.13870
     8  H(1)              -0.00008      -0.35258      -0.12581      -0.11761

 Normal termination of Gaussian 16 at Tue Apr  8 23:16:02 2025.
