 Gaussian 16, Revision C.01,

 ----------------------------------------------------------------------
 #t hf aug-cc-pvdz symm=none int=(grid=ultrafine) guess=(read,tcheck) s
 table=opt
 ----------------------------------------------------------------------
 -----
 title
 -----
 Symbolic Z-matrix:
 Charge =  0 Multiplicity = 2

 SCF Done:  E(UHF) =  -666.311353071     A.U. after   19 cycles
 Normal termination of Gaussian 16 at Tue Apr  8 22:49:37 2025.
 Gaussian 16:  ES64L-G16RevC.01  3-Jul-2019

 ----------------------------------------------------------------------
 #t hf aug-cc-pvdz iop(5/13=1,5/36=2,99/5=2) pseudo=read geom=check gue
 ss=(read,tcheck) scf=(maxcycle=1)
 ----------------------------------------------------------------------
 -----
 title
 -----
 Structure from the checkpoint file:  "BDE49_expt_1722_mol2.chk"
 Charge =  0 Multiplicity = 2

                         Standard orientation:
 ---------------------------------------------------------------------
 Center     Atomic      Atomic             Coordinates (Angstroms)
 Number     Number       Type             X           Y           Z
 ---------------------------------------------------------------------
      1          6           0        0.262780   -0.767782   -0.000002
      2          6           0       -1.034386   -0.093418   -0.000001
      3         17           0        1.776629    0.047508    0.000001
      4          1           0        0.299432   -1.846241   -0.000004
      5          7           0       -1.046720    1.270795    0.000000
      6          1           0       -0.205709    1.821618    0.000012
      7          1           0       -1.941558    1.731152    0.000009
      8          8           0       -2.049772   -0.780315   -0.000002
 ---------------------------------------------------------------------

 SCF Done:  E(UHF) =  -666.591012914     A.U. after    2 cycles

 The electronic state is 2-A.
 Alpha  occ. eigenvalues -- -105.60559 -20.53673 -15.53670 -11.37668 -11.33950
 Alpha  occ. eigenvalues --  -10.65366  -7.82175  -7.82108  -7.81915  -1.48340
 Alpha  occ. eigenvalues --   -1.23880  -1.15534  -0.98094  -0.83947  -0.77851
 Alpha  occ. eigenvalues --   -0.70148  -0.64936  -0.63993  -0.61406  -0.55526
 Alpha  occ. eigenvalues --   -0.50238  -0.47420  -0.45265  -0.39543
 Alpha virt. eigenvalues --    0.03114   0.04663   0.05866   0.08393   0.10180
 Alpha virt. eigenvalues --    0.11029   0.12186   0.13180   0.14099   0.15172
 Alpha virt. eigenvalues --    0.15221   0.16470   0.17195   0.17936   0.18127

  Beta  occ. eigenvalues -- -105.60517 -20.52554 -15.53707 -11.38255 -11.31450
  Beta  occ. eigenvalues --  -10.65321  -7.82425  -7.81886  -7.81673  -1.46122
  Beta  occ. eigenvalues --   -1.23484  -1.12887  -0.94411  -0.82730  -0.77222
  Beta  occ. eigenvalues --   -0.69113  -0.63706  -0.60451  -0.60090  -0.50860
  Beta  occ. eigenvalues --   -0.49962  -0.44024  -0.42561
  Beta virt. eigenvalues --    0.03126   0.03934   0.04709   0.05925   0.08566
  Beta virt. eigenvalues --    0.10203   0.11355   0.12266   0.13630   0.14322
  Beta virt. eigenvalues --    0.15371   0.15442   0.16582   0.17268   0.17989

 Mulliken charges and spin densities:
               1          2
     1  C    0.091076   1.163252
     2  C    0.622797  -0.328918
     3  Cl  -0.184097  -0.001568
     4  H   -0.048981  -0.077260
     5  N    0.596463  -0.016330
     6  H    0.036916   0.000355
     7  H    0.105842  -0.001720
     8  O   -1.220016   0.262188
 Sum of Mulliken charges =  -0.00000   1.00000

 Dipole moment (field-independent basis, Debye):
    X=              1.6957    Y=              1.8839    Z=              0.0000  Tot=              2.5347
                          Isotropic Fermi Contact Couplings
        Atom                 a.u.       MegaHertz       Gauss      10(-4) cm-1
     1  C(13)              0.22113     248.59735      88.70571      82.92315
     2  C(13)             -0.08047     -90.46268     -32.27933     -30.17510
     3  Cl(35)             0.02920      12.80360       4.56864       4.27082
     4  H(1)              -0.02388    -106.74521     -38.08934     -35.60637
     5  N(14)             -0.00975      -3.15172      -1.12461      -1.05130
     6  H(1)               0.00030       1.32618       0.47321       0.44237
     7  H(1)              -0.00046      -2.07279      -0.73962      -0.69141
     8  O(17)              0.08619     -52.24536     -18.64244     -17.42718

 1\1\GINC-SE070\SP\UHF\Aug-CC-pVDZ\C2H3Cl1N1O1(2)\OHZDE\08-Apr-2025\0\\
 #t hf aug-cc-pvdz iop(5/13=1,5/36=2,99/5=2) pseudo=read geom=check gue
 ss=(read,tcheck) scf=(maxcycle=1)\\title\\0,2\C,0,0.26278,-0.767782,-0
 .000002\C,0,-1.034386,-0.093418,-0.000001\Cl,0,1.776629,0.047508,0.000
 001\H,0,0.299432,-1.846241,-0.000004\N,0,-1.04672,1.270795,0.\H,0,-0.2
 05709,1.821618,0.000012\H,0,-1.941558,1.731152,0.000009\O,0,-2.049772,
 -0.780315,-0.000002\\Version=ES64L-G16RevC.01\State=2-A\HF=-666.591012
 9\S2=0.797084\S2-1=0.\S2A=0.751255\RMSD=1.723e-02\Dipole=0.6671381,0.7

 Normal termination of Gaussian 16 at Tue Apr  8 22:49:40 2025.
