 Gaussian 16, Revision C.01,

 ----------------------------------------------------------------------
 #t hf aug-cc-pvdz symm=none int=(grid=ultrafine) guess=(read,tcheck) s
 table=(opt,rrhf)
 ----------------------------------------------------------------------
 -----
 title
 -----
 Symbolic Z-matrix:
 Charge =  0 Multiplicity = 1

 SCF Done:  E(RHF) =  -794.109453697     A.U. after   14 cycles
 Normal termination of Gaussian 16 at Tue Apr  8 23:23:09 2025.
 Gaussian 16:  ES64L-G16RevC.01  3-Jul-2019

 ----------------------------------------------------------------------
 #t hf aug-cc-pvdz iop(5/13=1,5/36=2,99/5=2) pseudo=read geom=check gue
 ss=(read,tcheck) scf=(maxcycle=1)
 ----------------------------------------------------------------------
 -----
 title
 -----
 Structure from the checkpoint file:  "BDE49_expt_810_mol1.chk"
 Charge =  0 Multiplicity = 1

                         Standard orientation:
 ---------------------------------------------------------------------
 Center     Atomic      Atomic             Coordinates (Angstroms)
 Number     Number       Type             X           Y           Z
 ---------------------------------------------------------------------
      1         14           0       -0.645512    1.420973    0.018914
      2          6           0       -1.922166    0.267279   -0.783625
      3          6           0        1.015595    0.580207    0.317540
      4          6           0        1.704010   -0.067707   -0.722371
      5          6           0        2.948070   -0.672567   -0.533495
      6          6           0        3.519314   -0.624526    0.744332
      7          6           0        2.862665    0.010646    1.792024
      8          6           0        1.620726    0.609207    1.581168
      9          1           0        1.120001    1.100179    2.409604
     10          1           0        1.263404   -0.106991   -1.715787
     11          1           0        3.318139    0.039558    2.776248
     12          6           0       -0.411984    2.900804   -1.125528
     13          1           0       -1.111527    1.912218    1.342035
     14          1           0       -0.063141    2.586347   -2.114023
     15          1           0        0.327938    3.594909   -0.718001
     16          1           0       -1.350843    3.446419   -1.260205
     17          6           0       -2.683647   -0.804526    0.046025
     18          1           0       -1.401829   -0.234094   -1.612017
     19          1           0       -2.662512    0.919598   -1.266663
     20          6           0       -3.561834   -1.631473   -0.915115
     21          1           0       -4.274393   -0.992532   -1.446117
     22          1           0       -4.132862   -2.390771   -0.370993
     23          1           0       -2.950044   -2.144872   -1.663478
     24          6           0       -1.703123   -1.752183    0.760553
     25          1           0       -1.025537   -2.232859    0.048733
     26          1           0       -2.247928   -2.540389    1.289819
     27          1           0       -1.088298   -1.223959    1.493952
     28          6           0       -3.595812   -0.128193    1.086809
     29          1           0       -4.309846    0.546883    0.604058
     30          1           0       -3.021122    0.454582    1.810621
     31          1           0       -4.169208   -0.877380    1.641566
     32          1           0        4.485469   -1.089387    0.916300
     33          6           0        3.667023   -1.359924   -1.670117
     34          1           0        3.077479   -1.332492   -2.588692
     35          1           0        3.870992   -2.408918   -1.434228
     36          1           0        4.629800   -0.881938   -1.876734
 ---------------------------------------------------------------------

 SCF Done:  E(RHF) =  -794.686353535     A.U. after    2 cycles

 The electronic state is 1-A.
 Alpha  occ. eigenvalues --  -69.51223 -11.24634 -11.24048 -11.23949 -11.23762
 Alpha  occ. eigenvalues --  -11.23731 -11.23712 -11.23509 -11.22306 -11.21618
 Alpha  occ. eigenvalues --  -11.21561 -11.21395 -11.21062 -11.20884  -6.18247
 Alpha  occ. eigenvalues --   -3.93618  -3.93597  -3.93564  -1.15149  -1.10028
 Alpha  occ. eigenvalues --   -1.04264  -1.01124  -0.95258  -0.93452  -0.92698
 Alpha  occ. eigenvalues --   -0.92637  -0.91592  -0.83005  -0.80377  -0.74016
 Alpha  occ. eigenvalues --   -0.70735  -0.66899  -0.64840  -0.61976  -0.61692
 Alpha  occ. eigenvalues --   -0.61661  -0.59505  -0.58226  -0.57926  -0.57012
 Alpha  occ. eigenvalues --   -0.55525  -0.55265  -0.54948  -0.54285  -0.53429
 Alpha  occ. eigenvalues --   -0.51476  -0.51392  -0.49644  -0.49557  -0.48314
 Alpha  occ. eigenvalues --   -0.47039  -0.46159  -0.44496  -0.43664  -0.41875
 Alpha  occ. eigenvalues --   -0.33993  -0.33119
 Alpha virt. eigenvalues --    0.02738   0.03108   0.03294   0.03686   0.04361
 Alpha virt. eigenvalues --    0.04433   0.04926   0.05197   0.05630   0.06575
 Alpha virt. eigenvalues --    0.06707   0.07110   0.07350   0.08277   0.08457

 Mulliken charges:
               1
     1  Si   1.623895
     2  C   -0.127405
     3  C   -0.776262
     4  C    0.548549
     5  C    0.168666
     6  C    1.089344
     7  C    0.053741
     8  C    0.122736
     9  H   -0.422933
    10  H   -0.446423
    11  H   -0.252046
    12  C   -0.543021
    13  H   -0.203924
    14  H    0.142876
    15  H   -0.124966
    16  H   -0.067390
    17  C   -2.817368
    18  H    0.159033
    19  H   -0.001206
    20  C    0.349238
    21  H    0.227057
    22  H    0.180675
    23  H    0.208722
    24  C    0.120113
    25  H    0.205505
    26  H    0.105837
    27  H    0.239154
    28  C    0.180239
    29  H    0.183258
    30  H    0.186999
    31  H    0.206242
    32  H   -0.322041
    33  C   -0.747142
    34  H    0.019965
    35  H    0.262351
    36  H    0.267931
 Sum of Mulliken charges =  -0.00000

 Dipole moment (field-independent basis, Debye):
    X=              0.4296    Y=             -0.4237    Z=             -0.6439  Tot=              0.8824

 Test job not archived.
 1\1\GINC-SE082\SP\RHF\Aug-CC-pVDZ\C13H22Si1\OHZDE\08-Apr-2025\0\\#t hf
  aug-cc-pvdz iop(5/13=1,5/36=2,99/5=2) pseudo=read geom=check guess=(r
 ead,tcheck) scf=(maxcycle=1)\\title\\0,1\Si,0,-0.645512,1.420973,0.018
 914\C,0,-1.922166,0.267279,-0.783625\C,0,1.015595,0.580207,0.31754\C,0
 ,1.70401,-0.067707,-0.722371\C,0,2.94807,-0.672567,-0.533495\C,0,3.519
 314,-0.624526,0.744332\C,0,2.862665,0.010646,1.792024\C,0,1.620726,0.6
 09207,1.581168\H,0,1.120001,1.100179,2.409604\H,0,1.263404,-0.106991,-
 1.715787\H,0,3.318139,0.039558,2.776248\C,0,-0.411984,2.900804,-1.1255

 Normal termination of Gaussian 16 at Tue Apr  8 23:24:00 2025.
