 Gaussian 16, Revision C.01,

 ----------------------------------------------------------------------
 #t hf aug-cc-pvdz symm=none int=(grid=ultrafine) guess=(read,tcheck) s
 table=(opt,rrhf)
 ----------------------------------------------------------------------
 -----
 title
 -----
 Symbolic Z-matrix:
 Charge =  0 Multiplicity = 1

 SCF Done:  E(RHF) =  -1234.45717760     A.U. after   17 cycles
 Normal termination of Gaussian 16 at Tue Apr  8 23:34:56 2025.
 Gaussian 16:  ES64L-G16RevC.01  3-Jul-2019

 ----------------------------------------------------------------------
 #t hf aug-cc-pvdz iop(5/13=1,5/36=2,99/5=2) pseudo=read geom=check gue
 ss=(read,tcheck) scf=(maxcycle=1)
 ----------------------------------------------------------------------
 -----
 title
 -----
 Structure from the checkpoint file:  "BDE49_nonexpt_1438_mol1.chk"
 Charge =  0 Multiplicity = 1

                         Standard orientation:
 ---------------------------------------------------------------------
 Center     Atomic      Atomic             Coordinates (Angstroms)
 Number     Number       Type             X           Y           Z
 ---------------------------------------------------------------------
      1          6           0       -1.473924   -1.545382   -0.001741
      2          6           0       -0.119810   -1.851053    0.006810
      3          6           0        0.875537   -0.859242    0.024709
      4          6           0       -1.877705   -0.211362    0.004896
      5          6           0       -0.938986    0.805422    0.012320
      6          6           0        0.412029    0.464970    0.015717
      7          1           0        0.174919   -2.893146    0.008927
      8         15           0        2.652902   -1.347324   -0.134438
      9          1           0       -2.214543   -2.334728   -0.006356
     10          1           0       -1.224669    1.846872    0.010775
     11          7           0        1.369610    1.588447    0.009312
     12          8           0        2.561175    1.306146    0.110945
     13          8           0        0.935051    2.723817   -0.101217
     14         17           0       -3.581316    0.181707    0.006869
     15          1           0        2.416731   -2.703575    0.221773
     16          1           0        3.116475   -0.973539    1.145408
 ---------------------------------------------------------------------

 SCF Done:  E(RHF) =  -1235.00064728     A.U. after    2 cycles

 The electronic state is 1-A.
 Alpha  occ. eigenvalues -- -105.59568 -84.29770 -20.60432 -20.60404 -15.80645
 Alpha  occ. eigenvalues --  -11.34119 -11.33537 -11.30608 -11.29889 -11.29706
 Alpha  occ. eigenvalues --  -11.28901 -10.64357  -7.81328  -7.80917  -7.80900
 Alpha  occ. eigenvalues --   -6.76723  -4.29698  -4.29346  -4.28483  -1.68397
 Alpha  occ. eigenvalues --   -1.52103  -1.23118  -1.15271  -1.10777  -1.03696
 Alpha  occ. eigenvalues --   -1.00540  -0.89569  -0.87428  -0.85804  -0.78597
 Alpha  occ. eigenvalues --   -0.76047  -0.75949  -0.70939  -0.70653  -0.66465
 Alpha  occ. eigenvalues --   -0.60546  -0.58736  -0.57936  -0.53996  -0.52869
 Alpha  occ. eigenvalues --   -0.51233  -0.50326  -0.48969  -0.48558  -0.46637
 Alpha  occ. eigenvalues --   -0.40272  -0.40223  -0.34062
 Alpha virt. eigenvalues --    0.00917   0.02726   0.03930   0.04378   0.05731
 Alpha virt. eigenvalues --    0.05945   0.06596   0.08396   0.08801   0.09039
 Alpha virt. eigenvalues --    0.09849   0.10636   0.11289   0.11946   0.12064

 Mulliken charges:
               1
     1  C    0.055100
     2  C    0.762583
     3  C   -0.593069
     4  C    0.098742
     5  C    0.220420
     6  C   -0.041072
     7  H   -0.308550
     8  P   -0.484497
     9  H   -0.173672
    10  H   -0.146186
    11  N    3.069615
    12  O   -1.520358
    13  O   -1.482915
    14  Cl  -0.302411
    15  H    0.337444
    16  H    0.508828
 Sum of Mulliken charges =  -0.00000

 Dipole moment (field-independent basis, Debye):
    X=             -1.3388    Y=             -3.6612    Z=              0.4070  Tot=              3.9195

 Test job not archived.
 1\1\GINC-SE187\SP\RHF\Aug-CC-pVDZ\C6H5Cl1N1O2P1\OHZDE\08-Apr-2025\0\\#
 t hf aug-cc-pvdz iop(5/13=1,5/36=2,99/5=2) pseudo=read geom=check gues
 s=(read,tcheck) scf=(maxcycle=1)\\title\\0,1\C,0,-1.473924,-1.545382,-
 0.001741\C,0,-0.11981,-1.851053,0.00681\C,0,0.875537,-0.859242,0.02470
 9\C,0,-1.877705,-0.211362,0.004896\C,0,-0.938986,0.805422,0.01232\C,0,
 0.412029,0.46497,0.015717\H,0,0.174919,-2.893146,0.008927\P,0,2.652902
 ,-1.347324,-0.134438\H,0,-2.214543,-2.334728,-0.006356\H,0,-1.224669,1
 .846872,0.010775\N,0,1.36961,1.588447,0.009312\O,0,2.561175,1.306146,0

 Normal termination of Gaussian 16 at Tue Apr  8 23:35:08 2025.
