 Gaussian 16, Revision C.01,

 ----------------------------------------------------------------------
 #t hf aug-cc-pvdz symm=none int=(grid=ultrafine) guess=(read,tcheck) s
 table=(opt,rrhf)
 ----------------------------------------------------------------------
 -----
 title
 -----
 Symbolic Z-matrix:
 Charge =  0 Multiplicity = 1

 SCF Done:  E(RHF) =  -1530.76500850     A.U. after   13 cycles
 Normal termination of Gaussian 16 at Tue Apr  8 23:43:52 2025.
 Gaussian 16:  ES64L-G16RevC.01  3-Jul-2019

 ----------------------------------------------------------------------
 #t hf aug-cc-pvdz iop(5/13=1,5/36=2,99/5=2) pseudo=read geom=check gue
 ss=(read,tcheck) scf=(maxcycle=1)
 ----------------------------------------------------------------------
 -----
 title
 -----
 Structure from the checkpoint file:  "BDE49_nonexpt_1703_mol1.chk"
 Charge =  0 Multiplicity = 1

                         Standard orientation:
 ---------------------------------------------------------------------
 Center     Atomic      Atomic             Coordinates (Angstroms)
 Number     Number       Type             X           Y           Z
 ---------------------------------------------------------------------
      1         15           0       -1.499755   -0.125280   -0.055449
      2         16           0        0.000000    1.396710   -0.000021
      3         15           0        1.499761   -0.125274    0.055462
      4          8           0       -1.250391   -1.016011   -1.207941
      5          8           0       -2.879286    0.657576   -0.066214
      6          8           0        1.250500   -1.015870    1.208079
      7          8           0        1.531139   -0.763588   -1.382725
      8          1           0        0.624036   -1.049726   -1.634874
      9          1           0       -3.247684    0.729999   -0.955831
     10          8           0        2.879295    0.657581    0.066015
     11          1           0        3.247772    0.730108    0.955590
     12          8           0       -1.531261   -0.763425    1.382809
     13          1           0       -0.624181   -1.049536    1.635075
 ---------------------------------------------------------------------

 SCF Done:  E(RHF) =  -1531.35835079     A.U. after    2 cycles

 The electronic state is 1-A.
 Alpha  occ. eigenvalues --  -93.99039 -84.48037 -84.48008 -20.62773 -20.62772
 Alpha  occ. eigenvalues --  -20.60532 -20.60531 -20.54216 -20.54215  -8.27473
 Alpha  occ. eigenvalues --   -6.93086  -6.93058  -6.25170  -6.25116  -6.24830
 Alpha  occ. eigenvalues --   -4.47157  -4.47156  -4.46614  -4.46605  -4.45573
 Alpha  occ. eigenvalues --   -4.45342  -1.56833  -1.56576  -1.50153  -1.49828
 Alpha  occ. eigenvalues --   -1.42833  -1.42401  -1.06856  -0.88536  -0.86683
 Alpha  occ. eigenvalues --   -0.74029  -0.73439  -0.71989  -0.70546  -0.67701
 Alpha  occ. eigenvalues --   -0.66646  -0.64631  -0.61684  -0.60179  -0.58994
 Alpha  occ. eigenvalues --   -0.58425  -0.57143  -0.52707  -0.52414  -0.49335
 Alpha  occ. eigenvalues --   -0.49284  -0.47925  -0.45981  -0.41867
 Alpha virt. eigenvalues --    0.03104   0.03556   0.06144   0.07074   0.07358
 Alpha virt. eigenvalues --    0.08487   0.09662   0.10293   0.10749   0.11414
 Alpha virt. eigenvalues --    0.12753   0.13517   0.13922   0.15412   0.17104

 Mulliken charges:
               1
     1  P    3.790639
     2  S   -0.884445
     3  P    3.790612
     4  O   -1.524752
     5  O   -1.256450
     6  O   -1.524706
     7  O   -1.535106
     8  H    0.602857
     9  H    0.365053
    10  O   -1.256466
    11  H    0.365060
    12  O   -1.535083
    13  H    0.602789
 Sum of Mulliken charges =  -0.00000

 Dipole moment (field-independent basis, Debye):
    X=             -0.0003    Y=              2.4720    Z=             -0.0001  Tot=              2.4720

 Test job not archived.
 1\1\GINC-SE252\SP\RHF\Aug-CC-pVDZ\H4O6P2S1\OHZDE\08-Apr-2025\0\\#t hf
 aug-cc-pvdz iop(5/13=1,5/36=2,99/5=2) pseudo=read geom=check guess=(re
 ad,tcheck) scf=(maxcycle=1)\\title\\0,1\P,0,-1.499755,-0.12528,-0.0554
 49\S,0,0.,1.39671,-0.000021\P,0,1.499761,-0.125274,0.055462\O,0,-1.250
 391,-1.016011,-1.207941\O,0,-2.879286,0.657576,-0.066214\O,0,1.2505,-1
 .01587,1.208079\O,0,1.531139,-0.763588,-1.382725\H,0,0.624036,-1.04972
 6,-1.634874\H,0,-3.247684,0.729999,-0.955831\O,0,2.879295,0.657581,0.0
 66015\H,0,3.247772,0.730108,0.95559\O,0,-1.531261,-0.763425,1.382809\H

 Normal termination of Gaussian 16 at Tue Apr  8 23:43:58 2025.
