 Gaussian 16, Revision C.01,

 ----------------------------------------------------------------------
 #t hf aug-cc-pvdz symm=none int=(grid=ultrafine) guess=(read,tcheck) s
 table=opt
 ----------------------------------------------------------------------
 -----
 title
 -----
 Symbolic Z-matrix:
 Charge =  0 Multiplicity = 2

 SCF Done:  E(UHF) =  -450.097014302     A.U. after   15 cycles
 Normal termination of Gaussian 16 at Tue Apr  8 22:50:37 2025.
 Gaussian 16:  ES64L-G16RevC.01  3-Jul-2019

 ----------------------------------------------------------------------
 #t hf aug-cc-pvdz iop(5/13=1,5/36=2,99/5=2) pseudo=read geom=check gue
 ss=(read,tcheck) scf=(maxcycle=1)
 ----------------------------------------------------------------------
 -----
 title
 -----
 Structure from the checkpoint file:  "BDE49_expt_174_mol2.chk"
 Charge =  0 Multiplicity = 2

                         Standard orientation:
 ---------------------------------------------------------------------
 Center     Atomic      Atomic             Coordinates (Angstroms)
 Number     Number       Type             X           Y           Z
 ---------------------------------------------------------------------
      1          6           0       -1.975444   -0.011230    0.050585
      2          8           0       -0.799463   -0.720229   -0.097474
      3          1           0       -2.844165   -0.639557   -0.056091
      4          1           0       -1.965478    1.043288   -0.185731
      5          6           0        0.362382   -0.027799   -0.002009
      6          9           0        0.429996    0.974666   -0.900498
      7          9           0        1.361110   -0.873118   -0.231815
      8          9           0        0.529308    0.519815    1.213442
 ---------------------------------------------------------------------

 SCF Done:  E(UHF) =  -450.514711781     A.U. after    2 cycles

 The electronic state is 2-A.
 Alpha  occ. eigenvalues --  -26.52131 -26.52009 -26.51855 -20.62978 -11.58309
 Alpha  occ. eigenvalues --  -11.32919  -1.74594  -1.63491  -1.62886  -1.56034
 Alpha  occ. eigenvalues --   -1.02980  -0.92829  -0.84247  -0.84213  -0.81994
 Alpha  occ. eigenvalues --   -0.71431  -0.71274  -0.67934  -0.66070  -0.65450
 Alpha  occ. eigenvalues --   -0.64066  -0.63363  -0.61961  -0.56581  -0.39037
 Alpha virt. eigenvalues --    0.03526   0.05129   0.08179   0.09111   0.10590
 Alpha virt. eigenvalues --    0.11203   0.12463   0.15858   0.16756   0.19052
 Alpha virt. eigenvalues --    0.20851   0.22575   0.25992   0.27005   0.27292

  Beta  occ. eigenvalues --  -26.52143 -26.52004 -26.51842 -20.62587 -11.58317
  Beta  occ. eigenvalues --  -11.30333  -1.74502  -1.63502  -1.62852  -1.54793
  Beta  occ. eigenvalues --   -0.99813  -0.90412  -0.84137  -0.83770  -0.79526
  Beta  occ. eigenvalues --   -0.71169  -0.70609  -0.67184  -0.65534  -0.65029
  Beta  occ. eigenvalues --   -0.63668  -0.63333  -0.57090  -0.55313
  Beta virt. eigenvalues --    0.03658   0.05170   0.06767   0.08292   0.10506
  Beta virt. eigenvalues --    0.10691   0.11230   0.16140   0.16825   0.17186
  Beta virt. eigenvalues --    0.19574   0.21268   0.22959   0.26095   0.27426

 Mulliken charges and spin densities:
               1          2
     1  C    0.334215   1.185510
     2  O   -1.230924   0.000705
     3  H    0.001735  -0.089332
     4  H    0.118296  -0.092862
     5  C    2.797812  -0.008255
     6  F   -0.686859   0.003403
     7  F   -0.671541  -0.000917
     8  F   -0.662734   0.001749
 Sum of Mulliken charges =   0.00000   1.00000

 Dipole moment (field-independent basis, Debye):
    X=             -1.8690    Y=              0.4017    Z=             -0.2491  Tot=              1.9278
                          Isotropic Fermi Contact Couplings
        Atom                 a.u.       MegaHertz       Gauss      10(-4) cm-1
     1  C(13)              0.25101     282.18280     100.68984      94.12605
     2  O(17)              0.03226     -19.55691      -6.97839      -6.52348
     3  H(1)              -0.02215     -98.99458     -35.32373     -33.02104
     4  H(1)              -0.02045     -91.40056     -32.61399     -30.48795
     5  C(13)             -0.00137      -1.53545      -0.54789      -0.51217
     6  F(19)             -0.00074      -3.09664      -1.10496      -1.03293
     7  F(19)             -0.00200      -8.40424      -2.99884      -2.80335
     8  F(19)             -0.00131      -5.52449      -1.97128      -1.84277

 Normal termination of Gaussian 16 at Tue Apr  8 22:50:39 2025.
