 Gaussian 16, Revision C.01,

 ----------------------------------------------------------------------
 #t hf aug-cc-pvdz symm=none int=(grid=ultrafine) guess=(read,tcheck) s
 table=(opt,rrhf)
 ----------------------------------------------------------------------
 -----
 title
 -----
 Symbolic Z-matrix:
 Charge =  0 Multiplicity = 1

 SCF Done:  E(RHF) =  -1037.26028961     A.U. after   13 cycles
 Normal termination of Gaussian 16 at Wed Apr  9 00:02:27 2025.
 Gaussian 16:  ES64L-G16RevC.01  3-Jul-2019

 ----------------------------------------------------------------------
 #t hf aug-cc-pvdz iop(5/13=1,5/36=2,99/5=2) pseudo=read geom=check gue
 ss=(read,tcheck) scf=(maxcycle=1)
 ----------------------------------------------------------------------
 -----
 title
 -----
 Structure from the checkpoint file:  "BDE49_nonexpt_215_mol1.chk"
 Charge =  0 Multiplicity = 1

                         Standard orientation:
 ---------------------------------------------------------------------
 Center     Atomic      Atomic             Coordinates (Angstroms)
 Number     Number       Type             X           Y           Z
 ---------------------------------------------------------------------
      1         17           0        0.393000    1.579959   -0.000026
      2         17           0       -1.809194   -0.508825    0.000026
      3          5           0       -0.100291   -0.109359    0.000009
      4          6           0        0.970615   -1.257240    0.000005
      5          7           0        2.238710   -1.103574   -0.000011
      6          1           0        2.477212   -0.104766   -0.000024
      7          1           0        0.604889   -2.289247    0.000025
 ---------------------------------------------------------------------

 SCF Done:  E(RHF) =  -1037.52871984     A.U. after    2 cycles

 The electronic state is 1-A.
 Alpha  occ. eigenvalues -- -105.59371-105.59364 -15.53812 -11.29398 -10.64404
 Alpha  occ. eigenvalues --  -10.64373  -7.81292  -7.81269  -7.80998  -7.80994
 Alpha  occ. eigenvalues --   -7.80961  -7.80943  -7.73269  -1.23704  -1.12513
 Alpha  occ. eigenvalues --   -1.07639  -0.88104  -0.75835  -0.66894  -0.65108
 Alpha  occ. eigenvalues --   -0.58777  -0.55406  -0.52320  -0.49458  -0.48943
 Alpha  occ. eigenvalues --   -0.48391  -0.46434
 Alpha virt. eigenvalues --    0.01236   0.03770   0.04935   0.05103   0.05190
 Alpha virt. eigenvalues --    0.07223   0.08054   0.11320   0.12603   0.13984
 Alpha virt. eigenvalues --    0.14571   0.15202   0.16060   0.16425   0.17522

 Mulliken charges:
               1
     1  Cl  -0.312198
     2  Cl  -0.274488
     3  B    0.712817
     4  C   -0.734491
     5  N    0.493657
     6  H    0.132427
     7  H   -0.017723
 Sum of Mulliken charges =  -0.00000

 Dipole moment (field-independent basis, Debye):
    X=             -1.1861    Y=              0.4745    Z=              0.0000  Tot=              1.2775

 Test job not archived.
 1\1\GINC-SE361\SP\RHF\Aug-CC-pVDZ\C1H2B1Cl2N1\OHZDE\09-Apr-2025\0\\#t
 hf aug-cc-pvdz iop(5/13=1,5/36=2,99/5=2) pseudo=read geom=check guess=
 (read,tcheck) scf=(maxcycle=1)\\title\\0,1\Cl,0,-0.393,1.579959,0.0000
 26\Cl,0,1.809194,-0.508825,-0.000026\B,0,0.100291,-0.109359,-0.000009\
 C,0,-0.970615,-1.25724,-0.000005\N,0,-2.23871,-1.103574,0.000011\H,0,-
 2.477212,-0.104766,0.000024\H,0,-0.604889,-2.289247,-0.000025\\Version
 =ES64L-G16RevC.01\State=1-A\HF=-1037.5287198\RMSD=1.092e-02\Dipole=0.4
 666466,0.1866978,-0.0000104\Quadrupole=-2.7397718,0.8294019,1.9103699,

 Normal termination of Gaussian 16 at Wed Apr  9 00:02:30 2025.
