 Gaussian 16, Revision C.01,

 ----------------------------------------------------------------------
 #t hf aug-cc-pvdz symm=none int=(grid=ultrafine) guess=(read,tcheck) s
 table=opt
 ----------------------------------------------------------------------
 -----
 title
 -----
 Symbolic Z-matrix:
 Charge =  0 Multiplicity = 2

 SCF Done:  E(UHF) =  -445.170046736     A.U. after   20 cycles
 Normal termination of Gaussian 16 at Tue Apr  8 23:29:08 2025.
 Gaussian 16:  ES64L-G16RevC.01  3-Jul-2019

 ----------------------------------------------------------------------
 #t hf aug-cc-pvdz iop(5/13=1,5/36=2,99/5=2) pseudo=read geom=check gue
 ss=(read,tcheck) scf=(maxcycle=1)
 ----------------------------------------------------------------------
 -----
 title
 -----
 Structure from the checkpoint file:  "BDE49_nonexpt_134_mol2.chk"
 Charge =  0 Multiplicity = 2

                         Standard orientation:
 ---------------------------------------------------------------------
 Center     Atomic      Atomic             Coordinates (Angstroms)
 Number     Number       Type             X           Y           Z
 ---------------------------------------------------------------------
      1          5           0        0.473994    1.849940    0.256445
      2         15           0        0.052229    0.213536   -0.317762
      3          6           0        1.171852   -1.191771    0.140584
      4          1           0        1.052224   -1.477136    1.187773
      5          1           0        2.204570   -0.885327   -0.029819
      6          1           0        0.957525   -2.056993   -0.491393
      7          6           0       -1.642373   -0.344802    0.151529
      8          1           0       -2.334239    0.483609   -0.002999
      9          1           0       -1.690068   -0.657574    1.196799
     10          1           0       -1.948279   -1.179132   -0.483380
     11          1           0        1.427985    2.539258    0.354550
 ---------------------------------------------------------------------

 SCF Done:  E(UHF) =  -445.328717898     A.U. after    2 cycles

 The electronic state is 2-A.
 Alpha  occ. eigenvalues --  -84.26147 -11.25001 -11.24717  -7.60930  -6.73611
 Alpha  occ. eigenvalues --   -4.26349  -4.26059  -4.25121  -1.01977  -0.95260
 Alpha  occ. eigenvalues --   -0.80403  -0.64028  -0.59631  -0.59099  -0.57697
 Alpha  occ. eigenvalues --   -0.56996  -0.48688  -0.46854  -0.32439  -0.29634
 Alpha virt. eigenvalues --    0.02817   0.04314   0.04412   0.05009   0.06158
 Alpha virt. eigenvalues --    0.06284   0.06413   0.07475   0.08038   0.09534
 Alpha virt. eigenvalues --    0.10200   0.12704   0.13889   0.14827   0.15194

  Beta  occ. eigenvalues --  -84.26286 -11.24852 -11.24682  -7.59142  -6.73794
  Beta  occ. eigenvalues --   -4.26509  -4.26174  -4.25575  -1.01775  -0.95013
  Beta  occ. eigenvalues --   -0.78105  -0.61441  -0.59711  -0.58308  -0.57225
  Beta  occ. eigenvalues --   -0.56997  -0.47036  -0.46046  -0.30435
  Beta virt. eigenvalues --    0.03048   0.03680   0.04404   0.04968   0.06143
  Beta virt. eigenvalues --    0.06381   0.06622   0.07447   0.07985   0.08975
  Beta virt. eigenvalues --    0.10477   0.10993   0.12866   0.14543   0.15203

 Mulliken charges and spin densities:
               1          2
     1  B   -0.331320   1.139398
     2  P    1.216089  -0.125212
     3  C   -0.955102   0.033592
     4  H    0.121763  -0.006456
     5  H    0.035350   0.000163
     6  H    0.126896   0.007526
     7  C   -0.953214   0.003464
     8  H    0.055903  -0.004833
     9  H    0.129271  -0.004708
    10  H    0.113080  -0.000530
    11  H    0.441284  -0.042404
 Sum of Mulliken charges =  -0.00000   1.00000

 Dipole moment (field-independent basis, Debye):
    X=             -0.1829    Y=             -2.2448    Z=              0.4983  Tot=              2.3067
                          Isotropic Fermi Contact Couplings
        Atom                 a.u.       MegaHertz       Gauss      10(-4) cm-1
     1  B(11)              0.20267     290.70047     103.72916      96.96724
     2  P(31)             -0.12499    -226.37474     -80.77614     -75.51048
     3  C(13)              0.03122      35.09812      12.52388      11.70747
     4  H(1)              -0.00280     -12.53163      -4.47160      -4.18010
     5  H(1)              -0.00056      -2.52533      -0.90110      -0.84236
     6  H(1)               0.00157       7.00313       2.49889       2.33599
     7  C(13)              0.00941      10.58394       3.77661       3.53042
     8  H(1)              -0.00003      -0.14753      -0.05264      -0.04921

 Normal termination of Gaussian 16 at Tue Apr  8 23:29:11 2025.
