 Gaussian 16, Revision C.01,

 ----------------------------------------------------------------------
 #t hf aug-cc-pvdz symm=none int=(grid=ultrafine) guess=(read,tcheck) s
 table=(opt,rrhf)
 ----------------------------------------------------------------------
 -----
 title
 -----
 Symbolic Z-matrix:
 Charge =  0 Multiplicity = 1

 SCF Done:  E(RHF) =  -657.380071537     A.U. after   16 cycles
 Normal termination of Gaussian 16 at Wed Apr  9 00:35:07 2025.
 Gaussian 16:  ES64L-G16RevC.01  3-Jul-2019

 ----------------------------------------------------------------------
 #t hf aug-cc-pvdz iop(5/13=1,5/36=2,99/5=2) pseudo=read geom=check gue
 ss=(read,tcheck) scf=(maxcycle=1)
 ----------------------------------------------------------------------
 -----
 title
 -----
 Structure from the checkpoint file:  "BDE49_nonexpt_435_mol1.chk"
 Charge =  0 Multiplicity = 1

                         Standard orientation:
 ---------------------------------------------------------------------
 Center     Atomic      Atomic             Coordinates (Angstroms)
 Number     Number       Type             X           Y           Z
 ---------------------------------------------------------------------
      1          9           0       -3.662749    0.169579   -0.000009
      2          9           0       -2.613887   -1.834986    0.000008
      3          5           0       -2.523177   -0.511809    0.000005
      4          6           0       -1.153455    0.208635    0.000006
      5          6           0        0.036794   -0.531165    0.000015
      6          6           0        1.251290    0.138815    0.000015
      7          6           0        1.331250    1.527870    0.000006
      8          6           0       -1.077835    1.611402   -0.000004
      9          1           0       -1.994236    2.190482   -0.000011
     10          6           0        0.151276    2.265297   -0.000003
     11          1           0        0.194785    3.347647   -0.000010
     12          1           0        2.303121    2.001702    0.000007
     13          7           0        2.508265   -0.648882    0.000025
     14          8           0        2.410639   -1.867086   -0.000023
     15          8           0        3.561894   -0.028208   -0.000028
     16          1           0        0.027898   -1.612722    0.000022
 ---------------------------------------------------------------------

 SCF Done:  E(RHF) =  -658.007891332     A.U. after    2 cycles

 The electronic state is 1-A.
 Alpha  occ. eigenvalues --  -26.49165 -26.49064 -20.59938 -20.59911 -15.80253
 Alpha  occ. eigenvalues --  -11.32782 -11.30305 -11.30232 -11.29935 -11.28431
 Alpha  occ. eigenvalues --  -11.26878  -7.73639  -1.67974  -1.64272  -1.60303
 Alpha  occ. eigenvalues --   -1.51699  -1.21819  -1.12079  -1.07118  -0.99546
 Alpha  occ. eigenvalues --   -0.89771  -0.86413  -0.82760  -0.80557  -0.76385
 Alpha  occ. eigenvalues --   -0.75526  -0.75158  -0.74028  -0.71867  -0.70581
 Alpha  occ. eigenvalues --   -0.68643  -0.66253  -0.64517  -0.63322  -0.61575
 Alpha  occ. eigenvalues --   -0.57506  -0.55966  -0.54016  -0.50620  -0.49701
 Alpha  occ. eigenvalues --   -0.46015  -0.40337  -0.39496
 Alpha virt. eigenvalues --    0.01251   0.02443   0.03705   0.04044   0.04173
 Alpha virt. eigenvalues --    0.04434   0.05410   0.05771   0.07852   0.08951
 Alpha virt. eigenvalues --    0.10065   0.10612   0.11171   0.12385   0.13059

 Mulliken charges:
               1
     1  F   -0.766882
     2  F   -0.787866
     3  B    1.129116
     4  C    1.264203
     5  C   -0.261437
     6  C   -0.098795
     7  C    0.150983
     8  C   -0.124548
     9  H   -0.306689
    10  C    0.413904
    11  H   -0.202085
    12  H   -0.192290
    13  N    3.037762
    14  O   -1.480041
    15  O   -1.506657
    16  H   -0.268678
 Sum of Mulliken charges =   0.00000

 Dipole moment (field-independent basis, Debye):
    X=             -2.0293    Y=              3.5937    Z=              0.0001  Tot=              4.1271

 Test job not archived.
 1\1\GINC-SE462\SP\RHF\Aug-CC-pVDZ\C6H4B1F2N1O2\OHZDE\09-Apr-2025\0\\#t
  hf aug-cc-pvdz iop(5/13=1,5/36=2,99/5=2) pseudo=read geom=check guess
 =(read,tcheck) scf=(maxcycle=1)\\title\\0,1\F,0,3.662749,0.169579,0.00
 0009\F,0,2.613887,-1.834986,-0.000008\B,0,2.523177,-0.511809,-0.000005
 \C,0,1.153455,0.208635,-0.000006\C,0,-0.036794,-0.531165,-0.000015\C,0
 ,-1.25129,0.138815,-0.000015\C,0,-1.33125,1.52787,-0.000006\C,0,1.0778
 35,1.611402,0.000004\H,0,1.994236,2.190482,0.000011\C,0,-0.151276,2.26
 5297,0.000003\H,0,-0.194785,3.347647,0.00001\H,0,-2.303121,2.001702,-0

 Normal termination of Gaussian 16 at Wed Apr  9 00:35:15 2025.
