 Gaussian 16, Revision C.01,

 ----------------------------------------------------------------------
 #t hf aug-cc-pvdz symm=none int=(grid=ultrafine) guess=(read,tcheck) s
 table=(opt,rrhf)
 ----------------------------------------------------------------------
 -----
 title
 -----
 Symbolic Z-matrix:
 Charge =  0 Multiplicity = 1

 SCF Done:  E(RHF) =  -935.845692216     A.U. after   16 cycles
 Normal termination of Gaussian 16 at Tue Apr  8 22:56:59 2025.
 Gaussian 16:  ES64L-G16RevC.01  3-Jul-2019

 ----------------------------------------------------------------------
 #t hf aug-cc-pvdz iop(5/13=1,5/36=2,99/5=2) pseudo=read geom=check gue
 ss=(read,tcheck) scf=(maxcycle=1)
 ----------------------------------------------------------------------
 -----
 title
 -----
 Structure from the checkpoint file:  "BDE49_expt_1587_mol1.chk"
 Charge =  0 Multiplicity = 1

                         Standard orientation:
 ---------------------------------------------------------------------
 Center     Atomic      Atomic             Coordinates (Angstroms)
 Number     Number       Type             X           Y           Z
 ---------------------------------------------------------------------
      1          6           0       -3.324443   -1.054237    0.285546
      2          6           0       -2.009199   -1.402190   -0.004482
      3          6           0       -3.785775    0.253705    0.097988
      4          6           0       -2.883892    1.204808   -0.388582
      5          6           0       -1.565567    0.865635   -0.682213
      6          6           0       -1.112079   -0.443050   -0.488513
      7          1           0       -1.670639   -2.421895    0.137735
      8          1           0       -4.005189   -1.812247    0.660509
      9          6           0       -5.223256    0.616183    0.381515
     10          1           0       -3.216992    2.226381   -0.542951
     11          1           0       -0.880664    1.612543   -1.064273
     12         16           0        0.573884   -0.892572   -0.887207
     13          6           0        1.429813   -0.589501    0.782304
     14          6           0        1.543645    0.857932    1.151788
     15          6           0        2.749927   -1.296343    0.763717
     16          1           0        0.774797   -1.086920    1.496547
     17          6           0        3.857730   -0.889906    0.110704
     18          6           0        2.380730    1.765887    0.607732
     19          6           0        3.426449    1.531818   -0.355357
     20          6           0        4.071627    0.358937   -0.580375
     21          1           0        0.850509    1.202736    1.913451
     22          1           0        2.262210    2.797800    0.929059
     23          1           0        2.782530   -2.250238    1.281377
     24          1           0        4.702573   -1.574275    0.106728
     25          1           0        3.788531    2.407399   -0.886649
     26          1           0        4.904134    0.375549   -1.277892
     27          1           0       -5.861922    0.387029   -0.478653
     28          1           0       -5.331456    1.681861    0.594694
     29          1           0       -5.614825    0.057362    1.234988
 ---------------------------------------------------------------------

 SCF Done:  E(RHF) =  -936.461151932     A.U. after    2 cycles

 The electronic state is 1-A.
 Alpha  occ. eigenvalues --  -93.93784 -11.28179 -11.26284 -11.25405 -11.25297
 Alpha  occ. eigenvalues --  -11.25094 -11.24736 -11.24734 -11.24615 -11.24613
 Alpha  occ. eigenvalues --  -11.24522 -11.24358 -11.24054 -11.24015 -11.23899
 Alpha  occ. eigenvalues --   -8.21750  -6.19555  -6.19406  -6.19194  -1.16596
 Alpha  occ. eigenvalues --   -1.14372  -1.08039  -1.05003  -1.04680  -1.01810
 Alpha  occ. eigenvalues --   -0.98276  -0.92670  -0.88101  -0.87561  -0.84094
 Alpha  occ. eigenvalues --   -0.79647  -0.73381  -0.71612  -0.71535  -0.68047
 Alpha  occ. eigenvalues --   -0.66056  -0.63815  -0.63092  -0.62505  -0.59910
 Alpha  occ. eigenvalues --   -0.58751  -0.58158  -0.56300  -0.55477  -0.55063
 Alpha  occ. eigenvalues --   -0.53077  -0.51700  -0.50471  -0.50112  -0.49710
 Alpha  occ. eigenvalues --   -0.45635  -0.44225  -0.38044  -0.34941  -0.34475
 Alpha  occ. eigenvalues --   -0.33927  -0.30065
 Alpha virt. eigenvalues --    0.03076   0.03191   0.03418   0.03826   0.04115
 Alpha virt. eigenvalues --    0.04401   0.05326   0.05625   0.05828   0.06292
 Alpha virt. eigenvalues --    0.07011   0.07091   0.08096   0.08695   0.09072

 Mulliken charges:
               1
     1  C    0.728460
     2  C   -0.185779
     3  C    0.146325
     4  C    0.621932
     5  C   -0.396518
     6  C    0.009166
     7  H   -0.278123
     8  H   -0.304265
     9  C   -0.744684
    10  H   -0.316004
    11  H   -0.290058
    12  S    0.341022
    13  C    0.221719
    14  C    0.122833
    15  C    0.213719
    16  H    0.063661
    17  C    0.617709
    18  C    0.325581
    19  C    0.126514
    20  C    0.031388
    21  H   -0.311641
    22  H   -0.273141
    23  H   -0.277303
    24  H   -0.246971
    25  H   -0.243298
    26  H   -0.253282
    27  H    0.285268
    28  H    0.115224
    29  H    0.150546
 Sum of Mulliken charges =  -0.00000

 Dipole moment (field-independent basis, Debye):
    X=             -0.9867    Y=              0.8200    Z=              1.5509  Tot=              2.0128

 Test job not archived.
 1\1\GINC-SE221\SP\RHF\Aug-CC-pVDZ\C14H14S1\OHZDE\08-Apr-2025\0\\#t hf
 aug-cc-pvdz iop(5/13=1,5/36=2,99/5=2) pseudo=read geom=check guess=(re
 ad,tcheck) scf=(maxcycle=1)\\title\\0,1\C,0,-3.324443,-1.054237,0.2855
 46\C,0,-2.009199,-1.40219,-0.004482\C,0,-3.785775,0.253705,0.097988\C,
 0,-2.883892,1.204808,-0.388582\C,0,-1.565567,0.865635,-0.682213\C,0,-1
 .112079,-0.44305,-0.488513\H,0,-1.670639,-2.421895,0.137735\H,0,-4.005
 189,-1.812247,0.660509\C,0,-5.223256,0.616183,0.381515\H,0,-3.216992,2
 .226381,-0.542951\H,0,-0.880664,1.612543,-1.064273\S,0,0.573884,-0.892

 Normal termination of Gaussian 16 at Tue Apr  8 22:57:34 2025.
