 Gaussian 16, Revision C.01,

 ----------------------------------------------------------------------
 #t hf aug-cc-pvdz symm=none int=(grid=ultrafine) guess=(read,tcheck) s
 table=(opt,rrhf)
 ----------------------------------------------------------------------
 -----
 title
 -----
 Symbolic Z-matrix:
 Charge =  0 Multiplicity = 1

 SCF Done:  E(RHF) =  -447.186135598     A.U. after   15 cycles
 Normal termination of Gaussian 16 at Tue Apr  8 23:02:45 2025.
 Gaussian 16:  ES64L-G16RevC.01  3-Jul-2019

 ----------------------------------------------------------------------
 #t hf aug-cc-pvdz iop(5/13=1,5/36=2,99/5=2) pseudo=read geom=check gue
 ss=(read,tcheck) scf=(maxcycle=1)
 ----------------------------------------------------------------------
 -----
 title
 -----
 Structure from the checkpoint file:  "BDE49_expt_330_mol1.chk"
 Charge =  0 Multiplicity = 1

                         Standard orientation:
 ---------------------------------------------------------------------
 Center     Atomic      Atomic             Coordinates (Angstroms)
 Number     Number       Type             X           Y           Z
 ---------------------------------------------------------------------
      1          6           0       -0.075339   -0.888474   -0.000015
      2          7           0        1.234013   -0.150089   -0.000000
      3          7           0       -1.232450    0.096659   -0.000016
      4          1           0       -0.152739   -1.477601    0.908244
      5          1           0       -0.152724   -1.477587   -0.908285
      6          8           0        1.701408    0.119113    1.091109
      7          8           0        1.701450    0.119090   -1.091096
      8          8           0       -0.985027    1.281822   -0.000042
      9          8           0       -2.324511   -0.437519    0.000060
 ---------------------------------------------------------------------

 SCF Done:  E(RHF) =  -447.610214205     A.U. after    2 cycles

 The electronic state is 1-A.
 Alpha  occ. eigenvalues --  -20.63951 -20.63268 -20.63198 -20.63188 -15.83828
 Alpha  occ. eigenvalues --  -15.83038 -11.41474  -1.72313  -1.70890  -1.56174
 Alpha  occ. eigenvalues --   -1.55259  -1.21433  -1.04197  -0.91095  -0.85386
 Alpha  occ. eigenvalues --   -0.82668  -0.82152  -0.78127  -0.77986  -0.74639
 Alpha  occ. eigenvalues --   -0.67926  -0.55159  -0.53658  -0.52832  -0.51908
 Alpha  occ. eigenvalues --   -0.49392  -0.47974
 Alpha virt. eigenvalues --    0.01846   0.02433   0.02895   0.04989   0.07403
 Alpha virt. eigenvalues --    0.08814   0.11893   0.13275   0.13405   0.14189
 Alpha virt. eigenvalues --    0.15383   0.15756   0.17092   0.20094   0.21416

 Mulliken charges:
               1
     1  C   -0.083309
     2  N    2.623898
     3  N    2.356561
     4  H    0.145447
     5  H    0.145445
     6  O   -1.323659
     7  O   -1.323654
     8  O   -1.219198
     9  O   -1.321529
 Sum of Mulliken charges =  -0.00000

 Dipole moment (field-independent basis, Debye):
    X=             -0.2713    Y=             -3.3572    Z=             -0.0001  Tot=              3.3681

 Test job not archived.
 1\1\GINC-SE403\SP\RHF\Aug-CC-pVDZ\C1H2N2O4\OHZDE\08-Apr-2025\0\\#t hf
 aug-cc-pvdz iop(5/13=1,5/36=2,99/5=2) pseudo=read geom=check guess=(re
 ad,tcheck) scf=(maxcycle=1)\\title\\0,1\C,0,-0.075339,-0.888474,-0.000
 015\N,0,1.234013,-0.150089,0.\N,0,-1.23245,0.096659,-0.000016\H,0,-0.1
 52739,-1.477601,0.908244\H,0,-0.152724,-1.477587,-0.908285\O,0,1.70140
 8,0.119113,1.091109\O,0,1.70145,0.11909,-1.091096\O,0,-0.985027,1.2818
 22,-0.000042\O,0,-2.324511,-0.437519,0.00006\\Version=ES64L-G16RevC.01
 \State=1-A\HF=-447.6102142\RMSD=2.043e-02\Dipole=-0.1067568,-1.3208114

 Normal termination of Gaussian 16 at Tue Apr  8 23:02:48 2025.
