 Gaussian 16, Revision C.01,

 ----------------------------------------------------------------------
 #t hf aug-cc-pvdz symm=none int=(grid=ultrafine) guess=(read,tcheck) s
 table=(opt,rrhf)
 ----------------------------------------------------------------------
 -----
 title
 -----
 Symbolic Z-matrix:
 Charge =  0 Multiplicity = 1

 SCF Done:  E(RHF) =  -270.067144605     A.U. after   12 cycles

 1\1\GINC-SE071\Stability\RHF\Aug-CC-pVDZ\C5H10O1\OHZDE\08-Apr-2025\0\\
 #t hf aug-cc-pvdz symm=none int=(grid=ultrafine) guess=(read,tcheck) s
 table=(opt,rrhf)\\title\\0,1\C,0,-2.554854,0.130707,0.000008\C,0,-1.29
 6107,-0.731758,-0.000007\H,0,-3.451475,-0.493777,0.000006\H,0,-2.58505
 2,0.778056,-0.878556\H,0,-2.585044,0.778037,0.878586\C,0,0.,0.071565,-
 0.000009\H,0,-1.275797,-1.399857,-0.870719\H,0,-1.275787,-1.399875,0.8
 7069\O,0,0.,1.282258,-0.000004\C,0,1.296107,-0.731758,0.000007\C,0,2.5
 54854,0.130706,0.000001\H,0,1.275796,-1.399879,-0.870688\H,0,1.275788,

 Normal termination of Gaussian 16 at Tue Apr  8 23:01:00 2025.
 Gaussian 16:  ES64L-G16RevC.01  3-Jul-2019

 ----------------------------------------------------------------------
 #t hf aug-cc-pvdz iop(5/13=1,5/36=2,99/5=2) pseudo=read geom=check gue
 ss=(read,tcheck) scf=(maxcycle=1)
 ----------------------------------------------------------------------
 -----
 title
 -----
 Structure from the checkpoint file:  "BDE49_expt_225_mol1.chk"
 Charge =  0 Multiplicity = 1

                         Standard orientation:
 ---------------------------------------------------------------------
 Center     Atomic      Atomic             Coordinates (Angstroms)
 Number     Number       Type             X           Y           Z
 ---------------------------------------------------------------------
      1          6           0       -2.554854    0.130707    0.000008
      2          6           0       -1.296107   -0.731758   -0.000007
      3          1           0       -3.451475   -0.493778    0.000006
      4          1           0       -2.585052    0.778056   -0.878556
      5          1           0       -2.585044    0.778037    0.878586
      6          6           0       -0.000000    0.071565   -0.000009
      7          1           0       -1.275797   -1.399857   -0.870719
      8          1           0       -1.275787   -1.399875    0.870690
      9          8           0       -0.000000    1.282258   -0.000004
     10          6           0        1.296107   -0.731758    0.000007
     11          6           0        2.554854    0.130706    0.000001
     12          1           0        1.275796   -1.399879   -0.870688
     13          1           0        1.275788   -1.399854    0.870721
     14          1           0        2.585053    0.778033   -0.878579
     15          1           0        3.451475   -0.493777    0.000015
     16          1           0        2.585043    0.778059    0.878562
 ---------------------------------------------------------------------

 SCF Done:  E(RHF) =  -270.355739698     A.U. after    2 cycles

 The electronic state is 1-A.
 Alpha  occ. eigenvalues --  -20.53141 -11.33334 -11.24712 -11.24694 -11.22703
 Alpha  occ. eigenvalues --  -11.22693  -1.46653  -1.07386  -1.03736  -0.91806
 Alpha  occ. eigenvalues --   -0.84763  -0.73397  -0.67301  -0.65154  -0.62030
 Alpha  occ. eigenvalues --   -0.61182  -0.56985  -0.52876  -0.52769  -0.51627
 Alpha  occ. eigenvalues --   -0.51496  -0.49676  -0.48362  -0.40325
 Alpha virt. eigenvalues --    0.03281   0.03571   0.03961   0.04569   0.05786
 Alpha virt. eigenvalues --    0.06143   0.06365   0.06994   0.08788   0.10076
 Alpha virt. eigenvalues --    0.10560   0.13221   0.13686   0.14241   0.15282

 Mulliken charges:
               1
     1  C   -0.309131
     2  C   -0.580090
     3  H    0.131335
     4  H    0.174804
     5  H    0.174802
     6  C    1.284876
     7  H    0.230190
     8  H    0.230185
     9  O   -1.389063
    10  C   -0.580091
    11  C   -0.309129
    12  H    0.230189
    13  H    0.230187
    14  H    0.174801
    15  H    0.131333
    16  H    0.174804
 Sum of Mulliken charges =  -0.00000

 Dipole moment (field-independent basis, Debye):
    X=              0.0000    Y=             -2.9105    Z=              0.0000  Tot=              2.9105

 Test job not archived.
 1\1\GINC-SE071\SP\RHF\Aug-CC-pVDZ\C5H10O1\OHZDE\08-Apr-2025\0\\#t hf a
 ug-cc-pvdz iop(5/13=1,5/36=2,99/5=2) pseudo=read geom=check guess=(rea
 d,tcheck) scf=(maxcycle=1)\\title\\0,1\C,0,-2.554854,0.130707,0.000008
 \C,0,-1.296107,-0.731758,-0.000007\H,0,-3.451475,-0.493777,0.000006\H,
 0,-2.585052,0.778056,-0.878556\H,0,-2.585044,0.778037,0.878586\C,0,0.,
 0.071565,-0.000009\H,0,-1.275797,-1.399857,-0.870719\H,0,-1.275787,-1.
 399875,0.87069\O,0,0.,1.282258,-0.000004\C,0,1.296107,-0.731758,0.0000
 07\C,0,2.554854,0.130706,0.000001\H,0,1.275796,-1.399879,-0.870688\H,0

 Normal termination of Gaussian 16 at Tue Apr  8 23:01:04 2025.
