 Gaussian 16, Revision C.01,

 ----------------------------------------------------------------------
 #t hf aug-cc-pvdz symm=none int=(grid=ultrafine) guess=(read,tcheck) s
 table=(opt,rrhf)
 ----------------------------------------------------------------------
 -----
 title
 -----
 Symbolic Z-matrix:
 Charge =  0 Multiplicity = 1

 SCF Done:  E(RHF) =  -803.545239794     A.U. after   16 cycles
 Normal termination of Gaussian 16 at Tue Apr  8 22:42:17 2025.
 Gaussian 16:  ES64L-G16RevC.01  3-Jul-2019

 ----------------------------------------------------------------------
 #t hf aug-cc-pvdz iop(5/13=1,5/36=2,99/5=2) pseudo=read geom=check gue
 ss=(read,tcheck) scf=(maxcycle=1)
 ----------------------------------------------------------------------
 -----
 title
 -----
 Structure from the checkpoint file:  "BDE49_expt_1403_mol1.chk"
 Charge =  0 Multiplicity = 1

                         Standard orientation:
 ---------------------------------------------------------------------
 Center     Atomic      Atomic             Coordinates (Angstroms)
 Number     Number       Type             X           Y           Z
 ---------------------------------------------------------------------
      1          6           0       -1.113188   -0.859437    0.000000
      2          6           0        0.118190   -1.513851    0.000000
      3          6           0        1.287205   -0.769567    0.000000
      4          6           0       -1.176760    0.525770    0.000000
      5          6           0        0.000000    1.276263    0.000000
      6          6           0        1.239216    0.630627    0.000000
      7         17           0       -2.597488   -1.802156    0.000000
      8          1           0        0.156950   -2.595561    0.000000
      9          1           0        2.255967   -1.253628    0.000000
     10          1           0       -2.137592    1.024274    0.000000
     11          1           0       -0.068962    2.355420    0.000000
     12          8           0        2.444762    1.263713    0.000000
     13          6           0        2.464569    2.684256    0.000000
     14          1           0        3.515959    2.966589    0.000000
     15          1           0        1.980746    3.092749    0.894379
     16          1           0        1.980746    3.092749   -0.894379
 ---------------------------------------------------------------------

 SCF Done:  E(RHF) =  -803.973199990     A.U. after    2 cycles

 The electronic state is 1-A'.
 Alpha  occ. eigenvalues -- -105.56772 -20.58148 -11.31865 -11.30367 -11.30215
 Alpha  occ. eigenvalues --  -11.26337 -11.26223 -11.25372 -11.24983 -10.61559
 Alpha  occ. eigenvalues --   -7.78525  -7.78133  -7.78111  -1.50609  -1.18144
 Alpha  occ. eigenvalues --   -1.09225  -1.03965  -1.00086  -0.94414  -0.86258
 Alpha  occ. eigenvalues --   -0.81904  -0.73878  -0.69721  -0.66531  -0.66318
 Alpha  occ. eigenvalues --   -0.64124  -0.61846  -0.60267  -0.55758  -0.54840
 Alpha  occ. eigenvalues --   -0.53861  -0.51417  -0.50207  -0.46173  -0.45414
 Alpha  occ. eigenvalues --   -0.36520  -0.32251
 Alpha virt. eigenvalues --    0.03098   0.03595   0.04160   0.05010   0.05484
 Alpha virt. eigenvalues --    0.05906   0.08432   0.09104   0.09201   0.10153
 Alpha virt. eigenvalues --    0.10280   0.12357   0.12691   0.13598   0.14088

 Mulliken charges:
               1
     1  C   -0.080394
     2  C    0.420398
     3  C    0.394061
     4  C    0.280942
     5  C    0.230356
     6  C    1.572955
     7  Cl  -0.336415
     8  H   -0.163003
     9  H   -0.288278
    10  H   -0.160829
    11  H   -0.428237
    12  O   -1.853851
    13  C    0.088446
    14  H   -0.033743
    15  H    0.178797
    16  H    0.178797
 Sum of Mulliken charges =  -0.00000

 Dipole moment (field-independent basis, Debye):
    X=              1.5744    Y=              2.4895    Z=              0.0000  Tot=              2.9456

 Test job not archived.
 1\1\GINC-SE362\SP\RHF\Aug-CC-pVDZ\C7H7Cl1O1\OHZDE\08-Apr-2025\0\\#t hf
  aug-cc-pvdz iop(5/13=1,5/36=2,99/5=2) pseudo=read geom=check guess=(r
 ead,tcheck) scf=(maxcycle=1)\\title\\0,1\C,0,-1.113188,-0.859437,0.\C,
 0,0.11819,-1.513851,0.\C,0,1.287205,-0.769567,0.\C,0,-1.17676,0.52577,
 0.\C,0,0.,1.276263,0.\C,0,1.239216,0.630627,0.\Cl,0,-2.597488,-1.80215
 6,0.\H,0,0.15695,-2.595561,0.\H,0,2.255967,-1.253628,0.\H,0,-2.137592,
 1.024274,0.\H,0,-0.068962,2.35542,0.\O,0,2.444762,1.263713,0.\C,0,2.46
 4569,2.684256,0.\H,0,3.515959,2.966589,0.\H,0,1.980746,3.092749,0.8943

 Normal termination of Gaussian 16 at Tue Apr  8 22:42:23 2025.
