 Gaussian 16, Revision C.01,

 ----------------------------------------------------------------------
 #t hf aug-cc-pvdz symm=none int=(grid=ultrafine) guess=(read,tcheck) s
 table=(opt,rrhf)
 ----------------------------------------------------------------------
 -----
 title
 -----
 Symbolic Z-matrix:
 Charge =  0 Multiplicity = 1

 SCF Done:  E(RHF) =  -740.024323984     A.U. after   11 cycles
 Normal termination of Gaussian 16 at Tue Apr  8 23:43:08 2025.
 Gaussian 16:  ES64L-G16RevC.01  3-Jul-2019

 ----------------------------------------------------------------------
 #t hf aug-cc-pvdz iop(5/13=1,5/36=2,99/5=2) pseudo=read geom=check gue
 ss=(read,tcheck) scf=(maxcycle=1)
 ----------------------------------------------------------------------
 -----
 title
 -----
 Structure from the checkpoint file:  "BDE49_nonexpt_1707_mol1.chk"
 Charge =  0 Multiplicity = 1

                         Standard orientation:
 ---------------------------------------------------------------------
 Center     Atomic      Atomic             Coordinates (Angstroms)
 Number     Number       Type             X           Y           Z
 ---------------------------------------------------------------------
      1         15           0        1.064901    0.130353   -0.000071
      2         16           0       -1.082853   -0.097994    0.000021
      3          1           0        1.339776   -0.805630   -1.029278
      4          1           0        1.339692   -0.804448    1.030238
      5          1           0       -1.327335    1.222690   -0.000223
 ---------------------------------------------------------------------

 SCF Done:  E(RHF) =  -740.133802806     A.U. after    2 cycles

 The electronic state is 1-A.
 Alpha  occ. eigenvalues --  -93.96189 -84.30983  -8.24328  -6.77885  -6.22128
 Alpha  occ. eigenvalues --   -6.22022  -6.21772  -4.29947  -4.29866  -4.29326
 Alpha  occ. eigenvalues --   -1.02944  -0.83486  -0.55518  -0.53402  -0.48755
 Alpha  occ. eigenvalues --   -0.38350  -0.36177
 Alpha virt. eigenvalues --    0.03774   0.04663   0.06954   0.07264   0.10070
 Alpha virt. eigenvalues --    0.10380   0.12530   0.12760   0.13860   0.16969
 Alpha virt. eigenvalues --    0.17854   0.19873   0.20378   0.23909   0.26833

 Mulliken charges:
               1
     1  P   -0.625801
     2  S   -0.674870
     3  H    0.477913
     4  H    0.477923
     5  H    0.344835
 Sum of Mulliken charges =  -0.00000

 Dipole moment (field-independent basis, Debye):
    X=              1.1122    Y=              0.4939    Z=              0.0000  Tot=              1.2169

 Test job not archived.
 1\1\GINC-SE404\SP\RHF\Aug-CC-pVDZ\H3P1S1\OHZDE\08-Apr-2025\0\\#t hf au
 g-cc-pvdz iop(5/13=1,5/36=2,99/5=2) pseudo=read geom=check guess=(read
 ,tcheck) scf=(maxcycle=1)\\title\\0,1\P,0,-1.064901,0.130353,0.000071\
 S,0,1.082853,-0.097994,-0.000021\H,0,-1.339776,-0.805629,1.029278\H,0,
 -1.339692,-0.804447,-1.030238\H,0,1.327335,1.22269,0.000223\\Version=E
 S64L-G16RevC.01\State=1-A\HF=-740.1338028\RMSD=3.058e-02\Dipole=-0.437
 5713,0.1943087,-0.0000108\Quadrupole=0.2386426,0.4693307,-0.7079733,2.
 245351,0.0006288,-0.0003808\PG=C01 [X(H3P1S1)]\\@

 Normal termination of Gaussian 16 at Tue Apr  8 23:43:10 2025.
