 Gaussian 16, Revision C.01,

 ----------------------------------------------------------------------
 #t hf aug-cc-pvdz symm=none int=(grid=ultrafine) guess=(read,tcheck) s
 table=opt
 ----------------------------------------------------------------------
 -----
 title
 -----
 Symbolic Z-matrix:
 Charge =  0 Multiplicity = 2

 SCF Done:  E(UHF) =  -315.849153812     A.U. after   18 cycles

 1\1\GINC-SE049\Stability\UHF\Aug-CC-pVDZ\B1H4Si1\OHZDE\09-Apr-2025\0\\
 #t hf aug-cc-pvdz symm=none int=(grid=ultrafine) guess=(read,tcheck) s
 table=opt\\title\\0,2\H,0,2.48989,0.483338,-0.020035\B,0,1.482988,-0.1
 41249,-0.014235\Si,0,-0.490109,0.013442,-0.003244\H,0,-0.883717,-0.273
 091,1.402567\H,0,-1.068242,1.329536,-0.387101\H,0,-1.091352,-1.021719,
 -0.878847\\Version=ES64L-G16RevC.01\HF=-315.8491538\S2=0.758405\S2-1=0
 .\S2A=0.750026\RMSD=2.764e-09\Dipole=0.1125692,0.1714924,-0.0558176\Qu
 adrupole=-0.2906594,-0.9460617,1.2367211,0.7672457,-0.1574539,0.142289

 Normal termination of Gaussian 16 at Wed Apr  9 00:34:56 2025.
 Gaussian 16:  ES64L-G16RevC.01  3-Jul-2019

 ----------------------------------------------------------------------
 #t hf aug-cc-pvdz iop(5/13=1,5/36=2,99/5=2) pseudo=read geom=check gue
 ss=(read,tcheck) scf=(maxcycle=1)
 ----------------------------------------------------------------------
 -----
 title
 -----
 Structure from the checkpoint file:  "BDE49_nonexpt_459_mol2.chk"
 Charge =  0 Multiplicity = 2

                         Standard orientation:
 ---------------------------------------------------------------------
 Center     Atomic      Atomic             Coordinates (Angstroms)
 Number     Number       Type             X           Y           Z
 ---------------------------------------------------------------------
      1          1           0        2.489890    0.483338   -0.020035
      2          5           0        1.482988   -0.141249   -0.014235
      3         14           0       -0.490109    0.013442   -0.003244
      4          1           0       -0.883717   -0.273091    1.402567
      5          1           0       -1.068242    1.329536   -0.387101
      6          1           0       -1.091352   -1.021719   -0.878847
 ---------------------------------------------------------------------

 SCF Done:  E(UHF) =  -315.906483196     A.U. after    2 cycles

 The electronic state is 2-A.
 Alpha  occ. eigenvalues --  -69.52572  -7.63565  -6.19782  -3.95171  -3.95160
 Alpha  occ. eigenvalues --   -3.95089  -0.77933  -0.66062  -0.50457  -0.49245
 Alpha  occ. eigenvalues --   -0.46848  -0.33045
 Alpha virt. eigenvalues --    0.01822   0.03792   0.04088   0.05886   0.07005
 Alpha virt. eigenvalues --    0.07272   0.07920   0.08011   0.09462   0.09957
 Alpha virt. eigenvalues --    0.12090   0.14191   0.16019   0.19414   0.19969

  Beta  occ. eigenvalues --  -69.52594  -7.61915  -6.19811  -3.95211  -3.95181
  Beta  occ. eigenvalues --   -3.95137  -0.76036  -0.62130  -0.49223  -0.48704
  Beta  occ. eigenvalues --   -0.45420
  Beta virt. eigenvalues --    0.02932   0.03707   0.04056   0.04376   0.07199
  Beta virt. eigenvalues --    0.07316   0.07823   0.08206   0.08791   0.10406
  Beta virt. eigenvalues --    0.10852   0.12313   0.15066   0.16246   0.19824

 Mulliken charges and spin densities:
               1          2
     1  H    0.433463  -0.035828
     2  B   -0.762416   1.102986
     3  Si   0.880435  -0.105379
     4  H   -0.187051  -0.009524
     5  H   -0.189092   0.044832
     6  H   -0.175339   0.002912
 Sum of Mulliken charges =  -0.00000   1.00000

 Dipole moment (field-independent basis, Debye):
    X=              0.2623    Y=              0.4490    Z=             -0.1339  Tot=              0.5369
                          Isotropic Fermi Contact Couplings
        Atom                 a.u.       MegaHertz       Gauss      10(-4) cm-1
     1  H(1)              -0.01017     -45.44050     -16.21430     -15.15732
     2  B(11)              0.18459     264.76482      94.47467      88.31604
     3  Si(29)            -0.01752      15.56900       5.55541       5.19326
     4  H(1)              -0.00127      -5.66071      -2.01988      -1.88821
     5  H(1)               0.01429      63.86984      22.79035      21.30469
     6  H(1)               0.00085       3.81575       1.36155       1.27280
 --------------------------------------------------------
       Center         ----  Spin Dipole Couplings  ----

 Normal termination of Gaussian 16 at Wed Apr  9 00:34:57 2025.
