 Gaussian 16, Revision C.01,

 ----------------------------------------------------------------------
 #t hf aug-cc-pvdz symm=none int=(grid=ultrafine) guess=(read,tcheck) s
 table=(opt,rrhf)
 ----------------------------------------------------------------------
 -----
 title
 -----
 Symbolic Z-matrix:
 Charge =  0 Multiplicity = 1

 SCF Done:  E(RHF) =  -805.954305564     A.U. after   12 cycles
 Normal termination of Gaussian 16 at Wed Apr  9 00:14:25 2025.
 Gaussian 16:  ES64L-G16RevC.01  3-Jul-2019

 ----------------------------------------------------------------------
 #t hf aug-cc-pvdz iop(5/13=1,5/36=2,99/5=2) pseudo=read geom=check gue
 ss=(read,tcheck) scf=(maxcycle=1)
 ----------------------------------------------------------------------
 -----
 title
 -----
 Structure from the checkpoint file:  "BDE49_nonexpt_2470_mol1.chk"
 Charge =  0 Multiplicity = 1

                         Standard orientation:
 ---------------------------------------------------------------------
 Center     Atomic      Atomic             Coordinates (Angstroms)
 Number     Number       Type             X           Y           Z
 ---------------------------------------------------------------------
      1         16           0        1.173581   -1.436592   -0.167588
      2         14           0        0.224038    0.444077    0.394284
      3          6           0        1.397202    1.789675   -0.179145
      4          1           0        0.314323   -2.225056    0.501772
      5          1           0        0.992339    2.775842    0.067437
      6          1           0        1.547364    1.749084   -1.261604
      7          6           0       -1.483371    0.642351   -0.376175
      8          6           0       -2.521067   -0.417780    0.028506
      9          1           0       -1.367316    0.660710   -1.465920
     10          1           0       -1.840873    1.641162   -0.091312
     11          1           0       -2.218250   -1.416348   -0.298379
     12          1           0       -3.497070   -0.211384   -0.419570
     13          1           0       -2.659511   -0.450790    1.113401
     14          1           0        2.372563    1.694265    0.303918
     15          1           0        0.086014    0.465442    1.872578
 ---------------------------------------------------------------------

 SCF Done:  E(RHF) =  -806.185995406     A.U. after    2 cycles

 The electronic state is 1-A.
 Alpha  occ. eigenvalues --  -93.93537 -69.54537 -11.23492 -11.22553 -11.22305
 Alpha  occ. eigenvalues --   -8.21796  -6.21365  -6.19625  -6.19504  -6.19296
 Alpha  occ. eigenvalues --   -3.96752  -3.96654  -3.96618  -1.03519  -0.99488
 Alpha  occ. eigenvalues --   -0.95251  -0.85221  -0.68323  -0.61877  -0.58981
 Alpha  occ. eigenvalues --   -0.57687  -0.57197  -0.53429  -0.52753  -0.50475
 Alpha  occ. eigenvalues --   -0.46489  -0.45037  -0.43291  -0.37105
 Alpha virt. eigenvalues --    0.03406   0.03704   0.04130   0.04458   0.06166
 Alpha virt. eigenvalues --    0.06495   0.06598   0.07228   0.08548   0.09332
 Alpha virt. eigenvalues --    0.09579   0.10534   0.10982   0.12803   0.14103

 Mulliken charges:
               1
     1  S   -0.975623
     2  Si   1.782378
     3  C   -0.613702
     4  H    0.260421
     5  H    0.028472
     6  H    0.117889
     7  C   -0.437361
     8  C   -0.508409
     9  H    0.083330
    10  H    0.079401
    11  H    0.134835
    12  H    0.109052
    13  H    0.133923
    14  H   -0.011981
    15  H   -0.182625
 Sum of Mulliken charges =  -0.00000

 Dipole moment (field-independent basis, Debye):
    X=             -1.3896    Y=              1.2534    Z=              0.2263  Tot=              1.8850

 Test job not archived.
 1\1\GINC-SE336\SP\RHF\Aug-CC-pVDZ\C3H10S1Si1\OHZDE\09-Apr-2025\0\\#t h
 f aug-cc-pvdz iop(5/13=1,5/36=2,99/5=2) pseudo=read geom=check guess=(
 read,tcheck) scf=(maxcycle=1)\\title\\0,1\S,0,1.173581,-1.436592,-0.16
 7588\Si,0,0.224038,0.444077,0.394284\C,0,1.397202,1.789675,-0.179145\H
 ,0,0.314323,-2.225056,0.501772\H,0,0.992338,2.775842,0.067437\H,0,1.54
 7364,1.749084,-1.261604\C,0,-1.483371,0.642351,-0.376175\C,0,-2.521067
 ,-0.41778,0.028506\H,0,-1.367316,0.66071,-1.46592\H,0,-1.840873,1.6411
 62,-0.091312\H,0,-2.21825,-1.416348,-0.298379\H,0,-3.49707,-0.211384,-

 Normal termination of Gaussian 16 at Wed Apr  9 00:14:30 2025.
