 Gaussian 16, Revision C.01,

 ----------------------------------------------------------------------
 #t hf aug-cc-pvdz symm=none int=(grid=ultrafine) guess=(read,tcheck) s
 table=(opt,rrhf)
 ----------------------------------------------------------------------
 -----
 title
 -----
 Symbolic Z-matrix:
 Charge =  0 Multiplicity = 1

 SCF Done:  E(RHF) =  -1036.13013760     A.U. after   12 cycles

 1\1\GINC-SE457\Stability\RHF\Aug-CC-pVDZ\C3H6Cl2\OHZDE\08-Apr-2025\0\\
 #t hf aug-cc-pvdz symm=none int=(grid=ultrafine) guess=(read,tcheck) s
 table=(opt,rrhf)\\title\\0,1\C,0,0.,1.285248,0.431879\H,0,0.058129,2.1
 58334,1.078189\Cl,0,-1.534303,1.483967,-0.529961\H,0,0.813149,1.310015
 ,-0.290624\C,0,0.,0.,1.24492\C,0,0.,-1.285248,0.431879\H,0,-0.881129,-
 0.017366,1.895733\H,0,-0.813149,-1.310015,-0.290624\Cl,0,1.534303,-1.4
 83967,-0.529961\H,0,0.881129,0.017366,1.895733\H,0,-0.058129,-2.158334
 ,1.078189\\Version=ES64L-G16RevC.01\HF=-1036.1301376\RMSD=4.038e-09\Di

 Normal termination of Gaussian 16 at Tue Apr  8 22:30:24 2025.
 Gaussian 16:  ES64L-G16RevC.01  3-Jul-2019

 ----------------------------------------------------------------------
 #t hf aug-cc-pvdz iop(5/13=1,5/36=2,99/5=2) pseudo=read geom=check gue
 ss=(read,tcheck) scf=(maxcycle=1)
 ----------------------------------------------------------------------
 -----
 title
 -----
 Structure from the checkpoint file:  "BDE49_expt_1029_mol1.chk"
 Charge =  0 Multiplicity = 1

                         Standard orientation:
 ---------------------------------------------------------------------
 Center     Atomic      Atomic             Coordinates (Angstroms)
 Number     Number       Type             X           Y           Z
 ---------------------------------------------------------------------
      1          6           0       -0.000000    1.285248    0.431879
      2          1           0        0.058129    2.158334    1.078189
      3         17           0       -1.534303    1.483967   -0.529961
      4          1           0        0.813149    1.310015   -0.290624
      5          6           0        0.000000   -0.000000    1.244920
      6          6           0        0.000000   -1.285248    0.431879
      7          1           0       -0.881129   -0.017366    1.895733
      8          1           0       -0.813149   -1.310015   -0.290624
      9         17           0        1.534303   -1.483967   -0.529961
     10          1           0        0.881129    0.017366    1.895733
     11          1           0       -0.058129   -2.158334    1.078189
 ---------------------------------------------------------------------

 SCF Done:  E(RHF) =  -1036.41225924     A.U. after    2 cycles

 The electronic state is 1-A.
 Alpha  occ. eigenvalues -- -105.55877-105.55877 -11.31405 -11.31402 -11.27043
 Alpha  occ. eigenvalues --  -10.60681 -10.60681  -7.77614  -7.77613  -7.77258
 Alpha  occ. eigenvalues --   -7.77258  -7.77245  -7.77243  -1.14637  -1.08720
 Alpha  occ. eigenvalues --   -1.00353  -0.91138  -0.81678  -0.68115  -0.67243
 Alpha  occ. eigenvalues --   -0.60908  -0.58026  -0.57195  -0.53236  -0.51175
 Alpha  occ. eigenvalues --   -0.45609  -0.45242  -0.44503  -0.44328
 Alpha virt. eigenvalues --    0.03308   0.03762   0.04859   0.05186   0.06866
 Alpha virt. eigenvalues --    0.06963   0.09096   0.09451   0.12236   0.14088
 Alpha virt. eigenvalues --    0.14679   0.14709   0.15275   0.16036   0.16130

 Mulliken charges:
               1
     1  C   -0.478735
     2  H    0.219631
     3  Cl  -0.094852
     4  H    0.274247
     5  C   -0.226540
     6  C   -0.478735
     7  H    0.192979
     8  H    0.274247
     9  Cl  -0.094852
    10  H    0.192979
    11  H    0.219631
 Sum of Mulliken charges =  -0.00000

 Dipole moment (field-independent basis, Debye):
    X=             -0.0000    Y=              0.0000    Z=              2.5604  Tot=              2.5604

 Test job not archived.
 1\1\GINC-SE457\SP\RHF\Aug-CC-pVDZ\C3H6Cl2\OHZDE\08-Apr-2025\0\\#t hf a
 ug-cc-pvdz iop(5/13=1,5/36=2,99/5=2) pseudo=read geom=check guess=(rea
 d,tcheck) scf=(maxcycle=1)\\title\\0,1\C,0,0.,1.285248,0.431879\H,0,0.
 058129,2.158334,1.078189\Cl,0,-1.534303,1.483967,-0.529961\H,0,0.81314
 9,1.310015,-0.290624\C,0,0.,0.,1.24492\C,0,0.,-1.285248,0.431879\H,0,-
 0.881129,-0.017366,1.895733\H,0,-0.813149,-1.310015,-0.290624\Cl,0,1.5
 34303,-1.483967,-0.529961\H,0,0.881129,0.017366,1.895733\H,0,-0.058129
 ,-2.158334,1.078189\\Version=ES64L-G16RevC.01\State=1-A\HF=-1036.41225

 Normal termination of Gaussian 16 at Tue Apr  8 22:30:27 2025.
