 Gaussian 16, Revision C.01,

 ----------------------------------------------------------------------
 #t hf aug-cc-pvdz symm=none int=(grid=ultrafine) guess=(read,tcheck) s
 table=(opt,rrhf)
 ----------------------------------------------------------------------
 -----
 title
 -----
 Symbolic Z-matrix:
 Charge =  0 Multiplicity = 1

 SCF Done:  E(RHF) =  -874.627789168     A.U. after   14 cycles
 Normal termination of Gaussian 16 at Wed Apr  9 00:01:12 2025.
 Gaussian 16:  ES64L-G16RevC.01  3-Jul-2019

 ----------------------------------------------------------------------
 #t hf aug-cc-pvdz iop(5/13=1,5/36=2,99/5=2) pseudo=read geom=check gue
 ss=(read,tcheck) scf=(maxcycle=1)
 ----------------------------------------------------------------------
 -----
 title
 -----
 Structure from the checkpoint file:  "BDE49_nonexpt_2115_mol1.chk"
 Charge =  0 Multiplicity = 1

                         Standard orientation:
 ---------------------------------------------------------------------
 Center     Atomic      Atomic             Coordinates (Angstroms)
 Number     Number       Type             X           Y           Z
 ---------------------------------------------------------------------
      1          7           0       -1.339000   -0.745226    0.412781
      2          9           0       -2.424985    0.155776    0.648901
      3          9           0       -1.689757   -1.353748   -0.811681
      4         14           0        0.000000    0.434788    0.000000
      5          6           0        0.370725    1.374659    1.547060
      6          1           0       -0.420876    2.098350    1.754425
      7          1           0        1.315894    1.911884    1.436219
      8          1           0        0.456424    0.696631    2.398127
      9          6           0       -0.370725    1.374659   -1.547060
     10          1           0       -1.315894    1.911884   -1.436219
     11          1           0       -0.456424    0.696631   -2.398127
     12          1           0        0.420876    2.098349   -1.754425
     13          7           0        1.339000   -0.745226   -0.412781
     14          9           0        2.424985    0.155776   -0.648901
     15          9           0        1.689757   -1.353748    0.811681
 ---------------------------------------------------------------------

 SCF Done:  E(RHF) =  -875.213052420     A.U. after    2 cycles

 The electronic state is 1-A.
 Alpha  occ. eigenvalues --  -69.61195 -26.51130 -26.51130 -26.51110 -26.51109
 Alpha  occ. eigenvalues --  -15.69387 -15.69300 -11.25347 -11.25345  -6.28017
 Alpha  occ. eigenvalues --   -4.03351  -4.03272  -4.03168  -1.65988  -1.65773
 Alpha  occ. eigenvalues --   -1.58110  -1.58109  -1.12508  -1.08893  -1.00221
 Alpha  occ. eigenvalues --   -0.97969  -0.81892  -0.78060  -0.76116  -0.75666
 Alpha  occ. eigenvalues --   -0.74990  -0.74105  -0.66650  -0.66513  -0.64488
 Alpha  occ. eigenvalues --   -0.62084  -0.61940  -0.61304  -0.61123  -0.59903
 Alpha  occ. eigenvalues --   -0.59111  -0.58504  -0.57494  -0.50985  -0.50158
 Alpha  occ. eigenvalues --   -0.49605
 Alpha virt. eigenvalues --    0.02824   0.04215   0.04668   0.05007   0.06800
 Alpha virt. eigenvalues --    0.06847   0.07864   0.08330   0.09898   0.10507
 Alpha virt. eigenvalues --    0.12407   0.13632   0.14549   0.14921   0.15165

 Mulliken charges:
               1
     1  N    1.151343
     2  F   -0.665214
     3  F   -0.698766
     4  Si   1.635014
     5  C   -0.689507
     6  H    0.030339
     7  H    0.035609
     8  H    0.018689
     9  C   -0.689506
    10  H    0.035610
    11  H    0.018689
    12  H    0.030338
    13  N    1.151343
    14  F   -0.665214
    15  F   -0.698766
 Sum of Mulliken charges =  -0.00000

 Dipole moment (field-independent basis, Debye):
    X=              0.0000    Y=              3.9227    Z=             -0.0000  Tot=              3.9227

 Test job not archived.
 1\1\GINC-SE344\SP\RHF\Aug-CC-pVDZ\C2H6F4N2Si1\OHZDE\09-Apr-2025\0\\#t
 hf aug-cc-pvdz iop(5/13=1,5/36=2,99/5=2) pseudo=read geom=check guess=
 (read,tcheck) scf=(maxcycle=1)\\title\\0,1\N,0,-1.339,-0.745226,0.4127
 81\F,0,-2.424985,0.155776,0.648901\F,0,-1.689757,-1.353748,-0.811681\S
 i,0,0.,0.434788,0.\C,0,0.370725,1.374659,1.54706\H,0,-0.420876,2.09835
 ,1.754425\H,0,1.315894,1.911884,1.436219\H,0,0.456424,0.696631,2.39812
 7\C,0,-0.370725,1.374659,-1.54706\H,0,-1.315894,1.911884,-1.436219\H,0
 ,-0.456424,0.696631,-2.398127\H,0,0.420876,2.098349,-1.754425\N,0,1.33

 Normal termination of Gaussian 16 at Wed Apr  9 00:01:19 2025.
