 Gaussian 16, Revision C.01,

 ----------------------------------------------------------------------
 #t hf aug-cc-pvdz symm=none int=(grid=ultrafine) guess=(read,tcheck) s
 table=opt
 ----------------------------------------------------------------------
 -----
 title
 -----
 Symbolic Z-matrix:
 Charge =  0 Multiplicity = 2

 SCF Done:  E(UHF) =  -276.349595664     A.U. after   15 cycles
 Normal termination of Gaussian 16 at Tue Apr  8 22:38:25 2025.
 Gaussian 16:  ES64L-G16RevC.01  3-Jul-2019

 ----------------------------------------------------------------------
 #t hf aug-cc-pvdz iop(5/13=1,5/36=2,99/5=2) pseudo=read geom=check gue
 ss=(read,tcheck) scf=(maxcycle=1)
 ----------------------------------------------------------------------
 -----
 title
 -----
 Structure from the checkpoint file:  "BDE49_expt_124_mol2.chk"
 Charge =  0 Multiplicity = 2

                         Standard orientation:
 ---------------------------------------------------------------------
 Center     Atomic      Atomic             Coordinates (Angstroms)
 Number     Number       Type             X           Y           Z
 ---------------------------------------------------------------------
      1          6           0       -0.308300    0.053788   -0.000000
      2          9           0        0.057901    0.737072    1.096915
      3          6           0        0.057901   -1.388923    0.000000
      4          9           0        0.057901    0.737072   -1.096915
      5          1           0        1.150612   -1.506543    0.000000
      6          1           0       -0.345218   -1.874974   -0.888790
      7          1           0       -0.345218   -1.874974    0.888790
 ---------------------------------------------------------------------

 SCF Done:  E(UHF) =  -276.610148414     A.U. after    2 cycles

 The electronic state is 2-A'.
 Alpha  occ. eigenvalues --  -26.49227 -26.49225 -11.42481 -11.26470  -1.66346
 Alpha  occ. eigenvalues --   -1.59548  -1.06045  -0.88653  -0.76524  -0.76025
 Alpha  occ. eigenvalues --   -0.73614  -0.66323  -0.61990  -0.61254  -0.58331
 Alpha  occ. eigenvalues --   -0.57556  -0.40612
 Alpha virt. eigenvalues --    0.03531   0.05360   0.05370   0.07751   0.11767
 Alpha virt. eigenvalues --    0.11928   0.11959   0.14968   0.15345   0.16521
 Alpha virt. eigenvalues --    0.21663   0.24410   0.25668   0.28202   0.28672

  Beta  occ. eigenvalues --  -26.48821 -26.48818 -11.39616 -11.26501  -1.64774
  Beta  occ. eigenvalues --   -1.58487  -1.03720  -0.85478  -0.75543  -0.72528
  Beta  occ. eigenvalues --   -0.68996  -0.63075  -0.61581  -0.59281  -0.58159
  Beta  occ. eigenvalues --   -0.56659
  Beta virt. eigenvalues --    0.03289   0.05375   0.05389   0.07364   0.10668
  Beta virt. eigenvalues --    0.11830   0.12044   0.13577   0.15154   0.15385
  Beta virt. eigenvalues --    0.18054   0.23006   0.24518   0.26713   0.28633

 Mulliken charges and spin densities:
               1          2
     1  C    1.334710   1.041833
     2  F   -0.698252   0.021658
     3  C   -0.510523  -0.115298
     4  F   -0.698252   0.021658
     5  H    0.213494   0.045523
     6  H    0.179411  -0.007687
     7  H    0.179411  -0.007687
 Sum of Mulliken charges =  -0.00000   1.00000

 Dipole moment (field-independent basis, Debye):
    X=             -0.0668    Y=             -2.1555    Z=              0.0000  Tot=              2.1566
                          Isotropic Fermi Contact Couplings
        Atom                 a.u.       MegaHertz       Gauss      10(-4) cm-1
     1  C(13)              0.44486     500.10378     178.44947     166.81667
     2  F(19)              0.06952     292.51591     104.37695      97.57280
     3  C(13)              0.00702       7.89198       2.81606       2.63248
     4  F(19)              0.06952     292.51591     104.37695      97.57280
     5  H(1)               0.01778      79.48149      28.36097      26.51217
     6  H(1)               0.00208       9.30409       3.31993       3.10351
     7  H(1)               0.00208       9.30409       3.31993       3.10351
 --------------------------------------------------------

 Normal termination of Gaussian 16 at Tue Apr  8 22:38:27 2025.
