 Gaussian 16, Revision C.01,

 ----------------------------------------------------------------------
 #t hf aug-cc-pvdz symm=none int=(grid=ultrafine) guess=(read,tcheck) s
 table=(opt,rrhf)
 ----------------------------------------------------------------------
 -----
 title
 -----
 Symbolic Z-matrix:
 Charge =  0 Multiplicity = 1

 SCF Done:  E(RHF) =  -478.920488933     A.U. after   12 cycles
 Normal termination of Gaussian 16 at Wed Apr  9 00:07:27 2025.
 Gaussian 16:  ES64L-G16RevC.01  3-Jul-2019

 ----------------------------------------------------------------------
 #t hf aug-cc-pvdz iop(5/13=1,5/36=2,99/5=2) pseudo=read geom=check gue
 ss=(read,tcheck) scf=(maxcycle=1)
 ----------------------------------------------------------------------
 -----
 title
 -----
 Structure from the checkpoint file:  "BDE49_nonexpt_2266_mol1.chk"
 Charge =  0 Multiplicity = 1

                         Standard orientation:
 ---------------------------------------------------------------------
 Center     Atomic      Atomic             Coordinates (Angstroms)
 Number     Number       Type             X           Y           Z
 ---------------------------------------------------------------------
      1          6           0        1.307798    0.376179   -0.000006
      2          8           0        1.590531   -0.790143    0.000018
      3          8           0        0.053674    0.857829   -0.000013
      4          1           0        2.038274    1.196558   -0.000007
      5         14           0       -1.288573   -0.191709   -0.000000
      6          1           0       -2.433003    0.735162   -0.000010
      7          1           0       -1.282834   -1.023166    1.217219
      8          1           0       -1.282836   -1.023194   -1.217200
 ---------------------------------------------------------------------

 SCF Done:  E(RHF) =  -479.137285926     A.U. after    2 cycles

 The electronic state is 1-A.
 Alpha  occ. eigenvalues --  -69.57914 -20.59094 -20.55596 -11.40796  -6.24511
 Alpha  occ. eigenvalues --   -4.00006  -3.99849  -3.99830  -1.54654  -1.45952
 Alpha  occ. eigenvalues --   -0.90117  -0.75155  -0.72996  -0.67282  -0.64276
 Alpha  occ. eigenvalues --   -0.55654  -0.51800  -0.49819  -0.47210  -0.46429
 Alpha virt. eigenvalues --    0.03467   0.04140   0.05485   0.05800   0.06800
 Alpha virt. eigenvalues --    0.09317   0.09326   0.09876   0.11404   0.13836
 Alpha virt. eigenvalues --    0.14750   0.15641   0.16413   0.18033   0.19499

 Mulliken charges:
               1
     1  C    1.394010
     2  O   -0.919585
     3  O   -1.375161
     4  H    0.098200
     5  Si   1.379888
     6  H   -0.223470
     7  H   -0.176940
     8  H   -0.176941
 Sum of Mulliken charges =  -0.00000

 Dipole moment (field-independent basis, Debye):
    X=             -1.0617    Y=              1.4605    Z=             -0.0000  Tot=              1.8056

 Test job not archived.
 1\1\GINC-SE404\SP\RHF\Aug-CC-pVDZ\C1H4O2Si1\OHZDE\09-Apr-2025\0\\#t hf
  aug-cc-pvdz iop(5/13=1,5/36=2,99/5=2) pseudo=read geom=check guess=(r
 ead,tcheck) scf=(maxcycle=1)\\title\\0,1\C,0,1.307798,0.376179,-0.0000
 06\O,0,1.590531,-0.790143,0.000018\O,0,0.053674,0.857829,-0.000013\H,0
 ,2.038274,1.196558,-0.000007\Si,0,-1.288573,-0.191709,0.\H,0,-2.433003
 ,0.735162,-0.00001\H,0,-1.282834,-1.023166,1.217219\H,0,-1.282836,-1.0
 23194,-1.2172\\Version=ES64L-G16RevC.01\State=1-A\HF=-479.1372859\RMSD
 =6.799e-03\Dipole=-0.4176969,0.57462,-0.0000121\Quadrupole=0.8801995,-

 Normal termination of Gaussian 16 at Wed Apr  9 00:07:29 2025.
