 Gaussian 16, Revision C.01,

 ----------------------------------------------------------------------
 #t hf aug-cc-pvdz symm=none int=(grid=ultrafine) guess=(read,tcheck) s
 table=(opt,rrhf)
 ----------------------------------------------------------------------
 -----
 title
 -----
 Symbolic Z-matrix:
 Charge =  0 Multiplicity = 1

 SCF Done:  E(RHF) =  -648.418844293     A.U. after   16 cycles
 Normal termination of Gaussian 16 at Wed Apr  9 00:32:58 2025.
 Gaussian 16:  ES64L-G16RevC.01  3-Jul-2019

 ----------------------------------------------------------------------
 #t hf aug-cc-pvdz iop(5/13=1,5/36=2,99/5=2) pseudo=read geom=check gue
 ss=(read,tcheck) scf=(maxcycle=1)
 ----------------------------------------------------------------------
 -----
 title
 -----
 Structure from the checkpoint file:  "BDE49_nonexpt_323_mol1.chk"
 Charge =  0 Multiplicity = 1

                         Standard orientation:
 ---------------------------------------------------------------------
 Center     Atomic      Atomic             Coordinates (Angstroms)
 Number     Number       Type             X           Y           Z
 ---------------------------------------------------------------------
      1          6           0        0.964040   -1.374827   -0.131315
      2          6           0       -0.425169   -1.401891   -0.120607
      3          6           0        1.581875   -0.138662   -0.018699
      4          6           0        0.856969    1.041142    0.093251
      5          6           0       -0.538512    1.012413    0.089864
      6          6           0       -1.200370   -0.234880   -0.014540
      7          1           0       -0.918331   -2.363720   -0.224061
      8          5           0       -2.769062   -0.396393   -0.032941
      9          8           0       -3.395403   -1.482000    0.522827
     10          8           0       -3.551393    0.536458   -0.642776
     11          1           0        1.560170   -2.271396   -0.223549
     12          1           0        1.395009    1.975442    0.179758
     13          6           0       -1.293644    2.315790    0.210589
     14          1           0       -0.603167    3.154348    0.312110
     15          1           0       -1.954527    2.313250    1.081781
     16          1           0       -1.927091    2.485043   -0.661554
     17          7           0        3.062134   -0.073170   -0.017968
     18          8           0        3.582403    1.029558    0.081896
     19          8           0        3.674557   -1.127925   -0.116716
     20          1           0       -4.485683    0.303445   -0.597644
     21          1           0       -2.808461   -2.065486    1.010547
 ---------------------------------------------------------------------

 SCF Done:  E(RHF) =  -649.060256110     A.U. after    2 cycles

 The electronic state is 1-A.
 Alpha  occ. eigenvalues --  -20.59105 -20.59076 -20.57786 -20.57083 -15.79344
 Alpha  occ. eigenvalues --  -11.31803 -11.28076 -11.27772 -11.27627 -11.27365
 Alpha  occ. eigenvalues --  -11.25705 -11.24477  -7.66507  -1.67045  -1.50722
 Alpha  occ. eigenvalues --   -1.50017  -1.45637  -1.20390  -1.11253  -1.06993
 Alpha  occ. eigenvalues --   -0.98608  -0.96253  -0.86210  -0.84302  -0.79410
 Alpha  occ. eigenvalues --   -0.78333  -0.75566  -0.74959  -0.74572  -0.70273
 Alpha  occ. eigenvalues --   -0.68003  -0.65021  -0.61714  -0.60730  -0.60092
 Alpha  occ. eigenvalues --   -0.58360  -0.57750  -0.55511  -0.52940  -0.52852
 Alpha  occ. eigenvalues --   -0.51111  -0.50771  -0.49583  -0.48771  -0.45149
 Alpha  occ. eigenvalues --   -0.38451  -0.36516
 Alpha virt. eigenvalues --    0.01669   0.02436   0.03044   0.03625   0.03927
 Alpha virt. eigenvalues --    0.05511   0.05846   0.05936   0.06412   0.08237
 Alpha virt. eigenvalues --    0.08309   0.08883   0.09506   0.09845   0.10748

 Mulliken charges:
               1
     1  C    0.070299
     2  C    0.768698
     3  C   -0.384838
     4  C    0.359383
     5  C    0.295605
     6  C    0.415832
     7  H   -0.445336
     8  B    1.421952
     9  O   -1.523480
    10  O   -1.477292
    11  H   -0.207827
    12  H   -0.277516
    13  C   -0.742648
    14  H   -0.012515
    15  H    0.235862
    16  H    0.302569
    17  N    3.123840
    18  O   -1.498504
    19  O   -1.540190
    20  H    0.524635
    21  H    0.591472
 Sum of Mulliken charges =  -0.00000

 Dipole moment (field-independent basis, Debye):
    X=             -4.8209    Y=             -0.7334    Z=              0.7659  Tot=              4.9362

 Test job not archived.
 1\1\GINC-SE095\SP\RHF\Aug-CC-pVDZ\C7H8B1N1O4\OHZDE\09-Apr-2025\0\\#t h
 f aug-cc-pvdz iop(5/13=1,5/36=2,99/5=2) pseudo=read geom=check guess=(
 read,tcheck) scf=(maxcycle=1)\\title\\0,1\C,0,0.96404,-1.374827,-0.131
 315\C,0,-0.425169,-1.401891,-0.120607\C,0,1.581875,-0.138662,-0.018699
 \C,0,0.856969,1.041142,0.093251\C,0,-0.538512,1.012413,0.089864\C,0,-1
 .20037,-0.23488,-0.01454\H,0,-0.918331,-2.36372,-0.224061\B,0,-2.76906
 2,-0.396393,-0.032941\O,0,-3.395403,-1.482,0.522827\O,0,-3.551393,0.53
 6458,-0.642776\H,0,1.56017,-2.271396,-0.223549\H,0,1.395009,1.975442,0

 Normal termination of Gaussian 16 at Wed Apr  9 00:33:14 2025.
