 Gaussian 16, Revision C.01,

 ----------------------------------------------------------------------
 #t hf aug-cc-pvdz symm=none int=(grid=ultrafine) guess=(read,tcheck) s
 table=(opt,rrhf)
 ----------------------------------------------------------------------
 -----
 title
 -----
 Symbolic Z-matrix:
 Charge =  0 Multiplicity = 1

 SCF Done:  E(RHF) =  -680.254493113     A.U. after   15 cycles
 Normal termination of Gaussian 16 at Wed Apr  9 00:53:04 2025.
 Gaussian 16:  ES64L-G16RevC.01  3-Jul-2019

 ----------------------------------------------------------------------
 #t hf aug-cc-pvdz iop(5/13=1,5/36=2,99/5=2) pseudo=read geom=check gue
 ss=(read,tcheck) scf=(maxcycle=1)
 ----------------------------------------------------------------------
 -----
 title
 -----
 Structure from the checkpoint file:  "BDE49_nonexpt_985_mol1.chk"
 Charge =  0 Multiplicity = 1

                         Standard orientation:
 ---------------------------------------------------------------------
 Center     Atomic      Atomic             Coordinates (Angstroms)
 Number     Number       Type             X           Y           Z
 ---------------------------------------------------------------------
      1          6           0        1.523583   -0.178841    0.539424
      2         16           0        0.037064   -1.079421   -0.005147
      3          7           0       -1.195075    0.275669    0.010387
      4          8           0       -0.846204    1.377098    0.380272
      5          8           0       -2.297472   -0.064379   -0.357764
      6          6           0        2.205466    0.647553   -0.545669
      7          1           0        2.170777   -0.981755    0.907704
      8          1           0        1.230642    0.427725    1.397234
      9          1           0        2.493477    0.026009   -1.395866
     10          1           0        3.107932    1.115874   -0.141673
     11          1           0        1.544798    1.439169   -0.900345
 ---------------------------------------------------------------------

 SCF Done:  E(RHF) =  -680.592764431     A.U. after    2 cycles

 The electronic state is 1-A.
 Alpha  occ. eigenvalues --  -94.02799 -20.60516 -20.60429 -15.80769 -11.30413
 Alpha  occ. eigenvalues --  -11.25421  -8.30581  -6.28374  -6.28116  -6.27886
 Alpha  occ. eigenvalues --   -1.68796  -1.53018  -1.14772  -1.04351  -0.92451
 Alpha  occ. eigenvalues --   -0.85242  -0.76868  -0.76007  -0.75591  -0.65548
 Alpha  occ. eigenvalues --   -0.61939  -0.57650  -0.54290  -0.51998  -0.48850
 Alpha  occ. eigenvalues --   -0.47259  -0.46630  -0.41537
 Alpha virt. eigenvalues --    0.02889   0.03876   0.04208   0.05475   0.06090
 Alpha virt. eigenvalues --    0.06601   0.07171   0.08472   0.11935   0.12021
 Alpha virt. eigenvalues --    0.12543   0.14024   0.14658   0.15689   0.16089

 Mulliken charges:
               1
     1  C   -0.777039
     2  S    0.683853
     3  N    1.810758
     4  O   -1.168051
     5  O   -1.208782
     6  C   -0.381604
     7  H    0.226056
     8  H    0.289169
     9  H    0.188047
    10  H    0.157031
    11  H    0.180563
 Sum of Mulliken charges =  -0.00000

 Dipole moment (field-independent basis, Debye):
    X=              4.2126    Y=             -1.0556    Z=              0.5638  Tot=              4.3793

 Test job not archived.
 1\1\GINC-SE455\SP\RHF\Aug-CC-pVDZ\C2H5N1O2S1\OHZDE\09-Apr-2025\0\\#t h
 f aug-cc-pvdz iop(5/13=1,5/36=2,99/5=2) pseudo=read geom=check guess=(
 read,tcheck) scf=(maxcycle=1)\\title\\0,1\C,0,1.523583,-0.178841,0.539
 424\S,0,0.037064,-1.079421,-0.005147\N,0,-1.195075,0.275669,0.010387\O
 ,0,-0.846204,1.377098,0.380272\O,0,-2.297472,-0.064379,-0.357764\C,0,2
 .205466,0.647553,-0.545669\H,0,2.170777,-0.981755,0.907704\H,0,1.23064
 2,0.427725,1.397234\H,0,2.493477,0.026009,-1.395866\H,0,3.107932,1.115
 874,-0.141673\H,0,1.544798,1.439169,-0.900345\\Version=ES64L-G16RevC.0

 Normal termination of Gaussian 16 at Wed Apr  9 00:53:08 2025.
