 Gaussian 16, Revision C.01,

 ----------------------------------------------------------------------
 #t hf aug-cc-pvdz symm=none int=(grid=ultrafine) guess=(read,tcheck) s
 table=(opt,rrhf)
 ----------------------------------------------------------------------
 -----
 title
 -----
 Symbolic Z-matrix:
 Charge =  0 Multiplicity = 1

 SCF Done:  E(RHF) =  -362.193521066     A.U. after   12 cycles
 Normal termination of Gaussian 16 at Wed Apr  9 00:30:43 2025.
 Gaussian 16:  ES64L-G16RevC.01  3-Jul-2019

 ----------------------------------------------------------------------
 #t hf aug-cc-pvdz iop(5/13=1,5/36=2,99/5=2) pseudo=read geom=check gue
 ss=(read,tcheck) scf=(maxcycle=1)
 ----------------------------------------------------------------------
 -----
 title
 -----
 Structure from the checkpoint file:  "BDE49_nonexpt_357_mol1.chk"
 Charge =  0 Multiplicity = 1

                         Standard orientation:
 ---------------------------------------------------------------------
 Center     Atomic      Atomic             Coordinates (Angstroms)
 Number     Number       Type             X           Y           Z
 ---------------------------------------------------------------------
      1          9           0        1.662235   -0.731959   -0.000020
      2          9           0        0.690820    1.312710   -0.000048
      3          5           0        0.557580    0.002239    0.000047
      4          6           0       -0.838999   -0.713274    0.000035
      5          9           0       -1.896087    0.196501    0.000009
      6          1           0       -0.933323   -1.363398    0.879312
      7          1           0       -0.933299   -1.363419   -0.879229
 ---------------------------------------------------------------------

 SCF Done:  E(RHF) =  -362.530635665     A.U. after    2 cycles

 The electronic state is 1-A.
 Alpha  occ. eigenvalues --  -26.49418 -26.49075 -26.46022 -11.32754  -7.73387
 Alpha  occ. eigenvalues --   -1.64478  -1.60557  -1.57765  -0.98294  -0.81682
 Alpha  occ. eigenvalues --   -0.76141  -0.74105  -0.71988  -0.68635  -0.68217
 Alpha  occ. eigenvalues --   -0.64589  -0.64261  -0.63370  -0.54072  -0.51608
 Alpha virt. eigenvalues --    0.03268   0.04057   0.05327   0.05527   0.07772
 Alpha virt. eigenvalues --    0.09808   0.11639   0.13991   0.14724   0.16332
 Alpha virt. eigenvalues --    0.17006   0.21648   0.22700   0.25412   0.26571

 Mulliken charges:
               1
     1  F   -0.674083
     2  F   -0.644757
     3  B    1.550701
     4  C    0.342169
     5  F   -0.699987
     6  H    0.062984
     7  H    0.062973
 Sum of Mulliken charges =   0.00000

 Dipole moment (field-independent basis, Debye):
    X=              0.1459    Y=             -1.8088    Z=              0.0003  Tot=              1.8147

 Test job not archived.
 1\1\GINC-SE455\SP\RHF\Aug-CC-pVDZ\C1H2B1F3\OHZDE\09-Apr-2025\0\\#t hf
 aug-cc-pvdz iop(5/13=1,5/36=2,99/5=2) pseudo=read geom=check guess=(re
 ad,tcheck) scf=(maxcycle=1)\\title\\0,1\F,0,1.662235,-0.731959,-0.0000
 2\F,0,0.69082,1.31271,-0.000048\B,0,0.55758,0.002239,0.000047\C,0,-0.8
 38999,-0.713274,0.000035\F,0,-1.896087,0.196501,0.000009\H,0,-0.933323
 ,-1.363398,0.879312\H,0,-0.933299,-1.363419,-0.879229\\Version=ES64L-G
 16RevC.01\State=1-A\HF=-362.5306357\RMSD=4.799e-03\Dipole=0.0574195,-0
 .7116276,0.0001088\Quadrupole=-3.31092,0.5159555,2.7949645,1.6579235,0

 Normal termination of Gaussian 16 at Wed Apr  9 00:30:45 2025.
