 Gaussian 16, Revision C.01,

 ----------------------------------------------------------------------
 #t hf aug-cc-pvdz symm=none int=(grid=ultrafine) guess=(read,tcheck) s
 table=opt
 ----------------------------------------------------------------------
 -----
 title
 -----
 Symbolic Z-matrix:
 Charge =  0 Multiplicity = 2

 SCF Done:  E(UHF) =  -1228.02020250     A.U. after   17 cycles
 Normal termination of Gaussian 16 at Wed Apr  9 00:52:05 2025.
 Gaussian 16:  ES64L-G16RevC.01  3-Jul-2019

 ----------------------------------------------------------------------
 #t hf aug-cc-pvdz iop(5/13=1,5/36=2,99/5=2) pseudo=read geom=check gue
 ss=(read,tcheck) scf=(maxcycle=1)
 ----------------------------------------------------------------------
 -----
 title
 -----
 Structure from the checkpoint file:  "BDE49_nonexpt_930_mol2.chk"
 Charge =  0 Multiplicity = 2

                         Standard orientation:
 ---------------------------------------------------------------------
 Center     Atomic      Atomic             Coordinates (Angstroms)
 Number     Number       Type             X           Y           Z
 ---------------------------------------------------------------------
      1          7           0       -0.049933   -0.839916   -0.000007
      2         16           0        1.520743   -0.228515   -0.000006
      3         16           0       -1.405311    0.141307    0.000005
      4          8           0        2.066618   -0.679066    1.255654
      5          8           0        2.066611   -0.679041   -1.255678
      6          8           0       -1.444986    0.862564    1.252653
      7          8           0       -1.444991    0.862589   -1.252629
      8          6           0        1.477712    1.557179    0.000012
      9          1           0        2.524392    1.863113    0.000013
     10          1           0        0.970893    1.895799    0.901291
     11          1           0        0.970889    1.895818   -0.901257
     12          6           0       -2.671892   -1.110022   -0.000005
     13          1           0       -2.560729   -1.711211    0.900278
     14          1           0       -2.560732   -1.711193   -0.900300
     15          1           0       -3.623026   -0.576901    0.000002
 ---------------------------------------------------------------------

 SCF Done:  E(UHF) =  -1228.58077117     A.U. after    2 cycles

 The electronic state is 2-A.
 Alpha  occ. eigenvalues --  -94.25550 -94.24283 -20.58182 -20.58180 -20.56464
 Alpha  occ. eigenvalues --  -20.56461 -15.63695 -11.31891 -11.30479  -8.50613
 Alpha  occ. eigenvalues --   -8.49301  -6.48699  -6.48541  -6.48404  -6.47389
 Alpha  occ. eigenvalues --   -6.47211  -6.47121  -1.61396  -1.59293  -1.48508
 Alpha  occ. eigenvalues --   -1.47012  -1.32223  -1.11205  -1.07078  -0.95596
 Alpha  occ. eigenvalues --   -0.83831  -0.77760  -0.75647  -0.74736  -0.70158
 Alpha  occ. eigenvalues --   -0.69763  -0.66998  -0.65583  -0.64736  -0.63906
 Alpha  occ. eigenvalues --   -0.62362  -0.62069  -0.55319  -0.54218  -0.53066
 Alpha  occ. eigenvalues --   -0.51392  -0.50408  -0.49859  -0.48839  -0.48537
 Alpha virt. eigenvalues --    0.02780   0.03954   0.04761   0.05047   0.06018
 Alpha virt. eigenvalues --    0.06250   0.08338   0.10521   0.10892   0.11855
 Alpha virt. eigenvalues --    0.12074   0.13290   0.13536   0.14218   0.14775

  Beta  occ. eigenvalues --  -94.25614 -94.24343 -20.57963 -20.57961 -20.56242
  Beta  occ. eigenvalues --  -20.56239 -15.60284 -11.31916 -11.30507  -8.50696
  Beta  occ. eigenvalues --   -8.49381  -6.48789  -6.48703  -6.48475  -6.47472
  Beta  occ. eigenvalues --   -6.47396  -6.47168  -1.60768  -1.58915  -1.47924
  Beta  occ. eigenvalues --   -1.46428  -1.22872  -1.10989  -1.06275  -0.94782
  Beta  occ. eigenvalues --   -0.82525  -0.77157  -0.73841  -0.70250  -0.70058
  Beta  occ. eigenvalues --   -0.68636  -0.65768  -0.64474  -0.64092  -0.62715
  Beta  occ. eigenvalues --   -0.60510  -0.53956  -0.52800  -0.52273  -0.51536
  Beta  occ. eigenvalues --   -0.50167  -0.49593  -0.48312  -0.48134
  Beta virt. eigenvalues --   -0.02824   0.02801   0.03963   0.04773   0.05081
  Beta virt. eigenvalues --    0.06022   0.06265   0.08343   0.10533   0.10966
  Beta virt. eigenvalues --    0.11892   0.12130   0.13589   0.13604   0.14628

 Mulliken charges and spin densities:
               1          2
     1  N   -0.368694   1.062791
     2  S    2.986945  -0.106977
     3  S    3.136083  -0.092764
     4  O   -1.480608   0.036902
     5  O   -1.480608   0.036902
     6  O   -1.537370   0.037674
     7  O   -1.537369   0.037674
     8  C   -0.770188  -0.006807
     9  H    0.223775  -0.000847
    10  H    0.278857   0.001901
    11  H    0.278856   0.001901
    12  C   -0.537514  -0.008777
    13  H    0.258671   0.000962
    14  H    0.258671   0.000962
    15  H    0.290494  -0.001499
 Sum of Mulliken charges =  -0.00000   1.00000

 Dipole moment (field-independent basis, Debye):
    X=             -3.4619    Y=              0.6844    Z=              0.0000  Tot=              3.5289
                          Isotropic Fermi Contact Couplings
        Atom                 a.u.       MegaHertz       Gauss      10(-4) cm-1
     1  N(14)              0.30637      98.99041      35.32224      33.01965
     2  S(33)             -0.04785     -16.43435      -5.86419      -5.48191
     3  S(33)             -0.05543     -19.03982      -6.79388      -6.35100
     4  O(17)              0.01535      -9.30341      -3.31969      -3.10328
     5  O(17)              0.01535      -9.30340      -3.31969      -3.10328
     6  O(17)              0.01329      -8.05629      -2.87469      -2.68729
     7  O(17)              0.01329      -8.05628      -2.87468      -2.68728
     8  C(13)             -0.00496      -5.57881      -1.99066      -1.86089

 Normal termination of Gaussian 16 at Wed Apr  9 00:52:13 2025.
