 Gaussian 16, Revision C.01,

 ----------------------------------------------------------------------
 #t hf aug-cc-pvdz symm=none int=(grid=ultrafine) guess=(read,tcheck) s
 table=opt
 ----------------------------------------------------------------------
 -----
 title
 -----
 Symbolic Z-matrix:
 Charge =  0 Multiplicity = 2

 SCF Done:  E(UHF) =  -237.296684598     A.U. after   14 cycles
 Normal termination of Gaussian 16 at Tue Apr  8 22:28:14 2025.
 Gaussian 16:  ES64L-G16RevC.01  3-Jul-2019

 ----------------------------------------------------------------------
 #t hf aug-cc-pvdz iop(5/13=1,5/36=2,99/5=2) pseudo=read geom=check gue
 ss=(read,tcheck) scf=(maxcycle=1)
 ----------------------------------------------------------------------
 -----
 title
 -----
 Structure from the checkpoint file:  "BDE49_expt_1002_mol2.chk"
 Charge =  0 Multiplicity = 2

                         Standard orientation:
 ---------------------------------------------------------------------
 Center     Atomic      Atomic             Coordinates (Angstroms)
 Number     Number       Type             X           Y           Z
 ---------------------------------------------------------------------
      1          6           0       -0.030161    0.509436   -0.000000
      2          9           0       -0.030161   -0.241860    1.100484
      3          9           0       -0.030161   -0.241860   -1.100484
      4          1           0        0.723863    1.296858   -0.000000
 ---------------------------------------------------------------------

 SCF Done:  E(UHF) =  -237.513259667     A.U. after    2 cycles

 The electronic state is 2-A'.
 Alpha  occ. eigenvalues --  -26.50576 -26.50576 -11.43596  -1.67812  -1.61079
 Alpha  occ. eigenvalues --   -0.96496  -0.79578  -0.77240  -0.76321  -0.67431
 Alpha  occ. eigenvalues --   -0.63048  -0.61346  -0.42855
 Alpha virt. eigenvalues --    0.03654   0.08950   0.09187   0.09276   0.16340
 Alpha virt. eigenvalues --    0.24281   0.25548   0.26911   0.27040   0.28282
 Alpha virt. eigenvalues --    0.30683   0.32405   0.33678   0.35749   0.44805

  Beta  occ. eigenvalues --  -26.50128 -26.50128 -11.40759  -1.66183  -1.59941
  Beta  occ. eigenvalues --   -0.91140  -0.77843  -0.76190  -0.69396  -0.63742
  Beta  occ. eigenvalues --   -0.62613  -0.59928
  Beta virt. eigenvalues --    0.03708   0.07033   0.09058   0.09305   0.14019
  Beta virt. eigenvalues --    0.18107   0.24335   0.25941   0.27042   0.27512
  Beta virt. eigenvalues --    0.29154   0.32011   0.33425   0.35828   0.37225

 Mulliken charges and spin densities:
               1          2
     1  C    1.048154   1.003152
     2  F   -0.571981   0.012720
     3  F   -0.571981   0.012720
     4  H    0.095809  -0.028592
 Sum of Mulliken charges =  -0.00000   1.00000

 Dipole moment (field-independent basis, Debye):
    X=              0.6642    Y=              1.3953    Z=              0.0000  Tot=              1.5453
                          Isotropic Fermi Contact Couplings
        Atom                 a.u.       MegaHertz       Gauss      10(-4) cm-1
     1  C(13)              0.42005     472.21636     168.49854     157.51442
     2  F(19)              0.06877     289.34882     103.24685      96.51638
     3  F(19)              0.06877     289.34882     103.24685      96.51638
     4  H(1)               0.00343      15.33203       5.47085       5.11421
 --------------------------------------------------------
       Center         ----  Spin Dipole Couplings  ----
                      3XX-RR        3YY-RR        3ZZ-RR
 --------------------------------------------------------

 Normal termination of Gaussian 16 at Tue Apr  8 22:28:15 2025.
