 Gaussian 16, Revision C.01,

 ----------------------------------------------------------------------
 #t hf aug-cc-pvdz symm=none int=(grid=ultrafine) guess=(read,tcheck) s
 table=(opt,rrhf)
 ----------------------------------------------------------------------
 -----
 title
 -----
 Symbolic Z-matrix:
 Charge =  0 Multiplicity = 1

 SCF Done:  E(RHF) =  -1409.50952094     A.U. after   16 cycles
 Normal termination of Gaussian 16 at Wed Apr  9 00:55:22 2025.
 Gaussian 16:  ES64L-G16RevC.01  3-Jul-2019

 ----------------------------------------------------------------------
 #t hf aug-cc-pvdz iop(5/13=1,5/36=2,99/5=2) pseudo=read geom=check gue
 ss=(read,tcheck) scf=(maxcycle=1)
 ----------------------------------------------------------------------
 -----
 title
 -----
 Structure from the checkpoint file:  "BDE49_nonexpt_945_mol1.chk"
 Charge =  0 Multiplicity = 1

                         Standard orientation:
 ---------------------------------------------------------------------
 Center     Atomic      Atomic             Coordinates (Angstroms)
 Number     Number       Type             X           Y           Z
 ---------------------------------------------------------------------
      1         17           0       -2.934169   -1.004116    0.114801
      2         17           0        0.985376    2.623054   -0.298257
      3          8           0       -1.895257    1.877319    0.360963
      4          8           0       -0.240695   -2.298937   -0.673965
      5          7           0       -1.375714   -0.359648   -0.101740
      6          7           0        0.288519    1.088129    0.062860
      7          6           0       -1.100192    1.017628    0.134729
      8          6           0       -0.268579   -1.120482   -0.453717
      9          6           0        0.901131   -0.120001   -0.508273
     10          1           0        1.127491    0.044613   -1.569665
     11          6           0        2.177744   -0.566448    0.232748
     12          1           0        2.820848    0.321722    0.241227
     13          6           0        1.897445   -0.966579    1.686136
     14          1           0        2.836519   -1.154880    2.211458
     15          1           0        1.301212   -1.882021    1.736752
     16          1           0        1.368630   -0.175675    2.223132
     17          6           0        2.906138   -1.670423   -0.546010
     18          1           0        3.848472   -1.916072   -0.050569
     19          1           0        2.301802   -2.576942   -0.605023
     20          1           0        3.140365   -1.351291   -1.566064
 ---------------------------------------------------------------------

 SCF Done:  E(RHF) =  -1410.14908315     A.U. after    2 cycles

 The electronic state is 1-A.
 Alpha  occ. eigenvalues -- -105.63873-105.63436 -20.56697 -20.56182 -15.62631
 Alpha  occ. eigenvalues --  -15.61241 -11.44062 -11.41399 -11.33408 -11.27182
 Alpha  occ. eigenvalues --  -11.24228 -11.24078 -10.68252 -10.67834  -7.85263
 Alpha  occ. eigenvalues --   -7.84821  -7.84705  -7.84675  -7.84315  -7.84279
 Alpha  occ. eigenvalues --   -1.52869  -1.51548  -1.36934  -1.28459  -1.13377
 Alpha  occ. eigenvalues --   -1.10858  -1.04232  -1.01473  -0.95513  -0.90978
 Alpha  occ. eigenvalues --   -0.84189  -0.81824  -0.75501  -0.73493  -0.70227
 Alpha  occ. eigenvalues --   -0.68757  -0.67085  -0.66314  -0.64559  -0.63864
 Alpha  occ. eigenvalues --   -0.61141  -0.57447  -0.56104  -0.55232  -0.53445
 Alpha  occ. eigenvalues --   -0.52838  -0.51877  -0.51271  -0.50891  -0.50145
 Alpha  occ. eigenvalues --   -0.49454  -0.45995  -0.45020  -0.43811
 Alpha virt. eigenvalues --    0.03086   0.03406   0.03794   0.04169   0.05084
 Alpha virt. eigenvalues --    0.06623   0.06804   0.07095   0.07299   0.07694
 Alpha virt. eigenvalues --    0.09731   0.10087   0.10663   0.11624   0.12004

 Mulliken charges:
               1
     1  Cl   0.220343
     2  Cl   0.155502
     3  O   -1.144548
     4  O   -1.351806
     5  N    0.694669
     6  N    0.861955
     7  C    0.393470
     8  C    0.491080
     9  C   -0.802739
    10  H    0.095333
    11  C   -0.853626
    12  H    0.190176
    13  C    0.017799
    14  H    0.117378
    15  H    0.262475
    16  H    0.210274
    17  C   -0.123055
    18  H    0.171516
    19  H    0.225243
    20  H    0.168563
 Sum of Mulliken charges =  -0.00000

 Dipole moment (field-independent basis, Debye):
    X=              3.0955    Y=             -0.2520    Z=             -0.4707  Tot=              3.1412

 Test job not archived.
 1\1\GINC-SE084\SP\RHF\Aug-CC-pVDZ\C6H8Cl2N2O2\OHZDE\09-Apr-2025\0\\#t
 hf aug-cc-pvdz iop(5/13=1,5/36=2,99/5=2) pseudo=read geom=check guess=
 (read,tcheck) scf=(maxcycle=1)\\title\\0,1\Cl,0,-2.934169,-1.004114,0.
 114801\Cl,0,0.985377,2.623054,-0.298257\O,0,-1.895256,1.87732,0.360963
 \O,0,-0.240696,-2.298937,-0.673965\N,0,-1.375714,-0.359647,-0.10174\N,
 0,0.288519,1.088129,0.06286\C,0,-1.100192,1.017629,0.134729\C,0,-0.268
 58,-1.120482,-0.453717\C,0,0.901131,-0.120001,-0.508273\H,0,1.127491,0
 .044613,-1.569665\C,0,2.177744,-0.566449,0.232748\H,0,2.820848,0.32172

 Normal termination of Gaussian 16 at Wed Apr  9 00:55:40 2025.
