 Gaussian 16, Revision C.01,

 ----------------------------------------------------------------------
 #t hf aug-cc-pvdz symm=none int=(grid=ultrafine) guess=(read,tcheck) s
 table=opt
 ----------------------------------------------------------------------
 -----
 title
 -----
 Symbolic Z-matrix:
 Charge =  0 Multiplicity = 2

 SCF Done:  E(UHF) =  -969.757875562     A.U. after   21 cycles
 Normal termination of Gaussian 16 at Wed Apr  9 00:17:05 2025.
 Gaussian 16:  ES64L-G16RevC.01  3-Jul-2019

 ----------------------------------------------------------------------
 #t hf aug-cc-pvdz iop(5/13=1,5/36=2,99/5=2) pseudo=read geom=check gue
 ss=(read,tcheck) scf=(maxcycle=1)
 ----------------------------------------------------------------------
 -----
 title
 -----
 Structure from the checkpoint file:  "BDE49_nonexpt_2557_mol2.chk"
 Charge =  0 Multiplicity = 2

                         Standard orientation:
 ---------------------------------------------------------------------
 Center     Atomic      Atomic             Coordinates (Angstroms)
 Number     Number       Type             X           Y           Z
 ---------------------------------------------------------------------
      1         16           0        1.430139   -0.566782   -0.000001
      2          6           0        0.108617    0.546720    0.000009
      3          8           0        0.086426    1.725269   -0.000003
      4         17           0       -1.425020   -0.471410   -0.000001
 ---------------------------------------------------------------------

 SCF Done:  E(UHF) =  -969.990341649     A.U. after    2 cycles

 The electronic state is 2-A.
 Alpha  occ. eigenvalues -- -105.59996 -94.04132 -20.60780 -11.46267 -10.64813
 Alpha  occ. eigenvalues --   -8.32307  -7.81777  -7.81385  -7.81315  -6.31461
 Alpha  occ. eigenvalues --   -6.29676  -6.29351  -1.55934  -1.15916  -1.06840
 Alpha  occ. eigenvalues --   -0.79538  -0.69724  -0.68312  -0.63777  -0.54106
 Alpha  occ. eigenvalues --   -0.49465  -0.47409  -0.46799  -0.45181
 Alpha virt. eigenvalues --    0.05291   0.07779   0.08608   0.09005   0.10165
 Alpha virt. eigenvalues --    0.11306   0.11728   0.12969   0.13623   0.15628
 Alpha virt. eigenvalues --    0.16906   0.17988   0.23243   0.25574   0.27255

  Beta  occ. eigenvalues -- -105.59913 -94.03194 -20.60752 -11.46385 -10.64724
  Beta  occ. eigenvalues --   -8.31227  -7.81611  -7.81267  -7.81179  -6.29192
  Beta  occ. eigenvalues --   -6.28749  -6.27297  -1.55815  -1.12666  -1.02186
  Beta  occ. eigenvalues --   -0.77889  -0.68502  -0.66334  -0.63750  -0.49604
  Beta  occ. eigenvalues --   -0.49389  -0.46128  -0.42909
  Beta virt. eigenvalues --   -0.04381   0.05640   0.07914   0.08404   0.09556
  Beta virt. eigenvalues --    0.11013   0.11424   0.12186   0.13221   0.13708
  Beta virt. eigenvalues --    0.15712   0.17631   0.18418   0.23886   0.26960

 Mulliken charges and spin densities:
               1          2
     1  S    0.568529   1.061879
     2  C    0.222611  -0.087527
     3  O   -0.765454  -0.003973
     4  Cl  -0.025687   0.029621
 Sum of Mulliken charges =  -0.00000   1.00000

 Dipole moment (field-independent basis, Debye):
    X=              1.3469    Y=             -1.4478    Z=              0.0000  Tot=              1.9774
                          Isotropic Fermi Contact Couplings
        Atom                 a.u.       MegaHertz       Gauss      10(-4) cm-1
     1  S(33)              0.22504      77.29371      27.58032      25.78240
     2  C(13)             -0.02391     -26.88069      -9.59170      -8.96643
     3  O(17)              0.00487      -2.95153      -1.05318      -0.98452
     4  Cl(35)             0.04296      18.83777       6.72179       6.28360
 --------------------------------------------------------
       Center         ----  Spin Dipole Couplings  ----
                      3XX-RR        3YY-RR        3ZZ-RR
 --------------------------------------------------------

 Normal termination of Gaussian 16 at Wed Apr  9 00:17:07 2025.
