 Gaussian 16, Revision C.01,

 ----------------------------------------------------------------------
 #t hf aug-cc-pvdz symm=none int=(grid=ultrafine) guess=(read,tcheck) s
 table=opt
 ----------------------------------------------------------------------
 -----
 title
 -----
 Symbolic Z-matrix:
 Charge =  0 Multiplicity = 2

 SCF Done:  E(UHF) =  -908.370336834     A.U. after   24 cycles
 Normal termination of Gaussian 16 at Tue Apr  8 23:17:50 2025.
 Gaussian 16:  ES64L-G16RevC.01  3-Jul-2019

 ----------------------------------------------------------------------
 #t hf aug-cc-pvdz iop(5/13=1,5/36=2,99/5=2) pseudo=read geom=check gue
 ss=(read,tcheck) scf=(maxcycle=1)
 ----------------------------------------------------------------------
 -----
 title
 -----
 Structure from the checkpoint file:  "BDE49_nonexpt_1060_mol2.chk"
 Charge =  0 Multiplicity = 2

                         Standard orientation:
 ---------------------------------------------------------------------
 Center     Atomic      Atomic             Coordinates (Angstroms)
 Number     Number       Type             X           Y           Z
 ---------------------------------------------------------------------
      1          8           0        0.133158    1.626403   -0.000181
      2          6           0        0.043336    0.424737    0.000774
      3         16           0        1.541420   -0.505388   -0.000321
      4         16           0       -1.483094   -0.504373    0.000138
      5          1           0       -2.258489    0.596536   -0.000276
 ---------------------------------------------------------------------

 SCF Done:  E(UHF) =  -908.587561327     A.U. after    2 cycles

 The electronic state is 2-A.
 Alpha  occ. eigenvalues --  -94.01565 -94.00219 -20.57425 -11.42257  -8.29762
 Alpha  occ. eigenvalues --   -8.28431  -6.28932  -6.27138  -6.26821  -6.26265
 Alpha  occ. eigenvalues --   -6.26102  -6.25883  -1.51952  -1.12175  -1.05414
 Alpha  occ. eigenvalues --   -0.77730  -0.68015  -0.65534  -0.60490  -0.55399
 Alpha  occ. eigenvalues --   -0.49312  -0.43423  -0.43083  -0.41888
 Alpha virt. eigenvalues --    0.03887   0.06689   0.07439   0.08855   0.09288
 Alpha virt. eigenvalues --    0.10948   0.12136   0.12780   0.13212   0.14567
 Alpha virt. eigenvalues --    0.14750   0.15534   0.17243   0.19568   0.23450

  Beta  occ. eigenvalues --  -94.00638 -94.00220 -20.57249 -11.42368  -8.28696
  Beta  occ. eigenvalues --   -8.28430  -6.26631  -6.26267  -6.26240  -6.26115
  Beta  occ. eigenvalues --   -6.25888  -6.24818  -1.51465  -1.10036  -0.99904
  Beta  occ. eigenvalues --   -0.75823  -0.66829  -0.63783  -0.60308  -0.54926
  Beta  occ. eigenvalues --   -0.42707  -0.42335  -0.40345
  Beta virt. eigenvalues --   -0.02867   0.03975   0.06884   0.07552   0.08756
  Beta virt. eigenvalues --    0.10007   0.11831   0.12219   0.13223   0.13310
  Beta virt. eigenvalues --    0.14781   0.14997   0.15734   0.17673   0.20297

 Mulliken charges and spin densities:
               1          2
     1  O   -0.993697   0.011704
     2  C    0.136211  -0.097318
     3  S    0.478874   1.089243
     4  S   -0.009821  -0.009790
     5  H    0.388433   0.006161
 Sum of Mulliken charges =  -0.00000   1.00000

 Dipole moment (field-independent basis, Debye):
    X=             -1.0058    Y=             -1.3090    Z=              0.0003  Tot=              1.6508
                          Isotropic Fermi Contact Couplings
        Atom                 a.u.       MegaHertz       Gauss      10(-4) cm-1
     1  O(17)              0.02259     -13.69229      -4.88575      -4.56726
     2  C(13)             -0.01966     -22.10273      -7.88680      -7.37268
     3  S(33)              0.20771      71.34179      25.45652      23.79706
     4  S(33)              0.01552       5.33189       1.90255       1.77853
     5  H(1)               0.00300      13.41094       4.78536       4.47341
 --------------------------------------------------------
       Center         ----  Spin Dipole Couplings  ----
                      3XX-RR        3YY-RR        3ZZ-RR

 Normal termination of Gaussian 16 at Tue Apr  8 23:17:51 2025.
