 Gaussian 16, Revision C.01,

 ----------------------------------------------------------------------
 #t hf aug-cc-pvdz symm=none int=(grid=ultrafine) guess=(read,tcheck) s
 table=(opt,rrhf)
 ----------------------------------------------------------------------
 -----
 title
 -----
 Symbolic Z-matrix:
 Charge =  0 Multiplicity = 1

 SCF Done:  E(RHF) =  -1137.68852468     A.U. after   17 cycles
 Normal termination of Gaussian 16 at Tue Apr  8 23:33:24 2025.
 Gaussian 16:  ES64L-G16RevC.01  3-Jul-2019

 ----------------------------------------------------------------------
 #t hf aug-cc-pvdz iop(5/13=1,5/36=2,99/5=2) pseudo=read geom=check gue
 ss=(read,tcheck) scf=(maxcycle=1)
 ----------------------------------------------------------------------
 -----
 title
 -----
 Structure from the checkpoint file:  "BDE49_nonexpt_1402_mol1.chk"
 Charge =  0 Multiplicity = 1

                         Standard orientation:
 ---------------------------------------------------------------------
 Center     Atomic      Atomic             Coordinates (Angstroms)
 Number     Number       Type             X           Y           Z
 ---------------------------------------------------------------------
      1          6           0        1.956531    1.384321   -0.077358
      2          6           0        3.160167    0.696417   -0.041456
      3          6           0        3.160162   -0.696441    0.041471
      4          6           0        1.956521   -1.384338    0.077351
      5          6           0        0.729801   -0.706443    0.030893
      6          6           0        0.729806    0.706433   -0.030922
      7          6           0       -0.487533    1.590166   -0.022466
      8         15           0       -2.136374    0.940423    0.604969
      9          1           0        4.095876   -1.242695    0.072642
     10          1           0        4.095885    1.242664   -0.072610
     11          1           0        1.932588   -2.465198    0.129854
     12          6           0       -0.487544   -1.590170    0.022415
     13         15           0       -2.136400   -0.940405   -0.604960
     14          8           0       -0.406294   -2.769427    0.291612
     15          8           0       -0.406254    2.769440   -0.291580
     16          1           0        1.932605    2.465181   -0.129862
     17          1           0       -2.886212    1.738650   -0.288750
     18          1           0       -2.886218   -1.738624    0.288782
 ---------------------------------------------------------------------

 SCF Done:  E(RHF) =  -1138.22371332     A.U. after    2 cycles

 The electronic state is 1-A.
 Alpha  occ. eigenvalues --  -84.30534 -84.30531 -20.56182 -20.56180 -11.37231
 Alpha  occ. eigenvalues --  -11.37212 -11.28833 -11.28763 -11.27541 -11.27466
 Alpha  occ. eigenvalues --  -11.27181 -11.27138  -6.77742  -6.77723  -4.30303
 Alpha  occ. eigenvalues --   -4.30273  -4.30255  -4.30023  -4.29454  -4.29265
 Alpha  occ. eigenvalues --   -1.49646  -1.49596  -1.19198  -1.07829  -1.05845
 Alpha  occ. eigenvalues --   -0.97707  -0.93623  -0.86915  -0.85713  -0.81265
 Alpha  occ. eigenvalues --   -0.74362  -0.71782  -0.69184  -0.66730  -0.65483
 Alpha  occ. eigenvalues --   -0.63760  -0.60439  -0.60382  -0.58239  -0.55876
 Alpha  occ. eigenvalues --   -0.55700  -0.53838  -0.52117  -0.49681  -0.46008
 Alpha  occ. eigenvalues --   -0.40262  -0.38504  -0.37930  -0.37166  -0.32739
 Alpha virt. eigenvalues --    0.02663   0.02808   0.03824   0.04156   0.04601
 Alpha virt. eigenvalues --    0.05233   0.05420   0.07201   0.07267   0.07615
 Alpha virt. eigenvalues --    0.08935   0.09809   0.10212   0.10515   0.10734

 Mulliken charges:
               1
     1  C   -0.130614
     2  C   -0.124077
     3  C   -0.124101
     4  C   -0.130518
     5  C    1.788857
     6  C    1.788873
     7  C    0.151618
     8  P   -0.260322
     9  H   -0.221210
    10  H   -0.221211
    11  H   -0.322925
    12  C    0.151647
    13  P   -0.260329
    14  O   -1.400694
    15  O   -1.400706
    16  H   -0.322929
    17  H    0.519319
    18  H    0.519322
 Sum of Mulliken charges =  -0.00000

 Dipole moment (field-independent basis, Debye):
    X=              1.1828    Y=             -0.0000    Z=             -0.0000  Tot=              1.1828

 Test job not archived.
 1\1\GINC-SE069\SP\RHF\Aug-CC-pVDZ\C8H6O2P2\OHZDE\08-Apr-2025\0\\#t hf
 aug-cc-pvdz iop(5/13=1,5/36=2,99/5=2) pseudo=read geom=check guess=(re
 ad,tcheck) scf=(maxcycle=1)\\title\\0,1\C,0,-1.956531,-1.384321,-0.077
 358\C,0,-3.160167,-0.696417,-0.041456\C,0,-3.160162,0.696441,0.041471\
 C,0,-1.956521,1.384338,0.077351\C,0,-0.729801,0.706443,0.030893\C,0,-0
 .729806,-0.706433,-0.030922\C,0,0.487533,-1.590166,-0.022466\P,0,2.136
 374,-0.940423,0.604969\H,0,-4.095876,1.242695,0.072642\H,0,-4.095885,-
 1.242664,-0.07261\H,0,-1.932588,2.465198,0.129854\C,0,0.487544,1.59017

 Normal termination of Gaussian 16 at Tue Apr  8 23:33:37 2025.
