 Gaussian 16, Revision C.01,

 ----------------------------------------------------------------------
 #t hf aug-cc-pvdz symm=none int=(grid=ultrafine) guess=(read,tcheck) s
 table=(opt,rrhf)
 ----------------------------------------------------------------------
 -----
 title
 -----
 Symbolic Z-matrix:
 Charge =  0 Multiplicity = 1

 SCF Done:  E(RHF) =  -1007.43106337     A.U. after   15 cycles
 Normal termination of Gaussian 16 at Tue Apr  8 23:27:29 2025.
 Gaussian 16:  ES64L-G16RevC.01  3-Jul-2019

 ----------------------------------------------------------------------
 #t hf aug-cc-pvdz iop(5/13=1,5/36=2,99/5=2) pseudo=read geom=check gue
 ss=(read,tcheck) scf=(maxcycle=1)
 ----------------------------------------------------------------------
 -----
 title
 -----
 Structure from the checkpoint file:  "BDE49_nonexpt_1304_mol1.chk"
 Charge =  0 Multiplicity = 1

                         Standard orientation:
 ---------------------------------------------------------------------
 Center     Atomic      Atomic             Coordinates (Angstroms)
 Number     Number       Type             X           Y           Z
 ---------------------------------------------------------------------
      1          6           0       -0.479218    0.586733   -0.208164
      2         15           0        1.165652   -0.209122    0.231231
      3          7           0       -1.648803   -0.403126    0.099004
      4          8           0        1.182554   -0.571471    1.644766
      5          8           0        1.352521   -1.294568   -0.899671
      6          8           0       -1.449548   -1.549266   -0.287024
      7          8           0       -2.629946    0.025595    0.645581
      8          9           0       -0.692345    1.693507    0.501856
      9          9           0       -0.595719    0.871545   -1.517811
     10          1           0        0.608073   -1.917539   -0.917170
     11          8           0        2.207375    0.878171   -0.267885
     12          1           0        2.613002    1.362704    0.462117
 ---------------------------------------------------------------------

 SCF Done:  E(RHF) =  -1008.10316228     A.U. after    2 cycles

 The electronic state is 1-A.
 Alpha  occ. eigenvalues --  -84.48597 -26.55546 -26.55502 -20.65188 -20.63952
 Alpha  occ. eigenvalues --  -20.63778 -20.63178 -20.54957 -15.83648 -11.53228
 Alpha  occ. eigenvalues --   -6.93824  -4.48063  -4.47378  -4.46604  -1.74456
 Alpha  occ. eigenvalues --   -1.71215  -1.66053  -1.58359  -1.56612  -1.51938
 Alpha  occ. eigenvalues --   -1.43632  -1.13484  -0.96905  -0.90797  -0.87199
 Alpha  occ. eigenvalues --   -0.84498  -0.83298  -0.79032  -0.77751  -0.74856
 Alpha  occ. eigenvalues --   -0.72801  -0.71821  -0.70572  -0.68011  -0.67366
 Alpha  occ. eigenvalues --   -0.64458  -0.60798  -0.59362  -0.56399  -0.54220
 Alpha  occ. eigenvalues --   -0.52509  -0.50331  -0.49622  -0.49168
 Alpha virt. eigenvalues --    0.01964   0.03132   0.04806   0.07066   0.08614
 Alpha virt. eigenvalues --    0.09343   0.10183   0.11232   0.11750   0.12745
 Alpha virt. eigenvalues --    0.14489   0.16078   0.16475   0.17572   0.19039

 Mulliken charges:
               1
     1  C    1.158864
     2  P    4.230131
     3  N    2.393819
     4  O   -1.498575
     5  O   -1.415239
     6  O   -1.428995
     7  O   -1.252110
     8  F   -0.806081
     9  F   -0.838667
    10  H    0.432104
    11  O   -1.321457
    12  H    0.346207
 Sum of Mulliken charges =  -0.00000

 Dipole moment (field-independent basis, Debye):
    X=              1.7985    Y=              1.4331    Z=             -1.5257  Tot=              2.7598

 Test job not archived.
 1\1\GINC-SE424\SP\RHF\Aug-CC-pVDZ\C1H2F2N1O5P1\OHZDE\08-Apr-2025\0\\#t
  hf aug-cc-pvdz iop(5/13=1,5/36=2,99/5=2) pseudo=read geom=check guess
 =(read,tcheck) scf=(maxcycle=1)\\title\\0,1\C,0,0.479218,0.586733,0.20
 8164\P,0,-1.165652,-0.209122,-0.231231\N,0,1.648803,-0.403126,-0.09900
 4\O,0,-1.182554,-0.571471,-1.644766\O,0,-1.352521,-1.294568,0.899671\O
 ,0,1.449548,-1.549266,0.287024\O,0,2.629946,0.025595,-0.645581\F,0,0.6
 92345,1.693507,-0.501856\F,0,0.595719,0.871545,1.517811\H,0,-0.608073,
 -1.917539,0.91717\O,0,-2.207375,0.878171,0.267885\H,0,-2.613002,1.3627

 Normal termination of Gaussian 16 at Tue Apr  8 23:27:37 2025.
