 Gaussian 16, Revision C.01,

 ----------------------------------------------------------------------
 #t hf aug-cc-pvdz symm=none int=(grid=ultrafine) guess=(read,tcheck) s
 table=(opt,rrhf)
 ----------------------------------------------------------------------
 -----
 title
 -----
 Symbolic Z-matrix:
 Charge =  0 Multiplicity = 1

 SCF Done:  E(RHF) =  -1880.02208123     A.U. after   12 cycles
 Normal termination of Gaussian 16 at Wed Apr  9 00:51:22 2025.
 Gaussian 16:  ES64L-G16RevC.01  3-Jul-2019

 ----------------------------------------------------------------------
 #t hf aug-cc-pvdz iop(5/13=1,5/36=2,99/5=2) pseudo=read geom=check gue
 ss=(read,tcheck) scf=(maxcycle=1)
 ----------------------------------------------------------------------
 -----
 title
 -----
 Structure from the checkpoint file:  "BDE49_nonexpt_924_mol1.chk"
 Charge =  0 Multiplicity = 1

                         Standard orientation:
 ---------------------------------------------------------------------
 Center     Atomic      Atomic             Coordinates (Angstroms)
 Number     Number       Type             X           Y           Z
 ---------------------------------------------------------------------
      1         17           0       -3.041492   -0.323956    0.000001
      2         17           0        1.801324   -2.471979   -0.000001
      3         17           0        1.240189    2.795953   -0.000002
      4          7           0       -1.339601   -0.142692    0.000005
      5          7           0        0.793350   -1.088774    0.000004
      6          7           0        0.546218    1.231452    0.000004
      7          6           0       -0.861111    1.181739    0.000003
      8          6           0       -0.592877   -1.336620    0.000000
      9          6           0        1.453964    0.154864    0.000002
     10          8           0       -1.563643    2.145896   -0.000004
     11          8           0       -1.076568   -2.427124   -0.000004
     12          8           0        2.640214    0.281215   -0.000004
 ---------------------------------------------------------------------

 SCF Done:  E(RHF) =  -1880.71987256     A.U. after    2 cycles

 The electronic state is 1-A.
 Alpha  occ. eigenvalues -- -105.65178-105.65177-105.65177 -20.58613 -20.58613
 Alpha  occ. eigenvalues --  -20.58609 -15.65576 -15.65527 -15.65527 -11.47746
 Alpha  occ. eigenvalues --  -11.47727 -11.47727 -10.69577 -10.69576 -10.69572
 Alpha  occ. eigenvalues --   -7.86586  -7.86586  -7.86573  -7.86010  -7.86010
 Alpha  occ. eigenvalues --   -7.86008  -7.85977  -7.85976  -7.85976  -1.56595
 Alpha  occ. eigenvalues --   -1.54992  -1.54992  -1.39289  -1.32795  -1.32795
 Alpha  occ. eigenvalues --   -1.12980  -1.09136  -1.09136  -0.97929  -0.97929
 Alpha  occ. eigenvalues --   -0.91784  -0.78381  -0.77992  -0.73674  -0.71404
 Alpha  occ. eigenvalues --   -0.71404  -0.69339  -0.69339  -0.68710  -0.68709
 Alpha  occ. eigenvalues --   -0.57034  -0.57033  -0.54939  -0.54939  -0.54075
 Alpha  occ. eigenvalues --   -0.52837  -0.52310  -0.52309  -0.48373  -0.48198
 Alpha  occ. eigenvalues --   -0.46681  -0.46680
 Alpha virt. eigenvalues --    0.02019   0.04793   0.05800   0.05800   0.08292
 Alpha virt. eigenvalues --    0.08991   0.08991   0.09301   0.09301   0.09423
 Alpha virt. eigenvalues --    0.10229   0.10229   0.10542   0.10542   0.13034

 Mulliken charges:
               1
     1  Cl   0.278740
     2  Cl   0.278736
     3  Cl   0.278736
     4  N    0.671002
     5  N    0.671014
     6  N    0.671018
     7  C    0.127248
     8  C    0.127261
     9  C    0.127226
    10  O   -1.076994
    11  O   -1.076995
    12  O   -1.076992
 Sum of Mulliken charges =  -0.00000

 Dipole moment (field-independent basis, Debye):
    X=             -0.0000    Y=              0.0000    Z=              0.0000  Tot=              0.0000

 Test job not archived.
 1\1\GINC-SE143\SP\RHF\Aug-CC-pVDZ\C3Cl3N3O3\OHZDE\09-Apr-2025\0\\#t hf
  aug-cc-pvdz iop(5/13=1,5/36=2,99/5=2) pseudo=read geom=check guess=(r
 ead,tcheck) scf=(maxcycle=1)\\title\\0,1\Cl,0,3.043244,-0.307059,-0.00
 0001\Cl,0,-1.787567,-2.481945,0.000001\Cl,0,-1.255698,2.789022,0.00000
 2\N,0,1.340373,-0.13525,-0.000005\N,0,-0.787291,-1.093164,-0.000004\N,
 0,-0.553049,1.228399,-0.000004\C,0,0.854534,1.186503,-0.000003\C,0,0.6
 00291,-1.333307,0.\C,0,-1.454802,0.146786,-0.000002\O,0,1.551701,2.154
 547,0.000004\O,0,1.090031,-2.421107,0.000004\O,0,-2.641735,0.266547,0.

 Normal termination of Gaussian 16 at Wed Apr  9 00:51:34 2025.
