 Gaussian 16, Revision C.01,

 ----------------------------------------------------------------------
 #t hf aug-cc-pvdz symm=none int=(grid=ultrafine) guess=(read,tcheck) s
 table=opt
 ----------------------------------------------------------------------
 -----
 title
 -----
 Symbolic Z-matrix:
 Charge =  0 Multiplicity = 2

 SCF Done:  E(UHF) =  -110.598968496     A.U. after   17 cycles
 Normal termination of Gaussian 16 at Tue Apr  8 22:39:23 2025.
 Gaussian 16:  ES64L-G16RevC.01  3-Jul-2019

 ----------------------------------------------------------------------
 #t hf aug-cc-pvdz iop(5/13=1,5/36=2,99/5=2) pseudo=read geom=check gue
 ss=(read,tcheck) scf=(maxcycle=1)
 ----------------------------------------------------------------------
 -----
 title
 -----
 Structure from the checkpoint file:  "BDE49_expt_1300_mol3.chk"
 Charge =  0 Multiplicity = 2

                         Standard orientation:
 ---------------------------------------------------------------------
 Center     Atomic      Atomic             Coordinates (Angstroms)
 Number     Number       Type             X           Y           Z
 ---------------------------------------------------------------------
      1          7           0        0.741898   -0.150822    0.025775
      2          7           0       -0.597009    0.024649   -0.075750
      3          1           0       -1.029962    0.893888    0.221091
      4          1           0       -1.128031   -0.800754    0.162843
      5          1           0        1.143770    0.790076   -0.034111
 ---------------------------------------------------------------------

 SCF Done:  E(UHF) =  -110.712549098     A.U. after    2 cycles

 The electronic state is 2-A.
 Alpha  occ. eigenvalues --  -15.54256 -15.53626  -1.30562  -1.03392  -0.77270
 Alpha  occ. eigenvalues --   -0.69482  -0.64522  -0.52623  -0.41604
 Alpha virt. eigenvalues --    0.03089   0.05914   0.06149   0.14434   0.15966
 Alpha virt. eigenvalues --    0.16970   0.17786   0.18592   0.19511   0.21294
 Alpha virt. eigenvalues --    0.26395   0.28805   0.29890   0.35512   0.38351

  Beta  occ. eigenvalues --  -15.53341 -15.50495  -1.25599  -0.96133  -0.76007
  Beta  occ. eigenvalues --   -0.67369  -0.49970  -0.47576
  Beta virt. eigenvalues --    0.03165   0.05988   0.06157   0.09829   0.14628
  Beta virt. eigenvalues --    0.16290   0.17065   0.18011   0.19964   0.21313
  Beta virt. eigenvalues --    0.23283   0.26591   0.29181   0.30214   0.35765

 Mulliken charges and spin densities:
               1          2
     1  N   -0.058833   0.955254
     2  N   -0.191747   0.151522
     3  H    0.097696  -0.013125
     4  H    0.062267  -0.021950
     5  H    0.090617  -0.071702
 Sum of Mulliken charges =  -0.00000   1.00000

 Dipole moment (field-independent basis, Debye):
    X=             -1.5392    Y=              1.6730    Z=              0.7764  Tot=              2.4023
                          Isotropic Fermi Contact Couplings
        Atom                 a.u.       MegaHertz       Gauss      10(-4) cm-1
     1  N(14)              0.29298      94.66468      33.77871      31.57674
     2  N(14)              0.08670      28.01345       9.99590       9.34428
     3  H(1)              -0.00017      -0.74006      -0.26407      -0.24686
     4  H(1)              -0.00357     -15.95374      -5.69269      -5.32159
     5  H(1)              -0.02032     -90.83360     -32.41169     -30.29883
 --------------------------------------------------------
       Center         ----  Spin Dipole Couplings  ----
                      3XX-RR        3YY-RR        3ZZ-RR

 Normal termination of Gaussian 16 at Tue Apr  8 22:39:24 2025.
