 Gaussian 16, Revision C.01,

 ----------------------------------------------------------------------
 #t hf aug-cc-pvdz symm=none int=(grid=ultrafine) guess=(read,tcheck) s
 table=(opt,rrhf)
 ----------------------------------------------------------------------
 -----
 title
 -----
 Symbolic Z-matrix:
 Charge =  0 Multiplicity = 1

 SCF Done:  E(RHF) =  -796.757204086     A.U. after   15 cycles
 Normal termination of Gaussian 16 at Tue Apr  8 23:29:19 2025.
 Gaussian 16:  ES64L-G16RevC.01  3-Jul-2019

 ----------------------------------------------------------------------
 #t hf aug-cc-pvdz iop(5/13=1,5/36=2,99/5=2) pseudo=read geom=check gue
 ss=(read,tcheck) scf=(maxcycle=1)
 ----------------------------------------------------------------------
 -----
 title
 -----
 Structure from the checkpoint file:  "BDE49_nonexpt_1322_mol1.chk"
 Charge =  0 Multiplicity = 1

                         Standard orientation:
 ---------------------------------------------------------------------
 Center     Atomic      Atomic             Coordinates (Angstroms)
 Number     Number       Type             X           Y           Z
 ---------------------------------------------------------------------
      1          6           0        2.392166   -1.229546    0.039068
      2          6           0        1.002253   -1.196780    0.024576
      3          6           0        3.119961   -0.039019    0.018412
      4          6           0        2.458282    1.185982   -0.017609
      5          6           0        1.065885    1.225236   -0.033645
      6          6           0        0.334547    0.033669   -0.013957
      7          1           0        0.534325    2.168599   -0.063614
      8          1           0        4.203801   -0.068715    0.030331
      9          1           0        3.024087    2.110368   -0.034292
     10          1           0        2.909423   -2.181787    0.066762
     11          1           0        0.435731   -2.120079    0.041231
     12         15           0       -1.456757    0.135447   -0.016109
     13          8           0       -2.001026    1.499339    0.027658
     14          8           0       -1.984047   -0.803613    1.192397
     15          1           0       -2.210121   -0.272849    1.965583
     16          8           0       -1.828012   -0.783210   -1.275067
     17          1           0       -2.779768   -0.844618   -1.425343
 ---------------------------------------------------------------------

 SCF Done:  E(RHF) =  -797.261195045     A.U. after    2 cycles

 The electronic state is 1-A.
 Alpha  occ. eigenvalues --  -84.42731 -20.59176 -20.58907 -20.50005 -11.26537
 Alpha  occ. eigenvalues --  -11.26293 -11.26251 -11.25807 -11.25623 -11.25486
 Alpha  occ. eigenvalues --   -6.87986  -4.42143  -4.41374  -4.41054  -1.53138
 Alpha  occ. eigenvalues --   -1.46965  -1.38564  -1.17126  -1.04218  -1.03326
 Alpha  occ. eigenvalues --   -0.88901  -0.85162  -0.81792  -0.74040  -0.72746
 Alpha  occ. eigenvalues --   -0.67946  -0.65867  -0.64920  -0.63421  -0.61562
 Alpha  occ. eigenvalues --   -0.60580  -0.56675  -0.55313  -0.53818  -0.52508
 Alpha  occ. eigenvalues --   -0.51938  -0.49506  -0.45471  -0.44924  -0.36688
 Alpha  occ. eigenvalues --   -0.35982
 Alpha virt. eigenvalues --    0.03109   0.03533   0.03869   0.05008   0.05125
 Alpha virt. eigenvalues --    0.06307   0.07736   0.07888   0.08995   0.09512
 Alpha virt. eigenvalues --    0.10266   0.11142   0.12969   0.13196   0.13633

 Mulliken charges:
               1
     1  C    0.436087
     2  C    0.135115
     3  C    0.277172
     4  C    0.315608
     5  C   -0.208313
     6  C   -0.349392
     7  H   -0.338113
     8  H   -0.214501
     9  H   -0.212294
    10  H   -0.218171
    11  H   -0.363752
    12  P    4.210553
    13  O   -1.469125
    14  O   -1.278673
    15  H    0.277618
    16  O   -1.360575
    17  H    0.360757
 Sum of Mulliken charges =  -0.00000

 Dipole moment (field-independent basis, Debye):
    X=              1.5060    Y=             -2.0182    Z=              0.7905  Tot=              2.6393

 Test job not archived.
 1\1\GINC-SE344\SP\RHF\Aug-CC-pVDZ\C6H7O3P1\OHZDE\08-Apr-2025\0\\#t hf
 aug-cc-pvdz iop(5/13=1,5/36=2,99/5=2) pseudo=read geom=check guess=(re
 ad,tcheck) scf=(maxcycle=1)\\title\\0,1\C,0,2.392166,-1.229546,0.03906
 8\C,0,1.002253,-1.19678,0.024576\C,0,3.119961,-0.039019,0.018412\C,0,2
 .458282,1.185982,-0.017609\C,0,1.065885,1.225236,-0.033645\C,0,0.33454
 7,0.033669,-0.013957\H,0,0.534325,2.168599,-0.063614\H,0,4.203801,-0.0
 68715,0.030331\H,0,3.024087,2.110368,-0.034292\H,0,2.909423,-2.181787,
 0.066762\H,0,0.435731,-2.120079,0.041231\P,0,-1.456757,0.135447,-0.016

 Normal termination of Gaussian 16 at Tue Apr  8 23:29:29 2025.
