 Gaussian 16, Revision C.01,

 ----------------------------------------------------------------------
 #t hf aug-cc-pvdz symm=none int=(grid=ultrafine) guess=(read,tcheck) s
 table=(opt,rrhf)
 ----------------------------------------------------------------------
 -----
 title
 -----
 Symbolic Z-matrix:
 Charge =  0 Multiplicity = 1

 SCF Done:  E(RHF) =  -432.150146607     A.U. after   16 cycles
 Normal termination of Gaussian 16 at Tue Apr  8 22:39:40 2025.
 Gaussian 16:  ES64L-G16RevC.01  3-Jul-2019

 ----------------------------------------------------------------------
 #t hf aug-cc-pvdz iop(5/13=1,5/36=2,99/5=2) pseudo=read geom=check gue
 ss=(read,tcheck) scf=(maxcycle=1)
 ----------------------------------------------------------------------
 -----
 title
 -----
 Structure from the checkpoint file:  "BDE49_expt_1274_mol1.chk"
 Charge =  0 Multiplicity = 1

                         Standard orientation:
 ---------------------------------------------------------------------
 Center     Atomic      Atomic             Coordinates (Angstroms)
 Number     Number       Type             X           Y           Z
 ---------------------------------------------------------------------
      1          8           0        0.698917   -1.071050   -0.000045
      2          6           0        2.008754   -0.716127    0.000004
      3          6           0        0.002958    0.085568   -0.000069
      4          6           0        2.143889    0.641181    0.000021
      5          6           0        0.822570    1.173561   -0.000029
      6          1           0        3.070155    1.192521    0.000061
      7          1           0        2.710654   -1.532623    0.000024
      8          1           0        0.507454    2.202931   -0.000036
      9          7           0       -1.430548   -0.002895   -0.000126
     10          8           0       -2.030793    1.068079    0.000115
     11          8           0       -1.936056   -1.115487    0.000090
 ---------------------------------------------------------------------

 SCF Done:  E(RHF) =  -432.569870863     A.U. after    2 cycles

 The electronic state is 1-A.
 Alpha  occ. eigenvalues --  -20.65751 -20.59879 -20.59252 -15.80563 -11.36874
 Alpha  occ. eigenvalues --  -11.34732 -11.29797 -11.27919  -1.67745  -1.59770
 Alpha  occ. eigenvalues --   -1.51335  -1.15728  -1.12871  -0.98581  -0.86561
 Alpha  occ. eigenvalues --   -0.83613  -0.81210  -0.76345  -0.74997  -0.71766
 Alpha  occ. eigenvalues --   -0.67159  -0.63854  -0.62209  -0.60111  -0.50919
 Alpha  occ. eigenvalues --   -0.49466  -0.45773  -0.44261  -0.37593
 Alpha virt. eigenvalues --    0.01756   0.02543   0.03358   0.04422   0.08737
 Alpha virt. eigenvalues --    0.08815   0.10316   0.10524   0.11106   0.13192
 Alpha virt. eigenvalues --    0.13419   0.13800   0.14355   0.14636   0.15123

 Mulliken charges:
               1
     1  O   -1.291933
     2  C    0.571782
     3  C    0.299126
     4  C    0.548013
     5  C    0.202769
     6  H   -0.112383
     7  H   -0.119226
     8  H   -0.097615
     9  N    2.793193
    10  O   -1.444706
    11  O   -1.349020
 Sum of Mulliken charges =  -0.00000

 Dipole moment (field-independent basis, Debye):
    X=              5.2272    Y=              0.9036    Z=             -0.0003  Tot=              5.3048

 Test job not archived.
 1\1\GINC-SE165\SP\RHF\Aug-CC-pVDZ\C4H3N1O3\OHZDE\08-Apr-2025\0\\#t hf
 aug-cc-pvdz iop(5/13=1,5/36=2,99/5=2) pseudo=read geom=check guess=(re
 ad,tcheck) scf=(maxcycle=1)\\title\\0,1\O,0,0.698917,-1.07105,-0.00004
 5\C,0,2.008754,-0.716127,0.000004\C,0,0.002958,0.085568,-0.000069\C,0,
 2.143889,0.641181,0.000021\C,0,0.82257,1.173561,-0.000029\H,0,3.070155
 ,1.192521,0.000061\H,0,2.710654,-1.532623,0.000024\H,0,0.507454,2.2029
 31,-0.000036\N,0,-1.430548,-0.002895,-0.000126\O,0,-2.030793,1.068079,
 0.000115\O,0,-1.936056,-1.115487,0.00009\\Version=ES64L-G16RevC.01\Sta

 Normal termination of Gaussian 16 at Tue Apr  8 22:39:45 2025.
