 Gaussian 16, Revision C.01,

 ----------------------------------------------------------------------
 #t hf aug-cc-pvdz symm=none int=(grid=ultrafine) guess=(read,tcheck) s
 table=(opt,rrhf)
 ----------------------------------------------------------------------
 -----
 title
 -----
 Symbolic Z-matrix:
 Charge =  0 Multiplicity = 1

 SCF Done:  E(RHF) =  -306.634828347     A.U. after   15 cycles
 Normal termination of Gaussian 16 at Tue Apr  8 23:21:54 2025.
 Gaussian 16:  ES64L-G16RevC.01  3-Jul-2019

 ----------------------------------------------------------------------
 #t hf aug-cc-pvdz iop(5/13=1,5/36=2,99/5=2) pseudo=read geom=check gue
 ss=(read,tcheck) scf=(maxcycle=1)
 ----------------------------------------------------------------------
 -----
 title
 -----
 Structure from the checkpoint file:  "BDE49_nonexpt_1184_mol1.chk"
 Charge =  0 Multiplicity = 1

                         Standard orientation:
 ---------------------------------------------------------------------
 Center     Atomic      Atomic             Coordinates (Angstroms)
 Number     Number       Type             X           Y           Z
 ---------------------------------------------------------------------
      1          8           0       -1.229643    0.742825   -0.000121
      2          9           0       -1.902849   -0.715104    0.000254
      3          7           0        0.028005    0.701793   -0.000127
      4          6           0        0.795445   -0.311481   -0.000082
      5          6           0        2.279648   -0.149823    0.000015
      6          1           0        2.557236    0.904158    0.000053
      7          1           0        2.715291   -0.631334   -0.880609
      8          1           0        2.715191   -0.631373    0.880668
      9          1           0        0.328467   -1.292843   -0.000138
 ---------------------------------------------------------------------

 SCF Done:  E(RHF) =  -306.935820295     A.U. after    2 cycles

 The electronic state is 1-A.
 Alpha  occ. eigenvalues --  -26.45332 -20.74401 -15.62206 -11.32847 -11.27143
 Alpha  occ. eigenvalues --   -1.64912  -1.45815  -1.21466  -1.01531  -0.85362
 Alpha  occ. eigenvalues --   -0.77768  -0.73026  -0.70488  -0.61573  -0.60424
 Alpha  occ. eigenvalues --   -0.58251  -0.57638  -0.57316  -0.48732  -0.44431
 Alpha virt. eigenvalues --    0.02983   0.04623   0.04723   0.05356   0.07577
 Alpha virt. eigenvalues --    0.08870   0.09605   0.12289   0.13713   0.14668
 Alpha virt. eigenvalues --    0.15131   0.15263   0.17110   0.17422   0.19001

 Mulliken charges:
               1
     1  O   -0.764535
     2  F   -0.375722
     3  N    1.315066
     4  C   -0.320106
     5  C   -0.556029
     6  H    0.189830
     7  H    0.239488
     8  H    0.239478
     9  H    0.032529
 Sum of Mulliken charges =  -0.00000

 Dipole moment (field-independent basis, Debye):
    X=              3.8657    Y=             -1.0201    Z=             -0.0003  Tot=              3.9981

 Test job not archived.
 1\1\GINC-SE163\SP\RHF\Aug-CC-pVDZ\C2H4F1N1O1\OHZDE\08-Apr-2025\0\\#t h
 f aug-cc-pvdz iop(5/13=1,5/36=2,99/5=2) pseudo=read geom=check guess=(
 read,tcheck) scf=(maxcycle=1)\\title\\0,1\O,0,-1.229643,0.742825,-0.00
 0121\F,0,-1.902849,-0.715104,0.000254\N,0,0.028005,0.701793,-0.000127\
 C,0,0.795445,-0.311481,-0.000082\C,0,2.279648,-0.149823,0.000015\H,0,2
 .557236,0.904158,0.000053\H,0,2.715291,-0.631334,-0.880609\H,0,2.71519
 1,-0.631373,0.880668\H,0,0.328467,-1.292843,-0.000138\\Version=ES64L-G
 16RevC.01\State=1-A\HF=-306.9358203\RMSD=1.599e-02\Dipole=1.5209,-0.40

 Normal termination of Gaussian 16 at Tue Apr  8 23:21:57 2025.
