 Gaussian 16, Revision C.01,

 ----------------------------------------------------------------------
 #t hf aug-cc-pvdz symm=none int=(grid=ultrafine) guess=(read,tcheck) s
 table=opt
 ----------------------------------------------------------------------
 -----
 title
 -----
 Symbolic Z-matrix:
 Charge =  0 Multiplicity = 2

 SCF Done:  E(UHF) =  -943.718570903     A.U. after   14 cycles
 Normal termination of Gaussian 16 at Tue Apr  8 23:26:56 2025.
 Gaussian 16:  ES64L-G16RevC.01  3-Jul-2019

 ----------------------------------------------------------------------
 #t hf aug-cc-pvdz iop(5/13=1,5/36=2,99/5=2) pseudo=read geom=check gue
 ss=(read,tcheck) scf=(maxcycle=1)
 ----------------------------------------------------------------------
 -----
 title
 -----
 Structure from the checkpoint file:  "BDE49_nonexpt_12_mol2.chk"
 Charge =  0 Multiplicity = 2

                         Standard orientation:
 ---------------------------------------------------------------------
 Center     Atomic      Atomic             Coordinates (Angstroms)
 Number     Number       Type             X           Y           Z
 ---------------------------------------------------------------------
      1          5           0        0.000000   -0.000000    0.693571
      2         17           0        0.000000    1.542548   -0.101996
      3         17           0       -0.000000   -1.542548   -0.101996
 ---------------------------------------------------------------------

 SCF Done:  E(UHF) =  -943.888862714     A.U. after    2 cycles

 The electronic state is 2-A1.
 Alpha  occ. eigenvalues -- -105.59562-105.59562 -10.64620 -10.64600  -7.81590
 Alpha  occ. eigenvalues --   -7.81581  -7.81178  -7.81173  -7.81142  -7.81139
 Alpha  occ. eigenvalues --   -7.74420  -1.12918  -1.08297  -0.71202  -0.61112
 Alpha  occ. eigenvalues --   -0.57342  -0.54449  -0.49283  -0.48897  -0.37523
 Alpha virt. eigenvalues --    0.03997   0.05383   0.05492   0.05664   0.06755
 Alpha virt. eigenvalues --    0.12931   0.13046   0.14945   0.16318   0.17957
 Alpha virt. eigenvalues --    0.18308   0.21716   0.22013   0.24799   0.26018

  Beta  occ. eigenvalues -- -105.59466-105.59466 -10.64507 -10.64487  -7.81356
  Beta  occ. eigenvalues --   -7.81337  -7.81146  -7.81142  -7.80959  -7.80944
  Beta  occ. eigenvalues --   -7.72192  -1.11666  -1.07440  -0.68060  -0.59431
  Beta  occ. eigenvalues --   -0.54120  -0.53161  -0.49519  -0.48114
  Beta virt. eigenvalues --    0.02999   0.05118   0.05564   0.05594   0.09466
  Beta virt. eigenvalues --    0.10094   0.13132   0.13300   0.14959   0.16541
  Beta virt. eigenvalues --    0.18062   0.18422   0.22502   0.23090   0.25221

 Mulliken charges and spin densities:
               1          2
     1  B    0.304433   0.970194
     2  Cl  -0.152216   0.014903
     3  Cl  -0.152216   0.014903
 Sum of Mulliken charges =  -0.00000   1.00000

 Dipole moment (field-independent basis, Debye):
    X=              0.0000    Y=              0.0000    Z=              0.0781  Tot=              0.0781
                          Isotropic Fermi Contact Couplings
        Atom                 a.u.       MegaHertz       Gauss      10(-4) cm-1
     1  B(11)              0.41019     588.35941     209.94127     196.25557
     2  Cl(35)             0.09913      43.46525      15.50948      14.49845
     3  Cl(35)             0.09913      43.46525      15.50948      14.49845
 --------------------------------------------------------
       Center         ----  Spin Dipole Couplings  ----
                      3XX-RR        3YY-RR        3ZZ-RR
 --------------------------------------------------------
     1   Atom       -0.182292     -0.210186      0.392478

 Normal termination of Gaussian 16 at Tue Apr  8 23:26:58 2025.
