 Gaussian 16, Revision C.01,

 ----------------------------------------------------------------------
 #t hf aug-cc-pvdz symm=none int=(grid=ultrafine) guess=(read,tcheck) s
 table=(opt,rrhf)
 ----------------------------------------------------------------------
 -----
 title
 -----
 Symbolic Z-matrix:
 Charge =  0 Multiplicity = 1

 SCF Done:  E(RHF) =  -977.084152271     A.U. after   12 cycles

 1\1\GINC-SE461\Stability\RHF\Aug-CC-pVDZ\F4H2Si2\OHZDE\09-Apr-2025\0\\
 #t hf aug-cc-pvdz symm=none int=(grid=ultrafine) guess=(read,tcheck) s
 table=(opt,rrhf)\\title\\0,1\Si,0,1.513723,0.58826,0.\Si,0,-0.756409,-
 0.015574,0.\F,0,-1.656677,1.297267,-0.000001\F,0,2.39825,-0.759212,0.0
 00001\F,0,-1.162779,-0.865803,1.279706\H,0,1.82673,1.362188,1.217\F,0,
 -1.162779,-0.865805,-1.279705\H,0,1.82673,1.362186,-1.217002\\Version=
 ES64L-G16RevC.01\HF=-977.0841523\RMSD=1.881e-09\Dipole=0.5414644,0.693
 2792,0.0000004\Quadrupole=-1.3014619,0.4819337,0.8195282,2.6438935,-0.

 Normal termination of Gaussian 16 at Wed Apr  9 00:08:33 2025.
 Gaussian 16:  ES64L-G16RevC.01  3-Jul-2019

 ----------------------------------------------------------------------
 #t hf aug-cc-pvdz iop(5/13=1,5/36=2,99/5=2) pseudo=read geom=check gue
 ss=(read,tcheck) scf=(maxcycle=1)
 ----------------------------------------------------------------------
 -----
 title
 -----
 Structure from the checkpoint file:  "BDE49_nonexpt_2309_mol1.chk"
 Charge =  0 Multiplicity = 1

                         Standard orientation:
 ---------------------------------------------------------------------
 Center     Atomic      Atomic             Coordinates (Angstroms)
 Number     Number       Type             X           Y           Z
 ---------------------------------------------------------------------
      1         14           0        1.513723    0.588260   -0.000000
      2         14           0       -0.756409   -0.015574   -0.000000
      3          9           0       -1.656677    1.297267   -0.000001
      4          9           0        2.398250   -0.759212    0.000001
      5          9           0       -1.162779   -0.865803    1.279706
      6          1           0        1.826730    1.362188    1.217000
      7          9           0       -1.162779   -0.865805   -1.279705
      8          1           0        1.826730    1.362186   -1.217002
 ---------------------------------------------------------------------

 SCF Done:  E(RHF) =  -977.508260726     A.U. after    2 cycles

 The electronic state is 1-A.
 Alpha  occ. eigenvalues --  -69.68248 -69.61310 -26.48862 -26.48752 -26.48751
 Alpha  occ. eigenvalues --  -26.47398  -6.34133  -6.27947  -4.09416  -4.09413
 Alpha  occ. eigenvalues --   -4.09124  -4.03373  -4.03173  -4.03149  -1.62572
 Alpha  occ. eigenvalues --   -1.59231  -1.59174  -1.58437  -0.83784  -0.79206
 Alpha  occ. eigenvalues --   -0.73534  -0.73486  -0.71242  -0.67527  -0.67515
 Alpha  occ. eigenvalues --   -0.66651  -0.66586  -0.64706  -0.64608  -0.64262
 Alpha  occ. eigenvalues --   -0.62975  -0.52157  -0.47330
 Alpha virt. eigenvalues --    0.03595   0.04244   0.04895   0.05607   0.07128
 Alpha virt. eigenvalues --    0.07657   0.07985   0.08777   0.10920   0.12759
 Alpha virt. eigenvalues --    0.13183   0.16268   0.17121   0.18459   0.21332

 Mulliken charges:
               1
     1  Si   0.966356
     2  Si   2.588488
     3  F   -0.799576
     4  F   -0.823726
     5  F   -0.821822
     6  H   -0.143948
     7  F   -0.821822
     8  H   -0.143949
 Sum of Mulliken charges =  -0.00000

 Dipole moment (field-independent basis, Debye):
    X=              1.3007    Y=              1.6087    Z=              0.0000  Tot=              2.0688

 Test job not archived.
 1\1\GINC-SE461\SP\RHF\Aug-CC-pVDZ\F4H2Si2\OHZDE\09-Apr-2025\0\\#t hf a
 ug-cc-pvdz iop(5/13=1,5/36=2,99/5=2) pseudo=read geom=check guess=(rea
 d,tcheck) scf=(maxcycle=1)\\title\\0,1\Si,0,1.513723,0.58826,0.\Si,0,-
 0.756409,-0.015574,0.\F,0,-1.656677,1.297267,-0.000001\F,0,2.39825,-0.
 759212,0.000001\F,0,-1.162779,-0.865803,1.279706\H,0,1.82673,1.362188,
 1.217\F,0,-1.162779,-0.865805,-1.279705\H,0,1.82673,1.362186,-1.217002
 \\Version=ES64L-G16RevC.01\State=1-A\HF=-977.5082607\RMSD=2.674e-03\Di
 pole=0.5117499,0.6329228,0.0000004\Quadrupole=-1.1220748,0.4046395,0.7

 Normal termination of Gaussian 16 at Wed Apr  9 00:08:36 2025.
