 Gaussian 16, Revision C.01,

 ----------------------------------------------------------------------
 #t hf aug-cc-pvdz symm=none int=(grid=ultrafine) guess=(read,tcheck) s
 table=(opt,rrhf)
 ----------------------------------------------------------------------
 -----
 title
 -----
 Symbolic Z-matrix:
 Charge =  0 Multiplicity = 1

 SCF Done:  E(RHF) =  -390.967814527     A.U. after   13 cycles
 Normal termination of Gaussian 16 at Wed Apr  9 00:33:16 2025.
 Gaussian 16:  ES64L-G16RevC.01  3-Jul-2019

 ----------------------------------------------------------------------
 #t hf aug-cc-pvdz iop(5/13=1,5/36=2,99/5=2) pseudo=read geom=check gue
 ss=(read,tcheck) scf=(maxcycle=1)
 ----------------------------------------------------------------------
 -----
 title
 -----
 Structure from the checkpoint file:  "BDE49_nonexpt_410_mol1.chk"
 Charge =  0 Multiplicity = 1

                         Standard orientation:
 ---------------------------------------------------------------------
 Center     Atomic      Atomic             Coordinates (Angstroms)
 Number     Number       Type             X           Y           Z
 ---------------------------------------------------------------------
      1          9           0        1.227483    1.284298   -0.000016
      2          5           0        0.948325   -0.011407    0.000081
      3          6           0       -1.543052   -0.152127   -0.000002
      4          8           0       -2.680947    0.077025   -0.000010
      5          7           0       -0.384549   -0.490166    0.000030
      6          9           0        1.956529   -0.863769   -0.000042
 ---------------------------------------------------------------------

 SCF Done:  E(RHF) =  -391.328340014     A.U. after    2 cycles

 The electronic state is 1-A.
 Alpha  occ. eigenvalues --  -26.49813 -26.49588 -20.63696 -15.54858 -11.45732
 Alpha  occ. eigenvalues --   -7.77421  -1.65080  -1.61176  -1.58509  -1.30554
 Alpha  occ. eigenvalues --   -0.92981  -0.81048  -0.77383  -0.76712  -0.72484
 Alpha  occ. eigenvalues --   -0.68879  -0.68500  -0.67004  -0.65182  -0.64150
 Alpha  occ. eigenvalues --   -0.51855  -0.51476
 Alpha virt. eigenvalues --    0.04010   0.05048   0.05552   0.05640   0.09604
 Alpha virt. eigenvalues --    0.09854   0.09923   0.11401   0.13370   0.16204
 Alpha virt. eigenvalues --    0.18159   0.19981   0.20567   0.23014   0.23864

 Mulliken charges:
               1
     1  F   -0.562094
     2  B    1.386319
     3  C   -0.013580
     4  O   -0.744127
     5  N    0.572384
     6  F   -0.638902
 Sum of Mulliken charges =  -0.00000

 Dipole moment (field-independent basis, Debye):
    X=             -0.3146    Y=              0.1891    Z=              0.0004  Tot=              0.3670

 Test job not archived.
 1\1\GINC-SE092\SP\RHF\Aug-CC-pVDZ\C1B1F2N1O1\OHZDE\09-Apr-2025\0\\#t h
 f aug-cc-pvdz iop(5/13=1,5/36=2,99/5=2) pseudo=read geom=check guess=(
 read,tcheck) scf=(maxcycle=1)\\title\\0,1\F,0,-1.227483,1.284298,0.000
 016\B,0,-0.948325,-0.011407,-0.000081\C,0,1.543052,-0.152127,0.000002\
 O,0,2.680947,0.077025,0.00001\N,0,0.384549,-0.490166,-0.00003\F,0,-1.9
 56529,-0.863769,0.000042\\Version=ES64L-G16RevC.01\State=1-A\HF=-391.3
 2834\RMSD=1.223e-02\Dipole=0.1237578,0.0744096,-0.0001513\Quadrupole=-
 2.6934887,-0.2774233,2.970912,-0.4421734,0.0004117,-0.0000169\PG=C01 [

 Normal termination of Gaussian 16 at Wed Apr  9 00:33:19 2025.
