 Gaussian 16, Revision C.01,

 ----------------------------------------------------------------------
 #t hf aug-cc-pvdz symm=none int=(grid=ultrafine) guess=(read,tcheck) s
 table=(opt,rrhf)
 ----------------------------------------------------------------------
 -----
 title
 -----
 Symbolic Z-matrix:
 Charge =  0 Multiplicity = 1

 SCF Done:  E(RHF) =  -1309.69150239     A.U. after   12 cycles
 Normal termination of Gaussian 16 at Tue Apr  8 23:04:53 2025.
 Gaussian 16:  ES64L-G16RevC.01  3-Jul-2019

 ----------------------------------------------------------------------
 #t hf aug-cc-pvdz iop(5/13=1,5/36=2,99/5=2) pseudo=read geom=check gue
 ss=(read,tcheck) scf=(maxcycle=1)
 ----------------------------------------------------------------------
 -----
 title
 -----
 Structure from the checkpoint file:  "BDE49_expt_381_mol1.chk"
 Charge =  0 Multiplicity = 1

                         Standard orientation:
 ---------------------------------------------------------------------
 Center     Atomic      Atomic             Coordinates (Angstroms)
 Number     Number       Type             X           Y           Z
 ---------------------------------------------------------------------
      1          6           0       -0.969329    1.274633    0.402687
      2         16           0        0.692096    1.650840   -0.251677
      3          6           0        1.588463    0.202282    0.402728
      4         16           0        1.083720   -1.424794   -0.251390
      5          1           0        1.533035    0.195306    1.493684
      6          1           0        2.630572    0.334954    0.113393
      7         16           0       -1.775820   -0.226053   -0.251253
      8          1           0       -1.605239    2.110795    0.113279
      9          1           0       -0.935456    1.230336    1.493650
     10          6           0       -0.619125   -1.476897    0.402658
     11          1           0       -0.597658   -1.425724    1.493635
     12          1           0       -1.025243   -2.445656    0.113030
 ---------------------------------------------------------------------

 SCF Done:  E(RHF) =  -1309.99646625     A.U. after    2 cycles

 The electronic state is 1-A.
 Alpha  occ. eigenvalues --  -93.95997 -93.95997 -93.95986 -11.30985 -11.30984
 Alpha  occ. eigenvalues --  -11.30938  -8.24077  -8.24049  -8.24049  -6.21876
 Alpha  occ. eigenvalues --   -6.21876  -6.21868  -6.21727  -6.21723  -6.21723
 Alpha  occ. eigenvalues --   -6.21493  -6.21491  -6.21491  -1.15254  -1.06181
 Alpha  occ. eigenvalues --   -1.06181  -0.88783  -0.88782  -0.78662  -0.66696
 Alpha  occ. eigenvalues --   -0.62702  -0.62702  -0.56534  -0.55742  -0.53938
 Alpha  occ. eigenvalues --   -0.53938  -0.45480  -0.45477  -0.37216  -0.35089
 Alpha  occ. eigenvalues --   -0.35087
 Alpha virt. eigenvalues --    0.03396   0.03931   0.03931   0.04577   0.06873
 Alpha virt. eigenvalues --    0.06874   0.07897   0.07897   0.10041   0.11905
 Alpha virt. eigenvalues --    0.11906   0.13748   0.13881   0.15315   0.15316

 Mulliken charges:
               1
     1  C   -1.045218
     2  S    0.529652
     3  C   -1.045164
     4  S    0.529662
     5  H    0.285863
     6  H    0.229694
     7  S    0.529648
     8  H    0.229699
     9  H    0.285889
    10  C   -1.045380
    11  H    0.285855
    12  H    0.229800
 Sum of Mulliken charges =  -0.00000

 Dipole moment (field-independent basis, Debye):
    X=              0.0002    Y=              0.0002    Z=              2.3820  Tot=              2.3820

 Test job not archived.
 1\1\GINC-SE174\SP\RHF\Aug-CC-pVDZ\C3H6S3\OHZDE\08-Apr-2025\0\\#t hf au
 g-cc-pvdz iop(5/13=1,5/36=2,99/5=2) pseudo=read geom=check guess=(read
 ,tcheck) scf=(maxcycle=1)\\title\\0,1\C,0,0.96622,-1.276991,0.402687\S
 ,0,-0.696117,-1.649149,-0.251677\C,0,-1.588951,-0.19841,0.402728\S,0,-
 1.080245,1.427431,-0.25139\H,0,-1.533506,-0.19157,1.493684\H,0,-2.6313
 8,-0.328542,0.113393\S,0,1.776366,0.221725,-0.251253\H,0,1.60009,-2.11
 4701,0.113279\H,0,0.932455,-1.232612,1.49365\C,0,0.622722,1.475384,0.4
 02658\H,0,0.601131,1.424263,1.493635\H,0,1.0312,2.44315,0.11303\\Versi

 Normal termination of Gaussian 16 at Tue Apr  8 23:04:58 2025.
