 Gaussian 16, Revision C.01,

 ----------------------------------------------------------------------
 #t hf aug-cc-pvdz symm=none int=(grid=ultrafine) guess=(read,tcheck) s
 table=(opt,rrhf)
 ----------------------------------------------------------------------
 -----
 title
 -----
 Symbolic Z-matrix:
 Charge =  0 Multiplicity = 1

 SCF Done:  E(RHF) =  -818.098973839     A.U. after   12 cycles
 Normal termination of Gaussian 16 at Tue Apr  8 23:44:17 2025.
 Gaussian 16:  ES64L-G16RevC.01  3-Jul-2019

 ----------------------------------------------------------------------
 #t hf aug-cc-pvdz iop(5/13=1,5/36=2,99/5=2) pseudo=read geom=check gue
 ss=(read,tcheck) scf=(maxcycle=1)
 ----------------------------------------------------------------------
 -----
 title
 -----
 Structure from the checkpoint file:  "BDE49_nonexpt_1722_mol1.chk"
 Charge =  0 Multiplicity = 1

                         Standard orientation:
 ---------------------------------------------------------------------
 Center     Atomic      Atomic             Coordinates (Angstroms)
 Number     Number       Type             X           Y           Z
 ---------------------------------------------------------------------
      1         15           0        1.021819   -0.636189    0.279346
      2          6           0        1.732623    0.968990   -0.335134
      3          1           0        1.148686    1.848384   -0.061481
      4          1           0        1.823314    0.920194   -1.421607
      5          1           0        2.736591    1.071466    0.087979
      6         16           0       -1.020922   -0.594140   -0.348990
      7          6           0       -1.715324    0.968913    0.311628
      8          1           0       -2.769371    0.978911    0.029452
      9          1           0       -1.226786    1.838897   -0.125841
     10          1           0       -1.635460    0.996347    1.398660
     11          1           0        0.826689   -0.232539    1.627528
 ---------------------------------------------------------------------

 SCF Done:  E(RHF) =  -818.297664263     A.U. after    2 cycles

 The electronic state is 1-A.
 Alpha  occ. eigenvalues --  -93.94506 -84.29522 -11.27125 -11.24666  -8.22653
 Alpha  occ. eigenvalues --   -6.76389  -6.20457  -6.20275  -6.20072  -4.28576
 Alpha  occ. eigenvalues --   -4.28482  -4.27973  -1.06604  -0.98791  -0.89392
 Alpha  occ. eigenvalues --   -0.76067  -0.61118  -0.60123  -0.59186  -0.57250
 Alpha  occ. eigenvalues --   -0.52097  -0.49110  -0.42140  -0.36030  -0.34069
 Alpha virt. eigenvalues --    0.03438   0.04131   0.04525   0.05404   0.06384
 Alpha virt. eigenvalues --    0.07145   0.08118   0.09974   0.10281   0.11055
 Alpha virt. eigenvalues --    0.12880   0.14157   0.14751   0.15343   0.15552

 Mulliken charges:
               1
     1  P    0.247591
     2  C   -0.773822
     3  H    0.057677
     4  H    0.176388
     5  H    0.139608
     6  S   -0.188092
     7  C   -0.720856
     8  H    0.147460
     9  H    0.190680
    10  H    0.167343
    11  H    0.556023
 Sum of Mulliken charges =  -0.00000

 Dipole moment (field-independent basis, Debye):
    X=              0.6113    Y=              2.3274    Z=              0.8456  Tot=              2.5506

 Test job not archived.
 1\1\GINC-SE039\SP\RHF\Aug-CC-pVDZ\C2H7P1S1\OHZDE\08-Apr-2025\0\\#t hf
 aug-cc-pvdz iop(5/13=1,5/36=2,99/5=2) pseudo=read geom=check guess=(re
 ad,tcheck) scf=(maxcycle=1)\\title\\0,1\P,0,1.021819,-0.636189,0.27934
 6\C,0,1.732623,0.96899,-0.335134\H,0,1.148686,1.848384,-0.061481\H,0,1
 .823314,0.920194,-1.421607\H,0,2.736591,1.071466,0.087979\S,0,-1.02092
 2,-0.59414,-0.34899\C,0,-1.715324,0.968913,0.311628\H,0,-2.769371,0.97
 8911,0.029452\H,0,-1.226786,1.838897,-0.125841\H,0,-1.63546,0.996347,1
 .39866\H,0,0.826689,-0.232539,1.627528\\Version=ES64L-G16RevC.01\State

 Normal termination of Gaussian 16 at Tue Apr  8 23:44:22 2025.
