 Gaussian 16, Revision C.01,

 ----------------------------------------------------------------------
 #t hf aug-cc-pvdz symm=none int=(grid=ultrafine) guess=(read,tcheck) s
 table=(opt,rrhf)
 ----------------------------------------------------------------------
 -----
 title
 -----
 Symbolic Z-matrix:
 Charge =  0 Multiplicity = 1

 SCF Done:  E(RHF) =  -469.525569241     A.U. after   12 cycles
 Normal termination of Gaussian 16 at Wed Apr  9 00:45:07 2025.
 Gaussian 16:  ES64L-G16RevC.01  3-Jul-2019

 ----------------------------------------------------------------------
 #t hf aug-cc-pvdz iop(5/13=1,5/36=2,99/5=2) pseudo=read geom=check gue
 ss=(read,tcheck) scf=(maxcycle=1)
 ----------------------------------------------------------------------
 -----
 title
 -----
 Structure from the checkpoint file:  "BDE49_nonexpt_785_mol1.chk"
 Charge =  0 Multiplicity = 1

                         Standard orientation:
 ---------------------------------------------------------------------
 Center     Atomic      Atomic             Coordinates (Angstroms)
 Number     Number       Type             X           Y           Z
 ---------------------------------------------------------------------
      1         14           0        0.499840   -0.023651    0.425122
      2          5           0       -1.375506   -0.771567    0.180852
      3          8           0       -2.346050    0.049718   -0.295139
      4          6           0        0.652338    1.759608   -0.174829
      5          1           0       -0.065084    2.405506    0.338698
      6          1           0        0.448304    1.829526   -1.247407
      7          6           0        1.773459   -1.125626   -0.440099
      8          1           0        1.618928   -1.136164   -1.523352
      9          1           0        1.708935   -2.157605   -0.083652
     10          1           0        2.790811   -0.770343   -0.252035
     11          1           0        1.655113    2.158042    0.004982
     12          1           0       -3.208384   -0.373141   -0.375004
     13          1           0       -1.659958   -1.911186    0.445375
     14          1           0        0.804723   -0.057317    1.887109
 ---------------------------------------------------------------------

 SCF Done:  E(RHF) =  -469.751678173     A.U. after    2 cycles

 The electronic state is 1-A.
 Alpha  occ. eigenvalues --  -69.49641 -20.57141 -11.20881 -11.20490  -7.61468
 Alpha  occ. eigenvalues --   -6.16850  -3.92199  -3.92183  -3.92154  -1.46811
 Alpha  occ. eigenvalues --   -0.95643  -0.92178  -0.77379  -0.67422  -0.64717
 Alpha  occ. eigenvalues --   -0.56986  -0.56439  -0.54391  -0.54218  -0.53519
 Alpha  occ. eigenvalues --   -0.52501  -0.44568  -0.43814  -0.39056
 Alpha virt. eigenvalues --    0.02951   0.03763   0.04221   0.04405   0.06284
 Alpha virt. eigenvalues --    0.06307   0.06529   0.07309   0.07586   0.09044
 Alpha virt. eigenvalues --    0.09754   0.10462   0.10773   0.10915   0.12096

 Mulliken charges:
               1
     1  Si   1.373563
     2  B    0.389365
     3  O   -1.072275
     4  C   -0.622646
     5  H   -0.002988
     6  H    0.128702
     7  C   -0.576026
     8  H    0.095138
     9  H   -0.028217
    10  H   -0.005207
    11  H   -0.012319
    12  H    0.522310
    13  H    0.069043
    14  H   -0.258443
 Sum of Mulliken charges =  -0.00000

 Dipole moment (field-independent basis, Debye):
    X=             -1.2071    Y=             -0.7440    Z=             -0.5548  Tot=              1.5226

 Test job not archived.
 1\1\GINC-SE074\SP\RHF\Aug-CC-pVDZ\C2H9B1O1Si1\OHZDE\09-Apr-2025\0\\#t
 hf aug-cc-pvdz iop(5/13=1,5/36=2,99/5=2) pseudo=read geom=check guess=
 (read,tcheck) scf=(maxcycle=1)\\title\\0,1\Si,0,0.49984,-0.023651,0.42
 5122\B,0,-1.375506,-0.771567,0.180852\O,0,-2.34605,0.049718,-0.295139\
 C,0,0.652338,1.759608,-0.174829\H,0,-0.065084,2.405506,0.338698\H,0,0.
 448304,1.829526,-1.247407\C,0,1.773459,-1.125626,-0.440099\H,0,1.61892
 8,-1.136164,-1.523352\H,0,1.708935,-2.157605,-0.083652\H,0,2.790811,-0
 .770343,-0.252035\H,0,1.655113,2.158042,0.004982\H,0,-3.208384,-0.3731

 Normal termination of Gaussian 16 at Wed Apr  9 00:45:12 2025.
