 Gaussian 16, Revision C.01,

 ----------------------------------------------------------------------
 #t hf aug-cc-pvdz symm=none int=(grid=ultrafine) guess=(read,tcheck) s
 table=(opt,rrhf)
 ----------------------------------------------------------------------
 -----
 title
 -----
 Symbolic Z-matrix:
 Charge =  0 Multiplicity = 1

 SCF Done:  E(RHF) =  -634.716200491     A.U. after   16 cycles
 Normal termination of Gaussian 16 at Wed Apr  9 00:00:45 2025.
 Gaussian 16:  ES64L-G16RevC.01  3-Jul-2019

 ----------------------------------------------------------------------
 #t hf aug-cc-pvdz iop(5/13=1,5/36=2,99/5=2) pseudo=read geom=check gue
 ss=(read,tcheck) scf=(maxcycle=1)
 ----------------------------------------------------------------------
 -----
 title
 -----
 Structure from the checkpoint file:  "BDE49_nonexpt_2081_mol1.chk"
 Charge =  0 Multiplicity = 1

                         Standard orientation:
 ---------------------------------------------------------------------
 Center     Atomic      Atomic             Coordinates (Angstroms)
 Number     Number       Type             X           Y           Z
 ---------------------------------------------------------------------
      1         14           0       -3.250769   -0.198556   -0.000001
      2          6           0       -1.389844   -0.006897   -0.000001
      3          6           0       -0.779505    1.262943   -0.000000
      4          6           0        0.597016    1.407577    0.000001
      5          6           0        1.423198    0.274792    0.000001
      6          6           0       -0.544063   -1.121485   -0.000002
      7          1           0       -0.968375   -2.120416   -0.000003
      8          6           0        0.846429   -0.996992   -0.000001
      9          1           0        1.459295   -1.888406   -0.000001
     10          1           0       -1.391675    2.159908   -0.000000
     11          8           0        2.761440    0.520306    0.000002
     12          6           0        3.655529   -0.583902    0.000002
     13          1           0        3.527767   -1.204272    0.894056
     14          1           0        4.656385   -0.155492    0.000003
     15          1           0        3.527768   -1.204271   -0.894053
     16          1           0        1.064216    2.385098    0.000002
     17          1           0       -3.860190    0.435402    1.195242
     18          1           0       -3.588316   -1.641865   -0.000018
     19          1           0       -3.860191    0.435432   -1.195228
 ---------------------------------------------------------------------

 SCF Done:  E(RHF) =  -635.104645310     A.U. after    2 cycles

 The electronic state is 1-A.
 Alpha  occ. eigenvalues --  -69.52467 -20.57802 -11.31425 -11.30014 -11.25488
 Alpha  occ. eigenvalues --  -11.25343 -11.24141 -11.23807 -11.22574  -6.19531
 Alpha  occ. eigenvalues --   -3.94922  -3.94898  -3.94890  -1.50262  -1.15281
 Alpha  occ. eigenvalues --   -1.02908  -1.02003  -0.95067  -0.84615  -0.82374
 Alpha  occ. eigenvalues --   -0.75172  -0.72115  -0.68037  -0.66121  -0.64219
 Alpha  occ. eigenvalues --   -0.62033  -0.60179  -0.59233  -0.53891  -0.53065
 Alpha  occ. eigenvalues --   -0.49583  -0.49121  -0.48203  -0.46758  -0.46154
 Alpha  occ. eigenvalues --   -0.35378  -0.32176
 Alpha virt. eigenvalues --    0.03215   0.03554   0.03740   0.04830   0.04847
 Alpha virt. eigenvalues --    0.05254   0.06091   0.06956   0.07396   0.08404
 Alpha virt. eigenvalues --    0.08987   0.09685   0.10505   0.10656   0.11248

 Mulliken charges:
               1
     1  Si   0.632805
     2  C   -0.990390
     3  C    1.156297
     4  C    0.113743
     5  C    1.965069
     6  C    0.387720
     7  H   -0.266085
     8  C   -0.038532
     9  H   -0.427692
    10  H   -0.337681
    11  O   -1.866680
    12  C    0.150032
    13  H    0.176950
    14  H   -0.037494
    15  H    0.176950
    16  H   -0.275896
    17  H   -0.154456
    18  H   -0.210205
    19  H   -0.154456
 Sum of Mulliken charges =  -0.00000

 Dipole moment (field-independent basis, Debye):
    X=              1.7017    Y=             -1.0832    Z=              0.0000  Tot=              2.0172

 Test job not archived.
 1\1\GINC-SE249\SP\RHF\Aug-CC-pVDZ\C7H10O1Si1\OHZDE\09-Apr-2025\0\\#t h
 f aug-cc-pvdz iop(5/13=1,5/36=2,99/5=2) pseudo=read geom=check guess=(
 read,tcheck) scf=(maxcycle=1)\\title\\0,1\Si,0,-3.250769,-0.198556,-0.
 000001\C,0,-1.389844,-0.006897,-0.000001\C,0,-0.779505,1.262943,0.\C,0
 ,0.597016,1.407577,0.000001\C,0,1.423198,0.274792,0.000001\C,0,-0.5440
 63,-1.121485,-0.000002\H,0,-0.968375,-2.120416,-0.000003\C,0,0.846429,
 -0.996992,-0.000001\H,0,1.459295,-1.888406,-0.000001\H,0,-1.391675,2.1
 59908,0.\O,0,2.76144,0.520306,0.000002\C,0,3.655529,-0.583902,0.000002

 Normal termination of Gaussian 16 at Wed Apr  9 00:00:55 2025.
