 Gaussian 16, Revision C.01,

 ----------------------------------------------------------------------
 #t hf aug-cc-pvdz symm=none int=(grid=ultrafine) guess=(read,tcheck) s
 table=(opt,rrhf)
 ----------------------------------------------------------------------
 -----
 title
 -----
 Symbolic Z-matrix:
 Charge =  0 Multiplicity = 1

 SCF Done:  E(RHF) =  -1901.24523542     A.U. after   13 cycles
 Normal termination of Gaussian 16 at Tue Apr  8 23:42:55 2025.
 Gaussian 16:  ES64L-G16RevC.01  3-Jul-2019

 ----------------------------------------------------------------------
 #t hf aug-cc-pvdz iop(5/13=1,5/36=2,99/5=2) pseudo=read geom=check gue
 ss=(read,tcheck) scf=(maxcycle=1)
 ----------------------------------------------------------------------
 -----
 title
 -----
 Structure from the checkpoint file:  "BDE49_nonexpt_168_mol1.chk"
 Charge =  0 Multiplicity = 1

                         Standard orientation:
 ---------------------------------------------------------------------
 Center     Atomic      Atomic             Coordinates (Angstroms)
 Number     Number       Type             X           Y           Z
 ---------------------------------------------------------------------
      1         17           0        2.130866   -0.811302   -0.735578
      2         17           0        1.020976    1.435923    0.971010
      3          5           0        0.763358    0.075419   -0.086880
      4          6           0       -0.691929   -0.422291   -0.475832
      5         17           0       -1.292612   -1.344359    0.964861
      6         17           0       -1.798264    0.912849   -0.930241
      7          1           0       -0.701630   -1.126249   -1.301506
 ---------------------------------------------------------------------

 SCF Done:  E(RHF) =  -1901.61081665     A.U. after    2 cycles

 The electronic state is 1-A.
 Alpha  occ. eigenvalues -- -105.59845-105.59584-105.59395-105.59318 -11.38104
 Alpha  occ. eigenvalues --  -10.64864 -10.64425 -10.64340 -10.64100  -7.81759
 Alpha  occ. eigenvalues --   -7.81469  -7.81422  -7.81328  -7.81282  -7.81048
 Alpha  occ. eigenvalues --   -7.81028  -7.80982  -7.80886  -7.80868  -7.80643
 Alpha  occ. eigenvalues --   -7.80628  -7.74611  -1.17991  -1.12325  -1.08093
 Alpha  occ. eigenvalues --   -1.06240  -0.90354  -0.73398  -0.66783  -0.63287
 Alpha  occ. eigenvalues --   -0.61377  -0.59036  -0.54605  -0.52111  -0.50347
 Alpha  occ. eigenvalues --   -0.48823  -0.48151  -0.48029  -0.46915  -0.45694
 Alpha virt. eigenvalues --    0.03786   0.04428   0.05160   0.05535   0.05688
 Alpha virt. eigenvalues --    0.07877   0.09226   0.10278   0.11981   0.12314
 Alpha virt. eigenvalues --    0.13387   0.15036   0.15566   0.16552   0.16856

 Mulliken charges:
               1
     1  Cl  -0.295048
     2  Cl  -0.281487
     3  B    1.088224
     4  C   -0.576392
     5  Cl  -0.070834
     6  Cl  -0.094308
     7  H    0.229845
 Sum of Mulliken charges =   0.00000

 Dipole moment (field-independent basis, Debye):
    X=              0.5404    Y=             -0.5340    Z=             -0.9414  Tot=              1.2098

 Test job not archived.
 1\1\GINC-SE029\SP\RHF\Aug-CC-pVDZ\C1H1B1Cl4\OHZDE\08-Apr-2025\0\\#t hf
  aug-cc-pvdz iop(5/13=1,5/36=2,99/5=2) pseudo=read geom=check guess=(r
 ead,tcheck) scf=(maxcycle=1)\\title\\0,1\Cl,0,2.130866,-0.811302,-0.73
 5578\Cl,0,1.020976,1.435923,0.97101\B,0,0.763358,0.075419,-0.08688\C,0
 ,-0.691929,-0.422291,-0.475832\Cl,0,-1.292612,-1.344358,0.964861\Cl,0,
 -1.798264,0.91285,-0.930241\H,0,-0.70163,-1.126249,-1.301506\\Version=
 ES64L-G16RevC.01\State=1-A\HF=-1901.6108166\RMSD=4.184e-03\Dipole=0.21
 26235,-0.2100851,-0.3703941\Quadrupole=-1.6532171,0.4640975,1.1891196,

 Normal termination of Gaussian 16 at Tue Apr  8 23:42:58 2025.
