 Gaussian 16, Revision C.01,

 ----------------------------------------------------------------------
 #t hf aug-cc-pvdz symm=none int=(grid=ultrafine) guess=(read,tcheck) s
 table=(opt,rrhf)
 ----------------------------------------------------------------------
 -----
 title
 -----
 Symbolic Z-matrix:
 Charge =  0 Multiplicity = 1

 SCF Done:  E(RHF) =  -1261.33866781     A.U. after   13 cycles
 Normal termination of Gaussian 16 at Wed Apr  9 00:14:28 2025.
 Gaussian 16:  ES64L-G16RevC.01  3-Jul-2019

 ----------------------------------------------------------------------
 #t hf aug-cc-pvdz iop(5/13=1,5/36=2,99/5=2) pseudo=read geom=check gue
 ss=(read,tcheck) scf=(maxcycle=1)
 ----------------------------------------------------------------------
 -----
 title
 -----
 Structure from the checkpoint file:  "BDE49_nonexpt_2449_mol1.chk"
 Charge =  0 Multiplicity = 1

                         Standard orientation:
 ---------------------------------------------------------------------
 Center     Atomic      Atomic             Coordinates (Angstroms)
 Number     Number       Type             X           Y           Z
 ---------------------------------------------------------------------
      1         14           0        2.737773    0.980256    0.126672
      2         14           0        1.731225   -1.043237   -0.551975
      3         15           0       -0.961921   -0.099299    0.346034
      4          8           0       -1.797828    0.033876   -0.992866
      5          8           0       -1.965134   -0.897466    1.305452
      6          1           0       -1.811258   -0.677824    2.231630
      7          8           0       -0.433118    1.137743    0.934911
      8          8           0        0.115015   -1.163087   -0.075169
      9          1           0        2.395543   -2.212957    0.062551
     10          1           0        1.763423   -1.199304   -2.023754
     11          1           0        2.155950    2.147669   -0.567436
     12          1           0        4.164305    0.857984   -0.278611
     13          6           0       -2.892399    0.971790   -1.059820
     14          1           0       -3.199413    1.005124   -2.102923
     15          1           0       -2.565490    1.959945   -0.731525
     16          1           0       -3.720784    0.622784   -0.439989
     17          1           0        2.683486    1.148538    1.594079
 ---------------------------------------------------------------------

 SCF Done:  E(RHF) =  -1261.78965860     A.U. after    2 cycles

 The electronic state is 1-A.
 Alpha  occ. eigenvalues --  -84.45955 -69.57312 -69.52506 -20.59584 -20.58398
 Alpha  occ. eigenvalues --  -20.57549 -20.50813 -11.31023  -6.90769  -6.23901
 Alpha  occ. eigenvalues --   -6.19668  -4.44983  -4.44387  -4.44296  -3.99377
 Alpha  occ. eigenvalues --   -3.99193  -3.99178  -3.95030  -3.95023  -3.95015
 Alpha  occ. eigenvalues --   -1.55943  -1.47886  -1.46904  -1.39076  -0.97703
 Alpha  occ. eigenvalues --   -0.85912  -0.77891  -0.74077  -0.71955  -0.67591
 Alpha  occ. eigenvalues --   -0.65977  -0.65085  -0.62530  -0.61402  -0.58346
 Alpha  occ. eigenvalues --   -0.56081  -0.54577  -0.52159  -0.49796  -0.49446
 Alpha  occ. eigenvalues --   -0.48676  -0.47215  -0.45935  -0.45627  -0.41144
 Alpha virt. eigenvalues --    0.03459   0.04228   0.04365   0.04446   0.05782
 Alpha virt. eigenvalues --    0.06361   0.06702   0.07236   0.07804   0.08144
 Alpha virt. eigenvalues --    0.09159   0.09939   0.10310   0.10657   0.11018

 Mulliken charges:
               1
     1  Si   0.214294
     2  Si   1.172795
     3  P    4.670513
     4  O   -1.508032
     5  O   -1.285588
     6  H    0.354919
     7  O   -1.396956
     8  O   -2.192248
     9  H   -0.139750
    10  H   -0.110929
    11  H   -0.057646
    12  H   -0.166454
    13  C    0.191144
    14  H    0.010388
    15  H    0.142416
    16  H    0.151835
    17  H   -0.050698
 Sum of Mulliken charges =  -0.00000

 Dipole moment (field-independent basis, Debye):
    X=             -1.2707    Y=             -0.4666    Z=             -0.1831  Tot=              1.3660

 Test job not archived.
 1\1\GINC-SE396\SP\RHF\Aug-CC-pVDZ\C1H9O4P1Si2\OHZDE\09-Apr-2025\0\\#t
 hf aug-cc-pvdz iop(5/13=1,5/36=2,99/5=2) pseudo=read geom=check guess=
 (read,tcheck) scf=(maxcycle=1)\\title\\0,1\Si,0,2.737773,0.980256,0.12
 6672\Si,0,1.731225,-1.043237,-0.551975\P,0,-0.961921,-0.099299,0.34603
 4\O,0,-1.797828,0.033876,-0.992866\O,0,-1.965134,-0.897466,1.305452\H,
 0,-1.811258,-0.677824,2.23163\O,0,-0.433118,1.137743,0.934911\O,0,0.11
 5015,-1.163087,-0.075169\H,0,2.395543,-2.212957,0.062551\H,0,1.763423,
 -1.199304,-2.023754\H,0,2.15595,2.147669,-0.567436\H,0,4.164305,0.8579

 Normal termination of Gaussian 16 at Wed Apr  9 00:14:36 2025.
