 Gaussian 16, Revision C.01,

 ----------------------------------------------------------------------
 #t hf aug-cc-pvdz symm=none int=(grid=ultrafine) guess=(read,tcheck) s
 table=(opt,rrhf)
 ----------------------------------------------------------------------
 -----
 title
 -----
 Symbolic Z-matrix:
 Charge =  0 Multiplicity = 1

 SCF Done:  E(RHF) =  -815.403960086     A.U. after   17 cycles
 Normal termination of Gaussian 16 at Wed Apr  9 00:01:57 2025.
 Gaussian 16:  ES64L-G16RevC.01  3-Jul-2019

 ----------------------------------------------------------------------
 #t hf aug-cc-pvdz iop(5/13=1,5/36=2,99/5=2) pseudo=read geom=check gue
 ss=(read,tcheck) scf=(maxcycle=1)
 ----------------------------------------------------------------------
 -----
 title
 -----
 Structure from the checkpoint file:  "BDE49_nonexpt_2112_mol1.chk"
 Charge =  0 Multiplicity = 1

                         Standard orientation:
 ---------------------------------------------------------------------
 Center     Atomic      Atomic             Coordinates (Angstroms)
 Number     Number       Type             X           Y           Z
 ---------------------------------------------------------------------
      1         14           0        0.329101    0.187476   -0.896336
      2          7           0        0.023850    1.613130    0.254751
      3          7           0        1.609041   -0.846594   -0.018324
      4          8           0        0.403559    1.670510    1.409722
      5          8           0       -0.669220    2.461325   -0.317249
      6          8           0        2.682452   -0.287391    0.177946
      7          8           0        1.344940   -2.005669    0.286957
      8          6           0       -1.258264   -0.727252   -1.196096
      9          6           0       -2.341639   -0.666535   -0.094809
     10          1           0       -0.969716   -1.767700   -1.390984
     11          1           0       -1.655627   -0.331540   -2.137921
     12          6           0       -1.930748   -1.299571    1.237540
     13          1           0       -3.229510   -1.177236   -0.480029
     14          1           0       -2.635869    0.375704    0.061138
     15          1           0       -1.623624   -2.340032    1.107306
     16          1           0       -2.766130   -1.278276    1.941283
     17          1           0       -1.099283   -0.767564    1.708180
     18          1           0        1.032165    0.746176   -2.054074
 ---------------------------------------------------------------------

 SCF Done:  E(RHF) =  -815.951017989     A.U. after    2 cycles

 The electronic state is 1-A.
 Alpha  occ. eigenvalues --  -69.65688 -20.62020 -20.61257 -20.61215 -20.61208
 Alpha  occ. eigenvalues --  -15.78211 -15.77791 -11.27909 -11.26936 -11.24445
 Alpha  occ. eigenvalues --   -6.32293  -4.07656  -4.07558  -4.07425  -1.68153
 Alpha  occ. eigenvalues --   -1.67520  -1.52371  -1.51872  -1.10169  -1.04660
 Alpha  occ. eigenvalues --   -0.99524  -0.97051  -0.85876  -0.83360  -0.81326
 Alpha  occ. eigenvalues --   -0.76338  -0.75968  -0.75213  -0.74557  -0.67824
 Alpha  occ. eigenvalues --   -0.65067  -0.64237  -0.59885  -0.55809  -0.53065
 Alpha  occ. eigenvalues --   -0.52575  -0.51965  -0.51288  -0.49987  -0.48356
 Alpha  occ. eigenvalues --   -0.48018  -0.46803  -0.46155
 Alpha virt. eigenvalues --    0.01985   0.02700   0.03095   0.03561   0.03937
 Alpha virt. eigenvalues --    0.04153   0.05749   0.05975   0.06815   0.07973
 Alpha virt. eigenvalues --    0.08000   0.09179   0.10884   0.11197   0.12144

 Mulliken charges:
               1
     1  Si   1.367476
     2  N    2.018152
     3  N    1.999087
     4  O   -1.254743
     5  O   -1.286661
     6  O   -1.275541
     7  O   -1.207472
     8  C   -0.527459
     9  C   -0.435648
    10  H    0.178935
    11  H    0.065116
    12  C   -0.259824
    13  H    0.150021
    14  H    0.147246
    15  H    0.175199
    16  H    0.102427
    17  H    0.115547
    18  H   -0.071858
 Sum of Mulliken charges =  -0.00000

 Dipole moment (field-independent basis, Debye):
    X=             -3.2224    Y=             -1.6942    Z=             -3.5419  Tot=              5.0793

 Test job not archived.
 1\1\GINC-SE333\SP\RHF\Aug-CC-pVDZ\C3H8N2O4Si1\OHZDE\09-Apr-2025\0\\#t
 hf aug-cc-pvdz iop(5/13=1,5/36=2,99/5=2) pseudo=read geom=check guess=
 (read,tcheck) scf=(maxcycle=1)\\title\\0,1\Si,0,0.329101,0.187476,-0.8
 96336\N,0,0.023849,1.61313,0.254751\N,0,1.609042,-0.846593,-0.018324\O
 ,0,0.403558,1.67051,1.409722\O,0,-0.669222,2.461325,-0.317249\O,0,2.68
 2452,-0.287389,0.177946\O,0,1.344941,-2.005668,0.286957\C,0,-1.258263,
 -0.727253,-1.196096\C,0,-2.341638,-0.666536,-0.094809\H,0,-0.969715,-1
 .767701,-1.390984\H,0,-1.655627,-0.331541,-2.137921\C,0,-1.930747,-1.2

 Normal termination of Gaussian 16 at Wed Apr  9 00:02:07 2025.
