 Gaussian 16, Revision C.01,

 ----------------------------------------------------------------------
 #t hf aug-cc-pvdz symm=none int=(grid=ultrafine) guess=(read,tcheck) s
 table=(opt,rrhf)
 ----------------------------------------------------------------------
 -----
 title
 -----
 Symbolic Z-matrix:
 Charge =  0 Multiplicity = 1

 SCF Done:  E(RHF) =  -1128.56432311     A.U. after   14 cycles
 Normal termination of Gaussian 16 at Wed Apr  9 00:13:39 2025.
 Gaussian 16:  ES64L-G16RevC.01  3-Jul-2019

 ----------------------------------------------------------------------
 #t hf aug-cc-pvdz iop(5/13=1,5/36=2,99/5=2) pseudo=read geom=check gue
 ss=(read,tcheck) scf=(maxcycle=1)
 ----------------------------------------------------------------------
 -----
 title
 -----
 Structure from the checkpoint file:  "BDE49_nonexpt_2460_mol1.chk"
 Charge =  0 Multiplicity = 1

                         Standard orientation:
 ---------------------------------------------------------------------
 Center     Atomic      Atomic             Coordinates (Angstroms)
 Number     Number       Type             X           Y           Z
 ---------------------------------------------------------------------
      1         14           0        2.128774   -0.539638    0.228051
      2         14           0        0.546355    1.119036   -0.318139
      3          1           0        1.718473   -1.214703    1.476209
      4          1           0        3.441583    0.120353    0.430188
      5          1           0        2.243803   -1.510650   -0.880296
      6         16           0       -1.501306    0.188758   -0.020204
      7          1           0        0.637632    1.625311   -1.708335
      8          1           0        0.537299    2.264458    0.620886
      9          8           0       -1.505718   -0.241027    1.402329
     10          8           0       -1.018189   -1.110341   -1.038794
     11          1           0       -1.818446   -1.605532   -1.262437
 ---------------------------------------------------------------------

 SCF Done:  E(RHF) =  -1128.84128237     A.U. after    2 cycles

 The electronic state is 1-A.
 Alpha  occ. eigenvalues --  -94.10768 -69.56668 -69.54115 -20.59984 -20.52223
 Alpha  occ. eigenvalues --   -8.37175  -6.35018  -6.34819  -6.34608  -6.23774
 Alpha  occ. eigenvalues --   -6.21286  -3.99120  -3.99024  -3.99002  -3.96660
 Alpha  occ. eigenvalues --   -3.96635  -3.96626  -1.50142  -1.42972  -0.95226
 Alpha  occ. eigenvalues --   -0.79152  -0.71374  -0.70981  -0.62363  -0.60679
 Alpha  occ. eigenvalues --   -0.57352  -0.52299  -0.50512  -0.49833  -0.49236
 Alpha  occ. eigenvalues --   -0.44426  -0.43972  -0.36777
 Alpha virt. eigenvalues --    0.03421   0.03502   0.03924   0.05786   0.06236
 Alpha virt. eigenvalues --    0.07039   0.07558   0.07941   0.08703   0.09356
 Alpha virt. eigenvalues --    0.09873   0.10142   0.10703   0.11581   0.12335

 Mulliken charges:
               1
     1  Si   0.290267
     2  Si   0.682383
     3  H   -0.042740
     4  H   -0.134927
     5  H   -0.057971
     6  S    1.453321
     7  H   -0.126466
     8  H   -0.132437
     9  O   -1.308480
    10  O   -1.064934
    11  H    0.441984
 Sum of Mulliken charges =  -0.00000

 Dipole moment (field-independent basis, Debye):
    X=              0.9760    Y=              0.7309    Z=             -2.7674  Tot=              3.0241

 Test job not archived.
 1\1\GINC-SE069\SP\RHF\Aug-CC-pVDZ\H6O2S1Si2\OHZDE\09-Apr-2025\0\\#t hf
  aug-cc-pvdz iop(5/13=1,5/36=2,99/5=2) pseudo=read geom=check guess=(r
 ead,tcheck) scf=(maxcycle=1)\\title\\0,1\Si,0,-2.128774,-0.539638,-0.2
 28051\Si,0,-0.546355,1.119036,0.318139\H,0,-1.718473,-1.214703,-1.4762
 09\H,0,-3.441583,0.120354,-0.430188\H,0,-2.243803,-1.51065,0.880296\S,
 0,1.501306,0.188758,0.020204\H,0,-0.637632,1.625311,1.708335\H,0,-0.53
 7298,2.264458,-0.620886\O,0,1.505718,-0.241027,-1.402329\O,0,1.018189,
 -1.110341,1.038794\H,0,1.818446,-1.605533,1.262437\\Version=ES64L-G16R

 Normal termination of Gaussian 16 at Wed Apr  9 00:13:43 2025.
