 Gaussian 16, Revision C.01,

 ----------------------------------------------------------------------
 #t hf aug-cc-pvdz symm=none int=(grid=ultrafine) guess=(read,tcheck) s
 table=(opt,rrhf)
 ----------------------------------------------------------------------
 -----
 title
 -----
 Symbolic Z-matrix:
 Charge =  0 Multiplicity = 1

 SCF Done:  E(RHF) =  -444.238390613     A.U. after   12 cycles
 Normal termination of Gaussian 16 at Wed Apr  9 00:06:31 2025.
 Gaussian 16:  ES64L-G16RevC.01  3-Jul-2019

 ----------------------------------------------------------------------
 #t hf aug-cc-pvdz iop(5/13=1,5/36=2,99/5=2) pseudo=read geom=check gue
 ss=(read,tcheck) scf=(maxcycle=1)
 ----------------------------------------------------------------------
 -----
 title
 -----
 Structure from the checkpoint file:  "BDE49_nonexpt_2239_mol1.chk"
 Charge =  0 Multiplicity = 1

                         Standard orientation:
 ---------------------------------------------------------------------
 Center     Atomic      Atomic             Coordinates (Angstroms)
 Number     Number       Type             X           Y           Z
 ---------------------------------------------------------------------
      1          6           0       -2.163562   -0.131292    0.000001
      2          8           0       -0.796936   -0.517004   -0.000002
      3          1           0       -2.770686   -1.038256    0.000001
      4          1           0       -2.414918    0.456801   -0.891113
      5          1           0       -2.414914    0.456797    0.891119
      6         14           0        0.483504    0.525870    0.000000
      7          6           0        2.039899   -0.499494    0.000000
      8          1           0        2.086583   -1.138306    0.885572
      9          1           0        2.921986    0.148189   -0.000001
     10          1           0        2.086583   -1.138307   -0.885572
     11          1           0        0.426888    1.405822    1.198491
     12          1           0        0.426890    1.405826   -1.198488
 ---------------------------------------------------------------------

 SCF Done:  E(RHF) =  -444.437778560     A.U. after    2 cycles

 The electronic state is 1-A.
 Alpha  occ. eigenvalues --  -69.54587 -20.53216 -11.28938 -11.21559  -6.21242
 Alpha  occ. eigenvalues --   -3.96730  -3.96580  -3.96555  -1.43475  -0.96140
 Alpha  occ. eigenvalues --   -0.92582  -0.72474  -0.63358  -0.62029  -0.61344
 Alpha  occ. eigenvalues --   -0.56807  -0.55183  -0.49123  -0.48416  -0.44825
 Alpha  occ. eigenvalues --   -0.42678
 Alpha virt. eigenvalues --    0.03786   0.04073   0.04609   0.04966   0.06366
 Alpha virt. eigenvalues --    0.07026   0.07263   0.08433   0.09533   0.09842
 Alpha virt. eigenvalues --    0.11016   0.14066   0.15017   0.15840   0.16527

 Mulliken charges:
               1
     1  C    0.381949
     2  O   -1.579495
     3  H   -0.003820
     4  H    0.113226
     5  H    0.113226
     6  Si   1.993401
     7  C   -0.635543
     8  H    0.082750
     9  H   -0.009418
    10  H    0.082751
    11  H   -0.269514
    12  H   -0.269514
 Sum of Mulliken charges =  -0.00000

 Dipole moment (field-independent basis, Debye):
    X=             -0.3003    Y=              0.3402    Z=              0.0000  Tot=              0.4538

 Test job not archived.
 1\1\GINC-SE329\SP\RHF\Aug-CC-pVDZ\C2H8O1Si1\OHZDE\09-Apr-2025\0\\#t hf
  aug-cc-pvdz iop(5/13=1,5/36=2,99/5=2) pseudo=read geom=check guess=(r
 ead,tcheck) scf=(maxcycle=1)\\title\\0,1\C,0,-2.163562,-0.131292,0.000
 001\O,0,-0.796936,-0.517004,-0.000002\H,0,-2.770686,-1.038256,0.000001
 \H,0,-2.414918,0.456801,-0.891113\H,0,-2.414914,0.456797,0.891119\Si,0
 ,0.483504,0.52587,0.\C,0,2.039899,-0.499494,0.\H,0,2.086583,-1.138306,
 0.885572\H,0,2.921986,0.148189,-0.000001\H,0,2.086583,-1.138307,-0.885
 572\H,0,0.426888,1.405822,1.198491\H,0,0.42689,1.405826,-1.198488\\Ver

 Normal termination of Gaussian 16 at Wed Apr  9 00:06:35 2025.
