 Gaussian 16, Revision C.01,

 ----------------------------------------------------------------------
 #t hf aug-cc-pvdz symm=none int=(grid=ultrafine) guess=(read,tcheck) s
 table=(opt,rrhf)
 ----------------------------------------------------------------------
 -----
 title
 -----
 Symbolic Z-matrix:
 Charge =  0 Multiplicity = 1

 SCF Done:  E(RHF) =  -653.998895485     A.U. after   14 cycles
 Normal termination of Gaussian 16 at Wed Apr  9 00:04:38 2025.
 Gaussian 16:  ES64L-G16RevC.01  3-Jul-2019

 ----------------------------------------------------------------------
 #t hf aug-cc-pvdz iop(5/13=1,5/36=2,99/5=2) pseudo=read geom=check gue
 ss=(read,tcheck) scf=(maxcycle=1)
 ----------------------------------------------------------------------
 -----
 title
 -----
 Structure from the checkpoint file:  "BDE49_nonexpt_2160_mol1.chk"
 Charge =  0 Multiplicity = 1

                         Standard orientation:
 ---------------------------------------------------------------------
 Center     Atomic      Atomic             Coordinates (Angstroms)
 Number     Number       Type             X           Y           Z
 ---------------------------------------------------------------------
      1          6           0       -0.416460    0.014697   -0.033391
      2          6           0       -1.141854   -1.188726   -0.059112
      3          6           0       -2.534420   -1.196151   -0.021612
      4          6           0       -3.237202    0.005406    0.046725
      5          6           0       -2.540325    1.211349    0.073424
      6          6           0       -1.147168    1.212028    0.032705
      7          7           0        1.931762   -1.386466   -0.989549
      8          1           0       -3.071914   -2.138234   -0.045669
      9          1           0       -4.321435    0.002093    0.076306
     10          1           0       -3.081364    2.150308    0.122941
     11          1           0       -0.626221    2.164127    0.047828
     12          1           0       -0.603835   -2.128874   -0.122062
     13         14           0        1.468483   -0.015789   -0.033878
     14          1           0        1.607632   -1.467845   -1.943457
     15          1           0        2.865488   -1.762407   -0.901633
     16          6           0        2.148434   -0.316012    1.692259
     17          1           0        1.739593   -1.235854    2.118444
     18          1           0        1.888309    0.508992    2.361957
     19          1           0        3.240432   -0.400867    1.684102
     20          6           0        2.117747    1.638019   -0.665060
     21          1           0        1.832071    2.469358   -0.012440
     22          1           0        1.746147    1.859691   -1.670095
     23          1           0        3.211491    1.622159   -0.710710
 ---------------------------------------------------------------------

 SCF Done:  E(RHF) =  -654.418446971     A.U. after    2 cycles

 The electronic state is 1-A.
 Alpha  occ. eigenvalues --  -69.52318 -15.46757 -11.24124 -11.24057 -11.23775
 Alpha  occ. eigenvalues --  -11.23756 -11.23677 -11.21896 -11.20598 -11.20467
 Alpha  occ. eigenvalues --   -6.19100  -3.94499  -3.94444  -3.94410  -1.14668
 Alpha  occ. eigenvalues --   -1.12994  -1.01024  -1.00842  -0.95400  -0.92519
 Alpha  occ. eigenvalues --   -0.82583  -0.82280  -0.72465  -0.68652  -0.67945
 Alpha  occ. eigenvalues --   -0.63498  -0.62872  -0.59377  -0.58243  -0.56882
 Alpha  occ. eigenvalues --   -0.54973  -0.54562  -0.54241  -0.52333  -0.50398
 Alpha  occ. eigenvalues --   -0.49580  -0.46999  -0.44081  -0.41476  -0.34023
 Alpha  occ. eigenvalues --   -0.33897
 Alpha virt. eigenvalues --    0.02952   0.03501   0.03763   0.04460   0.04876
 Alpha virt. eigenvalues --    0.04943   0.06048   0.06377   0.07081   0.07379
 Alpha virt. eigenvalues --    0.07931   0.09456   0.09638   0.09824   0.10091

 Mulliken charges:
               1
     1  C   -0.645721
     2  C    0.318298
     3  C    0.041580
     4  C    0.442638
     5  C    0.203897
     6  C    0.458874
     7  N    0.434288
     8  H   -0.242877
     9  H   -0.219708
    10  H   -0.246374
    11  H   -0.376893
    12  H   -0.405527
    13  Si   1.603794
    14  H   -0.064871
    15  H    0.006732
    16  C   -0.547808
    17  H   -0.019764
    18  H   -0.038413
    19  H    0.016675
    20  C   -0.561568
    21  H   -0.018440
    22  H   -0.036530
    23  H   -0.102278
 Sum of Mulliken charges =  -0.00000

 Dipole moment (field-independent basis, Debye):
    X=              0.5995    Y=              0.2275    Z=             -0.4988  Tot=              0.8124

 Test job not archived.
 1\1\GINC-SE423\SP\RHF\Aug-CC-pVDZ\C8H13N1Si1\OHZDE\09-Apr-2025\0\\#t h
 f aug-cc-pvdz iop(5/13=1,5/36=2,99/5=2) pseudo=read geom=check guess=(
 read,tcheck) scf=(maxcycle=1)\\title\\0,1\C,0,-0.41646,0.014697,-0.033
 391\C,0,-1.141854,-1.188726,-0.059112\C,0,-2.53442,-1.196151,-0.021612
 \C,0,-3.237202,0.005406,0.046725\C,0,-2.540325,1.211349,0.073424\C,0,-
 1.147168,1.212028,0.032705\N,0,1.931762,-1.386466,-0.989549\H,0,-3.071
 914,-2.138234,-0.045669\H,0,-4.321435,0.002093,0.076306\H,0,-3.081364,
 2.150308,0.122941\H,0,-0.626221,2.164127,0.047828\H,0,-0.603835,-2.128

 Normal termination of Gaussian 16 at Wed Apr  9 00:04:53 2025.
