 Gaussian 16, Revision C.01,

 ----------------------------------------------------------------------
 #t hf aug-cc-pvdz symm=none int=(grid=ultrafine) guess=(read,tcheck) s
 table=opt
 ----------------------------------------------------------------------
 -----
 title
 -----
 Symbolic Z-matrix:
 Charge =  0 Multiplicity = 2

 SCF Done:  E(UHF) =  -736.919974739     A.U. after   15 cycles
 Normal termination of Gaussian 16 at Tue Apr  8 23:12:57 2025.
 Gaussian 16:  ES64L-G16RevC.01  3-Jul-2019

 ----------------------------------------------------------------------
 #t hf aug-cc-pvdz iop(5/13=1,5/36=2,99/5=2) pseudo=read geom=check gue
 ss=(read,tcheck) scf=(maxcycle=1)
 ----------------------------------------------------------------------
 -----
 title
 -----
 Structure from the checkpoint file:  "BDE49_expt_802_mol2.chk"
 Charge =  0 Multiplicity = 2

                         Standard orientation:
 ---------------------------------------------------------------------
 Center     Atomic      Atomic             Coordinates (Angstroms)
 Number     Number       Type             X           Y           Z
 ---------------------------------------------------------------------
      1         14           0        1.122362   -0.000000    0.386138
      2         14           0       -1.109999    0.000000   -0.383104
      3          6           0        2.021696   -1.551170   -0.208903
      4          1           0        1.153643   -0.000000    1.880325
      5          6           0        2.021696    1.551170   -0.208903
      6          6           0       -2.089753    1.548446    0.108096
      7          6           0       -2.089754   -1.548446    0.108097
      8          1           0        2.041871    1.600510   -1.301212
      9          1           0        3.055862    1.557715    0.148968
     10          1           0        1.537021    2.459397    0.159648
     11          1           0        1.537021   -2.459397    0.159647
     12          1           0        3.055862   -1.557716    0.148968
     13          1           0        2.041872   -1.600510   -1.301212
     14          1           0       -2.251459   -1.580386    1.192014
     15          1           0       -1.566666   -2.463061   -0.181619
     16          1           0       -3.071651   -1.556747   -0.374361
     17          1           0       -2.251459    1.580386    1.192014
     18          1           0       -3.071651    1.556748   -0.374361
     19          1           0       -1.566666    2.463061   -0.181619
 ---------------------------------------------------------------------

 SCF Done:  E(UHF) =  -737.164533558     A.U. after    2 cycles

 The electronic state is 2-A.
 Alpha  occ. eigenvalues --  -69.51299 -69.51174 -11.21646 -11.21643 -11.21308
 Alpha  occ. eigenvalues --  -11.21305  -6.18475  -6.18226  -3.94400  -3.93590
 Alpha  occ. eigenvalues --   -3.93547  -3.93528  -3.93513  -3.93461  -0.96897
 Alpha  occ. eigenvalues --   -0.95853  -0.93053  -0.92562  -0.70553  -0.62674
 Alpha  occ. eigenvalues --   -0.57571  -0.57289  -0.56943  -0.55778  -0.55616
 Alpha  occ. eigenvalues --   -0.55108  -0.54860  -0.54407  -0.45500  -0.45451
 Alpha  occ. eigenvalues --   -0.43780  -0.39194  -0.29485
 Alpha virt. eigenvalues --    0.03550   0.03718   0.03743   0.03873   0.05717
 Alpha virt. eigenvalues --    0.05858   0.06333   0.06455   0.07115   0.08039
 Alpha virt. eigenvalues --    0.08498   0.08792   0.08963   0.09925   0.10153

  Beta  occ. eigenvalues --  -69.51155 -69.50786 -11.21651 -11.21648 -11.21324
  Beta  occ. eigenvalues --  -11.21321  -6.18195  -6.17718  -3.93556  -3.93523
  Beta  occ. eigenvalues --   -3.93483  -3.93156  -3.93138  -3.92317  -0.96546
  Beta  occ. eigenvalues --   -0.95530  -0.92975  -0.92484  -0.68809  -0.60038
  Beta  occ. eigenvalues --   -0.57443  -0.57108  -0.56048  -0.55513  -0.55489
  Beta  occ. eigenvalues --   -0.54900  -0.54497  -0.54370  -0.45229  -0.45023
  Beta  occ. eigenvalues --   -0.43563  -0.37900
  Beta virt. eigenvalues --    0.03039   0.03630   0.03774   0.03862   0.05577
  Beta virt. eigenvalues --    0.05880   0.05985   0.06352   0.06478   0.07775
  Beta virt. eigenvalues --    0.08043   0.08668   0.08895   0.08970   0.10059

 Mulliken charges and spin densities:
               1          2
     1  Si   1.403035  -0.088709
     2  Si   1.527647   1.108627
     3  C   -0.641800  -0.003485
     4  H   -0.306745   0.028979
     5  C   -0.641802  -0.003485
     6  C   -0.774453  -0.014800
     7  C   -0.774452  -0.014800
     8  H    0.105615   0.001658
     9  H   -0.042766  -0.002272
    10  H   -0.017581   0.001373
    11  H   -0.017583   0.001373
    12  H   -0.042766  -0.002272
    13  H    0.105615   0.001658
    14  H    0.064785   0.007994
    15  H   -0.009982  -0.005044
    16  H    0.004213  -0.009872
    17  H    0.064789   0.007994
    18  H    0.004214  -0.009872
    19  H   -0.009984  -0.005044
 Sum of Mulliken charges =  -0.00000   1.00000

 Dipole moment (field-independent basis, Debye):
    X=             -0.0803    Y=              0.0000    Z=              0.1026  Tot=              0.1303
                          Isotropic Fermi Contact Couplings
        Atom                 a.u.       MegaHertz       Gauss      10(-4) cm-1
     1  Si(29)             0.03117     -27.70277      -9.88504      -9.24065
     2  Si(29)             0.45570    -404.98971    -144.51040    -135.09003
     3  C(13)             -0.00355      -3.99327      -1.42490      -1.33201
     4  H(1)               0.00790      35.31730      12.60209      11.78058
     5  C(13)             -0.00355      -3.99327      -1.42490      -1.33201
     6  C(13)              0.00193       2.17218       0.77509       0.72456
     7  C(13)              0.00193       2.17217       0.77508       0.72456
     8  H(1)              -0.00010      -0.45513      -0.16240      -0.15181

 Normal termination of Gaussian 16 at Tue Apr  8 23:13:06 2025.
