 Gaussian 16, Revision C.01,

 ----------------------------------------------------------------------
 #t hf aug-cc-pvdz symm=none int=(grid=ultrafine) guess=(read,tcheck) s
 table=(opt,rrhf)
 ----------------------------------------------------------------------
 -----
 title
 -----
 Symbolic Z-matrix:
 Charge =  0 Multiplicity = 1

 SCF Done:  E(RHF) =  -1019.30239946     A.U. after   11 cycles
 Normal termination of Gaussian 16 at Tue Apr  8 23:40:08 2025.
 Gaussian 16:  ES64L-G16RevC.01  3-Jul-2019

 ----------------------------------------------------------------------
 #t hf aug-cc-pvdz iop(5/13=1,5/36=2,99/5=2) pseudo=read geom=check gue
 ss=(read,tcheck) scf=(maxcycle=1)
 ----------------------------------------------------------------------
 -----
 title
 -----
 Structure from the checkpoint file:  "BDE49_nonexpt_162_mol1.chk"
 Charge =  0 Multiplicity = 1

                         Standard orientation:
 ---------------------------------------------------------------------
 Center     Atomic      Atomic             Coordinates (Angstroms)
 Number     Number       Type             X           Y           Z
 ---------------------------------------------------------------------
      1         17           0        1.507849   -0.558514   -0.000001
      2         17           0       -1.551858   -0.478929   -0.000005
      3          8           0       -0.009628    1.710491    0.000005
      4          5           0       -0.009381    0.370633    0.000010
      5          1           0        0.872070    2.099432    0.000004
 ---------------------------------------------------------------------

 SCF Done:  E(RHF) =  -1019.55153229     A.U. after    2 cycles

 The electronic state is 1-A.
 Alpha  occ. eigenvalues -- -105.58325-105.57666 -20.60439 -10.63342 -10.62694
 Alpha  occ. eigenvalues --   -7.80235  -7.79937  -7.79915  -7.79598  -7.79293
 Alpha  occ. eigenvalues --   -7.79260  -7.74817  -1.51466  -1.10555  -1.06490
 Alpha  occ. eigenvalues --   -0.80167  -0.68225  -0.63868  -0.60044  -0.55022
 Alpha  occ. eigenvalues --   -0.50512  -0.50314  -0.48394  -0.46880
 Alpha virt. eigenvalues --    0.03524   0.05330   0.05561   0.05801   0.08478
 Alpha virt. eigenvalues --    0.11937   0.12869   0.13344   0.15281   0.17399
 Alpha virt. eigenvalues --    0.17419   0.18749   0.18782   0.21633   0.22260

 Mulliken charges:
               1
     1  Cl  -0.328284
     2  Cl  -0.316024
     3  O   -0.922025
     4  B    1.039226
     5  H    0.527107
 Sum of Mulliken charges =  -0.00000

 Dipole moment (field-independent basis, Debye):
    X=              1.4116    Y=              1.3083    Z=              0.0000  Tot=              1.9247

 Test job not archived.
 1\1\GINC-SE419\SP\RHF\Aug-CC-pVDZ\B1Cl2H1O1\OHZDE\08-Apr-2025\0\\#t hf
  aug-cc-pvdz iop(5/13=1,5/36=2,99/5=2) pseudo=read geom=check guess=(r
 ead,tcheck) scf=(maxcycle=1)\\title\\0,1\Cl,0,1.507849,-0.558514,-0.00
 0001\Cl,0,-1.551858,-0.478929,-0.000005\O,0,-0.009628,1.710491,0.00000
 5\B,0,-0.009381,0.370633,0.00001\H,0,0.87207,2.099432,0.000004\\Versio
 n=ES64L-G16RevC.01\State=1-A\HF=-1019.5515323\RMSD=5.570e-03\Dipole=0.
 5553632,0.5147369,0.0000091\Quadrupole=-0.6308983,0.7150169,-0.0841186
 ,2.8090425,0.0000022,0.0000117\PG=C01 [X(B1Cl2H1O1)]\\@

 Normal termination of Gaussian 16 at Tue Apr  8 23:40:10 2025.
