 Gaussian 16, Revision C.01,

 ----------------------------------------------------------------------
 #t hf aug-cc-pvdz symm=none int=(grid=ultrafine) guess=(read,tcheck) s
 table=(opt,rrhf)
 ----------------------------------------------------------------------
 -----
 title
 -----
 Symbolic Z-matrix:
 Charge =  0 Multiplicity = 1

 SCF Done:  E(RHF) =  -535.978074018     A.U. after   13 cycles
 Normal termination of Gaussian 16 at Wed Apr  9 00:06:16 2025.
 Gaussian 16:  ES64L-G16RevC.01  3-Jul-2019

 ----------------------------------------------------------------------
 #t hf aug-cc-pvdz iop(5/13=1,5/36=2,99/5=2) pseudo=read geom=check gue
 ss=(read,tcheck) scf=(maxcycle=1)
 ----------------------------------------------------------------------
 -----
 title
 -----
 Structure from the checkpoint file:  "BDE49_nonexpt_2235_mol1.chk"
 Charge =  0 Multiplicity = 1

                         Standard orientation:
 ---------------------------------------------------------------------
 Center     Atomic      Atomic             Coordinates (Angstroms)
 Number     Number       Type             X           Y           Z
 ---------------------------------------------------------------------
      1         14           0       -1.446653   -0.362857    0.160401
      2          8           0       -0.056644   -1.012055   -0.501066
      3          6           0        1.215679   -1.067159    0.096024
      4          6           0        1.922998    0.225902    0.052869
      5          1           0        1.815238   -1.803271   -0.445868
      6          1           0        1.162094   -1.388349    1.144786
      7          7           0        2.459908    1.245197    0.026262
      8          6           0       -1.580478    1.478177   -0.105532
      9          1           0       -0.750693    2.015593    0.360442
     10          1           0       -2.513626    1.847897    0.332594
     11          1           0       -1.587510    1.722040   -1.171152
     12          1           0       -1.442466   -0.674307    1.613680
     13          1           0       -2.545283   -1.081058   -0.515564
 ---------------------------------------------------------------------

 SCF Done:  E(RHF) =  -536.260318884     A.U. after    2 cycles

 The electronic state is 1-A.
 Alpha  occ. eigenvalues --  -69.56619 -20.56533 -15.52603 -11.35871 -11.28982
 Alpha  occ. eigenvalues --  -11.22549  -6.23240  -3.98731  -3.98573  -3.98541
 Alpha  occ. eigenvalues --   -1.47370  -1.24352  -1.02417  -0.96283  -0.77486
 Alpha  occ. eigenvalues --   -0.73306  -0.68590  -0.64139  -0.61982  -0.57987
 Alpha  occ. eigenvalues --   -0.57265  -0.53825  -0.52914  -0.51512  -0.49565
 Alpha  occ. eigenvalues --   -0.47192  -0.45194
 Alpha virt. eigenvalues --    0.03091   0.03720   0.04307   0.04543   0.05742
 Alpha virt. eigenvalues --    0.06983   0.07270   0.08107   0.08953   0.09812
 Alpha virt. eigenvalues --    0.11315   0.11822   0.12882   0.13602   0.14597

 Mulliken charges:
               1
     1  Si   1.889632
     2  O   -1.634675
     3  C    0.893522
     4  C   -1.341495
     5  H    0.086792
     6  H    0.233955
     7  N    0.773047
     8  C   -0.676075
     9  H    0.102608
    10  H    0.002901
    11  H    0.092064
    12  H   -0.230664
    13  H   -0.191611
 Sum of Mulliken charges =  -0.00000

 Dipole moment (field-independent basis, Debye):
    X=             -2.0193    Y=             -2.7087    Z=              0.8423  Tot=              3.4820

 Test job not archived.
 1\1\GINC-SE404\SP\RHF\Aug-CC-pVDZ\C3H7N1O1Si1\OHZDE\09-Apr-2025\0\\#t
 hf aug-cc-pvdz iop(5/13=1,5/36=2,99/5=2) pseudo=read geom=check guess=
 (read,tcheck) scf=(maxcycle=1)\\title\\0,1\Si,0,-1.446653,-0.362857,0.
 160401\O,0,-0.056644,-1.012055,-0.501066\C,0,1.215679,-1.067159,0.0960
 24\C,0,1.922998,0.225902,0.052869\H,0,1.815238,-1.803271,-0.445868\H,0
 ,1.162094,-1.388349,1.144786\N,0,2.459908,1.245197,0.026262\C,0,-1.580
 478,1.478177,-0.105532\H,0,-0.750693,2.015593,0.360442\H,0,-2.513626,1
 .847897,0.332594\H,0,-1.58751,1.72204,-1.171152\H,0,-1.442466,-0.67430

 Normal termination of Gaussian 16 at Wed Apr  9 00:06:20 2025.
