 Gaussian 16, Revision C.01,

 ----------------------------------------------------------------------
 #t hf aug-cc-pvdz symm=none int=(grid=ultrafine) guess=(read,tcheck) s
 table=opt
 ----------------------------------------------------------------------
 -----
 title
 -----
 Symbolic Z-matrix:
 Charge =  0 Multiplicity = 2

 SCF Done:  E(UHF) =  -590.930996729     A.U. after   28 cycles
 Normal termination of Gaussian 16 at Tue Apr  8 23:23:36 2025.
 Gaussian 16:  ES64L-G16RevC.01  3-Jul-2019

 ----------------------------------------------------------------------
 #t hf aug-cc-pvdz iop(5/13=1,5/36=2,99/5=2) pseudo=read geom=check gue
 ss=(read,tcheck) scf=(maxcycle=1)
 ----------------------------------------------------------------------
 -----
 title
 -----
 Structure from the checkpoint file:  "BDE49_nonexpt_1225_mol3.chk"
 Charge =  0 Multiplicity = 2

                         Standard orientation:
 ---------------------------------------------------------------------
 Center     Atomic      Atomic             Coordinates (Angstroms)
 Number     Number       Type             X           Y           Z
 ---------------------------------------------------------------------
      1         16           0        2.071074   -0.007052   -0.182252
      2          6           0        0.374427   -0.001436    0.474224
      3          6           0       -0.454982    1.214330    0.128457
      4          6           0       -1.703111    0.882539   -0.192308
      5          6           0       -1.946099   -0.606543   -0.103838
      6          6           0       -0.518909   -1.194986    0.033188
      7          1           0       -2.479030   -1.001608   -0.973949
      8          1           0       -2.565446   -0.838439    0.771998
      9          1           0       -0.459115   -2.030050    0.732353
     10          1           0       -0.173158   -1.557027   -0.936851
     11          1           0        0.563269   -0.028479    1.560601
     12          1           0       -0.047816    2.216264    0.174342
     13          1           0       -2.483843    1.588753   -0.450801
 ---------------------------------------------------------------------

 SCF Done:  E(UHF) =  -591.191834697     A.U. after    2 cycles

 The electronic state is 2-A.
 Alpha  occ. eigenvalues --  -93.96263 -11.28081 -11.24328 -11.24299 -11.24267
 Alpha  occ. eigenvalues --  -11.24202  -8.24297  -6.23475  -6.21711  -6.21403
 Alpha  occ. eigenvalues --   -1.15689  -1.04402  -0.98011  -0.91393  -0.79501
 Alpha  occ. eigenvalues --   -0.74158  -0.69487  -0.64568  -0.58195  -0.54910
 Alpha  occ. eigenvalues --   -0.52578  -0.51625  -0.50643  -0.48785  -0.43184
 Alpha  occ. eigenvalues --   -0.37848  -0.35894
 Alpha virt. eigenvalues --    0.03490   0.03842   0.04128   0.04730   0.06204
 Alpha virt. eigenvalues --    0.06316   0.07110   0.08311   0.11143   0.12230
 Alpha virt. eigenvalues --    0.12623   0.13552   0.14478   0.14827   0.15389

  Beta  occ. eigenvalues --  -93.95365 -11.28224 -11.24452 -11.24278 -11.24231
  Beta  occ. eigenvalues --  -11.24047  -8.23266  -6.21167  -6.20861  -6.19505
  Beta  occ. eigenvalues --   -1.15231  -1.01080  -0.97829  -0.87035  -0.78424
  Beta  occ. eigenvalues --   -0.73597  -0.68930  -0.64088  -0.57104  -0.54484
  Beta  occ. eigenvalues --   -0.52312  -0.51361  -0.50570  -0.47700  -0.36532
  Beta  occ. eigenvalues --   -0.34887
  Beta virt. eigenvalues --    0.01053   0.03503   0.03926   0.04179   0.04806
  Beta virt. eigenvalues --    0.06308   0.06325   0.07290   0.08638   0.11498
  Beta virt. eigenvalues --    0.12335   0.12799   0.13658   0.14822   0.15227

 Mulliken charges and spin densities:
               1          2
     1  S    0.196231   1.093902
     2  C   -0.788140  -0.155792
     3  C    0.263314   0.144663
     4  C    0.342241  -0.124329
     5  C   -0.539436   0.012830
     6  C   -0.257083   0.025284
     7  H    0.158299  -0.001963
     8  H    0.188575  -0.002534
     9  H    0.157669  -0.000227
    10  H    0.163093  -0.003535
    11  H    0.280282   0.015424
    12  H   -0.073611  -0.009308
    13  H   -0.091432   0.005584
 Sum of Mulliken charges =  -0.00000   1.00000

 Dipole moment (field-independent basis, Debye):
    X=             -1.9945    Y=             -0.2115    Z=              0.6526  Tot=              2.1092
                          Isotropic Fermi Contact Couplings
        Atom                 a.u.       MegaHertz       Gauss      10(-4) cm-1
     1  S(33)              0.17742      60.93737      21.74397      20.32652
     2  C(13)             -0.02926     -32.88838     -11.73539     -10.97038
     3  C(13)              0.02351      26.43456       9.43251       8.81762
     4  C(13)             -0.01614     -18.14797      -6.47565      -6.05351
     5  C(13)              0.00394       4.42942       1.58053       1.47750
     6  C(13)              0.00788       8.85540       3.15983       2.95384
     7  H(1)              -0.00089      -3.96432      -1.41457      -1.32236
     8  H(1)              -0.00135      -6.03302      -2.15273      -2.01240

 Normal termination of Gaussian 16 at Tue Apr  8 23:23:41 2025.
