 Gaussian 16, Revision C.01,

 ----------------------------------------------------------------------
 #t hf aug-cc-pvdz symm=none int=(grid=ultrafine) guess=(read,tcheck) s
 table=(opt,rrhf)
 ----------------------------------------------------------------------
 -----
 title
 -----
 Symbolic Z-matrix:
 Charge =  0 Multiplicity = 1

 SCF Done:  E(RHF) =  -1026.73719835     A.U. after   16 cycles
 Normal termination of Gaussian 16 at Tue Apr  8 23:17:17 2025.
 Gaussian 16:  ES64L-G16RevC.01  3-Jul-2019

 ----------------------------------------------------------------------
 #t hf aug-cc-pvdz iop(5/13=1,5/36=2,99/5=2) pseudo=read geom=check gue
 ss=(read,tcheck) scf=(maxcycle=1)
 ----------------------------------------------------------------------
 -----
 title
 -----
 Structure from the checkpoint file:  "BDE49_expt_447_mol1.chk"
 Charge =  0 Multiplicity = 1

                         Standard orientation:
 ---------------------------------------------------------------------
 Center     Atomic      Atomic             Coordinates (Angstroms)
 Number     Number       Type             X           Y           Z
 ---------------------------------------------------------------------
      1          6           0       -3.311931   -0.953597    0.877033
      2          6           0       -2.054490   -1.533554    0.921206
      3          6           0       -3.534997    0.201017    0.119431
      4          6           0       -2.470565    0.762231   -0.587048
      5          6           0       -1.202617    0.181554   -0.531663
      6          6           0       -0.978745   -0.970054    0.219722
      7          7           0        0.303261   -1.559704    0.335761
      8         16           0        1.487153   -1.473697   -0.870491
      9          6           0        2.642682   -0.260205   -0.230759
     10          6           0        2.484542    0.366175    1.004236
     11          6           0        3.745253    0.044473   -1.035444
     12          6           0        4.684497    0.973430   -0.599446
     13          6           0        3.430135    1.297312    1.429541
     14          6           0        4.531804    1.604918    0.634569
     15          1           0        1.628127    0.122360    1.619945
     16          1           0        3.301426    1.783444    2.390457
     17          1           0        5.264161    2.329318    0.971293
     18          1           0        3.869461   -0.441704   -1.997897
     19          1           0        5.537733    1.204420   -1.227539
     20          1           0       -1.903417   -2.435152    1.507071
     21          1           0       -4.144334   -1.386876    1.418087
     22          1           0       -2.606274    1.654584   -1.183184
     23          1           0       -0.384665    0.630597   -1.080678
     24          1           0        0.335125   -2.408319    0.881407
     25          8           0       -4.812470    0.690756    0.136095
     26          6           0       -5.091775    1.858557   -0.618802
     27          1           0       -4.502236    2.715131   -0.271238
     28          1           0       -6.149726    2.066992   -0.466432
     29          1           0       -4.905648    1.702700   -1.687979
 ---------------------------------------------------------------------

 SCF Done:  E(RHF) =  -1027.44016580     A.U. after    2 cycles

 The electronic state is 1-A.
 Alpha  occ. eigenvalues --  -93.98876 -20.56686 -15.53493 -11.29737 -11.29300
 Alpha  occ. eigenvalues --  -11.28233 -11.27621 -11.24937 -11.24824 -11.24777
 Alpha  occ. eigenvalues --  -11.24479 -11.24306 -11.24214 -11.24186 -11.24003
 Alpha  occ. eigenvalues --  -11.23909  -8.26558  -6.24392  -6.24179  -6.23973
 Alpha  occ. eigenvalues --   -1.48992  -1.25479  -1.16496  -1.14129  -1.05955
 Alpha  occ. eigenvalues --   -1.02504  -1.02167  -1.01056  -0.95667  -0.93034
 Alpha  occ. eigenvalues --   -0.85129  -0.84149  -0.82585  -0.80759  -0.74406
 Alpha  occ. eigenvalues --   -0.72185  -0.71178  -0.68445  -0.65580  -0.65296
 Alpha  occ. eigenvalues --   -0.64557  -0.63322  -0.62100  -0.61002  -0.60418
 Alpha  occ. eigenvalues --   -0.59500  -0.58269  -0.55889  -0.54344  -0.52859
 Alpha  occ. eigenvalues --   -0.52413  -0.52017  -0.51056  -0.48682  -0.47718
 Alpha  occ. eigenvalues --   -0.43004  -0.42100  -0.35334  -0.35069  -0.31696
 Alpha  occ. eigenvalues --   -0.29567
 Alpha virt. eigenvalues --    0.03378   0.03428   0.03540   0.03739   0.04117
 Alpha virt. eigenvalues --    0.04955   0.05181   0.05472   0.06150   0.07255
 Alpha virt. eigenvalues --    0.07425   0.08203   0.08491   0.09565   0.10096

 Mulliken charges:
               1
     1  C    0.443388
     2  C    0.709458
     3  C    1.662854
     4  C    0.205855
     5  C    0.637323
     6  C   -2.041136
     7  N    1.079140
     8  S    0.493954
     9  C    0.527567
    10  C    0.102953
    11  C   -0.309052
    12  C    0.369666
    13  C    0.356408
    14  C    0.077341
    15  H   -0.403503
    16  H   -0.246844
    17  H   -0.216510
    18  H   -0.233398
    19  H   -0.226832
    20  H   -0.372980
    21  H   -0.300675
    22  H   -0.428795
    23  H   -0.309720
    24  H   -0.125845
    25  O   -1.893407
    26  C    0.138583
    27  H    0.171577
    28  H   -0.042967
    29  H    0.175596
 Sum of Mulliken charges =   0.00000

 Dipole moment (field-independent basis, Debye):
    X=              0.1366    Y=              1.0858    Z=              0.0658  Tot=              1.0964

 Test job not archived.
 1\1\GINC-SE402\SP\RHF\Aug-CC-pVDZ\C13H13N1O1S1\OHZDE\08-Apr-2025\0\\#t
  hf aug-cc-pvdz iop(5/13=1,5/36=2,99/5=2) pseudo=read geom=check guess
 =(read,tcheck) scf=(maxcycle=1)\\title\\0,1\C,0,-3.311931,-0.953597,0.
 877033\C,0,-2.05449,-1.533554,0.921206\C,0,-3.534997,0.201017,0.119431
 \C,0,-2.470565,0.762231,-0.587048\C,0,-1.202617,0.181554,-0.531663\C,0
 ,-0.978745,-0.970054,0.219722\N,0,0.303261,-1.559704,0.335761\S,0,1.48
 7153,-1.473697,-0.870491\C,0,2.642682,-0.260205,-0.230759\C,0,2.484542
 ,0.366175,1.004236\C,0,3.745253,0.044473,-1.035444\C,0,4.684497,0.9734

 Normal termination of Gaussian 16 at Tue Apr  8 23:17:47 2025.
