 Gaussian 16, Revision C.01,

 ----------------------------------------------------------------------
 #t hf aug-cc-pvdz symm=none int=(grid=ultrafine) guess=(read,tcheck) s
 table=(opt,rrhf)
 ----------------------------------------------------------------------
 -----
 title
 -----
 Symbolic Z-matrix:
 Charge =  0 Multiplicity = 1

 SCF Done:  E(RHF) =  -724.190281829     A.U. after   14 cycles
 Normal termination of Gaussian 16 at Wed Apr  9 00:21:41 2025.
 Gaussian 16:  ES64L-G16RevC.01  3-Jul-2019

 ----------------------------------------------------------------------
 #t hf aug-cc-pvdz iop(5/13=1,5/36=2,99/5=2) pseudo=read geom=check gue
 ss=(read,tcheck) scf=(maxcycle=1)
 ----------------------------------------------------------------------
 -----
 title
 -----
 Structure from the checkpoint file:  "BDE49_nonexpt_2645_mol1.chk"
 Charge =  0 Multiplicity = 1

                         Standard orientation:
 ---------------------------------------------------------------------
 Center     Atomic      Atomic             Coordinates (Angstroms)
 Number     Number       Type             X           Y           Z
 ---------------------------------------------------------------------
      1          9           0        2.279918    0.513202    0.000003
      2         16           0        1.207407   -0.739184   -0.000004
      3          6           0       -0.296684    0.235012   -0.000003
      4          8           0       -0.365592    1.425794    0.000000
      5          8           0       -1.303494   -0.649179    0.000000
      6          6           0       -2.637260   -0.086408    0.000005
      7          1           0       -3.306948   -0.942119    0.000005
      8          1           0       -2.787235    0.522853   -0.891520
      9          1           0       -2.787230    0.522850    0.891533
 ---------------------------------------------------------------------

 SCF Done:  E(RHF) =  -724.560563467     A.U. after    2 cycles

 The electronic state is 1-A.
 Alpha  occ. eigenvalues --  -94.06574 -26.48946 -20.62549 -20.56914 -11.44217
 Alpha  occ. eigenvalues --  -11.32324  -8.33903  -6.31678  -6.31386  -6.31096
 Alpha  occ. eigenvalues --   -1.59566  -1.57687  -1.49182  -1.07742  -0.97906
 Alpha  occ. eigenvalues --   -0.81651  -0.74677  -0.71547  -0.70704  -0.67044
 Alpha  occ. eigenvalues --   -0.66236  -0.63307  -0.59070  -0.58336  -0.55169
 Alpha  occ. eigenvalues --   -0.48983  -0.45972  -0.41248
 Alpha virt. eigenvalues --    0.03074   0.04852   0.05406   0.06457   0.06657
 Alpha virt. eigenvalues --    0.09133   0.11256   0.13153   0.13424   0.13685
 Alpha virt. eigenvalues --    0.13830   0.15089   0.15349   0.16864   0.17194

 Mulliken charges:
               1
     1  F   -0.664180
     2  S    1.100458
     3  C    0.856267
     4  O   -0.927421
     5  O   -0.979332
     6  C    0.245705
     7  H    0.016357
     8  H    0.176073
     9  H    0.176073
 Sum of Mulliken charges =   0.00000

 Dipole moment (field-independent basis, Debye):
    X=             -2.9441    Y=             -1.8989    Z=             -0.0000  Tot=              3.5034

 Test job not archived.
 1\1\GINC-SE365\SP\RHF\Aug-CC-pVDZ\C2H3F1O2S1\OHZDE\09-Apr-2025\0\\#t h
 f aug-cc-pvdz iop(5/13=1,5/36=2,99/5=2) pseudo=read geom=check guess=(
 read,tcheck) scf=(maxcycle=1)\\title\\0,1\F,0,2.279918,0.513202,0.0000
 03\S,0,1.207407,-0.739184,-0.000004\C,0,-0.296684,0.235012,-0.000003\O
 ,0,-0.365592,1.425794,0.\O,0,-1.303494,-0.649179,0.\C,0,-2.63726,-0.08
 6408,0.000005\H,0,-3.306948,-0.942118,0.000005\H,0,-2.787235,0.522853,
 -0.89152\H,0,-2.78723,0.52285,0.891533\\Version=ES64L-G16RevC.01\State
 =1-A\HF=-724.5605635\RMSD=6.358e-03\Dipole=-1.1583013,-0.747075,-0.000

 Normal termination of Gaussian 16 at Wed Apr  9 00:21:43 2025.
