 Gaussian 16, Revision C.01,

 ----------------------------------------------------------------------
 #t hf aug-cc-pvdz symm=none int=(grid=ultrafine) guess=(read,tcheck) s
 table=(opt,rrhf)
 ----------------------------------------------------------------------
 -----
 title
 -----
 Symbolic Z-matrix:
 Charge =  0 Multiplicity = 1

 SCF Done:  E(RHF) =  -668.492286408     A.U. after   14 cycles
 Normal termination of Gaussian 16 at Wed Apr  9 00:24:49 2025.
 Gaussian 16:  ES64L-G16RevC.01  3-Jul-2019

 ----------------------------------------------------------------------
 #t hf aug-cc-pvdz iop(5/13=1,5/36=2,99/5=2) pseudo=read geom=check gue
 ss=(read,tcheck) scf=(maxcycle=1)
 ----------------------------------------------------------------------
 -----
 title
 -----
 Structure from the checkpoint file:  "BDE49_nonexpt_2708_mol1.chk"
 Charge =  0 Multiplicity = 1

                         Standard orientation:
 ---------------------------------------------------------------------
 Center     Atomic      Atomic             Coordinates (Angstroms)
 Number     Number       Type             X           Y           Z
 ---------------------------------------------------------------------
      1          9           0       -2.489268   -0.687365    0.000147
      2          7           0       -0.008315   -0.478613   -0.000003
      3          6           0        1.617928    1.353949    0.000030
      4          6           0        1.214062   -0.099037    0.000016
      5          6           0        2.289615   -1.150547    0.000018
      6         16           0       -1.318317    0.495913   -0.000115
      7          1           0        1.204848    1.858483    0.882455
      8          1           0        1.204837    1.858490   -0.882385
      9          1           0        2.699653    1.490377    0.000027
     10          1           0        1.848597   -2.146245   -0.000001
     11          1           0        2.933544   -1.042674    0.880228
     12          1           0        2.933579   -1.042654   -0.880164
 ---------------------------------------------------------------------

 SCF Done:  E(RHF) =  -668.822480639     A.U. after    2 cycles

 The electronic state is 1-A.
 Alpha  occ. eigenvalues --  -94.05658 -26.46021 -15.53440 -11.32055 -11.26247
 Alpha  occ. eigenvalues --  -11.25242  -8.32672  -6.30426  -6.30216  -6.29860
 Alpha  occ. eigenvalues --   -1.56390  -1.27660  -1.07476  -0.98806  -0.95902
 Alpha  occ. eigenvalues --   -0.75939  -0.69126  -0.67696  -0.65444  -0.63192
 Alpha  occ. eigenvalues --   -0.62083  -0.59324  -0.57791  -0.56459  -0.54717
 Alpha  occ. eigenvalues --   -0.52227  -0.44882  -0.35131
 Alpha virt. eigenvalues --    0.02927   0.03956   0.04247   0.04786   0.06776
 Alpha virt. eigenvalues --    0.07000   0.08198   0.08383   0.10324   0.10477
 Alpha virt. eigenvalues --    0.12621   0.13583   0.14541   0.15322   0.15661

 Mulliken charges:
               1
     1  F   -0.650053
     2  N    0.527411
     3  C   -0.158311
     4  C   -1.349253
     5  C   -0.581077
     6  S    0.954970
     7  H    0.260464
     8  H    0.260458
     9  H    0.056198
    10  H    0.160331
    11  H    0.259434
    12  H    0.259429
 Sum of Mulliken charges =  -0.00000

 Dipole moment (field-independent basis, Debye):
    X=              4.1767    Y=              1.9106    Z=             -0.0001  Tot=              4.5929

 Test job not archived.
 1\1\GINC-SE084\SP\RHF\Aug-CC-pVDZ\C3H6F1N1S1\OHZDE\09-Apr-2025\0\\#t h
 f aug-cc-pvdz iop(5/13=1,5/36=2,99/5=2) pseudo=read geom=check guess=(
 read,tcheck) scf=(maxcycle=1)\\title\\0,1\F,0,2.489268,-0.687365,-0.00
 0147\N,0,0.008315,-0.478613,0.000003\C,0,-1.617928,1.353949,-0.00003\C
 ,0,-1.214062,-0.099037,-0.000016\C,0,-2.289615,-1.150547,-0.000018\S,0
 ,1.318317,0.495913,0.000115\H,0,-1.204848,1.858483,-0.882455\H,0,-1.20
 4837,1.85849,0.882385\H,0,-2.699653,1.490377,-0.000027\H,0,-1.848597,-
 2.146245,0.000001\H,0,-2.933544,-1.042674,-0.880228\H,0,-2.933579,-1.0

 Normal termination of Gaussian 16 at Wed Apr  9 00:24:55 2025.
