 Gaussian 16, Revision C.01,

 ----------------------------------------------------------------------
 #t hf aug-cc-pvdz symm=none int=(grid=ultrafine) guess=(read,tcheck) s
 table=(opt,rrhf)
 ----------------------------------------------------------------------
 -----
 title
 -----
 Symbolic Z-matrix:
 Charge =  0 Multiplicity = 1

 SCF Done:  E(RHF) =  -768.974832993     A.U. after   13 cycles
 Normal termination of Gaussian 16 at Wed Apr  9 00:10:36 2025.
 Gaussian 16:  ES64L-G16RevC.01  3-Jul-2019

 ----------------------------------------------------------------------
 #t hf aug-cc-pvdz iop(5/13=1,5/36=2,99/5=2) pseudo=read geom=check gue
 ss=(read,tcheck) scf=(maxcycle=1)
 ----------------------------------------------------------------------
 -----
 title
 -----
 Structure from the checkpoint file:  "BDE49_nonexpt_2355_mol1.chk"
 Charge =  0 Multiplicity = 1

                         Standard orientation:
 ---------------------------------------------------------------------
 Center     Atomic      Atomic             Coordinates (Angstroms)
 Number     Number       Type             X           Y           Z
 ---------------------------------------------------------------------
      1         14           0       -0.208910   -0.850370   -0.430570
      2         14           0       -2.120508    0.324893    0.285241
      3          6           0        1.348993    0.232744   -0.059114
      4          8           0        1.428496    1.343854   -0.508443
      5          1           0       -0.213448   -1.082361   -1.891764
      6          1           0       -0.081471   -2.162513    0.259933
      7          8           0        2.351619   -0.259728    0.723031
      8          1           0       -3.324485   -0.506400    0.048099
      9          1           0       -2.238866    1.593662   -0.465240
     10          1           0        2.143687   -1.164417    0.986728
     11          1           0       -2.008451    0.609245    1.734813
 ---------------------------------------------------------------------

 SCF Done:  E(RHF) =  -769.226005825     A.U. after    2 cycles

 The electronic state is 1-A.
 Alpha  occ. eigenvalues --  -69.55814 -69.54427 -20.60702 -20.54664 -11.38750
 Alpha  occ. eigenvalues --   -6.23027  -6.21626  -3.98376  -3.98347  -3.98324
 Alpha  occ. eigenvalues --   -3.96988  -3.96975  -3.96968  -1.54437  -1.45956
 Alpha  occ. eigenvalues --   -0.86467  -0.81500  -0.75224  -0.67411  -0.65665
 Alpha  occ. eigenvalues --   -0.62520  -0.57120  -0.52535  -0.50611  -0.49731
 Alpha  occ. eigenvalues --   -0.48034  -0.43891  -0.41611
 Alpha virt. eigenvalues --    0.02833   0.03363   0.04368   0.05554   0.06413
 Alpha virt. eigenvalues --    0.06704   0.07241   0.08276   0.08782   0.08977
 Alpha virt. eigenvalues --    0.09459   0.09678   0.10842   0.11387   0.13175

 Mulliken charges:
               1
     1  Si   0.622990
     2  Si   0.384002
     3  C    1.386688
     4  O   -1.044644
     5  H   -0.148786
     6  H   -0.159473
     7  O   -1.155368
     8  H   -0.127218
     9  H   -0.094726
    10  H    0.435293
    11  H   -0.098758
 Sum of Mulliken charges =  -0.00000

 Dipole moment (field-independent basis, Debye):
    X=             -2.0114    Y=             -3.4749    Z=              0.8011  Tot=              4.0942

 Test job not archived.
 1\1\GINC-SE366\SP\RHF\Aug-CC-pVDZ\C1H6O2Si2\OHZDE\09-Apr-2025\0\\#t hf
  aug-cc-pvdz iop(5/13=1,5/36=2,99/5=2) pseudo=read geom=check guess=(r
 ead,tcheck) scf=(maxcycle=1)\\title\\0,1\Si,0,-0.20891,-0.85037,-0.430
 57\Si,0,-2.120508,0.324893,0.285241\C,0,1.348993,0.232744,-0.059114\O,
 0,1.428496,1.343854,-0.508443\H,0,-0.213448,-1.082361,-1.891764\H,0,-0
 .081471,-2.162513,0.259933\O,0,2.351619,-0.259728,0.723031\H,0,-3.3244
 85,-0.5064,0.048099\H,0,-2.238866,1.593662,-0.46524\H,0,2.143687,-1.16
 4417,0.986728\H,0,-2.008451,0.609245,1.734813\\Version=ES64L-G16RevC.0

 Normal termination of Gaussian 16 at Wed Apr  9 00:10:45 2025.
