 Gaussian 16, Revision C.01,

 ----------------------------------------------------------------------
 #t hf aug-cc-pvdz symm=none int=(grid=ultrafine) guess=(read,tcheck) s
 table=(opt,rrhf)
 ----------------------------------------------------------------------
 -----
 title
 -----
 Symbolic Z-matrix:
 Charge =  0 Multiplicity = 1

 SCF Done:  E(RHF) =  -1219.12797380     A.U. after   12 cycles
 Normal termination of Gaussian 16 at Wed Apr  9 00:49:57 2025.
 Gaussian 16:  ES64L-G16RevC.01  3-Jul-2019

 ----------------------------------------------------------------------
 #t hf aug-cc-pvdz iop(5/13=1,5/36=2,99/5=2) pseudo=read geom=check gue
 ss=(read,tcheck) scf=(maxcycle=1)
 ----------------------------------------------------------------------
 -----
 title
 -----
 Structure from the checkpoint file:  "BDE49_nonexpt_900_mol1.chk"
 Charge =  0 Multiplicity = 1

                         Standard orientation:
 ---------------------------------------------------------------------
 Center     Atomic      Atomic             Coordinates (Angstroms)
 Number     Number       Type             X           Y           Z
 ---------------------------------------------------------------------
      1         16           0       -1.177075   -1.388848   -0.000006
      2          5           0        0.009160   -0.010418   -0.000045
      3         16           0       -0.629001    1.695773    0.000010
      4         16           0        1.823968   -0.146940    0.000006
      5          1           0       -1.938375    1.390902    0.000026
      6          1           0       -0.305803   -2.411809    0.000015
      7          1           0        1.912123   -1.486777    0.000028
 ---------------------------------------------------------------------

 SCF Done:  E(RHF) =  -1219.33345412     A.U. after    2 cycles

 The electronic state is 1-A.
 Alpha  occ. eigenvalues --  -93.97029 -93.96767 -93.96371  -8.25329  -8.25067
 Alpha  occ. eigenvalues --   -8.24674  -7.68980  -6.23169  -6.23016  -6.22905
 Alpha  occ. eigenvalues --   -6.22846  -6.22755  -6.22583  -6.22513  -6.22371
 Alpha  occ. eigenvalues --   -6.22195  -1.08078  -1.01568  -1.01377  -0.68691
 Alpha  occ. eigenvalues --   -0.62064  -0.55279  -0.54655  -0.47919  -0.47421
 Alpha  occ. eigenvalues --   -0.45514  -0.39182  -0.38464
 Alpha virt. eigenvalues --    0.03310   0.04578   0.05275   0.05599   0.06785
 Alpha virt. eigenvalues --    0.08042   0.09370   0.09965   0.10143   0.11406
 Alpha virt. eigenvalues --    0.13295   0.13465   0.14573   0.15774   0.16304

 Mulliken charges:
               1
     1  S   -0.618192
     2  B    1.134791
     3  S   -0.653822
     4  S   -0.603380
     5  H    0.261874
     6  H    0.246720
     7  H    0.232007
 Sum of Mulliken charges =  -0.00000

 Dipole moment (field-independent basis, Debye):
    X=             -0.2107    Y=             -1.8394    Z=              0.0000  Tot=              1.8514

 Test job not archived.
 1\1\GINC-SE054\SP\RHF\Aug-CC-pVDZ\B1H3S3\OHZDE\09-Apr-2025\0\\#t hf au
 g-cc-pvdz iop(5/13=1,5/36=2,99/5=2) pseudo=read geom=check guess=(read
 ,tcheck) scf=(maxcycle=1)\\title\\0,1\S,0,1.177083,1.388841,-0.000006\
 B,0,-0.00916,0.010418,-0.000045\S,0,0.628992,-1.695777,0.00001\S,0,-1.
 823967,0.14695,0.000006\H,0,1.938367,-1.390913,0.000026\H,0,0.305816,2
 .411807,0.000015\H,0,-1.912115,1.486787,0.000028\\Version=ES64L-G16Rev
 C.01\State=1-A\HF=-1219.3334541\RMSD=5.860e-03\Dipole=0.0828944,0.7236
 68,0.0000061\Quadrupole=0.6223518,2.5032642,-3.125616,-3.4739137,0.000

 Normal termination of Gaussian 16 at Wed Apr  9 00:50:00 2025.
