 Gaussian 16, Revision C.01,

 ----------------------------------------------------------------------
 #t hf aug-cc-pvdz symm=none int=(grid=ultrafine) guess=(read,tcheck) s
 table=(opt,rrhf)
 ----------------------------------------------------------------------
 -----
 title
 -----
 Symbolic Z-matrix:
 Charge =  0 Multiplicity = 1

 SCF Done:  E(RHF) =  -1414.26798646     A.U. after   14 cycles
 Normal termination of Gaussian 16 at Wed Apr  9 00:13:04 2025.
 Gaussian 16:  ES64L-G16RevC.01  3-Jul-2019

 ----------------------------------------------------------------------
 #t hf aug-cc-pvdz iop(5/13=1,5/36=2,99/5=2) pseudo=read geom=check gue
 ss=(read,tcheck) scf=(maxcycle=1)
 ----------------------------------------------------------------------
 -----
 title
 -----
 Structure from the checkpoint file:  "BDE49_nonexpt_2439_mol1.chk"
 Charge =  0 Multiplicity = 1

                         Standard orientation:
 ---------------------------------------------------------------------
 Center     Atomic      Atomic             Coordinates (Angstroms)
 Number     Number       Type             X           Y           Z
 ---------------------------------------------------------------------
      1         14           0       -2.541732   -0.014901   -0.578541
      2         14           0       -0.800442   -0.359886    0.977707
      3          6           0        0.859153    0.091723    0.163016
      4          1           0       -0.771054   -1.788307    1.390356
      5          1           0       -0.961566    0.487923    2.177072
      6         16           0        1.239023    1.671290   -0.057531
      7         16           0        1.939706   -1.165624   -0.408357
      8          1           0       -3.828545   -0.410384    0.043333
      9          1           0       -2.307445   -0.856701   -1.775461
     10          1           0       -2.601929    1.408494   -0.976692
     11          1           0        1.246390   -2.234996    0.029179
 ---------------------------------------------------------------------

 SCF Done:  E(RHF) =  -1414.49084548     A.U. after    2 cycles

 The electronic state is 1-A.
 Alpha  occ. eigenvalues --  -93.99758 -93.94267 -69.55547 -69.54045 -11.35176
 Alpha  occ. eigenvalues --   -8.27859  -8.22445  -6.25679  -6.25527  -6.25333
 Alpha  occ. eigenvalues --   -6.22682  -6.21237  -6.20264  -6.20063  -6.19850
 Alpha  occ. eigenvalues --   -3.98044  -3.98002  -3.97985  -3.96595  -3.96588
 Alpha  occ. eigenvalues --   -3.96582  -1.13915  -1.01471  -0.82404  -0.75311
 Alpha  occ. eigenvalues --   -0.69987  -0.60445  -0.55755  -0.51871  -0.51482
 Alpha  occ. eigenvalues --   -0.49736  -0.49469  -0.47885  -0.42468  -0.36535
 Alpha  occ. eigenvalues --   -0.34843
 Alpha virt. eigenvalues --    0.01916   0.03244   0.03569   0.04740   0.05626
 Alpha virt. eigenvalues --    0.06609   0.07055   0.07411   0.07886   0.08337
 Alpha virt. eigenvalues --    0.08766   0.09512   0.09906   0.11202   0.11310

 Mulliken charges:
               1
     1  Si   0.315571
     2  Si   0.738869
     3  C   -1.014552
     4  H   -0.189331
     5  H   -0.111587
     6  S    0.119065
     7  S    0.120052
     8  H   -0.130622
     9  H   -0.073466
    10  H   -0.079021
    11  H    0.305023
 Sum of Mulliken charges =  -0.00000

 Dipole moment (field-independent basis, Debye):
    X=             -1.6421    Y=             -2.6385    Z=              0.6303  Tot=              3.1711

 Test job not archived.
 1\1\GINC-SE212\SP\RHF\Aug-CC-pVDZ\C1H6S2Si2\OHZDE\09-Apr-2025\0\\#t hf
  aug-cc-pvdz iop(5/13=1,5/36=2,99/5=2) pseudo=read geom=check guess=(r
 ead,tcheck) scf=(maxcycle=1)\\title\\0,1\Si,0,-2.541732,-0.014901,-0.5
 78541\Si,0,-0.800442,-0.359886,0.977707\C,0,0.859153,0.091723,0.163016
 \H,0,-0.771054,-1.788307,1.390356\H,0,-0.961566,0.487923,2.177072\S,0,
 1.239023,1.67129,-0.057531\S,0,1.939706,-1.165624,-0.408357\H,0,-3.828
 545,-0.410384,0.043333\H,0,-2.307445,-0.856701,-1.775461\H,0,-2.601929
 ,1.408494,-0.976692\H,0,1.24639,-2.234996,0.029179\\Version=ES64L-G16R

 Normal termination of Gaussian 16 at Wed Apr  9 00:13:08 2025.
