 Gaussian 16, Revision C.01,

 ----------------------------------------------------------------------
 #t hf aug-cc-pvdz symm=none int=(grid=ultrafine) guess=(read,tcheck) s
 table=(opt,rrhf)
 ----------------------------------------------------------------------
 -----
 title
 -----
 Symbolic Z-matrix:
 Charge =  0 Multiplicity = 1

 SCF Done:  E(RHF) =  -703.133319364     A.U. after   15 cycles
 Normal termination of Gaussian 16 at Tue Apr  8 23:15:18 2025.
 Gaussian 16:  ES64L-G16RevC.01  3-Jul-2019

 ----------------------------------------------------------------------
 #t hf aug-cc-pvdz iop(5/13=1,5/36=2,99/5=2) pseudo=read geom=check gue
 ss=(read,tcheck) scf=(maxcycle=1)
 ----------------------------------------------------------------------
 -----
 title
 -----
 Structure from the checkpoint file:  "BDE49_expt_860_mol1.chk"
 Charge =  0 Multiplicity = 1

                         Standard orientation:
 ---------------------------------------------------------------------
 Center     Atomic      Atomic             Coordinates (Angstroms)
 Number     Number       Type             X           Y           Z
 ---------------------------------------------------------------------
      1          6           0       -1.842537    0.015792    0.005051
      2          6           0       -1.148576   -1.196119   -0.000573
      3          6           0        0.243288   -1.201046   -0.008411
      4          6           0       -1.135331    1.220797   -0.001895
      5          6           0        0.252849    1.207525   -0.012196
      6          6           0        0.956849   -0.001653   -0.004887
      7          1           0       -1.688369    2.152051   -0.004415
      8          1           0        0.800034    2.142114   -0.026739
      9         16           0        2.753837   -0.013731   -0.073656
     10          1           0        2.984538    0.038943    1.251914
     11          1           0       -1.693703   -2.135601   -0.001378
     12          1           0        0.779001   -2.142235   -0.017029
     13          8           0       -3.203931    0.086988    0.012732
     14          1           0       -3.570703   -0.803264    0.011754
 ---------------------------------------------------------------------

 SCF Done:  E(RHF) =  -703.502673349     A.U. after    2 cycles

 The electronic state is 1-A.
 Alpha  occ. eigenvalues --  -93.95591 -20.59138 -11.32284 -11.27167 -11.26263
 Alpha  occ. eigenvalues --  -11.26057 -11.25208 -11.24615  -8.23605  -6.21458
 Alpha  occ. eigenvalues --   -6.21316  -6.21100  -1.50557  -1.16992  -1.06281
 Alpha  occ. eigenvalues --   -1.03468  -0.96390  -0.86807  -0.82698  -0.75268
 Alpha  occ. eigenvalues --   -0.69484  -0.66080  -0.62924  -0.61425  -0.60046
 Alpha  occ. eigenvalues --   -0.58574  -0.56003  -0.51639  -0.50506  -0.47126
 Alpha  occ. eigenvalues --   -0.37704  -0.36275  -0.33131
 Alpha virt. eigenvalues --    0.02836   0.03986   0.04035   0.05144   0.05771
 Alpha virt. eigenvalues --    0.06908   0.08633   0.09120   0.10138   0.10815
 Alpha virt. eigenvalues --    0.12188   0.12511   0.12862   0.13171   0.13630

 Mulliken charges:
               1
     1  C    1.448073
     2  C    0.007307
     3  C   -0.071822
     4  C    0.366771
     5  C    0.067478
     6  C    0.054147
     7  H   -0.237120
     8  H   -0.187809
     9  S    0.026800
    10  H    0.339623
    11  H   -0.314827
    12  H   -0.171854
    13  O   -1.732941
    14  H    0.406173
 Sum of Mulliken charges =   0.00000

 Dipole moment (field-independent basis, Debye):
    X=             -1.5250    Y=             -1.2863    Z=              0.8757  Tot=              2.1787

 Test job not archived.
 1\1\GINC-SE343\SP\RHF\Aug-CC-pVDZ\C6H6O1S1\OHZDE\08-Apr-2025\0\\#t hf
 aug-cc-pvdz iop(5/13=1,5/36=2,99/5=2) pseudo=read geom=check guess=(re
 ad,tcheck) scf=(maxcycle=1)\\title\\0,1\C,0,-1.842537,0.015792,0.00505
 1\C,0,-1.148576,-1.196119,-0.000573\C,0,0.243288,-1.201046,-0.008411\C
 ,0,-1.135331,1.220797,-0.001895\C,0,0.252849,1.207525,-0.012196\C,0,0.
 956849,-0.001653,-0.004887\H,0,-1.688369,2.152051,-0.004415\H,0,0.8000
 34,2.142114,-0.026739\S,0,2.753837,-0.013731,-0.073656\H,0,2.984538,0.
 038943,1.251914\H,0,-1.693703,-2.135601,-0.001378\H,0,0.779001,-2.1422

 Normal termination of Gaussian 16 at Tue Apr  8 23:15:24 2025.
