 Gaussian 16, Revision C.01,

 ----------------------------------------------------------------------
 #t hf aug-cc-pvdz symm=none int=(grid=ultrafine) guess=(read,tcheck) s
 table=(opt,rrhf)
 ----------------------------------------------------------------------
 -----
 title
 -----
 Symbolic Z-matrix:
 Charge =  0 Multiplicity = 1

 SCF Done:  E(RHF) =  -779.711026812     A.U. after   12 cycles
 Normal termination of Gaussian 16 at Tue Apr  8 23:50:27 2025.
 Gaussian 16:  ES64L-G16RevC.01  3-Jul-2019

 ----------------------------------------------------------------------
 #t hf aug-cc-pvdz iop(5/13=1,5/36=2,99/5=2) pseudo=read geom=check gue
 ss=(read,tcheck) scf=(maxcycle=1)
 ----------------------------------------------------------------------
 -----
 title
 -----
 Structure from the checkpoint file:  "BDE49_nonexpt_1861_mol1.chk"
 Charge =  0 Multiplicity = 1

                         Standard orientation:
 ---------------------------------------------------------------------
 Center     Atomic      Atomic             Coordinates (Angstroms)
 Number     Number       Type             X           Y           Z
 ---------------------------------------------------------------------
      1         14           0        0.841219   -0.018430   -0.015789
      2          6           0       -1.067004    0.003019    0.030832
      3          8           0       -1.604772    1.299921   -0.103909
      4          1           0       -1.028032    1.794862   -0.700165
      5          8           0        1.168974    1.278590   -0.967332
      6          1           0        2.064495    1.622685   -1.009989
      7          8           0       -1.600338   -0.515481    1.230034
      8          1           0       -1.710429    0.233432    1.827308
      9          8           0        1.355847   -1.466212   -0.577286
     10          1           0        0.715298   -1.919914   -1.136207
     11          8           0       -1.472219   -0.851858   -1.005332
     12          1           0       -2.435796   -0.932898   -0.944967
     13          8           0        1.564159    0.249843    1.426114
     14          1           0        1.726215   -0.516694    1.981758
 ---------------------------------------------------------------------

 SCF Done:  E(RHF) =  -780.228940610     A.U. after    2 cycles

 The electronic state is 1-A.
 Alpha  occ. eigenvalues --  -69.60562 -20.57046 -20.56823 -20.56687 -20.56354
 Alpha  occ. eigenvalues --  -20.56035 -20.55612 -11.38925  -6.26745  -4.02245
 Alpha  occ. eigenvalues --   -4.02236  -4.02047  -1.54481  -1.47344  -1.44944
 Alpha  occ. eigenvalues --   -1.44257  -1.43559  -1.43367  -0.90340  -0.80285
 Alpha  occ. eigenvalues --   -0.76256  -0.73529  -0.71585  -0.71125  -0.67811
 Alpha  occ. eigenvalues --   -0.63218  -0.58651  -0.58263  -0.56369  -0.56114
 Alpha  occ. eigenvalues --   -0.54242  -0.53753  -0.52155  -0.51061  -0.49888
 Alpha  occ. eigenvalues --   -0.47874  -0.42708
 Alpha virt. eigenvalues --    0.03339   0.04513   0.04705   0.05237   0.07036
 Alpha virt. eigenvalues --    0.07082   0.07792   0.07976   0.08426   0.12610
 Alpha virt. eigenvalues --    0.14150   0.14669   0.15306   0.17903   0.19262

 Mulliken charges:
               1
     1  Si   3.732528
     2  C    2.765096
     3  O   -1.394249
     4  H    0.361774
     5  O   -1.574414
     6  H    0.399352
     7  O   -1.322608
     8  H    0.274827
     9  O   -1.585814
    10  H    0.488067
    11  O   -1.248232
    12  H    0.207365
    13  O   -1.490215
    14  H    0.386524
 Sum of Mulliken charges =  -0.00000

 Dipole moment (field-independent basis, Debye):
    X=              0.6408    Y=              0.3219    Z=              0.0579  Tot=              0.7195

 Test job not archived.
 1\1\GINC-SE092\SP\RHF\Aug-CC-pVDZ\C1H6O6Si1\OHZDE\08-Apr-2025\0\\#t hf
  aug-cc-pvdz iop(5/13=1,5/36=2,99/5=2) pseudo=read geom=check guess=(r
 ead,tcheck) scf=(maxcycle=1)\\title\\0,1\Si,0,0.841219,-0.01843,-0.015
 789\C,0,-1.067004,0.003019,0.030832\O,0,-1.604772,1.299921,-0.103909\H
 ,0,-1.028032,1.794862,-0.700165\O,0,1.168974,1.27859,-0.967332\H,0,2.0
 64495,1.622685,-1.009989\O,0,-1.600338,-0.515481,1.230034\H,0,-1.71042
 9,0.233431,1.827308\O,0,1.355847,-1.466212,-0.577286\H,0,0.715298,-1.9
 19914,-1.136207\O,0,-1.472219,-0.851858,-1.005332\H,0,-2.435796,-0.932

 Normal termination of Gaussian 16 at Tue Apr  8 23:50:33 2025.
