 Gaussian 16, Revision C.01,

 ----------------------------------------------------------------------
 #t hf aug-cc-pvdz symm=none int=(grid=ultrafine) guess=(read,tcheck) s
 table=opt
 ----------------------------------------------------------------------
 -----
 title
 -----
 Symbolic Z-matrix:
 Charge =  0 Multiplicity = 2

 SCF Done:  E(UHF) =  -710.037729524     A.U. after   17 cycles
 Normal termination of Gaussian 16 at Tue Apr  8 23:42:24 2025.
 Gaussian 16:  ES64L-G16RevC.01  3-Jul-2019

 ----------------------------------------------------------------------
 #t hf aug-cc-pvdz iop(5/13=1,5/36=2,99/5=2) pseudo=read geom=check gue
 ss=(read,tcheck) scf=(maxcycle=1)
 ----------------------------------------------------------------------
 -----
 title
 -----
 Structure from the checkpoint file:  "BDE49_nonexpt_1674_mol2.chk"
 Charge =  0 Multiplicity = 2

                         Standard orientation:
 ---------------------------------------------------------------------
 Center     Atomic      Atomic             Coordinates (Angstroms)
 Number     Number       Type             X           Y           Z
 ---------------------------------------------------------------------
      1         14           0        1.690232   -0.149125    0.104511
      2         15           0       -0.449925    0.014985   -0.647517
      3          6           0       -1.041270    1.479882    0.358123
      4          1           0       -0.844027    1.379805    1.428157
      5          1           0       -2.119894    1.586160    0.207206
      6          1           0       -0.561471    2.389403   -0.008675
      7          6           0       -1.229187   -1.372811    0.331897
      8          1           0       -2.312032   -1.328642    0.187887
      9          1           0       -1.018025   -1.324052    1.403174
     10          1           0       -0.879165   -2.331598   -0.055609
     11          1           0        2.589396    0.782065   -0.625288
     12          1           0        1.853592    0.067409    1.572617
 ---------------------------------------------------------------------

 SCF Done:  E(UHF) =  -710.204399318     A.U. after    2 cycles

 The electronic state is 2-A.
 Alpha  occ. eigenvalues --  -84.26362 -69.53936 -11.24267 -11.24197  -6.73501
 Alpha  occ. eigenvalues --   -6.21078  -4.25776  -4.25728  -4.25120  -3.97015
 Alpha  occ. eigenvalues --   -3.96099  -3.96080  -1.01329  -0.94345  -0.78649
 Alpha  occ. eigenvalues --   -0.68890  -0.59414  -0.58978  -0.56755  -0.56430
 Alpha  occ. eigenvalues --   -0.49595  -0.46215  -0.42521  -0.33409  -0.30950
 Alpha virt. eigenvalues --    0.03646   0.04416   0.04435   0.05014   0.06004
 Alpha virt. eigenvalues --    0.06558   0.07009   0.07352   0.08588   0.09947
 Alpha virt. eigenvalues --    0.10493   0.11141   0.12162   0.12942   0.14663

  Beta  occ. eigenvalues --  -84.26360 -69.53373 -11.24196 -11.24179  -6.73493
  Beta  occ. eigenvalues --   -6.20235  -4.25781  -4.25707  -4.25133  -3.95700
  Beta  occ. eigenvalues --   -3.95681  -3.94831  -1.01092  -0.94197  -0.76634
  Beta  occ. eigenvalues --   -0.66063  -0.59309  -0.58712  -0.56586  -0.56278
  Beta  occ. eigenvalues --   -0.48825  -0.45600  -0.41361  -0.31395
  Beta virt. eigenvalues --    0.01982   0.03710   0.04503   0.04935   0.05568
  Beta virt. eigenvalues --    0.06149   0.07112   0.07335   0.07429   0.08681
  Beta virt. eigenvalues --    0.10366   0.10758   0.11387   0.12547   0.13274

 Mulliken charges and spin densities:
               1          2
     1  Si   0.680983   1.045554
     2  P    0.550468  -0.009577
     3  C   -0.776692   0.005635
     4  H    0.112377  -0.005375
     5  H    0.111143   0.007226
     6  H    0.061033  -0.007661
     7  C   -0.760056  -0.009398
     8  H    0.111582  -0.005663
     9  H    0.093871  -0.001621
    10  H    0.081274  -0.002538
    11  H   -0.147939  -0.007402
    12  H   -0.118046  -0.009180
 Sum of Mulliken charges =  -0.00000   1.00000

 Dipole moment (field-independent basis, Debye):
    X=             -0.9416    Y=              0.1076    Z=              0.8279  Tot=              1.2584
                          Isotropic Fermi Contact Couplings
        Atom                 a.u.       MegaHertz       Gauss      10(-4) cm-1
     1  Si(29)             0.52506    -466.63372    -166.50651    -155.65225
     2  P(31)              0.01840      33.31603      11.88799      11.11303
     3  C(13)              0.02211      24.85188       8.86777       8.28969
     4  H(1)              -0.00021      -0.93287      -0.33287      -0.31117
     5  H(1)               0.00359      16.05826       5.72999       5.35646
     6  H(1)              -0.00033      -1.45790      -0.52021      -0.48630
     7  C(13)              0.00139       1.56208       0.55739       0.52105
     8  H(1)              -0.00071      -3.19536      -1.14018      -1.06586

 Normal termination of Gaussian 16 at Tue Apr  8 23:42:28 2025.
