 Gaussian 16, Revision C.01,

 ----------------------------------------------------------------------
 #t hf aug-cc-pvdz symm=none int=(grid=ultrafine) guess=(read,tcheck) s
 table=(opt,rrhf)
 ----------------------------------------------------------------------
 -----
 title
 -----
 Symbolic Z-matrix:
 Charge =  0 Multiplicity = 1

 SCF Done:  E(RHF) =  -549.557060985     A.U. after   12 cycles
 Normal termination of Gaussian 16 at Wed Apr  9 00:47:15 2025.
 Gaussian 16:  ES64L-G16RevC.01  3-Jul-2019

 ----------------------------------------------------------------------
 #t hf aug-cc-pvdz iop(5/13=1,5/36=2,99/5=2) pseudo=read geom=check gue
 ss=(read,tcheck) scf=(maxcycle=1)
 ----------------------------------------------------------------------
 -----
 title
 -----
 Structure from the checkpoint file:  "BDE49_nonexpt_808_mol1.chk"
 Charge =  0 Multiplicity = 1

                         Standard orientation:
 ---------------------------------------------------------------------
 Center     Atomic      Atomic             Coordinates (Angstroms)
 Number     Number       Type             X           Y           Z
 ---------------------------------------------------------------------
      1          6           0        0.240913    0.000002   -0.607113
      2          6           0       -0.381137   -1.270734    0.014244
      3          6           0       -1.915578   -1.268100   -0.079246
      4          6           0       -2.518246   -0.000001    0.540588
      5          6           0       -1.915577    1.268102   -0.079239
      6          6           0       -0.381136    1.270734    0.014251
      7          5           0        2.937440   -0.000008    1.348299
      8          1           0       -0.091413   -1.337831    1.071937
      9          1           0        0.018372   -2.166606   -0.473293
     10          1           0       -2.321954   -2.159588    0.410241
     11          1           0       -2.209755   -1.329603   -1.134969
     12          1           0       -2.324355   -0.000004    1.621300
     13          1           0       -3.606520    0.000000    0.420663
     14          1           0       -2.321953    2.159587    0.410253
     15          1           0       -2.209754    1.329611   -1.134962
     16          1           0        0.018373    2.166609   -0.473280
     17          1           0       -0.091413    1.337824    1.071945
     18         14           0        2.137416    0.000002   -0.503740
     19          1           0       -0.002751    0.000005   -1.680200
     20          1           0        2.668246    1.196091   -1.220712
     21          1           0        2.668245   -1.196098   -1.220695
     22          1           0        4.124715    0.000045    1.468056
     23          1           0        2.295460   -0.000055    2.353671
 ---------------------------------------------------------------------

 SCF Done:  E(RHF) =  -549.877179796     A.U. after    2 cycles

 The electronic state is 1-A.
 Alpha  occ. eigenvalues --  -69.50323 -11.22935 -11.22916 -11.22445 -11.22435
 Alpha  occ. eigenvalues --  -11.22383 -11.21830  -7.60403  -6.17621  -3.92976
 Alpha  occ. eigenvalues --   -3.92943  -3.92913  -1.11479  -1.00242  -1.00154
 Alpha  occ. eigenvalues --   -0.83503  -0.83439  -0.75960  -0.74766  -0.66785
 Alpha  occ. eigenvalues --   -0.63490  -0.60832  -0.60589  -0.59429  -0.53834
 Alpha  occ. eigenvalues --   -0.53260  -0.51274  -0.49556  -0.49065  -0.48626
 Alpha  occ. eigenvalues --   -0.46967  -0.45746  -0.43618  -0.41656  -0.39604
 Alpha virt. eigenvalues --    0.02691   0.02953   0.03330   0.03871   0.04069
 Alpha virt. eigenvalues --    0.04681   0.05279   0.05875   0.06103   0.07315
 Alpha virt. eigenvalues --    0.07709   0.08149   0.08614   0.08988   0.09353

 Mulliken charges:
               1
     1  C   -0.320327
     2  C   -0.241652
     3  C   -0.223693
     4  C   -0.255080
     5  C   -0.223692
     6  C   -0.241660
     7  B   -1.233038
     8  H    0.118527
     9  H    0.083149
    10  H    0.106642
    11  H    0.158181
    12  H    0.158775
    13  H    0.101998
    14  H    0.106641
    15  H    0.158182
    16  H    0.083149
    17  H    0.118530
    18  Si   0.509802
    19  H    0.160813
    20  H   -0.075719
    21  H   -0.075716
    22  H    0.506072
    23  H    0.520115
 Sum of Mulliken charges =   0.00000

 Dipole moment (field-independent basis, Debye):
    X=             -0.8216    Y=              0.0000    Z=              0.2753  Tot=              0.8665

 Test job not archived.
 1\1\GINC-SE366\SP\RHF\Aug-CC-pVDZ\C6H15B1Si1\OHZDE\09-Apr-2025\0\\#t h
 f aug-cc-pvdz iop(5/13=1,5/36=2,99/5=2) pseudo=read geom=check guess=(
 read,tcheck) scf=(maxcycle=1)\\title\\0,1\C,0,-0.240913,-0.000002,-0.6
 07113\C,0,0.381137,1.270734,0.014244\C,0,1.915578,1.2681,-0.079246\C,0
 ,2.518246,0.000001,0.540588\C,0,1.915577,-1.268102,-0.079239\C,0,0.381
 136,-1.270734,0.014251\B,0,-2.93744,0.000008,1.348299\H,0,0.091413,1.3
 37831,1.071937\H,0,-0.018372,2.166606,-0.473293\H,0,2.321954,2.159588,
 0.410241\H,0,2.209755,1.329603,-1.134969\H,0,2.324355,0.000004,1.6213\

 Normal termination of Gaussian 16 at Wed Apr  9 00:47:26 2025.
