 Gaussian 16, Revision C.01,

 ----------------------------------------------------------------------
 #t hf aug-cc-pvdz symm=none int=(grid=ultrafine) guess=(read,tcheck) s
 table=opt
 ----------------------------------------------------------------------
 -----
 title
 -----
 Symbolic Z-matrix:
 Charge =  0 Multiplicity = 2

 SCF Done:  E(UHF) =  -964.120164832     A.U. after   17 cycles
 Normal termination of Gaussian 16 at Tue Apr  8 23:43:14 2025.
 Gaussian 16:  ES64L-G16RevC.01  3-Jul-2019

 ----------------------------------------------------------------------
 #t hf aug-cc-pvdz iop(5/13=1,5/36=2,99/5=2) pseudo=read geom=check gue
 ss=(read,tcheck) scf=(maxcycle=1)
 ----------------------------------------------------------------------
 -----
 title
 -----
 Structure from the checkpoint file:  "BDE49_nonexpt_1703_mol2.chk"
 Charge =  0 Multiplicity = 2

                         Standard orientation:
 ---------------------------------------------------------------------
 Center     Atomic      Atomic             Coordinates (Angstroms)
 Number     Number       Type             X           Y           Z
 ---------------------------------------------------------------------
      1         15           0        0.342216   -0.000003    0.127028
      2         16           0       -1.695275    0.000003   -0.171963
      3          8           0        0.519164   -0.000043    1.591837
      4          8           0        1.016904   -1.183120   -0.699711
      5          1           0        0.783717   -2.050536   -0.346970
      6          8           0        1.016900    1.183162   -0.699648
      7          1           0        0.783695    2.050559   -0.346872
 ---------------------------------------------------------------------

 SCF Done:  E(UHF) =  -964.440006464     A.U. after    2 cycles

 The electronic state is 2-A.
 Alpha  occ. eigenvalues --  -94.00748 -84.46530 -20.61505 -20.61504 -20.52273
 Alpha  occ. eigenvalues --   -8.29031  -6.91649  -6.28152  -6.26401  -6.26086
 Alpha  occ. eigenvalues --   -4.45685  -4.44985  -4.43781  -1.56050  -1.49426
 Alpha  occ. eigenvalues --   -1.40779  -1.06778  -0.87227  -0.71421  -0.71194
 Alpha  occ. eigenvalues --   -0.64681  -0.64639  -0.59010  -0.57216  -0.52960
 Alpha  occ. eigenvalues --   -0.49497  -0.48156  -0.45029  -0.43394
 Alpha virt. eigenvalues --    0.03355   0.04291   0.06777   0.09220   0.09878
 Alpha virt. eigenvalues --    0.11939   0.12160   0.12353   0.12942   0.17345
 Alpha virt. eigenvalues --    0.18014   0.20678   0.22666   0.22887   0.23534

  Beta  occ. eigenvalues --  -93.99851 -84.46568 -20.61499 -20.61497 -20.51948
  Beta  occ. eigenvalues --   -8.28002  -6.91705  -6.25902  -6.25541  -6.24148
  Beta  occ. eigenvalues --   -4.45740  -4.45019  -4.43892  -1.56010  -1.49421
  Beta  occ. eigenvalues --   -1.39961  -0.98751  -0.86203  -0.71438  -0.70174
  Beta  occ. eigenvalues --   -0.64639  -0.63984  -0.57492  -0.57002  -0.50833
  Beta  occ. eigenvalues --   -0.47681  -0.44568  -0.41300
  Beta virt. eigenvalues --   -0.03359   0.03394   0.04306   0.06925   0.09777
  Beta virt. eigenvalues --    0.09983   0.11971   0.12451   0.13105   0.13544
  Beta virt. eigenvalues --    0.17565   0.18049   0.21295   0.22718   0.23537

 Mulliken charges and spin densities:
               1          2
     1  P    3.467439  -0.096442
     2  S   -0.492127   1.062020
     3  O   -1.332316   0.040600
     4  O   -1.212057  -0.007548
     5  H    0.390559   0.004459
     6  O   -1.212059  -0.007548
     7  H    0.390561   0.004459
 Sum of Mulliken charges =  -0.00000   1.00000

 Dipole moment (field-independent basis, Debye):
    X=             -0.9418    Y=              0.0001    Z=             -2.0327  Tot=              2.2403
                          Isotropic Fermi Contact Couplings
        Atom                 a.u.       MegaHertz       Gauss      10(-4) cm-1
     1  P(31)             -0.04424     -80.11693     -28.58771     -26.72413
     2  S(33)              0.17108      58.76140      20.96753      19.60069
     3  O(17)              0.02990     -18.12663      -6.46803      -6.04639
     4  O(17)              0.00006      -0.03406      -0.01215      -0.01136
     5  H(1)              -0.00003      -0.11530      -0.04114      -0.03846
     6  O(17)              0.00006      -0.03409      -0.01216      -0.01137
     7  H(1)              -0.00003      -0.11532      -0.04115      -0.03847
 --------------------------------------------------------

 Normal termination of Gaussian 16 at Tue Apr  8 23:43:17 2025.
