 Gaussian 16, Revision C.01,

 ----------------------------------------------------------------------
 #t hf aug-cc-pvdz symm=none int=(grid=ultrafine) guess=(read,tcheck) s
 table=(opt,rrhf)
 ----------------------------------------------------------------------
 -----
 title
 -----
 Symbolic Z-matrix:
 Charge =  0 Multiplicity = 1

 SCF Done:  E(RHF) =  -666.811126814     A.U. after   15 cycles
 Normal termination of Gaussian 16 at Tue Apr  8 23:18:53 2025.
 Gaussian 16:  ES64L-G16RevC.01  3-Jul-2019

 ----------------------------------------------------------------------
 #t hf aug-cc-pvdz iop(5/13=1,5/36=2,99/5=2) pseudo=read geom=check gue
 ss=(read,tcheck) scf=(maxcycle=1)
 ----------------------------------------------------------------------
 -----
 title
 -----
 Structure from the checkpoint file:  "BDE49_nonexpt_1066_mol1.chk"
 Charge =  0 Multiplicity = 1

                         Standard orientation:
 ---------------------------------------------------------------------
 Center     Atomic      Atomic             Coordinates (Angstroms)
 Number     Number       Type             X           Y           Z
 ---------------------------------------------------------------------
      1         17           0       -1.771462   -0.474683    0.000005
      2          8           0       -0.797787    0.971860   -0.000008
      3          6           0        0.548144    0.759674   -0.000006
      4          7           0        1.123721   -0.345773    0.000003
      5          1           0        1.001358    1.758856   -0.000017
      6          6           0        2.575809   -0.387750    0.000001
      7          1           0        2.917333   -0.939181   -0.879610
      8          1           0        2.917336   -0.939165    0.879621
      9          1           0        3.051352    0.603089   -0.000009
 ---------------------------------------------------------------------

 SCF Done:  E(RHF) =  -667.095086039     A.U. after    2 cycles

 The electronic state is 1-A.
 Alpha  occ. eigenvalues -- -105.62814 -20.65027 -15.50546 -11.35979 -11.27262
 Alpha  occ. eigenvalues --  -10.66977  -7.83966  -7.83388  -7.83376  -1.52408
 Alpha  occ. eigenvalues --   -1.24620  -1.05207  -0.97370  -0.81932  -0.72485
 Alpha  occ. eigenvalues --   -0.70000  -0.65777  -0.60325  -0.58334  -0.57291
 Alpha  occ. eigenvalues --   -0.48436  -0.48422  -0.46165  -0.42691
 Alpha virt. eigenvalues --    0.03453   0.04740   0.05482   0.05756   0.06221
 Alpha virt. eigenvalues --    0.09276   0.09798   0.10625   0.13642   0.13824
 Alpha virt. eigenvalues --    0.15024   0.15806   0.16348   0.16553   0.17272

 Mulliken charges:
               1
     1  Cl   0.354504
     2  O   -1.158354
     3  C    0.206717
     4  N    0.530334
     5  H    0.075747
     6  C   -0.366950
     7  H    0.125707
     8  H    0.125708
     9  H    0.106587
 Sum of Mulliken charges =  -0.00000

 Dipole moment (field-independent basis, Debye):
    X=              1.9133    Y=              1.4315    Z=             -0.0000  Tot=              2.3895

 Test job not archived.
 1\1\GINC-SE118\SP\RHF\Aug-CC-pVDZ\C2H4Cl1N1O1\OHZDE\08-Apr-2025\0\\#t
 hf aug-cc-pvdz iop(5/13=1,5/36=2,99/5=2) pseudo=read geom=check guess=
 (read,tcheck) scf=(maxcycle=1)\\title\\0,1\Cl,0,-1.771462,-0.474683,0.
 000005\O,0,-0.797787,0.97186,-0.000008\C,0,0.548144,0.759674,-0.000006
 \N,0,1.123721,-0.345773,0.000003\H,0,1.001358,1.758856,-0.000017\C,0,2
 .575809,-0.38775,0.000001\H,0,2.917333,-0.939181,-0.87961\H,0,2.917336
 ,-0.939165,0.879621\H,0,3.051352,0.603089,-0.000009\\Version=ES64L-G16
 RevC.01\State=1-A\HF=-667.095086\RMSD=1.043e-02\Dipole=0.7527354,0.563

 Normal termination of Gaussian 16 at Tue Apr  8 23:18:58 2025.
