 Gaussian 16, Revision C.01,

 ----------------------------------------------------------------------
 #t hf aug-cc-pvdz symm=none int=(grid=ultrafine) guess=(read,tcheck) s
 table=(opt,rrhf)
 ----------------------------------------------------------------------
 -----
 title
 -----
 Symbolic Z-matrix:
 Charge =  0 Multiplicity = 1

 SCF Done:  E(RHF) =  -753.549710624     A.U. after   14 cycles
 Normal termination of Gaussian 16 at Tue Apr  8 23:50:32 2025.
 Gaussian 16:  ES64L-G16RevC.01  3-Jul-2019

 ----------------------------------------------------------------------
 #t hf aug-cc-pvdz iop(5/13=1,5/36=2,99/5=2) pseudo=read geom=check gue
 ss=(read,tcheck) scf=(maxcycle=1)
 ----------------------------------------------------------------------
 -----
 title
 -----
 Structure from the checkpoint file:  "BDE49_nonexpt_1876_mol1.chk"
 Charge =  0 Multiplicity = 1

                         Standard orientation:
 ---------------------------------------------------------------------
 Center     Atomic      Atomic             Coordinates (Angstroms)
 Number     Number       Type             X           Y           Z
 ---------------------------------------------------------------------
      1         14           0        0.480320    1.116025   -0.116595
      2          6           0       -1.060012    0.565668    0.844353
      3          6           0        1.803112   -0.252416    0.128225
      4          8           0        1.820261   -1.103086    0.950315
      5          1           0        1.040592    2.345682    0.478733
      6          1           0        0.219229    1.298748   -1.555286
      7          9           0        2.838925   -0.130501   -0.766172
      8          6           0       -2.031802   -0.189964    0.001104
      9          8           0       -3.150361    0.066293   -0.277472
     10          9           0       -1.433727   -1.318427   -0.505615
     11          1           0       -1.568513    1.418918    1.292685
     12          1           0       -0.689558   -0.092727    1.637452
 ---------------------------------------------------------------------

 SCF Done:  E(RHF) =  -754.018240054     A.U. after    2 cycles

 The electronic state is 1-A.
 Alpha  occ. eigenvalues --  -69.59434 -26.50447 -26.50062 -20.59620 -20.58553
 Alpha  occ. eigenvalues --  -11.45376 -11.43438 -11.28822  -6.26473  -4.01850
 Alpha  occ. eigenvalues --   -4.01813  -4.01793  -1.64370  -1.63822  -1.52660
 Alpha  occ. eigenvalues --   -1.52452  -1.07255  -0.89962  -0.85005  -0.79884
 Alpha  occ. eigenvalues --   -0.74101  -0.73358  -0.72622  -0.72280  -0.70200
 Alpha  occ. eigenvalues --   -0.68625  -0.63921  -0.60728  -0.58735  -0.57225
 Alpha  occ. eigenvalues --   -0.55879  -0.53440  -0.51548  -0.48854  -0.47251
 Alpha virt. eigenvalues --    0.02558   0.03639   0.04292   0.05069   0.06628
 Alpha virt. eigenvalues --    0.06963   0.07589   0.08837   0.09206   0.10334
 Alpha virt. eigenvalues --    0.11834   0.12495   0.12976   0.13608   0.13949

 Mulliken charges:
               1
     1  Si   1.213690
     2  C   -0.770125
     3  C    1.219401
     4  O   -0.958707
     5  H   -0.194530
     6  H   -0.097830
     7  F   -0.707284
     8  C    1.724415
     9  O   -1.053486
    10  F   -0.737158
    11  H    0.060098
    12  H    0.301517
 Sum of Mulliken charges =  -0.00000

 Dipole moment (field-independent basis, Debye):
    X=              0.4137    Y=              3.1742    Z=              1.0855  Tot=              3.3801

 Test job not archived.
 1\1\GINC-SE335\SP\RHF\Aug-CC-pVDZ\C3H4F2O2Si1\OHZDE\08-Apr-2025\0\\#t
 hf aug-cc-pvdz iop(5/13=1,5/36=2,99/5=2) pseudo=read geom=check guess=
 (read,tcheck) scf=(maxcycle=1)\\title\\0,1\Si,0,0.48032,1.116025,-0.11
 6595\C,0,-1.060012,0.565668,0.844353\C,0,1.803112,-0.252416,0.128225\O
 ,0,1.820261,-1.103086,0.950315\H,0,1.040592,2.345682,0.478733\H,0,0.21
 9229,1.298748,-1.555286\F,0,2.838925,-0.130501,-0.766172\C,0,-2.031802
 ,-0.189964,0.001104\O,0,-3.150361,0.066293,-0.277472\F,0,-1.433727,-1.
 318427,-0.505615\H,0,-1.568513,1.418918,1.292685\H,0,-0.689558,-0.0927

 Normal termination of Gaussian 16 at Tue Apr  8 23:50:37 2025.
