 Gaussian 16, Revision C.01,

 ----------------------------------------------------------------------
 #t hf aug-cc-pvdz symm=none int=(grid=ultrafine) guess=(read,tcheck) s
 table=opt
 ----------------------------------------------------------------------
 -----
 title
 -----
 Symbolic Z-matrix:
 Charge =  0 Multiplicity = 2

 SCF Done:  E(UHF) =  -178.792670977     A.U. after   15 cycles
 Normal termination of Gaussian 16 at Wed Apr  9 00:39:53 2025.
 Gaussian 16:  ES64L-G16RevC.01  3-Jul-2019

 ----------------------------------------------------------------------
 #t hf aug-cc-pvdz iop(5/13=1,5/36=2,99/5=2) pseudo=read geom=check gue
 ss=(read,tcheck) scf=(maxcycle=1)
 ----------------------------------------------------------------------
 -----
 title
 -----
 Structure from the checkpoint file:  "BDE49_nonexpt_642_mol2.chk"
 Charge =  0 Multiplicity = 2

                         Standard orientation:
 ---------------------------------------------------------------------
 Center     Atomic      Atomic             Coordinates (Angstroms)
 Number     Number       Type             X           Y           Z
 ---------------------------------------------------------------------
      1          5           0       -0.893108    0.708882   -0.000001
      2          6           0        0.678999    0.754990    0.000000
      3          6           0        1.391610   -0.613208    0.000002
      4          1           0        1.130858   -1.203655   -0.884557
      5          1           0        1.130857   -1.203653    0.884562
      6          1           0        2.478663   -0.499718    0.000002
      7          8           0       -1.683040   -0.370225   -0.000002
      8          1           0       -1.223571   -1.226182   -0.000001
      9          1           0        0.994697    1.349956    0.866303
     10          1           0        0.994698    1.349954   -0.866304
 ---------------------------------------------------------------------

 SCF Done:  E(UHF) =  -178.978226486     A.U. after    2 cycles

 The electronic state is 2-A.
 Alpha  occ. eigenvalues --  -20.57166 -11.23980 -11.22189  -7.62892  -1.47292
 Alpha  occ. eigenvalues --   -1.03532  -0.86781  -0.76738  -0.65264  -0.61896
 Alpha  occ. eigenvalues --   -0.56845  -0.55116  -0.53866  -0.50378  -0.49252
 Alpha  occ. eigenvalues --   -0.32008
 Alpha virt. eigenvalues --    0.03241   0.04003   0.04120   0.04753   0.06790
 Alpha virt. eigenvalues --    0.07242   0.07466   0.07949   0.08487   0.12096
 Alpha virt. eigenvalues --    0.14144   0.14404   0.15201   0.15657   0.17068

  Beta  occ. eigenvalues --  -20.57136 -11.23872 -11.21970  -7.61021  -1.47011
  Beta  occ. eigenvalues --   -1.02908  -0.85893  -0.74857  -0.64209  -0.61734
  Beta  occ. eigenvalues --   -0.56277  -0.54122  -0.53260  -0.50386  -0.47644
  Beta virt. eigenvalues --    0.03213   0.03934   0.04189   0.04249   0.06840
  Beta virt. eigenvalues --    0.07353   0.07468   0.08063   0.08504   0.10015
  Beta virt. eigenvalues --    0.13957   0.14473   0.15344   0.16184   0.16993

 Mulliken charges and spin densities:
               1          2
     1  B    0.612556   1.049358
     2  C   -0.261791   0.028137
     3  C   -0.474765   0.024343
     4  H    0.117851  -0.002487
     5  H    0.117851  -0.002487
     6  H    0.081804  -0.000296
     7  O   -1.076364  -0.107249
     8  H    0.558157   0.045003
     9  H    0.162351  -0.017161
    10  H    0.162351  -0.017161
 Sum of Mulliken charges =  -0.00000   1.00000

 Dipole moment (field-independent basis, Debye):
    X=              1.8996    Y=             -1.4416    Z=              0.0000  Tot=              2.3847
                          Isotropic Fermi Contact Couplings
        Atom                 a.u.       MegaHertz       Gauss      10(-4) cm-1
     1  B(11)              0.31384     450.15705     160.62723     150.15623
     2  C(13)              0.06244      70.19230      25.04636      23.41363
     3  C(13)              0.02108      23.70018       8.45681       7.90553
     4  H(1)              -0.00073      -3.26037      -1.16338      -1.08754
     5  H(1)              -0.00073      -3.26037      -1.16338      -1.08754
     6  H(1)               0.00073       3.24080       1.15640       1.08101
     7  O(17)              0.11695     -70.89219     -25.29610     -23.64709
     8  H(1)               0.01802      80.54032      28.73879      26.86536

 Normal termination of Gaussian 16 at Wed Apr  9 00:39:56 2025.
