 Gaussian 16, Revision C.01,

 ----------------------------------------------------------------------
 #t hf aug-cc-pvdz symm=none int=(grid=ultrafine) guess=(read,tcheck) s
 table=opt
 ----------------------------------------------------------------------
 -----
 title
 -----
 Symbolic Z-matrix:
 Charge =  0 Multiplicity = 2

 SCF Done:  E(UHF) =  -367.494020878     A.U. after   15 cycles

 1\1\GINC-SE364\Stability\UHF\Aug-CC-pVDZ\C2H5Si1\OHZDE\08-Apr-2025\0\\
 #t hf aug-cc-pvdz symm=none int=(grid=ultrafine) guess=(read,tcheck) s
 table=opt\\title\\0,2\Si,0,0.888836,0.,-0.128566\C,0,-0.795944,-0.7796
 79,0.036292\C,0,-0.795944,0.779679,0.036292\H,0,-1.265029,1.243094,-0.
 826386\H,0,-1.059674,1.27508,0.966666\H,0,-1.059676,-1.27508,0.966666\
 H,0,-1.265028,-1.243094,-0.826386\H,0,1.757024,0.000001,1.083867\\Vers
 ion=ES64L-G16RevC.01\HF=-367.4940209\S2=0.757124\S2-1=0.\S2A=0.750033\
 RMSD=7.205e-09\Dipole=0.000092,0.,-0.024213\Quadrupole=-0.1582026,-0.5

 Normal termination of Gaussian 16 at Tue Apr  8 23:41:10 2025.
 Gaussian 16:  ES64L-G16RevC.01  3-Jul-2019

 ----------------------------------------------------------------------
 #t hf aug-cc-pvdz iop(5/13=1,5/36=2,99/5=2) pseudo=read geom=check gue
 ss=(read,tcheck) scf=(maxcycle=1)
 ----------------------------------------------------------------------
 -----
 title
 -----
 Structure from the checkpoint file:  "BDE49_nonexpt_1658_mol2.chk"
 Charge =  0 Multiplicity = 2

                         Standard orientation:
 ---------------------------------------------------------------------
 Center     Atomic      Atomic             Coordinates (Angstroms)
 Number     Number       Type             X           Y           Z
 ---------------------------------------------------------------------
      1         14           0        0.888836   -0.000000   -0.128566
      2          6           0       -0.795944   -0.779679    0.036292
      3          6           0       -0.795944    0.779679    0.036292
      4          1           0       -1.265028    1.243094   -0.826386
      5          1           0       -1.059673    1.275080    0.966666
      6          1           0       -1.059676   -1.275080    0.966666
      7          1           0       -1.265028   -1.243094   -0.826386
      8          1           0        1.757024    0.000001    1.083867
 ---------------------------------------------------------------------

 SCF Done:  E(UHF) =  -367.607466942     A.U. after    2 cycles

 The electronic state is 2-A.
 Alpha  occ. eigenvalues --  -69.53650 -11.23003 -11.22966  -6.20861  -3.96707
 Alpha  occ. eigenvalues --   -3.95889  -3.95835  -1.04520  -0.81488  -0.70167
 Alpha  occ. eigenvalues --   -0.63044  -0.57645  -0.51740  -0.44643  -0.36133
 Alpha  occ. eigenvalues --   -0.35170
 Alpha virt. eigenvalues --    0.03830   0.04056   0.04493   0.04664   0.07228
 Alpha virt. eigenvalues --    0.07307   0.07980   0.08669   0.12173   0.13950
 Alpha virt. eigenvalues --    0.14910   0.15248   0.15927   0.17249   0.17469

  Beta  occ. eigenvalues --  -69.53059 -11.22964 -11.22930  -6.19917  -3.95548
  Beta  occ. eigenvalues --   -3.95319  -3.94668  -1.03978  -0.81248  -0.66791
  Beta  occ. eigenvalues --   -0.62449  -0.55609  -0.51505  -0.42550  -0.35413
  Beta virt. eigenvalues --    0.01463   0.04181   0.04220   0.04737   0.05179
  Beta virt. eigenvalues --    0.07291   0.07371   0.08328   0.09488   0.12298
  Beta virt. eigenvalues --    0.14697   0.15694   0.16074   0.16657   0.17664

 Mulliken charges and spin densities:
               1          2
     1  Si   0.691496   0.842978
     2  C   -0.157408   0.011560
     3  C   -0.157408   0.011560
     4  H   -0.048289   0.006740
     5  H   -0.073343  -0.000643
     6  H   -0.073342  -0.000643
     7  H   -0.048290   0.006740
     8  H   -0.133415   0.121707
 Sum of Mulliken charges =  -0.00000   1.00000

 Dipole moment (field-independent basis, Debye):
    X=             -0.0185    Y=              0.0000    Z=             -0.0116  Tot=              0.0218
                          Isotropic Fermi Contact Couplings
        Atom                 a.u.       MegaHertz       Gauss      10(-4) cm-1
     1  Si(29)             0.77782    -691.27044    -246.66248    -230.58300
     2  C(13)             -0.00006      -0.07264      -0.02592      -0.02423
     3  C(13)             -0.00006      -0.07269      -0.02594      -0.02425
     4  H(1)               0.00197       8.78921       3.13621       2.93176
     5  H(1)               0.00042       1.85639       0.66241       0.61923
     6  H(1)               0.00042       1.85636       0.66240       0.61922
     7  H(1)               0.00197       8.78918       3.13620       2.93176
     8  H(1)               0.02782     124.36299      44.37581      41.48303

 Normal termination of Gaussian 16 at Tue Apr  8 23:41:12 2025.
