 Gaussian 16, Revision C.01,

 ----------------------------------------------------------------------
 #t hf aug-cc-pvdz symm=none int=(grid=ultrafine) guess=(read,tcheck) s
 table=(opt,rrhf)
 ----------------------------------------------------------------------
 -----
 title
 -----
 Symbolic Z-matrix:
 Charge =  0 Multiplicity = 1

 SCF Done:  E(RHF) =  -490.421166395     A.U. after   13 cycles
 Normal termination of Gaussian 16 at Tue Apr  8 23:14:47 2025.
 Gaussian 16:  ES64L-G16RevC.01  3-Jul-2019

 ----------------------------------------------------------------------
 #t hf aug-cc-pvdz iop(5/13=1,5/36=2,99/5=2) pseudo=read geom=check gue
 ss=(read,tcheck) scf=(maxcycle=1)
 ----------------------------------------------------------------------
 -----
 title
 -----
 Structure from the checkpoint file:  "BDE49_expt_846_mol1.chk"
 Charge =  0 Multiplicity = 1

                         Standard orientation:
 ---------------------------------------------------------------------
 Center     Atomic      Atomic             Coordinates (Angstroms)
 Number     Number       Type             X           Y           Z
 ---------------------------------------------------------------------
      1         16           0        0.999475   -0.085389   -0.000001
      2          6           0       -0.699086    0.013791    0.000000
      3          7           0       -1.856091    0.005201    0.000001
      4          1           0        1.195550    1.247065    0.000002
 ---------------------------------------------------------------------

 SCF Done:  E(RHF) =  -490.567196916     A.U. after    2 cycles

 The electronic state is 1-A.
 Alpha  occ. eigenvalues --  -94.03527 -15.53570 -11.31763  -8.31524  -6.29388
 Alpha  occ. eigenvalues --   -6.29201  -6.28948  -1.25369  -1.10884  -0.73010
 Alpha  occ. eigenvalues --   -0.62789  -0.59460  -0.56515  -0.50593  -0.42869
 Alpha virt. eigenvalues --    0.02787   0.06242   0.08192   0.09492   0.10422
 Alpha virt. eigenvalues --    0.11600   0.12704   0.14014   0.15199   0.16467
 Alpha virt. eigenvalues --    0.18479   0.19556   0.22172   0.25836   0.26257

 Mulliken charges:
               1
     1  S    0.287514
     2  C   -1.210710
     3  N    0.532725
     4  H    0.390470
 Sum of Mulliken charges =  -0.00000

 Dipole moment (field-independent basis, Debye):
    X=              4.2032    Y=              0.9927    Z=             -0.0000  Tot=              4.3189

 Test job not archived.
 1\1\GINC-SE116\SP\RHF\Aug-CC-pVDZ\C1H1N1S1\OHZDE\08-Apr-2025\0\\#t hf
 aug-cc-pvdz iop(5/13=1,5/36=2,99/5=2) pseudo=read geom=check guess=(re
 ad,tcheck) scf=(maxcycle=1)\\title\\0,1\S,0,0.999475,-0.085389,-0.0000
 01\C,0,-0.699086,0.013791,0.\N,0,-1.856091,0.005201,0.000001\H,0,1.195
 55,1.247065,0.000002\\Version=ES64L-G16RevC.01\State=1-A\HF=-490.56719
 69\RMSD=1.553e-02\Dipole=1.6536834,0.3905569,-0.0000002\Quadrupole=-2.
 861534,2.8419487,0.0195853,1.3046711,0.0000056,0.0000059\PG=C01 [X(C1H
 1N1S1)]\\@

 Normal termination of Gaussian 16 at Tue Apr  8 23:14:49 2025.
