 Gaussian 16, Revision C.01,

 ----------------------------------------------------------------------
 #t hf aug-cc-pvdz symm=none int=(grid=ultrafine) guess=(read,tcheck) s
 table=(opt,rrhf)
 ----------------------------------------------------------------------
 -----
 title
 -----
 Symbolic Z-matrix:
 Charge =  0 Multiplicity = 1

 SCF Done:  E(RHF) =  -1155.55321084     A.U. after   14 cycles
 Normal termination of Gaussian 16 at Tue Apr  8 23:45:15 2025.
 Gaussian 16:  ES64L-G16RevC.01  3-Jul-2019

 ----------------------------------------------------------------------
 #t hf aug-cc-pvdz iop(5/13=1,5/36=2,99/5=2) pseudo=read geom=check gue
 ss=(read,tcheck) scf=(maxcycle=1)
 ----------------------------------------------------------------------
 -----
 title
 -----
 Structure from the checkpoint file:  "BDE49_nonexpt_1720_mol1.chk"
 Charge =  0 Multiplicity = 1

                         Standard orientation:
 ---------------------------------------------------------------------
 Center     Atomic      Atomic             Coordinates (Angstroms)
 Number     Number       Type             X           Y           Z
 ---------------------------------------------------------------------
      1          6           0        2.731270   -0.624993    0.226308
      2          6           0        1.377060    0.016735    0.004243
      3         16           0        0.040180   -1.190519   -0.154437
      4          8           0        1.216356    1.217499   -0.062243
      5         15           0       -1.723400    0.054682   -0.063318
      6          8           0       -2.861359   -0.707624   -0.565217
      7          6           0        3.900944    0.317735   -0.054022
      8          1           0        2.788829   -1.535982   -0.377339
      9          1           0        2.741219   -0.961413    1.270541
     10          1           0        3.915800    0.626330   -1.101297
     11          1           0        4.845396   -0.183006    0.168065
     12          1           0        3.832982    1.217718    0.557957
     13          8           0       -1.818653    0.517359    1.468916
     14          1           0       -2.304491   -0.120046    2.007459
     15          8           0       -1.320893    1.383746   -0.790580
     16          1           0       -0.390869    1.639779   -0.570808
 ---------------------------------------------------------------------

 SCF Done:  E(RHF) =  -1156.07488330     A.U. after    2 cycles

 The electronic state is 1-A.
 Alpha  occ. eigenvalues --  -93.99036 -84.46100 -20.60716 -20.59341 -20.59053
 Alpha  occ. eigenvalues --  -20.51916 -11.41497 -11.28458 -11.25491  -8.27399
 Alpha  occ. eigenvalues --   -6.91173  -6.25168  -6.25000  -6.24806  -4.45337
 Alpha  occ. eigenvalues --   -4.44598  -4.43431  -1.55095  -1.52994  -1.48215
 Alpha  occ. eigenvalues --   -1.40455  -1.11461  -1.05818  -0.92454  -0.85243
 Alpha  occ. eigenvalues --   -0.79647  -0.75010  -0.69982  -0.69333  -0.67239
 Alpha  occ. eigenvalues --   -0.65433  -0.64282  -0.59780  -0.58257  -0.57693
 Alpha  occ. eigenvalues --   -0.56948  -0.55171  -0.54516  -0.52909  -0.50302
 Alpha  occ. eigenvalues --   -0.47638  -0.45273  -0.44410  -0.41853
 Alpha virt. eigenvalues --    0.02670   0.03439   0.04051   0.04161   0.05576
 Alpha virt. eigenvalues --    0.06700   0.07241   0.08617   0.09008   0.10137
 Alpha virt. eigenvalues --    0.10334   0.11225   0.12013   0.13106   0.13433

 Mulliken charges:
               1
     1  C   -0.591674
     2  C    0.827361
     3  S   -0.269876
     4  O   -1.338838
     5  P    3.668535
     6  O   -1.398390
     7  C   -0.301897
     8  H    0.250417
     9  H    0.309376
    10  H    0.154294
    11  H    0.141842
    12  H    0.194311
    13  O   -1.219000
    14  H    0.363086
    15  O   -1.444775
    16  H    0.655225
 Sum of Mulliken charges =  -0.00000

 Dipole moment (field-independent basis, Debye):
    X=              4.8864    Y=             -0.8069    Z=              2.6320  Tot=              5.6085

 Test job not archived.
 1\1\GINC-SE127\SP\RHF\Aug-CC-pVDZ\C3H7O4P1S1\OHZDE\08-Apr-2025\0\\#t h
 f aug-cc-pvdz iop(5/13=1,5/36=2,99/5=2) pseudo=read geom=check guess=(
 read,tcheck) scf=(maxcycle=1)\\title\\0,1\C,0,2.73127,-0.624993,0.2263
 08\C,0,1.37706,0.016735,0.004243\S,0,0.04018,-1.190519,-0.154437\O,0,1
 .216356,1.217499,-0.062243\P,0,-1.7234,0.054682,-0.063318\O,0,-2.86135
 9,-0.707624,-0.565217\C,0,3.900944,0.317735,-0.054022\H,0,2.788829,-1.
 535982,-0.377339\H,0,2.741219,-0.961413,1.270541\H,0,3.9158,0.62633,-1
 .101297\H,0,4.845396,-0.183006,0.168065\H,0,3.832982,1.217718,0.557957

 Normal termination of Gaussian 16 at Tue Apr  8 23:45:23 2025.
