 Gaussian 16, Revision C.01,

 ----------------------------------------------------------------------
 #t hf aug-cc-pvdz symm=none int=(grid=ultrafine) guess=(read,tcheck) s
 table=opt
 ----------------------------------------------------------------------
 -----
 title
 -----
 Symbolic Z-matrix:
 Charge =  0 Multiplicity = 2

 SCF Done:  E(UHF) =  -494.835390292     A.U. after   17 cycles
 Normal termination of Gaussian 16 at Tue Apr  8 23:16:55 2025.
 Gaussian 16:  ES64L-G16RevC.01  3-Jul-2019

 ----------------------------------------------------------------------
 #t hf aug-cc-pvdz iop(5/13=1,5/36=2,99/5=2) pseudo=read geom=check gue
 ss=(read,tcheck) scf=(maxcycle=1)
 ----------------------------------------------------------------------
 -----
 title
 -----
 Structure from the checkpoint file:  "BDE49_nonexpt_1029_mol2.chk"
 Charge =  0 Multiplicity = 2

                         Standard orientation:
 ---------------------------------------------------------------------
 Center     Atomic      Atomic             Coordinates (Angstroms)
 Number     Number       Type             X           Y           Z
 ---------------------------------------------------------------------
      1          8           0        0.903853    1.321160    0.000000
      2         15           0       -0.219438    0.328240   -0.000000
      3          6           0       -0.219438   -0.787824    1.458825
      4          6           0       -0.219438   -0.787824   -1.458825
      5          1           0       -0.257059   -0.183306    2.365945
      6          1           0        0.694389   -1.389739    1.470799
      7          1           0       -1.090331   -1.446451    1.428115
      8          1           0       -0.257059   -0.183306   -2.365945
      9          1           0       -1.090331   -1.446451   -1.428115
     10          1           0        0.694389   -1.389739   -1.470799
 ---------------------------------------------------------------------

 SCF Done:  E(UHF) =  -495.041344393     A.U. after    2 cycles

 The electronic state is 2-A'.
 Alpha  occ. eigenvalues --  -84.34360 -20.52013 -11.25869 -11.25862  -6.80940
 Alpha  occ. eigenvalues --   -4.34401  -4.33185  -4.33025  -1.40595  -1.03087
 Alpha  occ. eigenvalues --   -0.97196  -0.75231  -0.62282  -0.61415  -0.59874
 Alpha  occ. eigenvalues --   -0.58772  -0.55098  -0.53138  -0.51171  -0.43473
 Alpha  occ. eigenvalues --   -0.33565
 Alpha virt. eigenvalues --    0.03174   0.04173   0.04684   0.05515   0.07048
 Alpha virt. eigenvalues --    0.07215   0.08333   0.11119   0.12234   0.12358
 Alpha virt. eigenvalues --    0.14833   0.15686   0.16085   0.16664   0.16922

  Beta  occ. eigenvalues --  -84.33931 -20.50288 -11.25670 -11.25663  -6.80331
  Beta  occ. eigenvalues --   -4.34069  -4.32786  -4.31395  -1.35912  -1.01371
  Beta  occ. eigenvalues --   -0.96563  -0.71096  -0.61085  -0.60809  -0.59488
  Beta  occ. eigenvalues --   -0.58206  -0.52096  -0.50940  -0.41431  -0.41063
  Beta virt. eigenvalues --    0.02313   0.04218   0.04693   0.05412   0.06330
  Beta virt. eigenvalues --    0.07053   0.07228   0.09159   0.11719   0.12391
  Beta virt. eigenvalues --    0.12675   0.14928   0.15794   0.16834   0.16847

 Mulliken charges and spin densities:
               1          2
     1  O   -1.452512   0.340251
     2  P    2.696561   0.541491
     3  C   -0.980619   0.063833
     4  C   -0.980619   0.063833
     5  H    0.083711  -0.012995
     6  H    0.136448   0.016773
     7  H    0.138436  -0.008482
     8  H    0.083711  -0.012995
     9  H    0.138436  -0.008482
    10  H    0.136448   0.016773
 Sum of Mulliken charges =   0.00000   1.00000

 Dipole moment (field-independent basis, Debye):
    X=             -2.3150    Y=             -3.5527    Z=              0.0000  Tot=              4.2404
                          Isotropic Fermi Contact Couplings
        Atom                 a.u.       MegaHertz       Gauss      10(-4) cm-1
     1  O(17)              0.12839     -77.82806     -27.77099     -25.96064
     2  P(31)              0.46604     844.03987     301.17441     281.54140
     3  C(13)              0.04288      48.20262      17.19989      16.07866
     4  C(13)              0.04288      48.20262      17.19989      16.07866
     5  H(1)              -0.00095      -4.23283      -1.51038      -1.41192
     6  H(1)               0.00779      34.83635      12.43048      11.62016
     7  H(1)              -0.00144      -6.42185      -2.29148      -2.14210
     8  H(1)              -0.00095      -4.23283      -1.51038      -1.41192

 Normal termination of Gaussian 16 at Tue Apr  8 23:16:58 2025.
