 Gaussian 16, Revision C.01,

 ----------------------------------------------------------------------
 #t hf aug-cc-pvdz symm=none int=(grid=ultrafine) guess=(read,tcheck) s
 table=(opt,rrhf)
 ----------------------------------------------------------------------
 -----
 title
 -----
 Symbolic Z-matrix:
 Charge =  0 Multiplicity = 1

 SCF Done:  E(RHF) =  -586.889781241     A.U. after   18 cycles
 Normal termination of Gaussian 16 at Tue Apr  8 22:42:48 2025.
 Gaussian 16:  ES64L-G16RevC.01  3-Jul-2019

 ----------------------------------------------------------------------
 #t hf aug-cc-pvdz iop(5/13=1,5/36=2,99/5=2) pseudo=read geom=check gue
 ss=(read,tcheck) scf=(maxcycle=1)
 ----------------------------------------------------------------------
 -----
 title
 -----
 Structure from the checkpoint file:  "BDE49_expt_1259_mol1.chk"
 Charge =  0 Multiplicity = 1

                         Standard orientation:
 ---------------------------------------------------------------------
 Center     Atomic      Atomic             Coordinates (Angstroms)
 Number     Number       Type             X           Y           Z
 ---------------------------------------------------------------------
      1          6           0       -0.901959    2.181659    0.070356
      2          6           0        0.423118    2.539780    0.074646
      3          6           0       -1.295944    0.820702    0.022993
      4          6           0       -0.302645   -0.217873    0.000958
      5          6           0        1.060121    0.214300    0.012471
      6          6           0        1.413989    1.543241    0.034646
      7          1           0        0.715400    3.582068    0.108954
      8          7           0        2.189611   -0.743551    0.010211
      9          8           0        3.248513   -0.363542   -0.472331
     10          8           0        2.017463   -1.849453    0.509408
     11          1           0       -1.674906    2.942112    0.098769
     12          6           0       -2.670684    0.469593   -0.009765
     13          6           0       -3.062633   -0.842778   -0.073065
     14          6           0       -2.087463   -1.862448   -0.108158
     15          6           0       -0.745727   -1.566375   -0.069072
     16          1           0       -2.399626   -2.899049   -0.163931
     17          1           0       -0.018254   -2.361948   -0.080897
     18          1           0       -3.407193    1.265476    0.011069
     19          1           0       -4.115211   -1.099714   -0.099604
     20          1           0        2.463665    1.801064    0.021488
 ---------------------------------------------------------------------

 SCF Done:  E(RHF) =  -587.470417645     A.U. after    2 cycles

 The electronic state is 1-A.
 Alpha  occ. eigenvalues --  -20.58870 -20.58797 -15.79212 -11.31787 -11.28860
 Alpha  occ. eigenvalues --  -11.28452 -11.28010 -11.27648 -11.26975 -11.26502
 Alpha  occ. eigenvalues --  -11.26244 -11.26136 -11.25687  -1.66838  -1.50398
 Alpha  occ. eigenvalues --   -1.21432  -1.15068  -1.11128  -1.03967  -1.03817
 Alpha  occ. eigenvalues --   -0.97272  -0.88188  -0.87762  -0.84603  -0.78392
 Alpha  occ. eigenvalues --   -0.75946  -0.74715  -0.73472  -0.71512  -0.70755
 Alpha  occ. eigenvalues --   -0.65322  -0.63141  -0.62882  -0.60177  -0.57732
 Alpha  occ. eigenvalues --   -0.56898  -0.53440  -0.52946  -0.49474  -0.48402
 Alpha  occ. eigenvalues --   -0.47956  -0.44811  -0.42090  -0.35435  -0.32620
 Alpha virt. eigenvalues --    0.01789   0.02639   0.02850   0.03527   0.04827
 Alpha virt. eigenvalues --    0.05359   0.07224   0.07399   0.07661   0.07731
 Alpha virt. eigenvalues --    0.08981   0.09852   0.10962   0.11181   0.12089

 Mulliken charges:
               1
     1  C   -0.047848
     2  C   -0.076558
     3  C    0.771458
     4  C    1.709774
     5  C   -0.757985
     6  C    0.269944
     7  H   -0.227556
     8  N    2.868082
     9  O   -1.441231
    10  O   -1.465628
    11  H   -0.316627
    12  C    0.050219
    13  C   -0.012425
    14  C   -0.273011
    15  C    0.284304
    16  H   -0.243131
    17  H   -0.297294
    18  H   -0.313752
    19  H   -0.232329
    20  H   -0.248404
 Sum of Mulliken charges =   0.00000

 Dipole moment (field-independent basis, Debye):
    X=             -4.0841    Y=              2.8190    Z=             -0.0124  Tot=              4.9625

 Test job not archived.
 1\1\GINC-SE093\SP\RHF\Aug-CC-pVDZ\C10H7N1O2\OHZDE\08-Apr-2025\0\\#t hf
  aug-cc-pvdz iop(5/13=1,5/36=2,99/5=2) pseudo=read geom=check guess=(r
 ead,tcheck) scf=(maxcycle=1)\\title\\0,1\C,0,-0.901959,2.181659,0.0703
 56\C,0,0.423118,2.53978,0.074646\C,0,-1.295944,0.820702,0.022993\C,0,-
 0.302645,-0.217873,0.000958\C,0,1.060121,0.2143,0.012471\C,0,1.413989,
 1.543241,0.034646\H,0,0.715401,3.582068,0.108954\N,0,2.189611,-0.74355
 1,0.010211\O,0,3.248513,-0.363542,-0.472331\O,0,2.017463,-1.849453,0.5
 09408\H,0,-1.674906,2.942112,0.098769\C,0,-2.670684,0.469593,-0.009765

 Normal termination of Gaussian 16 at Tue Apr  8 22:43:03 2025.
