 Gaussian 16, Revision C.01,

 ----------------------------------------------------------------------
 #t hf aug-cc-pvdz symm=none int=(grid=ultrafine) guess=(read,tcheck) s
 table=(opt,rrhf)
 ----------------------------------------------------------------------
 -----
 title
 -----
 Symbolic Z-matrix:
 Charge =  0 Multiplicity = 1

 SCF Done:  E(RHF) =  -409.374145018     A.U. after   12 cycles
 Normal termination of Gaussian 16 at Wed Apr  9 00:31:02 2025.
 Gaussian 16:  ES64L-G16RevC.01  3-Jul-2019

 ----------------------------------------------------------------------
 #t hf aug-cc-pvdz iop(5/13=1,5/36=2,99/5=2) pseudo=read geom=check gue
 ss=(read,tcheck) scf=(maxcycle=1)
 ----------------------------------------------------------------------
 -----
 title
 -----
 Structure from the checkpoint file:  "BDE49_nonexpt_333_mol1.chk"
 Charge =  0 Multiplicity = 1

                         Standard orientation:
 ---------------------------------------------------------------------
 Center     Atomic      Atomic             Coordinates (Angstroms)
 Number     Number       Type             X           Y           Z
 ---------------------------------------------------------------------
      1          6           0       -1.851275   -1.322756   -0.031520
      2          6           0       -0.355403   -1.219841   -0.360921
      3          6           0       -2.587185   -0.006195   -0.317034
      4          1           0       -1.966838   -1.578060    1.029866
      5          1           0       -2.306707   -2.140623   -0.600061
      6          6           0       -1.931526    1.174555    0.412373
      7          1           0       -3.640529   -0.088759   -0.029799
      8          1           0       -2.574008    0.186529   -1.398006
      9          6           0       -0.433234    1.278179    0.088465
     10          1           0       -2.052315    1.042095    1.495183
     11          1           0       -2.439780    2.109625    0.154086
     12          6           0        0.323239   -0.035867    0.373508
     13          1           0        0.006866    2.104792    0.659929
     14          1           0       -0.325694    1.537786   -0.975795
     15          1           0       -0.237724   -1.088202   -1.445661
     16          1           0        0.156996   -2.151240   -0.106377
     17          5           0        1.876061    0.016724    0.065707
     18          1           0        0.234410   -0.242914    1.451765
     19          8           0        2.519959    1.088919   -0.502037
     20          8           0        2.640091   -1.072207    0.377938
     21          1           0        3.565234   -0.937705    0.145102
     22          1           0        1.931689    1.820911   -0.705204
 ---------------------------------------------------------------------

 SCF Done:  E(RHF) =  -409.806793268     A.U. after    2 cycles

 The electronic state is 1-A.
 Alpha  occ. eigenvalues --  -20.55495 -20.54578 -11.23178 -11.22620 -11.22410
 Alpha  occ. eigenvalues --  -11.22369 -11.22189 -11.20829  -7.62717  -1.47510
 Alpha  occ. eigenvalues --   -1.43091  -1.11437  -1.00312  -1.00185  -0.84025
 Alpha  occ. eigenvalues --   -0.83359  -0.76758  -0.74949  -0.71968  -0.65444
 Alpha  occ. eigenvalues --   -0.62717  -0.60976  -0.60540  -0.57993  -0.55837
 Alpha  occ. eigenvalues --   -0.55029  -0.53264  -0.52259  -0.50639  -0.49209
 Alpha  occ. eigenvalues --   -0.48688  -0.48039  -0.45405  -0.43563  -0.42140
 Alpha virt. eigenvalues --    0.03052   0.03376   0.03444   0.03877   0.05366
 Alpha virt. eigenvalues --    0.05770   0.06011   0.06216   0.06379   0.08348
 Alpha virt. eigenvalues --    0.08881   0.09194   0.09431   0.09706   0.10505

 Mulliken charges:
               1
     1  C   -0.205430
     2  C   -0.189544
     3  C   -0.271859
     4  H    0.164599
     5  H    0.108908
     6  C   -0.298204
     7  H    0.107087
     8  H    0.154201
     9  C   -0.268103
    10  H    0.168682
    11  H    0.110005
    12  C   -0.075983
    13  H   -0.008594
    14  H    0.092083
    15  H    0.064679
    16  H    0.053220
    17  B    1.849701
    18  H    0.161511
    19  O   -1.416020
    20  O   -1.425207
    21  H    0.491579
    22  H    0.632688
 Sum of Mulliken charges =  -0.00000

 Dipole moment (field-independent basis, Debye):
    X=             -0.6491    Y=              1.1443    Z=             -0.3629  Tot=              1.3647

 Test job not archived.
 1\1\GINC-SE367\SP\RHF\Aug-CC-pVDZ\C6H13B1O2\OHZDE\09-Apr-2025\0\\#t hf
  aug-cc-pvdz iop(5/13=1,5/36=2,99/5=2) pseudo=read geom=check guess=(r
 ead,tcheck) scf=(maxcycle=1)\\title\\0,1\C,0,-1.851275,-1.322756,-0.03
 152\C,0,-0.355403,-1.219841,-0.360921\C,0,-2.587185,-0.006195,-0.31703
 4\H,0,-1.966838,-1.57806,1.029866\H,0,-2.306707,-2.140623,-0.600061\C,
 0,-1.931526,1.174555,0.412373\H,0,-3.640529,-0.088759,-0.029799\H,0,-2
 .574008,0.186529,-1.398006\C,0,-0.433234,1.278179,0.088465\H,0,-2.0523
 15,1.042095,1.495183\H,0,-2.43978,2.109625,0.154086\C,0,0.323239,-0.03

 Normal termination of Gaussian 16 at Wed Apr  9 00:31:13 2025.
