 Gaussian 16, Revision C.01,

 ----------------------------------------------------------------------
 #t hf aug-cc-pvdz symm=none int=(grid=ultrafine) guess=(read,tcheck) s
 table=(opt,rrhf)
 ----------------------------------------------------------------------
 -----
 title
 -----
 Symbolic Z-matrix:
 Charge =  0 Multiplicity = 1

 SCF Done:  E(RHF) =  -867.368460299     A.U. after   12 cycles
 Normal termination of Gaussian 16 at Tue Apr  8 23:44:30 2025.
 Gaussian 16:  ES64L-G16RevC.01  3-Jul-2019

 ----------------------------------------------------------------------
 #t hf aug-cc-pvdz iop(5/13=1,5/36=2,99/5=2) pseudo=read geom=check gue
 ss=(read,tcheck) scf=(maxcycle=1)
 ----------------------------------------------------------------------
 -----
 title
 -----
 Structure from the checkpoint file:  "BDE49_nonexpt_1739_mol1.chk"
 Charge =  0 Multiplicity = 1

                         Standard orientation:
 ---------------------------------------------------------------------
 Center     Atomic      Atomic             Coordinates (Angstroms)
 Number     Number       Type             X           Y           Z
 ---------------------------------------------------------------------
      1          6           0       -1.578938   -1.634185   -0.191585
      2         14           0       -0.284010   -0.418716    0.387834
      3          6           0        1.395210   -0.728229   -0.386946
      4          1           0       -2.550134   -1.412099    0.257004
      5          1           0       -1.297047   -2.652721    0.094543
      6          1           0       -1.690901   -1.602825   -1.278523
      7          6           0        2.515038    0.226772    0.060512
      8          1           0        2.669350    0.183339    1.142375
      9          1           0        2.279565    1.262041   -0.197262
     10          1           0        3.464913   -0.026722   -0.418099
     11         17           0       -0.920372    1.517867   -0.127319
     12          1           0        1.278701   -0.694252   -1.476512
     13          1           0        1.664502   -1.765414   -0.145405
     14          1           0       -0.184340   -0.419219    1.864734
 ---------------------------------------------------------------------

 SCF Done:  E(RHF) =  -867.615691791     A.U. after    2 cycles

 The electronic state is 1-A.
 Alpha  occ. eigenvalues -- -105.54354 -69.56329 -11.23476 -11.23056 -11.22775
 Alpha  occ. eigenvalues --  -10.59333  -7.76215  -7.75933  -7.75928  -6.23032
 Alpha  occ. eigenvalues --   -3.98452  -3.98288  -3.98270  -1.05084  -1.02168
 Alpha  occ. eigenvalues --   -0.96057  -0.85601  -0.69347  -0.62240  -0.58908
 Alpha  occ. eigenvalues --   -0.57957  -0.57637  -0.53360  -0.51727  -0.49810
 Alpha  occ. eigenvalues --   -0.49601  -0.47893  -0.44005  -0.42856
 Alpha virt. eigenvalues --    0.03256   0.03874   0.04209   0.04650   0.06226
 Alpha virt. eigenvalues --    0.06553   0.06722   0.07802   0.08578   0.09425
 Alpha virt. eigenvalues --    0.09624   0.10917   0.13363   0.13854   0.15033

 Mulliken charges:
               1
     1  C   -0.657242
     2  Si   1.751079
     3  C   -0.497129
     4  H   -0.016042
     5  H    0.077610
     6  H    0.117719
     7  C   -0.521403
     8  H    0.129536
     9  H    0.146395
    10  H    0.117616
    11  Cl  -0.653642
    12  H    0.115784
    13  H    0.078773
    14  H   -0.189054
 Sum of Mulliken charges =  -0.00000

 Dipole moment (field-independent basis, Debye):
    X=              0.8263    Y=             -2.3418    Z=             -0.0995  Tot=              2.4853

 Test job not archived.
 1\1\GINC-SE364\SP\RHF\Aug-CC-pVDZ\C3H9Cl1Si1\OHZDE\08-Apr-2025\0\\#t h
 f aug-cc-pvdz iop(5/13=1,5/36=2,99/5=2) pseudo=read geom=check guess=(
 read,tcheck) scf=(maxcycle=1)\\title\\0,1\C,0,-1.578937,-1.634185,-0.1
 91585\Si,0,-0.28401,-0.418716,0.387834\C,0,1.39521,-0.728229,-0.386946
 \H,0,-2.550134,-1.4121,0.257004\H,0,-1.297046,-2.652721,0.094543\H,0,-
 1.6909,-1.602825,-1.278523\C,0,2.515038,0.226772,0.060512\H,0,2.66935,
 0.183339,1.142375\H,0,2.279565,1.262041,-0.197262\H,0,3.464913,-0.0267
 22,-0.418099\Cl,0,-0.920372,1.517867,-0.127319\H,0,1.278701,-0.694252,

 Normal termination of Gaussian 16 at Tue Apr  8 23:44:34 2025.
