 Gaussian 16, Revision C.01,

 ----------------------------------------------------------------------
 #t hf aug-cc-pvdz symm=none int=(grid=ultrafine) guess=(read,tcheck) s
 table=(opt,rrhf)
 ----------------------------------------------------------------------
 -----
 title
 -----
 Symbolic Z-matrix:
 Charge =  0 Multiplicity = 1

 SCF Done:  E(RHF) =  -368.711723035     A.U. after   17 cycles
 Normal termination of Gaussian 16 at Wed Apr  9 00:28:34 2025.
 Gaussian 16:  ES64L-G16RevC.01  3-Jul-2019

 ----------------------------------------------------------------------
 #t hf aug-cc-pvdz iop(5/13=1,5/36=2,99/5=2) pseudo=read geom=check gue
 ss=(read,tcheck) scf=(maxcycle=1)
 ----------------------------------------------------------------------
 -----
 title
 -----
 Structure from the checkpoint file:  "BDE49_nonexpt_296_mol1.chk"
 Charge =  0 Multiplicity = 1

                         Standard orientation:
 ---------------------------------------------------------------------
 Center     Atomic      Atomic             Coordinates (Angstroms)
 Number     Number       Type             X           Y           Z
 ---------------------------------------------------------------------
      1          6           0       -1.859650    1.252814   -0.000053
      2          6           0       -0.468909    1.236113   -0.000093
      3          6           0        0.215454    0.015444   -0.000078
      4          6           0        1.677143    0.006075   -0.000158
      5          8           0        2.385619   -1.014510    0.000227
      6          5           0        2.941164    0.879637    0.000016
      7          6           0       -2.565662    0.050381    0.000017
      8          6           0       -1.886788   -1.171232    0.000042
      9          6           0       -0.499605   -1.190979   -0.000003
     10          1           0        0.052517   -2.123572    0.000008
     11          1           0       -2.393230    2.195993   -0.000073
     12          1           0        0.094439    2.162978   -0.000146
     13          1           0       -3.649903    0.063212    0.000053
     14          1           0       -2.444592   -2.100494    0.000094
     15          1           0        3.439208    1.163633    1.041179
     16          1           0        3.438905    1.164447   -1.041061
 ---------------------------------------------------------------------

 SCF Done:  E(RHF) =  -369.085574706     A.U. after    2 cycles

 The electronic state is 1-A.
 Alpha  occ. eigenvalues --  -20.55872 -11.33094 -11.27486 -11.27320 -11.26907
 Alpha  occ. eigenvalues --  -11.26391 -11.26322 -11.26212  -7.60751  -1.48434
 Alpha  occ. eigenvalues --   -1.18080  -1.05810  -1.04191  -0.90349  -0.86211
 Alpha  occ. eigenvalues --   -0.81871  -0.76415  -0.70932  -0.67236  -0.65118
 Alpha  occ. eigenvalues --   -0.63073  -0.62396  -0.58762  -0.56124  -0.54611
 Alpha  occ. eigenvalues --   -0.52792  -0.52364  -0.46855  -0.40929  -0.37053
 Alpha  occ. eigenvalues --   -0.36716
 Alpha virt. eigenvalues --    0.02602   0.03107   0.03843   0.04087   0.04837
 Alpha virt. eigenvalues --    0.04952   0.05179   0.06500   0.07738   0.08868
 Alpha virt. eigenvalues --    0.08929   0.09794   0.10986   0.11659   0.13011

 Mulliken charges:
               1
     1  C   -0.036272
     2  C    0.321344
     3  C    1.253583
     4  C    1.015012
     5  O   -1.421207
     6  B   -1.186511
     7  C    0.049545
     8  C    0.188705
     9  C    0.203102
    10  H   -0.289647
    11  H   -0.231632
    12  H   -0.293893
    13  H   -0.205651
    14  H   -0.220707
    15  H    0.427073
    16  H    0.427156
 Sum of Mulliken charges =   0.00000

 Dipole moment (field-independent basis, Debye):
    X=             -3.6546    Y=              1.3509    Z=             -0.0005  Tot=              3.8963

 Test job not archived.
 1\1\GINC-SE460\SP\RHF\Aug-CC-pVDZ\C7H7B1O1\OHZDE\09-Apr-2025\0\\#t hf
 aug-cc-pvdz iop(5/13=1,5/36=2,99/5=2) pseudo=read geom=check guess=(re
 ad,tcheck) scf=(maxcycle=1)\\title\\0,1\C,0,-1.85965,1.252814,-0.00005
 3\C,0,-0.468909,1.236113,-0.000093\C,0,0.215454,0.015444,-0.000078\C,0
 ,1.677143,0.006075,-0.000158\O,0,2.385619,-1.01451,0.000227\B,0,2.9411
 64,0.879637,0.000016\C,0,-2.565662,0.050381,0.000017\C,0,-1.886788,-1.
 171232,0.000042\C,0,-0.499605,-1.190979,-0.000003\H,0,0.052517,-2.1235
 72,0.000008\H,0,-2.39323,2.195993,-0.000073\H,0,0.094439,2.162978,-0.0

 Normal termination of Gaussian 16 at Wed Apr  9 00:28:41 2025.
