 Gaussian 16, Revision C.01,

 ----------------------------------------------------------------------
 #t hf aug-cc-pvdz symm=none int=(grid=ultrafine) guess=(read,tcheck) s
 table=(opt,rrhf)
 ----------------------------------------------------------------------
 -----
 title
 -----
 Symbolic Z-matrix:
 Charge =  0 Multiplicity = 1

 SCF Done:  E(RHF) =  -1204.13908671     A.U. after   20 cycles
 Normal termination of Gaussian 16 at Tue Apr  8 22:59:21 2025.
 Gaussian 16:  ES64L-G16RevC.01  3-Jul-2019

 ----------------------------------------------------------------------
 #t hf aug-cc-pvdz iop(5/13=1,5/36=2,99/5=2) pseudo=read geom=check gue
 ss=(read,tcheck) scf=(maxcycle=1)
 ----------------------------------------------------------------------
 -----
 title
 -----
 Structure from the checkpoint file:  "BDE49_expt_1756_mol1.chk"
 Charge =  0 Multiplicity = 1

                         Standard orientation:
 ---------------------------------------------------------------------
 Center     Atomic      Atomic             Coordinates (Angstroms)
 Number     Number       Type             X           Y           Z
 ---------------------------------------------------------------------
      1          6           0       -2.486610    1.531554    0.222505
      2          6           0       -1.392377    2.358138   -0.019715
      3          6           0       -0.167540    1.812170   -0.392804
      4          6           0       -2.333121    0.157091    0.084456
      5          6           0       -1.126691   -0.423336   -0.284907
      6          6           0       -0.050452    0.426297   -0.513522
      7          1           0       -1.496591    3.431555    0.077252
      8          1           0        0.688797    2.442722   -0.592502
      9          1           0       -1.045013   -1.494314   -0.403286
     10         16           0        1.516951   -0.276042   -1.006447
     11          8           0        1.300294   -1.637923   -1.413090
     12          8           0        2.204861    0.690388   -1.809152
     13          7           0        2.380988   -0.401176    0.479328
     14          7           0        2.808039    0.792483    0.988508
     15          8           0        3.349356    0.695733    2.062987
     16          6           0        2.512753   -1.648956    1.237995
     17          1           0        2.147631   -2.462258    0.618638
     18          1           0        1.946036   -1.582135    2.169361
     19          1           0        3.565321   -1.801824    1.478220
     20          7           0       -3.499209   -0.726588    0.334907
     21          8           0       -4.553478   -0.189980    0.639733
     22          8           0       -3.325001   -1.930328    0.222364
     23          1           0       -3.450156    1.929016    0.509482
 ---------------------------------------------------------------------

 SCF Done:  E(RHF) =  -1204.98597017     A.U. after    2 cycles

 The electronic state is 1-A.
 Alpha  occ. eigenvalues --  -94.25846 -20.62127 -20.61097 -20.61089 -20.58018
 Alpha  occ. eigenvalues --  -20.57686 -15.81472 -15.70864 -15.60871 -11.34550
 Alpha  occ. eigenvalues --  -11.32616 -11.32203 -11.31752 -11.31682 -11.30547
 Alpha  occ. eigenvalues --  -11.30154  -8.50686  -6.48828  -6.48613  -6.48487
 Alpha  occ. eigenvalues --   -1.69188  -1.62904  -1.60769  -1.52951  -1.48843
 Alpha  occ. eigenvalues --   -1.32556  -1.24159  -1.14609  -1.10413  -1.06822
 Alpha  occ. eigenvalues --   -1.02241  -1.00694  -0.92030  -0.88598  -0.85319
 Alpha  occ. eigenvalues --   -0.83182  -0.79124  -0.77202  -0.76750  -0.76483
 Alpha  occ. eigenvalues --   -0.75610  -0.74192  -0.71769  -0.70498  -0.67862
 Alpha  occ. eigenvalues --   -0.67766  -0.67497  -0.61369  -0.61299  -0.60712
 Alpha  occ. eigenvalues --   -0.59293  -0.58347  -0.55396  -0.53609  -0.52181
 Alpha  occ. eigenvalues --   -0.50998  -0.50783  -0.50490  -0.48109  -0.47084
 Alpha  occ. eigenvalues --   -0.46758  -0.41939  -0.41232
 Alpha virt. eigenvalues --   -0.00007   0.02345   0.03221   0.03855   0.04114
 Alpha virt. eigenvalues --    0.05060   0.05392   0.05421   0.05986   0.07053
 Alpha virt. eigenvalues --    0.07843   0.08943   0.09370   0.09808   0.10986

 Mulliken charges:
               1
     1  C    0.214701
     2  C    0.649029
     3  C   -0.701618
     4  C   -0.326726
     5  C   -0.593213
     6  C    0.996474
     7  H   -0.225118
     8  H   -0.282812
     9  H   -0.273179
    10  S    4.229531
    11  O   -1.664836
    12  O   -1.666422
    13  N   -0.438563
    14  N    0.910525
    15  O   -1.045225
    16  C   -0.223384
    17  H    0.084933
    18  H    0.237932
    19  H    0.166701
    20  N    3.168605
    21  O   -1.559566
    22  O   -1.468164
    23  H   -0.189604
 Sum of Mulliken charges =  -0.00000

 Dipole moment (field-independent basis, Debye):
    X=             -0.2317    Y=              2.0609    Z=              1.8017  Tot=              2.7471

 Test job not archived.
 1\1\GINC-SE109\SP\RHF\Aug-CC-pVDZ\C7H7N3O5S1\OHZDE\08-Apr-2025\0\\#t h
 f aug-cc-pvdz iop(5/13=1,5/36=2,99/5=2) pseudo=read geom=check guess=(
 read,tcheck) scf=(maxcycle=1)\\title\\0,1\C,0,-2.48661,1.531554,0.2225
 05\C,0,-1.392377,2.358138,-0.019715\C,0,-0.16754,1.81217,-0.392804\C,0
 ,-2.333121,0.157091,0.084456\C,0,-1.126691,-0.423336,-0.284907\C,0,-0.
 050452,0.426297,-0.513522\H,0,-1.496591,3.431555,0.077252\H,0,0.688797
 ,2.442722,-0.592502\H,0,-1.045013,-1.494314,-0.403286\S,0,1.516951,-0.
 276042,-1.006447\O,0,1.300294,-1.637923,-1.41309\O,0,2.204861,0.690388

 Normal termination of Gaussian 16 at Tue Apr  8 22:59:48 2025.
