 Gaussian 16, Revision C.01,

 ----------------------------------------------------------------------
 #t hf aug-cc-pvdz symm=none int=(grid=ultrafine) guess=(read,tcheck) s
 table=(opt,rrhf)
 ----------------------------------------------------------------------
 -----
 title
 -----
 Symbolic Z-matrix:
 Charge =  0 Multiplicity = 1

 SCF Done:  E(RHF) =  -1052.24343566     A.U. after   16 cycles
 Normal termination of Gaussian 16 at Tue Apr  8 23:27:56 2025.
 Gaussian 16:  ES64L-G16RevC.01  3-Jul-2019

 ----------------------------------------------------------------------
 #t hf aug-cc-pvdz iop(5/13=1,5/36=2,99/5=2) pseudo=read geom=check gue
 ss=(read,tcheck) scf=(maxcycle=1)
 ----------------------------------------------------------------------
 -----
 title
 -----
 Structure from the checkpoint file:  "BDE49_nonexpt_1287_mol1.chk"
 Charge =  0 Multiplicity = 1

                         Standard orientation:
 ---------------------------------------------------------------------
 Center     Atomic      Atomic             Coordinates (Angstroms)
 Number     Number       Type             X           Y           Z
 ---------------------------------------------------------------------
      1          6           0       -0.408016    0.073740    0.455945
      2          7           0       -0.850478    1.386995   -0.214771
      3         15           0        1.360773   -0.372565   -0.028529
      4          7           0       -1.338025   -1.013612   -0.124665
      5          6           0       -0.575653    0.201555    1.958860
      6          8           0       -1.092767   -1.369664   -1.270312
      7          8           0        1.670106   -1.691920    0.506125
      8          8           0       -1.918807    1.418773   -0.778839
      9          8           0        2.223660    0.819143    0.544086
     10          8           0       -0.075573    2.326588   -0.082800
     11          8           0       -2.229598   -1.430621    0.574466
     12          1           0        0.061654    1.007134    2.321791
     13          1           0       -0.262743   -0.732131    2.425703
     14          1           0       -1.616134    0.401608    2.212838
     15          8           0        1.411510   -0.114161   -1.595558
     16          1           0        0.808045   -0.708161   -2.070006
     17          1           0        1.910863    1.689467    0.247487
 ---------------------------------------------------------------------

 SCF Done:  E(RHF) =  -1052.97279092     A.U. after    2 cycles

 The electronic state is 1-A.
 Alpha  occ. eigenvalues --  -84.47982 -20.65645 -20.64801 -20.64429 -20.63570
 Alpha  occ. eigenvalues --  -20.62815 -20.62791 -20.54172 -15.85039 -15.84154
 Alpha  occ. eigenvalues --  -11.42627 -11.30199  -6.93154  -4.47444  -4.46765
 Alpha  occ. eigenvalues --   -4.46138  -1.73562  -1.72158  -1.57907  -1.57065
 Alpha  occ. eigenvalues --   -1.56184  -1.51177  -1.43018  -1.23165  -1.04814
 Alpha  occ. eigenvalues --   -1.03542  -0.91884  -0.89095  -0.86967  -0.81942
 Alpha  occ. eigenvalues --   -0.81078  -0.79458  -0.79245  -0.77891  -0.75135
 Alpha  occ. eigenvalues --   -0.69786  -0.66347  -0.63972  -0.63472  -0.61793
 Alpha  occ. eigenvalues --   -0.60203  -0.58673  -0.56524  -0.55204  -0.53769
 Alpha  occ. eigenvalues --   -0.53465  -0.52762  -0.51072  -0.49858  -0.49128
 Alpha  occ. eigenvalues --   -0.48577
 Alpha virt. eigenvalues --    0.00925   0.01351   0.03227   0.04548   0.04906
 Alpha virt. eigenvalues --    0.05817   0.06123   0.08404   0.09195   0.10385
 Alpha virt. eigenvalues --    0.11738   0.12761   0.13126   0.13984   0.14584

 Mulliken charges:
               1
     1  C   -2.710928
     2  N    3.025010
     3  P    4.741462
     4  N    3.329020
     5  C    0.152985
     6  O   -1.543403
     7  O   -1.441129
     8  O   -1.397047
     9  O   -1.371171
    10  O   -1.519464
    11  O   -1.448310
    12  H    0.275103
    13  H    0.306301
    14  H    0.224114
    15  O   -1.453633
    16  H    0.416567
    17  H    0.414524
 Sum of Mulliken charges =  -0.00000

 Dipole moment (field-independent basis, Debye):
    X=             -0.2487    Y=              2.5568    Z=              1.1357  Tot=              2.8087

 Test job not archived.
 1\1\GINC-SE435\SP\RHF\Aug-CC-pVDZ\C2H5N2O7P1\OHZDE\08-Apr-2025\0\\#t h
 f aug-cc-pvdz iop(5/13=1,5/36=2,99/5=2) pseudo=read geom=check guess=(
 read,tcheck) scf=(maxcycle=1)\\title\\0,1\C,0,-0.408016,0.07374,0.4559
 45\N,0,-0.850479,1.386995,-0.214771\P,0,1.360773,-0.372564,-0.028529\N
 ,0,-1.338024,-1.013613,-0.124665\C,0,-0.575653,0.201555,1.95886\O,0,-1
 .092766,-1.369665,-1.270312\O,0,1.670107,-1.691919,0.506125\O,0,-1.918
 808,1.418772,-0.778839\O,0,2.22366,0.819144,0.544086\O,0,-0.075574,2.3
 26588,-0.0828\O,0,-2.229597,-1.430622,0.574466\H,0,0.061653,1.007134,2

 Normal termination of Gaussian 16 at Tue Apr  8 23:28:07 2025.
