 Gaussian 16, Revision C.01,

 ----------------------------------------------------------------------
 #t hf aug-cc-pvdz symm=none int=(grid=ultrafine) guess=(read,tcheck) s
 table=(opt,rrhf)
 ----------------------------------------------------------------------
 -----
 title
 -----
 Symbolic Z-matrix:
 Charge =  0 Multiplicity = 1

 SCF Done:  E(RHF) =  -624.068006323     A.U. after   15 cycles
 Normal termination of Gaussian 16 at Tue Apr  8 23:27:05 2025.
 Gaussian 16:  ES64L-G16RevC.01  3-Jul-2019

 ----------------------------------------------------------------------
 #t hf aug-cc-pvdz iop(5/13=1,5/36=2,99/5=2) pseudo=read geom=check gue
 ss=(read,tcheck) scf=(maxcycle=1)
 ----------------------------------------------------------------------
 -----
 title
 -----
 Structure from the checkpoint file:  "BDE49_nonexpt_1302_mol1.chk"
 Charge =  0 Multiplicity = 1

                         Standard orientation:
 ---------------------------------------------------------------------
 Center     Atomic      Atomic             Coordinates (Angstroms)
 Number     Number       Type             X           Y           Z
 ---------------------------------------------------------------------
      1         15           0       -0.677652   -0.000055   -0.631612
      2          6           0       -1.273602   -1.430761    0.362522
      3          1           0       -1.105160   -1.302775    1.433341
      4          1           0       -0.766508   -2.332930    0.021274
      5          1           0       -2.344894   -1.542581    0.172830
      6          7           0        1.095158    0.000013   -0.017027
      7          8           0        1.638536   -1.085834    0.124262
      8          8           0        1.638363    1.085920    0.124461
      9          6           0       -1.273619    1.430760    0.362359
     10          1           0       -2.344912    1.542545    0.172652
     11          1           0       -0.766536    2.332896    0.021006
     12          1           0       -1.105179    1.302899    1.433193
 ---------------------------------------------------------------------

 SCF Done:  E(RHF) =  -624.394564656     A.U. after    2 cycles

 The electronic state is 1-A.
 Alpha  occ. eigenvalues --  -84.34050 -20.58580 -20.58574 -15.76346 -11.26621
 Alpha  occ. eigenvalues --  -11.26614  -6.80823  -4.33449  -4.33065  -4.32364
 Alpha  occ. eigenvalues --   -1.65751  -1.49847  -1.07521  -0.97513  -0.96688
 Alpha  occ. eigenvalues --   -0.81730  -0.73716  -0.72719  -0.70087  -0.62199
 Alpha  occ. eigenvalues --   -0.60164  -0.59615  -0.59328  -0.50284  -0.47674
 Alpha  occ. eigenvalues --   -0.45968  -0.44523  -0.37236
 Alpha virt. eigenvalues --    0.02826   0.04075   0.04557   0.05201   0.06504
 Alpha virt. eigenvalues --    0.06743   0.07170   0.07593   0.08988   0.11109
 Alpha virt. eigenvalues --    0.12321   0.14198   0.15108   0.15201   0.16292

 Mulliken charges:
               1
     1  P    1.241177
     2  C   -0.818398
     3  H    0.126439
     4  H    0.165038
     5  H    0.172050
     6  N    2.014481
     7  O   -1.273041
     8  O   -1.272943
     9  C   -0.818315
    10  H    0.172031
    11  H    0.165046
    12  H    0.126435
 Sum of Mulliken charges =   0.00000

 Dipole moment (field-independent basis, Debye):
    X=             -4.9391    Y=             -0.0001    Z=              0.1814  Tot=              4.9424

 Test job not archived.
 1\1\GINC-SE361\SP\RHF\Aug-CC-pVDZ\C2H6N1O2P1\OHZDE\08-Apr-2025\0\\#t h
 f aug-cc-pvdz iop(5/13=1,5/36=2,99/5=2) pseudo=read geom=check guess=(
 read,tcheck) scf=(maxcycle=1)\\title\\0,1\P,0,0.677652,0.000055,-0.631
 612\C,0,1.273602,1.430761,0.362522\H,0,1.10516,1.302775,1.433341\H,0,0
 .766508,2.33293,0.021274\H,0,2.344894,1.542581,0.17283\N,0,-1.095158,-
 0.000013,-0.017027\O,0,-1.638536,1.085834,0.124262\O,0,-1.638363,-1.08
 592,0.124461\C,0,1.273619,-1.43076,0.362359\H,0,2.344912,-1.542545,0.1
 72652\H,0,0.766536,-2.332896,0.021006\H,0,1.105179,-1.302899,1.433193\

 Normal termination of Gaussian 16 at Tue Apr  8 23:27:10 2025.
