 Gaussian 16, Revision C.01,

 ----------------------------------------------------------------------
 #t hf aug-cc-pvdz symm=none int=(grid=ultrafine) guess=(read,tcheck) s
 table=(opt,rrhf)
 ----------------------------------------------------------------------
 -----
 title
 -----
 Symbolic Z-matrix:
 Charge =  0 Multiplicity = 1

 SCF Done:  E(RHF) =  -776.062288154     A.U. after   15 cycles
 Normal termination of Gaussian 16 at Tue Apr  8 22:58:04 2025.
 Gaussian 16:  ES64L-G16RevC.01  3-Jul-2019

 ----------------------------------------------------------------------
 #t hf aug-cc-pvdz iop(5/13=1,5/36=2,99/5=2) pseudo=read geom=check gue
 ss=(read,tcheck) scf=(maxcycle=1)
 ----------------------------------------------------------------------
 -----
 title
 -----
 Structure from the checkpoint file:  "BDE49_expt_1917_mol1.chk"
 Charge =  0 Multiplicity = 1

                         Standard orientation:
 ---------------------------------------------------------------------
 Center     Atomic      Atomic             Coordinates (Angstroms)
 Number     Number       Type             X           Y           Z
 ---------------------------------------------------------------------
      1          8           0       -0.535029   -0.048827   -0.943888
      2         16           0        0.784691   -0.211944    0.064478
      3          6           0        1.297229    1.487894    0.223671
      4          1           0        1.593844    1.847331   -0.759486
      5          1           0        2.137200    1.499676    0.917960
      6          1           0        0.455890    2.051873    0.621757
      7          8           0        1.703232   -0.942389   -0.759259
      8          8           0        0.348879   -0.693055    1.345414
      9          8           0       -1.584348    0.686165   -0.246395
     10          6           0       -2.578752   -0.260911    0.151704
     11          1           0       -3.359565    0.362227    0.593441
     12          1           0       -2.183538   -0.955687    0.893926
     13          1           0       -2.971618   -0.791364   -0.718473
 ---------------------------------------------------------------------

 SCF Done:  E(RHF) =  -776.503581841     A.U. after    2 cycles

 The electronic state is 1-A.
 Alpha  occ. eigenvalues --  -94.24067 -20.66016 -20.65273 -20.56117 -20.55912
 Alpha  occ. eigenvalues --  -11.30812 -11.30085  -8.48899  -6.47016  -6.46863
 Alpha  occ. eigenvalues --   -6.46681  -1.64443  -1.56716  -1.46758  -1.33690
 Alpha  occ. eigenvalues --   -1.07359  -0.95219  -0.86698  -0.75338  -0.72010
 Alpha  occ. eigenvalues --   -0.71148  -0.67371  -0.66450  -0.64547  -0.62323
 Alpha  occ. eigenvalues --   -0.61413  -0.56222  -0.54179  -0.51889  -0.50775
 Alpha  occ. eigenvalues --   -0.49591  -0.48155  -0.46080
 Alpha virt. eigenvalues --    0.03257   0.03930   0.04880   0.05287   0.06611
 Alpha virt. eigenvalues --    0.06850   0.09138   0.11544   0.11932   0.12468
 Alpha virt. eigenvalues --    0.14468   0.14875   0.15170   0.15865   0.16529

 Mulliken charges:
               1
     1  O   -0.921844
     2  S    3.876124
     3  C   -0.797118
     4  H    0.246222
     5  H    0.270355
     6  H    0.269307
     7  O   -1.448764
     8  O   -1.496007
     9  O   -0.753190
    10  C    0.402618
    11  H    0.058875
    12  H    0.146062
    13  H    0.147360
 Sum of Mulliken charges =  -0.00000

 Dipole moment (field-independent basis, Debye):
    X=             -1.7141    Y=              3.1960    Z=              0.6539  Tot=              3.6851

 Test job not archived.
 1\1\GINC-SE086\SP\RHF\Aug-CC-pVDZ\C2H6O4S1\OHZDE\08-Apr-2025\0\\#t hf
 aug-cc-pvdz iop(5/13=1,5/36=2,99/5=2) pseudo=read geom=check guess=(re
 ad,tcheck) scf=(maxcycle=1)\\title\\0,1\O,0,-0.535029,-0.048827,-0.943
 888\S,0,0.784691,-0.211944,0.064478\C,0,1.297229,1.487894,0.223671\H,0
 ,1.593844,1.847331,-0.759486\H,0,2.1372,1.499676,0.91796\H,0,0.45589,2
 .051873,0.621757\O,0,1.703232,-0.942389,-0.759259\O,0,0.348879,-0.6930
 55,1.345414\O,0,-1.584348,0.686165,-0.246395\C,0,-2.578752,-0.260911,0
 .151704\H,0,-3.359565,0.362227,0.593441\H,0,-2.183538,-0.955687,0.8939

 Normal termination of Gaussian 16 at Tue Apr  8 22:58:09 2025.
