 Gaussian 16, Revision C.01,

 ----------------------------------------------------------------------
 #t hf aug-cc-pvdz symm=none int=(grid=ultrafine) guess=(read,tcheck) s
 table=(opt,rrhf)
 ----------------------------------------------------------------------
 -----
 title
 -----
 Symbolic Z-matrix:
 Charge =  0 Multiplicity = 1

 SCF Done:  E(RHF) =  -815.634692396     A.U. after   11 cycles
 Normal termination of Gaussian 16 at Tue Apr  8 23:00:49 2025.
 Gaussian 16:  ES64L-G16RevC.01  3-Jul-2019

 ----------------------------------------------------------------------
 #t hf aug-cc-pvdz iop(5/13=1,5/36=2,99/5=2) pseudo=read geom=check gue
 ss=(read,tcheck) scf=(maxcycle=1)
 ----------------------------------------------------------------------
 -----
 title
 -----
 Structure from the checkpoint file:  "BDE49_expt_1941_mol1.chk"
 Charge =  0 Multiplicity = 1

                         Standard orientation:
 ---------------------------------------------------------------------
 Center     Atomic      Atomic             Coordinates (Angstroms)
 Number     Number       Type             X           Y           Z
 ---------------------------------------------------------------------
      1         14           0        1.187732   -0.000015    0.000071
      2         14           0       -1.187732    0.000015   -0.000071
      3          6           0       -1.848898   -1.527285   -0.904626
      4          1           0       -2.944176   -1.532654   -0.906865
      5          1           0       -1.515024   -2.453056   -0.426571
      6          1           0       -1.516313   -1.552603   -1.946664
      7          6           0       -1.849078    1.546992   -0.870317
      8          1           0       -1.516188    1.595739   -1.911400
      9          1           0       -1.515717    2.461939   -0.371520
     10          1           0       -2.944349    1.552007   -0.872840
     11          6           0       -1.849338   -0.019859    1.774634
     12          1           0       -1.516470    0.857372    2.337394
     13          1           0       -1.516110   -0.909285    2.317689
     14          1           0       -2.944611   -0.020176    1.780029
     15          6           0        1.848898    1.527287    0.904623
     16          1           0        1.515027    2.453057    0.426564
     17          1           0        2.944175    1.532653    0.906866
     18          1           0        1.516309    1.552610    1.946660
     19          6           0        1.849078   -1.546990    0.870320
     20          1           0        1.516199   -1.595728    1.911407
     21          1           0        2.944350   -1.552012    0.872831
     22          1           0        1.515706   -2.461939    0.371533
     23          6           0        1.849338    0.019856   -1.774634
     24          1           0        1.516097    0.909272   -2.317696
     25          1           0        1.516484   -0.857385   -2.337387
     26          1           0        2.944611    0.020189   -1.780029
 ---------------------------------------------------------------------

 SCF Done:  E(RHF) =  -815.972844781     A.U. after    2 cycles

 The electronic state is 1-A.
 Alpha  occ. eigenvalues --  -69.49965 -69.49965 -11.20705 -11.20702 -11.20699
 Alpha  occ. eigenvalues --  -11.20699 -11.20698 -11.20698  -6.17044  -6.17033
 Alpha  occ. eigenvalues --   -3.92374  -3.92367  -3.92367  -3.92357  -3.92357
 Alpha  occ. eigenvalues --   -3.92292  -0.97873  -0.96473  -0.92482  -0.92481
 Alpha  occ. eigenvalues --   -0.91923  -0.91922  -0.67784  -0.60978  -0.58083
 Alpha  occ. eigenvalues --   -0.56423  -0.56421  -0.56379  -0.56378  -0.55609
 Alpha  occ. eigenvalues --   -0.54472  -0.54470  -0.53820  -0.53820  -0.53582
 Alpha  occ. eigenvalues --   -0.53045  -0.44202  -0.44201  -0.42759  -0.42757
 Alpha  occ. eigenvalues --   -0.36071
 Alpha virt. eigenvalues --    0.03213   0.03408   0.03408   0.03542   0.05408
 Alpha virt. eigenvalues --    0.05778   0.05779   0.05960   0.05960   0.08026
 Alpha virt. eigenvalues --    0.08026   0.08273   0.08954   0.08955   0.09034

 Mulliken charges:
               1
     1  Si   2.482154
     2  Si   2.482154
     3  C   -0.619473
     4  H   -0.075887
     5  H   -0.065960
     6  H   -0.066120
     7  C   -0.619411
     8  H   -0.066120
     9  H   -0.065968
    10  H   -0.076007
    11  C   -0.619137
    12  H   -0.066188
    13  H   -0.066225
    14  H   -0.075658
    15  C   -0.619471
    16  H   -0.065960
    17  H   -0.075890
    18  H   -0.066119
    19  C   -0.619416
    20  H   -0.066120
    21  H   -0.076006
    22  H   -0.065965
    23  C   -0.619135
    24  H   -0.066227
    25  H   -0.066189
    26  H   -0.075656
 Sum of Mulliken charges =  -0.00000

 Dipole moment (field-independent basis, Debye):
    X=              0.0000    Y=             -0.0000    Z=             -0.0000  Tot=              0.0000

 Test job not archived.
 1\1\GINC-SE218\SP\RHF\Aug-CC-pVDZ\C6H18Si2\OHZDE\08-Apr-2025\0\\#t hf
 aug-cc-pvdz iop(5/13=1,5/36=2,99/5=2) pseudo=read geom=check guess=(re
 ad,tcheck) scf=(maxcycle=1)\\title\\0,1\Si,0,1.187732,-0.000015,0.0000
 71\Si,0,-1.187732,0.000015,-0.000071\C,0,-1.848898,-1.527285,-0.904626
 \H,0,-2.944176,-1.532654,-0.906865\H,0,-1.515024,-2.453056,-0.426571\H
 ,0,-1.516313,-1.552603,-1.946664\C,0,-1.849078,1.546992,-0.870317\H,0,
 -1.516188,1.595739,-1.9114\H,0,-1.515717,2.461939,-0.37152\H,0,-2.9443
 49,1.552007,-0.87284\C,0,-1.849338,-0.019859,1.774634\H,0,-1.51647,0.8

 Normal termination of Gaussian 16 at Tue Apr  8 23:01:06 2025.
