 Gaussian 16, Revision C.01,

 ----------------------------------------------------------------------
 #t hf aug-cc-pvdz symm=none int=(grid=ultrafine) guess=(read,tcheck) s
 table=opt
 ----------------------------------------------------------------------
 -----
 title
 -----
 Symbolic Z-matrix:
 Charge =  0 Multiplicity = 2

 SCF Done:  E(UHF) =  -996.450386594     A.U. after   17 cycles

 1\1\GINC-SE364\Stability\UHF\Aug-CC-pVDZ\C2H3Cl2\OHZDE\08-Apr-2025\0\\
 #t hf aug-cc-pvdz symm=none int=(grid=ultrafine) guess=(read,tcheck) s
 table=opt\\title\\0,2\C,0,-0.003085,1.746449,-0.159803\C,0,0.023034,0.
 413437,0.428577\H,0,0.247483,1.880331,-1.202818\Cl,0,-1.487686,-0.5364
 44,-0.076844\Cl,0,1.49157,-0.511276,-0.060045\H,0,-0.42419,2.56785,0.4
 04932\H,0,-0.009013,0.403749,1.512343\\Version=ES64L-G16RevC.01\HF=-99
 6.4503866\S2=0.767296\S2-1=0.\S2A=0.750226\RMSD=9.013e-09\Dipole=0.033
 8737,0.8646428,0.3259282\Quadrupole=-2.7004475,1.4794256,1.2210218,-0.

 Normal termination of Gaussian 16 at Tue Apr  8 22:30:22 2025.
 Gaussian 16:  ES64L-G16RevC.01  3-Jul-2019

 ----------------------------------------------------------------------
 #t hf aug-cc-pvdz iop(5/13=1,5/36=2,99/5=2) pseudo=read geom=check gue
 ss=(read,tcheck) scf=(maxcycle=1)
 ----------------------------------------------------------------------
 -----
 title
 -----
 Structure from the checkpoint file:  "BDE49_expt_1024_mol2.chk"
 Charge =  0 Multiplicity = 2

                         Standard orientation:
 ---------------------------------------------------------------------
 Center     Atomic      Atomic             Coordinates (Angstroms)
 Number     Number       Type             X           Y           Z
 ---------------------------------------------------------------------
      1          6           0       -0.003084    1.746449   -0.159803
      2          6           0        0.023034    0.413437    0.428577
      3          1           0        0.247484    1.880331   -1.202818
      4         17           0       -1.487686   -0.536443   -0.076844
      5         17           0        1.491570   -0.511277   -0.060045
      6          1           0       -0.424188    2.567850    0.404932
      7          1           0       -0.009013    0.403749    1.512343
 ---------------------------------------------------------------------

 SCF Done:  E(UHF) =  -996.682728508     A.U. after    2 cycles

 The electronic state is 2-A.
 Alpha  occ. eigenvalues -- -105.58040-105.57345 -11.38771 -11.28576 -10.62853
 Alpha  occ. eigenvalues --  -10.62125  -7.79845  -7.79396  -7.79369  -7.79278
 Alpha  occ. eigenvalues --   -7.78640  -7.78614  -1.17550  -1.04684  -1.01293
 Alpha  occ. eigenvalues --   -0.83838  -0.69266  -0.63630  -0.61518  -0.57700
 Alpha  occ. eigenvalues --   -0.48964  -0.48288  -0.46168  -0.45244  -0.40195
 Alpha virt. eigenvalues --    0.03420   0.04498   0.05396   0.08346   0.08798
 Alpha virt. eigenvalues --    0.10983   0.12228   0.13671   0.14330   0.15315
 Alpha virt. eigenvalues --    0.16260   0.16613   0.17888   0.18536   0.18768

  Beta  occ. eigenvalues -- -105.57992-105.57166 -11.39213 -11.26140 -10.62801
  Beta  occ. eigenvalues --  -10.61931  -7.79695  -7.79349  -7.79324  -7.78684
  Beta  occ. eigenvalues --   -7.78506  -7.78426  -1.16317  -1.03701  -0.95863
  Beta  occ. eigenvalues --   -0.81541  -0.68347  -0.62598  -0.58878  -0.56908
  Beta  occ. eigenvalues --   -0.47810  -0.47505  -0.45802  -0.44984
  Beta virt. eigenvalues --    0.03476   0.04536   0.04554   0.05435   0.08449
  Beta virt. eigenvalues --    0.10272   0.11395   0.12923   0.14187   0.14428
  Beta virt. eigenvalues --    0.15561   0.16447   0.16620   0.18000   0.18652

 Mulliken charges and spin densities:
               1          2
     1  C    0.288477   1.303231
     2  C   -0.694426  -0.227013
     3  H    0.073275  -0.096062
     4  Cl  -0.014023   0.095413
     5  Cl   0.008422   0.018578
     6  H    0.039537  -0.098586
     7  H    0.298738   0.004440
 Sum of Mulliken charges =  -0.00000   1.00000

 Dipole moment (field-independent basis, Debye):
    X=              0.0883    Y=              2.1945    Z=              0.8287  Tot=              2.3474
                          Isotropic Fermi Contact Couplings
        Atom                 a.u.       MegaHertz       Gauss      10(-4) cm-1
     1  C(13)              0.20350     228.77712      81.63337      76.31183
     2  C(13)             -0.06892     -77.48178     -27.64743     -25.84514
     3  H(1)              -0.02334    -104.31983     -37.22391     -34.79735
     4  Cl(35)             0.08364      36.67156      13.08532      12.23232
     5  Cl(35)             0.02405      10.54699       3.76343       3.51810
     6  H(1)              -0.02408    -107.63050     -38.40524     -35.90167
     7  H(1)               0.00389      17.38941       6.20497       5.80048
 --------------------------------------------------------

 Normal termination of Gaussian 16 at Tue Apr  8 22:30:24 2025.
