 Gaussian 16, Revision C.01,

 ----------------------------------------------------------------------
 #t hf aug-cc-pvdz symm=none int=(grid=ultrafine) guess=(read,tcheck) s
 table=(opt,rrhf)
 ----------------------------------------------------------------------
 -----
 title
 -----
 Symbolic Z-matrix:
 Charge =  0 Multiplicity = 1

 SCF Done:  E(RHF) =  -860.522256651     A.U. after   13 cycles
 Normal termination of Gaussian 16 at Tue Apr  8 23:43:19 2025.
 Gaussian 16:  ES64L-G16RevC.01  3-Jul-2019

 ----------------------------------------------------------------------
 #t hf aug-cc-pvdz iop(5/13=1,5/36=2,99/5=2) pseudo=read geom=check gue
 ss=(read,tcheck) scf=(maxcycle=1)
 ----------------------------------------------------------------------
 -----
 title
 -----
 Structure from the checkpoint file:  "BDE49_nonexpt_1690_mol1.chk"
 Charge =  0 Multiplicity = 1

                         Standard orientation:
 ---------------------------------------------------------------------
 Center     Atomic      Atomic             Coordinates (Angstroms)
 Number     Number       Type             X           Y           Z
 ---------------------------------------------------------------------
      1         15           0       -1.394070   -0.811563   -0.176516
      2          6           0       -2.411680    0.739351    0.091627
      3          1           0       -2.115329    1.573194   -0.545424
      4          1           0       -2.309117    1.042836    1.135343
      5          1           0       -3.463269    0.510542   -0.090564
      6         14           0        0.721615   -0.009659    0.041839
      7          6           0        1.200149    1.493961   -0.935395
      8          1           0        0.600923    2.360975   -0.648152
      9          1           0        1.074567    1.320394   -2.006505
     10          1           0        2.251288    1.731398   -0.747144
     11          8           0        1.737349   -1.224147   -0.438040
     12          1           0       -1.388327   -0.830852   -1.595263
     13          1           0        1.509105   -2.130942   -0.220990
     14          8           0        0.916303    0.417799    1.629480
     15          1           0        0.688569   -0.217967    2.311777
 ---------------------------------------------------------------------

 SCF Done:  E(RHF) =  -860.841989763     A.U. after    2 cycles

 The electronic state is 1-A.
 Alpha  occ. eigenvalues --  -84.25621 -69.57764 -20.54695 -20.54659 -11.24554
 Alpha  occ. eigenvalues --  -11.21559  -6.72910  -6.24028  -4.25364  -4.25182
 Alpha  occ. eigenvalues --   -4.24655  -3.99496  -3.99369  -3.99286  -1.44429
 Alpha  occ. eigenvalues --   -1.42319  -0.98748  -0.95477  -0.80678  -0.74865
 Alpha  occ. eigenvalues --   -0.70097  -0.61052  -0.58710  -0.58162  -0.56468
 Alpha  occ. eigenvalues --   -0.55802  -0.54507  -0.53725  -0.49664  -0.48793
 Alpha  occ. eigenvalues --   -0.47254  -0.40791  -0.32270
 Alpha virt. eigenvalues --    0.03316   0.03915   0.04487   0.04821   0.06268
 Alpha virt. eigenvalues --    0.06572   0.06987   0.07148   0.07408   0.09547
 Alpha virt. eigenvalues --    0.10348   0.10811   0.11326   0.11702   0.12821

 Mulliken charges:
               1
     1  P   -0.692093
     2  C   -0.756067
     3  H    0.087318
     4  H    0.106230
     5  H    0.066390
     6  Si   3.627919
     7  C   -0.607983
     8  H    0.006199
     9  H    0.045958
    10  H    0.029628
    11  O   -1.579842
    12  H    0.411277
    13  H    0.423060
    14  O   -1.553363
    15  H    0.385370
 Sum of Mulliken charges =  -0.00000

 Dipole moment (field-independent basis, Debye):
    X=             -1.3318    Y=             -0.4615    Z=              0.3229  Tot=              1.4460

 Test job not archived.
 1\1\GINC-SE097\SP\RHF\Aug-CC-pVDZ\C2H9O2P1Si1\OHZDE\08-Apr-2025\0\\#t
 hf aug-cc-pvdz iop(5/13=1,5/36=2,99/5=2) pseudo=read geom=check guess=
 (read,tcheck) scf=(maxcycle=1)\\title\\0,1\P,0,-1.39407,-0.811563,-0.1
 76516\C,0,-2.41168,0.739351,0.091627\H,0,-2.115329,1.573194,-0.545424\
 H,0,-2.309117,1.042836,1.135343\H,0,-3.463269,0.510542,-0.090564\Si,0,
 0.721615,-0.009659,0.041839\C,0,1.200149,1.493961,-0.935395\H,0,0.6009
 23,2.360975,-0.648152\H,0,1.074567,1.320394,-2.006505\H,0,2.251288,1.7
 31398,-0.747144\O,0,1.737349,-1.224147,-0.43804\H,0,-1.388327,-0.83085

 Normal termination of Gaussian 16 at Tue Apr  8 23:43:25 2025.
