 Gaussian 16, Revision C.01,

 ----------------------------------------------------------------------
 #t hf aug-cc-pvdz symm=none int=(grid=ultrafine) guess=(read,tcheck) s
 table=(opt,rrhf)
 ----------------------------------------------------------------------
 -----
 title
 -----
 Symbolic Z-matrix:
 Charge =  0 Multiplicity = 1

 SCF Done:  E(RHF) =  -862.440104982     A.U. after   15 cycles
 Normal termination of Gaussian 16 at Tue Apr  8 23:41:07 2025.
 Gaussian 16:  ES64L-G16RevC.01  3-Jul-2019

 ----------------------------------------------------------------------
 #t hf aug-cc-pvdz iop(5/13=1,5/36=2,99/5=2) pseudo=read geom=check gue
 ss=(read,tcheck) scf=(maxcycle=1)
 ----------------------------------------------------------------------
 -----
 title
 -----
 Structure from the checkpoint file:  "BDE49_nonexpt_1635_mol1.chk"
 Charge =  0 Multiplicity = 1

                         Standard orientation:
 ---------------------------------------------------------------------
 Center     Atomic      Atomic             Coordinates (Angstroms)
 Number     Number       Type             X           Y           Z
 ---------------------------------------------------------------------
      1          6           0        1.656661   -0.151221   -0.030561
      2         15           0       -1.104219   -0.567181    0.725728
      3          6           0       -1.184545   -1.717011   -0.738870
      4          1           0       -0.442027   -1.495431   -1.505682
      5          1           0       -2.188825   -1.664785   -1.166314
      6          1           0       -1.023265   -2.737969   -0.384361
      7          8           0        1.889696   -0.899467   -0.956555
      8          6           0        2.268646    1.236146    0.042444
      9         14           0       -1.450991    1.428241   -0.319992
     10          1           0        3.064520    1.229326    0.796018
     11          1           0        1.542775    1.991199    0.354517
     12          1           0        2.696944    1.500858   -0.923376
     13          6           0        0.750598   -0.567633    1.110246
     14          1           0        0.889612    0.057872    1.994846
     15          1           0        0.977050   -1.603089    1.378237
     16          1           0       -2.880993    1.446679   -0.707761
     17          1           0       -0.625627    1.654710   -1.532914
     18          1           0       -1.198730    2.527026    0.643646
 ---------------------------------------------------------------------

 SCF Done:  E(RHF) =  -862.763364047     A.U. after    2 cycles

 The electronic state is 1-A.
 Alpha  occ. eigenvalues --  -84.27289 -69.53981 -20.53678 -11.34737 -11.25954
 Alpha  occ. eigenvalues --  -11.25081 -11.23917  -6.74390  -6.21070  -4.26830
 Alpha  occ. eigenvalues --   -4.26699  -4.26147  -3.96418  -3.96401  -3.96386
 Alpha  occ. eigenvalues --   -1.47216  -1.06118  -1.00188  -0.95637  -0.80526
 Alpha  occ. eigenvalues --   -0.75666  -0.70048  -0.66022  -0.65038  -0.61623
 Alpha  occ. eigenvalues --   -0.58553  -0.57864  -0.57176  -0.55231  -0.50885
 Alpha  occ. eigenvalues --   -0.50220  -0.49806  -0.45342  -0.42453  -0.41280
 Alpha  occ. eigenvalues --   -0.31748
 Alpha virt. eigenvalues --    0.03271   0.03676   0.04124   0.04520   0.05562
 Alpha virt. eigenvalues --    0.05851   0.06438   0.06626   0.07647   0.08807
 Alpha virt. eigenvalues --    0.09143   0.09991   0.10391   0.10645   0.11344

 Mulliken charges:
               1
     1  C    1.201074
     2  P    0.577076
     3  C   -0.767152
     4  H    0.118825
     5  H    0.058452
     6  H    0.087486
     7  O   -1.395890
     8  C   -0.514273
     9  Si   0.751425
    10  H    0.278395
    11  H    0.140596
    12  H    0.157209
    13  C   -0.548640
    14  H    0.035982
    15  H    0.158482
    16  H   -0.214888
    17  H   -0.029574
    18  H   -0.094584
 Sum of Mulliken charges =  -0.00000

 Dipole moment (field-independent basis, Debye):
    X=             -0.0483    Y=              1.1169    Z=              1.6092  Tot=              1.9594

 Test job not archived.
 1\1\GINC-SE424\SP\RHF\Aug-CC-pVDZ\C4H11O1P1Si1\OHZDE\08-Apr-2025\0\\#t
  hf aug-cc-pvdz iop(5/13=1,5/36=2,99/5=2) pseudo=read geom=check guess
 =(read,tcheck) scf=(maxcycle=1)\\title\\0,1\C,0,1.656661,-0.151221,-0.
 030561\P,0,-1.104219,-0.567181,0.725728\C,0,-1.184545,-1.717011,-0.738
 87\H,0,-0.442027,-1.495431,-1.505682\H,0,-2.188825,-1.664785,-1.166314
 \H,0,-1.023265,-2.737969,-0.384361\O,0,1.889696,-0.899467,-0.956555\C,
 0,2.268646,1.236146,0.042444\Si,0,-1.450991,1.428241,-0.319992\H,0,3.0
 6452,1.229326,0.796018\H,0,1.542775,1.991199,0.354517\H,0,2.696944,1.5

 Normal termination of Gaussian 16 at Tue Apr  8 23:41:15 2025.
