 Gaussian 16, Revision C.01,

 ----------------------------------------------------------------------
 #t hf aug-cc-pvdz symm=none int=(grid=ultrafine) guess=(read,tcheck) s
 table=(opt,rrhf)
 ----------------------------------------------------------------------
 -----
 title
 -----
 Symbolic Z-matrix:
 Charge =  0 Multiplicity = 1

 SCF Done:  E(RHF) =  -641.262875766     A.U. after   15 cycles
 Normal termination of Gaussian 16 at Tue Apr  8 23:11:56 2025.
 Gaussian 16:  ES64L-G16RevC.01  3-Jul-2019

 ----------------------------------------------------------------------
 #t hf aug-cc-pvdz iop(5/13=1,5/36=2,99/5=2) pseudo=read geom=check gue
 ss=(read,tcheck) scf=(maxcycle=1)
 ----------------------------------------------------------------------
 -----
 title
 -----
 Structure from the checkpoint file:  "BDE49_expt_741_mol1.chk"
 Charge =  0 Multiplicity = 1

                         Standard orientation:
 ---------------------------------------------------------------------
 Center     Atomic      Atomic             Coordinates (Angstroms)
 Number     Number       Type             X           Y           Z
 ---------------------------------------------------------------------
      1          6           0        0.369704    0.004495   -0.035002
      2          6           0       -0.326654   -1.207530   -0.024600
      3          6           0       -1.712266   -1.221763   -0.006478
      4          6           0       -0.337922    1.204665   -0.024853
      5          6           0       -1.727893    1.198083   -0.007121
      6          6           0       -2.419625   -0.015580    0.003997
      7          1           0        0.196289    2.146032   -0.039649
      8          1           0       -2.274515    2.136125   -0.004690
      9          8           0       -3.778094   -0.089377    0.020613
     10          1           0       -4.149801    0.799003    0.025678
     11          1           0        0.220583   -2.141834   -0.040439
     12          1           0       -2.265752   -2.152305   -0.003295
     13          6           0        1.868347    0.006088   -0.000341
     14          9           0        2.394022   -1.026419   -0.698695
     15          9           0        2.390769    1.143287   -0.512393
     16          9           0        2.350298   -0.103841    1.262630
 ---------------------------------------------------------------------

 SCF Done:  E(RHF) =  -641.877865538     A.U. after    2 cycles

 The electronic state is 1-A.
 Alpha  occ. eigenvalues --  -26.50060 -26.49917 -26.49431 -20.60140 -11.51795
 Alpha  occ. eigenvalues --  -11.33582 -11.27758 -11.27537 -11.26754 -11.26267
 Alpha  occ. eigenvalues --  -11.25700  -1.70418  -1.60580  -1.59971  -1.51651
 Alpha  occ. eigenvalues --   -1.18309  -1.06560  -1.04861  -0.95224  -0.88479
 Alpha  occ. eigenvalues --   -0.86428  -0.79977  -0.79858  -0.79466  -0.76137
 Alpha  occ. eigenvalues --   -0.70400  -0.68003  -0.67264  -0.66130  -0.63570
 Alpha  occ. eigenvalues --   -0.63149  -0.62643  -0.61793  -0.61094  -0.60953
 Alpha  occ. eigenvalues --   -0.58921  -0.54858  -0.52680  -0.51266  -0.37518
 Alpha  occ. eigenvalues --   -0.34918
 Alpha virt. eigenvalues --    0.02467   0.03763   0.04181   0.05556   0.06507
 Alpha virt. eigenvalues --    0.08401   0.08598   0.09247   0.10133   0.10326
 Alpha virt. eigenvalues --    0.12256   0.12506   0.12604   0.13228   0.13740

 Mulliken charges:
               1
     1  C    0.744018
     2  C    0.024678
     3  C    0.414789
     4  C   -0.089319
     5  C   -0.014704
     6  C    1.221383
     7  H   -0.238904
     8  H   -0.306852
     9  O   -1.739235
    10  H    0.400014
    11  H   -0.269689
    12  H   -0.242392
    13  C    2.502362
    14  F   -0.816652
    15  F   -0.836189
    16  F   -0.753309
 Sum of Mulliken charges =   0.00000

 Dipole moment (field-independent basis, Debye):
    X=             -3.0723    Y=              1.3384    Z=             -0.0643  Tot=              3.3518

 Test job not archived.
 1\1\GINC-SE424\SP\RHF\Aug-CC-pVDZ\C7H5F3O1\OHZDE\08-Apr-2025\0\\#t hf
 aug-cc-pvdz iop(5/13=1,5/36=2,99/5=2) pseudo=read geom=check guess=(re
 ad,tcheck) scf=(maxcycle=1)\\title\\0,1\C,0,0.369704,0.004495,-0.03500
 2\C,0,-0.326654,-1.20753,-0.0246\C,0,-1.712266,-1.221763,-0.006478\C,0
 ,-0.337922,1.204665,-0.024853\C,0,-1.727893,1.198083,-0.007121\C,0,-2.
 419625,-0.01558,0.003997\H,0,0.196289,2.146032,-0.039649\H,0,-2.274515
 ,2.136125,-0.00469\O,0,-3.778094,-0.089377,0.020613\H,0,-4.149801,0.79
 9003,0.025678\H,0,0.220583,-2.141834,-0.040439\H,0,-2.265752,-2.152305

 Normal termination of Gaussian 16 at Tue Apr  8 23:12:05 2025.
