 Gaussian 16, Revision C.01,

 ----------------------------------------------------------------------
 #t hf aug-cc-pvdz symm=none int=(grid=ultrafine) guess=(read,tcheck) s
 table=(opt,rrhf)
 ----------------------------------------------------------------------
 -----
 title
 -----
 Symbolic Z-matrix:
 Charge =  0 Multiplicity = 1

 SCF Done:  E(RHF) =  -1339.71030405     A.U. after   17 cycles
 Normal termination of Gaussian 16 at Wed Apr  9 00:41:21 2025.
 Gaussian 16:  ES64L-G16RevC.01  3-Jul-2019

 ----------------------------------------------------------------------
 #t hf aug-cc-pvdz iop(5/13=1,5/36=2,99/5=2) pseudo=read geom=check gue
 ss=(read,tcheck) scf=(maxcycle=1)
 ----------------------------------------------------------------------
 -----
 title
 -----
 Structure from the checkpoint file:  "BDE49_nonexpt_630_mol1.chk"
 Charge =  0 Multiplicity = 1

                         Standard orientation:
 ---------------------------------------------------------------------
 Center     Atomic      Atomic             Coordinates (Angstroms)
 Number     Number       Type             X           Y           Z
 ---------------------------------------------------------------------
      1          5           0        2.418737   -0.149060    0.000000
      2         17           0       -3.004444   -0.386612   -0.000001
      3         17           0       -0.298185   -1.998150    0.000000
      4          8           0        3.433995    0.761482   -0.000005
      5          1           0        4.296171    0.331914   -0.000003
      6          8           0        2.733935   -1.469130    0.000009
      7          1           0        1.966066   -2.052219    0.000012
      8          7           0       -1.542031    1.779422   -0.000001
      9          6           0       -1.473469    0.467100    0.000001
     10          6           0       -0.258571   -0.238476    0.000000
     11          6           0        0.951551    0.465293   -0.000001
     12          6           0        0.845736    1.865816   -0.000002
     13          1           0        1.748580    2.461972   -0.000003
     14          6           0       -0.400028    2.473005   -0.000002
     15          1           0       -0.500344    3.553386   -0.000003
 ---------------------------------------------------------------------

 SCF Done:  E(RHF) =  -1340.27875709     A.U. after    2 cycles

 The electronic state is 1-A.
 Alpha  occ. eigenvalues -- -105.60262-105.58360 -20.57211 -20.57160 -15.53943
 Alpha  occ. eigenvalues --  -11.36858 -11.34517 -11.30616 -11.28002 -11.27269
 Alpha  occ. eigenvalues --  -10.65092 -10.63185  -7.82047  -7.81683  -7.81628
 Alpha  occ. eigenvalues --   -7.80148  -7.79723  -7.79721  -7.67011  -1.49992
 Alpha  occ. eigenvalues --   -1.45700  -1.30908  -1.16820  -1.12562  -1.07267
 Alpha  occ. eigenvalues --   -1.01287  -0.90503  -0.88126  -0.79553  -0.76325
 Alpha  occ. eigenvalues --   -0.74074  -0.70587  -0.66198  -0.64555  -0.62721
 Alpha  occ. eigenvalues --   -0.62275  -0.58718  -0.57751  -0.57034  -0.54424
 Alpha  occ. eigenvalues --   -0.53060  -0.51545  -0.50658  -0.49894  -0.47930
 Alpha  occ. eigenvalues --   -0.46435  -0.42146  -0.36682
 Alpha virt. eigenvalues --    0.03170   0.03618   0.03873   0.04556   0.04574
 Alpha virt. eigenvalues --    0.05820   0.06732   0.07901   0.08060   0.08949
 Alpha virt. eigenvalues --    0.09958   0.10715   0.11165   0.12932   0.13231

 Mulliken charges:
               1
     1  B    1.549228
     2  Cl  -0.071640
     3  Cl  -0.352322
     4  O   -1.374873
     5  H    0.521475
     6  O   -1.454478
     7  H    0.644394
     8  N    1.400367
     9  C   -1.938682
    10  C    0.968844
    11  C    0.572657
    12  C    0.955008
    13  H   -0.279513
    14  C   -0.948881
    15  H   -0.191584
 Sum of Mulliken charges =  -0.00000

 Dipole moment (field-independent basis, Debye):
    X=              2.9707    Y=              0.1477    Z=              0.0000  Tot=              2.9744

 Test job not archived.
 1\1\GINC-SE141\SP\RHF\Aug-CC-pVDZ\C5H4B1Cl2N1O2\OHZDE\09-Apr-2025\0\\#
 t hf aug-cc-pvdz iop(5/13=1,5/36=2,99/5=2) pseudo=read geom=check gues
 s=(read,tcheck) scf=(maxcycle=1)\\title\\0,1\B,0,2.418737,-0.14906,0.\
 Cl,0,-3.004444,-0.386613,-0.000001\Cl,0,-0.298185,-1.99815,0.\O,0,3.43
 3995,0.761483,-0.000005\H,0,4.296171,0.331915,-0.000003\O,0,2.733935,-
 1.469129,0.000009\H,0,1.966066,-2.052219,0.000012\N,0,-1.542031,1.7794
 22,-0.000001\C,0,-1.473469,0.4671,0.000001\C,0,-0.258571,-0.238476,0.\
 C,0,0.951551,0.465293,-0.000001\C,0,0.845735,1.865816,-0.000002\H,0,1.

 Normal termination of Gaussian 16 at Wed Apr  9 00:41:31 2025.
