 Gaussian 16, Revision C.01,

 ----------------------------------------------------------------------
 #t hf aug-cc-pvdz symm=none int=(grid=ultrafine) guess=(read,tcheck) s
 table=(opt,rrhf)
 ----------------------------------------------------------------------
 -----
 title
 -----
 Symbolic Z-matrix:
 Charge =  0 Multiplicity = 1

 SCF Done:  E(RHF) =  -974.408087288     A.U. after   13 cycles
 Normal termination of Gaussian 16 at Tue Apr  8 23:41:15 2025.
 Gaussian 16:  ES64L-G16RevC.01  3-Jul-2019

 ----------------------------------------------------------------------
 #t hf aug-cc-pvdz iop(5/13=1,5/36=2,99/5=2) pseudo=read geom=check gue
 ss=(read,tcheck) scf=(maxcycle=1)
 ----------------------------------------------------------------------
 -----
 title
 -----
 Structure from the checkpoint file:  "BDE49_nonexpt_1639_mol1.chk"
 Charge =  0 Multiplicity = 1

                         Standard orientation:
 ---------------------------------------------------------------------
 Center     Atomic      Atomic             Coordinates (Angstroms)
 Number     Number       Type             X           Y           Z
 ---------------------------------------------------------------------
      1         14           0        0.841273    0.713131   -0.442401
      2         15           0       -1.106317   -0.386399    0.000188
      3          8           0       -1.136698   -1.843947   -0.241435
      4          8           0       -2.287793    0.388428   -0.814728
      5          6           0        2.246559   -0.210457    0.404299
      6          6           0        2.465873   -1.649963   -0.097237
      7          1           0        2.049653   -0.208122    1.482613
      8          1           0        3.157587    0.385360    0.265102
      9          1           0        2.732183   -1.661773   -1.157929
     10          1           0        1.563350   -2.253525    0.020053
     11          6           0        0.695240    2.505441    0.092691
     12          1           0        1.599981    3.058474   -0.177062
     13          1           0        0.556690    2.578908    1.173964
     14          1           0       -0.156234    2.989078   -0.391786
     15          1           0        3.276027   -2.137969    0.451751
     16          1           0       -2.609811   -0.162580   -1.539192
     17          8           0       -1.400521    0.092027    1.515026
     18          1           0       -2.163315   -0.350266    1.912421
     19          1           0        0.964894    0.612369   -1.918572
 ---------------------------------------------------------------------

 SCF Done:  E(RHF) =  -974.843266357     A.U. after    2 cycles

 The electronic state is 1-A.
 Alpha  occ. eigenvalues --  -84.40784 -69.53978 -20.58662 -20.58200 -20.49487
 Alpha  occ. eigenvalues --  -11.23035 -11.22976 -11.22753  -6.86208  -6.21103
 Alpha  occ. eigenvalues --   -4.40236  -4.39542  -4.38582  -3.96452  -3.96392
 Alpha  occ. eigenvalues --   -3.96365  -1.51873  -1.46114  -1.37500  -1.03017
 Alpha  occ. eigenvalues --   -0.96538  -0.86269  -0.84566  -0.72504  -0.70554
 Alpha  occ. eigenvalues --   -0.65869  -0.62488  -0.61488  -0.58940  -0.57963
 Alpha  occ. eigenvalues --   -0.57422  -0.57258  -0.53795  -0.53475  -0.52466
 Alpha  occ. eigenvalues --   -0.50365  -0.48062  -0.47381  -0.44614  -0.44244
 Alpha  occ. eigenvalues --   -0.39775
 Alpha virt. eigenvalues --    0.03246   0.03685   0.03938   0.04282   0.05658
 Alpha virt. eigenvalues --    0.06102   0.06597   0.06690   0.07276   0.08964
 Alpha virt. eigenvalues --    0.09431   0.09856   0.10364   0.11761   0.12469

 Mulliken charges:
               1
     1  Si   1.424161
     2  P    3.355082
     3  O   -1.618929
     4  O   -1.363225
     5  C   -0.577269
     6  C   -0.400326
     7  H    0.163874
     8  H    0.022770
     9  H    0.126531
    10  H    0.132305
    11  C   -0.625926
    12  H    0.000431
    13  H    0.187291
    14  H   -0.016144
    15  H    0.117125
    16  H    0.320065
    17  O   -1.313630
    18  H    0.308505
    19  H   -0.242691
 Sum of Mulliken charges =  -0.00000

 Dipole moment (field-independent basis, Debye):
    X=              0.5288    Y=              2.3869    Z=              0.3003  Tot=              2.4631

 Test job not archived.
 1\1\GINC-SE460\SP\RHF\Aug-CC-pVDZ\C3H11O3P1Si1\OHZDE\08-Apr-2025\0\\#t
  hf aug-cc-pvdz iop(5/13=1,5/36=2,99/5=2) pseudo=read geom=check guess
 =(read,tcheck) scf=(maxcycle=1)\\title\\0,1\Si,0,0.841273,0.713131,-0.
 442401\P,0,-1.106317,-0.386399,0.000188\O,0,-1.136698,-1.843947,-0.241
 435\O,0,-2.287793,0.388428,-0.814728\C,0,2.246559,-0.210457,0.404299\C
 ,0,2.465873,-1.649963,-0.097237\H,0,2.049653,-0.208122,1.482613\H,0,3.
 157587,0.38536,0.265102\H,0,2.732183,-1.661773,-1.157929\H,0,1.56335,-
 2.253525,0.020053\C,0,0.69524,2.505441,0.092691\H,0,1.599981,3.058474,

 Normal termination of Gaussian 16 at Tue Apr  8 23:41:24 2025.
