 Gaussian 16, Revision C.01,

 ----------------------------------------------------------------------
 #t hf aug-cc-pvdz symm=none int=(grid=ultrafine) guess=(read,tcheck) s
 table=(opt,rrhf)
 ----------------------------------------------------------------------
 -----
 title
 -----
 Symbolic Z-matrix:
 Charge =  0 Multiplicity = 1

 SCF Done:  E(RHF) =  -624.167680949     A.U. after   14 cycles
 Normal termination of Gaussian 16 at Wed Apr  9 00:47:48 2025.
 Gaussian 16:  ES64L-G16RevC.01  3-Jul-2019

 ----------------------------------------------------------------------
 #t hf aug-cc-pvdz iop(5/13=1,5/36=2,99/5=2) pseudo=read geom=check gue
 ss=(read,tcheck) scf=(maxcycle=1)
 ----------------------------------------------------------------------
 -----
 title
 -----
 Structure from the checkpoint file:  "BDE49_nonexpt_805_mol1.chk"
 Charge =  0 Multiplicity = 1

                         Standard orientation:
 ---------------------------------------------------------------------
 Center     Atomic      Atomic             Coordinates (Angstroms)
 Number     Number       Type             X           Y           Z
 ---------------------------------------------------------------------
      1          5           0        2.508913    0.273429   -0.196188
      2          6           0        3.959765   -0.317245   -0.293987
      3          6           0       -0.718088   -0.382287    0.304217
      4          6           0        2.201415    1.709004   -0.744328
      5          1           0        2.923303    2.071163   -1.484292
      6          1           0        2.292165    2.383889    0.124403
      7          1           0        1.185262    1.851770   -1.121133
      8          1           0        4.219902   -1.065577    0.459805
      9          1           0        4.747539    0.442687   -0.339794
     10          1           0        3.991362   -0.845584   -1.262418
     11          6           0       -1.306790    0.762278    0.867377
     12          6           0       -1.490165   -1.139082   -0.591244
     13          6           0       -2.794247   -0.768128   -0.914881
     14          6           0       -3.356754    0.371770   -0.345631
     15          6           0       -2.609797    1.136872    0.548580
     16          1           0       -3.043917    2.022589    0.999832
     17          1           0       -0.745421    1.368307    1.572632
     18          1           0       -3.371729   -1.371035   -1.607407
     19          1           0       -4.372079    0.660791   -0.593731
     20          1           0       -1.071752   -2.035779   -1.037941
     21         14           0        1.063103   -0.860209    0.698090
     22          1           0        1.235137   -2.296522    0.345131
     23          1           0        1.270192   -0.750006    2.171972
 ---------------------------------------------------------------------

 SCF Done:  E(RHF) =  -624.555356329     A.U. after    2 cycles

 The electronic state is 1-A.
 Alpha  occ. eigenvalues --  -69.50502 -11.24456 -11.24429 -11.24396 -11.24218
 Alpha  occ. eigenvalues --  -11.24172 -11.22878 -11.20836 -11.20611  -7.58711
 Alpha  occ. eigenvalues --   -6.17746  -3.93109  -3.93100  -3.93024  -1.14980
 Alpha  occ. eigenvalues --   -1.01428  -1.01355  -0.97861  -0.92931  -0.83223
 Alpha  occ. eigenvalues --   -0.83052  -0.74593  -0.69513  -0.63809  -0.63573
 Alpha  occ. eigenvalues --   -0.61341  -0.59734  -0.58005  -0.56466  -0.55853
 Alpha  occ. eigenvalues --   -0.54477  -0.53481  -0.51012  -0.50228  -0.47324
 Alpha  occ. eigenvalues --   -0.46974  -0.45010  -0.39856  -0.34481  -0.33644
 Alpha virt. eigenvalues --    0.03297   0.03323   0.03431   0.03924   0.04550
 Alpha virt. eigenvalues --    0.04762   0.06015   0.06396   0.06658   0.07086
 Alpha virt. eigenvalues --    0.07303   0.08038   0.08402   0.09437   0.09623

 Mulliken charges:
               1
     1  B    0.568690
     2  C   -0.424595
     3  C   -0.702398
     4  C   -0.392602
     5  H   -0.058696
     6  H    0.136250
     7  H   -0.007977
     8  H   -0.060457
     9  H   -0.060328
    10  H    0.122260
    11  C    0.438062
    12  C    0.418707
    13  C    0.417077
    14  C    0.362752
    15  C    0.310986
    16  H   -0.232544
    17  H   -0.358281
    18  H   -0.224810
    19  H   -0.216268
    20  H   -0.330114
    21  Si   0.464721
    22  H   -0.116810
    23  H   -0.053627
 Sum of Mulliken charges =   0.00000

 Dipole moment (field-independent basis, Debye):
    X=              0.2113    Y=              0.7765    Z=             -0.6901  Tot=              1.0601

 Test job not archived.
 1\1\GINC-SE332\SP\RHF\Aug-CC-pVDZ\C8H13B1Si1\OHZDE\09-Apr-2025\0\\#t h
 f aug-cc-pvdz iop(5/13=1,5/36=2,99/5=2) pseudo=read geom=check guess=(
 read,tcheck) scf=(maxcycle=1)\\title\\0,1\B,0,2.508913,0.273429,-0.196
 188\C,0,3.959765,-0.317245,-0.293987\C,0,-0.718088,-0.382287,0.304217\
 C,0,2.201415,1.709004,-0.744328\H,0,2.923303,2.071163,-1.484292\H,0,2.
 292165,2.383889,0.124403\H,0,1.185262,1.85177,-1.121133\H,0,4.219902,-
 1.065577,0.459805\H,0,4.747539,0.442687,-0.339794\H,0,3.991362,-0.8455
 84,-1.262418\C,0,-1.30679,0.762278,0.867377\C,0,-1.490165,-1.139082,-0

 Normal termination of Gaussian 16 at Wed Apr  9 00:48:00 2025.
