 Gaussian 16, Revision C.01,

 ----------------------------------------------------------------------
 #t hf aug-cc-pvdz symm=none int=(grid=ultrafine) guess=(read,tcheck) s
 table=opt
 ----------------------------------------------------------------------
 -----
 title
 -----
 Symbolic Z-matrix:
 Charge =  0 Multiplicity = 2

 SCF Done:  E(UHF) =  -947.475434516     A.U. after   14 cycles
 Normal termination of Gaussian 16 at Tue Apr  8 23:48:14 2025.
 Gaussian 16:  ES64L-G16RevC.01  3-Jul-2019

 ----------------------------------------------------------------------
 #t hf aug-cc-pvdz iop(5/13=1,5/36=2,99/5=2) pseudo=read geom=check gue
 ss=(read,tcheck) scf=(maxcycle=1)
 ----------------------------------------------------------------------
 -----
 title
 -----
 Structure from the checkpoint file:  "BDE49_nonexpt_1807_mol2.chk"
 Charge =  0 Multiplicity = 2

                         Standard orientation:
 ---------------------------------------------------------------------
 Center     Atomic      Atomic             Coordinates (Angstroms)
 Number     Number       Type             X           Y           Z
 ---------------------------------------------------------------------
      1         14           0        0.603669   -0.035638   -0.000000
      2          9           0        0.603669   -0.987843    1.281418
      3          9           0        0.603669   -0.987843   -1.281418
      4         17           0       -1.136317    1.075300    0.000000
 ---------------------------------------------------------------------

 SCF Done:  E(UHF) =  -947.757502545     A.U. after    2 cycles

 The electronic state is 2-A'.
 Alpha  occ. eigenvalues -- -105.59295 -69.69994 -26.49358 -26.49357 -10.64337
 Alpha  occ. eigenvalues --   -7.81409  -7.80859  -7.80826  -6.35821  -4.11220
 Alpha  occ. eigenvalues --   -4.10752  -4.10656  -1.62091  -1.59769  -1.09291
 Alpha  occ. eigenvalues --   -0.81650  -0.73291  -0.70344  -0.69960  -0.66491
 Alpha  occ. eigenvalues --   -0.64403  -0.61250  -0.51921  -0.50966  -0.41593
 Alpha virt. eigenvalues --    0.05127   0.05533   0.05550   0.06865   0.12749
 Alpha virt. eigenvalues --    0.14228   0.15217   0.15551   0.15908   0.20685
 Alpha virt. eigenvalues --    0.20839   0.23467   0.25110   0.28087   0.29587

  Beta  occ. eigenvalues -- -105.59127 -69.69335 -26.48995 -26.48994 -10.64152
  Beta  occ. eigenvalues --   -7.80899  -7.80730  -7.80623  -6.34671  -4.10319
  Beta  occ. eigenvalues --   -4.10250  -4.09359  -1.61055  -1.58740  -1.07862
  Beta  occ. eigenvalues --   -0.79166  -0.71616  -0.69580  -0.68030  -0.65365
  Beta  occ. eigenvalues --   -0.64092  -0.58437  -0.50851  -0.50683
  Beta virt. eigenvalues --   -0.00579   0.05450   0.05915   0.06214   0.08693
  Beta virt. eigenvalues --    0.12890   0.15381   0.15679   0.17894   0.19395
  Beta virt. eigenvalues --    0.21097   0.21544   0.23955   0.25644   0.28862

 Mulliken charges and spin densities:
               1          2
     1  Si   1.951459   0.940344
     2  F   -0.749926  -0.007500
     3  F   -0.749926  -0.007500
     4  Cl  -0.451607   0.074656
 Sum of Mulliken charges =  -0.00000   1.00000

 Dipole moment (field-independent basis, Debye):
    X=              0.9133    Y=              0.8667    Z=              0.0000  Tot=              1.2590
                          Isotropic Fermi Contact Couplings
        Atom                 a.u.       MegaHertz       Gauss      10(-4) cm-1
     1  Si(29)             1.30615   -1160.81382    -414.20724    -387.20581
     2  F(19)              0.07444     313.20494     111.75931     104.47392
     3  F(19)              0.07444     313.20494     111.75931     104.47392
     4  Cl(35)             0.10249      44.93921      16.03543      14.99011
 --------------------------------------------------------
       Center         ----  Spin Dipole Couplings  ----
                      3XX-RR        3YY-RR        3ZZ-RR
 --------------------------------------------------------

 Normal termination of Gaussian 16 at Tue Apr  8 23:48:16 2025.
