 Gaussian 16, Revision C.01,

 ----------------------------------------------------------------------
 #t hf aug-cc-pvdz symm=none int=(grid=ultrafine) guess=(read,tcheck) s
 table=(opt,rrhf)
 ----------------------------------------------------------------------
 -----
 title
 -----
 Symbolic Z-matrix:
 Charge =  0 Multiplicity = 1

 SCF Done:  E(RHF) =  -627.089722532     A.U. after   15 cycles
 Normal termination of Gaussian 16 at Tue Apr  8 23:29:50 2025.
 Gaussian 16:  ES64L-G16RevC.01  3-Jul-2019

 ----------------------------------------------------------------------
 #t hf aug-cc-pvdz iop(5/13=1,5/36=2,99/5=2) pseudo=read geom=check gue
 ss=(read,tcheck) scf=(maxcycle=1)
 ----------------------------------------------------------------------
 -----
 title
 -----
 Structure from the checkpoint file:  "BDE49_nonexpt_1343_mol1.chk"
 Charge =  0 Multiplicity = 1

                         Standard orientation:
 ---------------------------------------------------------------------
 Center     Atomic      Atomic             Coordinates (Angstroms)
 Number     Number       Type             X           Y           Z
 ---------------------------------------------------------------------
      1          6           0       -0.103603   -0.210674   -0.065829
      2         15           0       -1.895771   -0.588078   -0.275237
      3          7           0       -2.624207    0.838107    0.316793
      4          1           0       -2.559151    1.076850    1.297309
      5          1           0       -3.530864    1.050451   -0.070334
      6          6           0        0.380022    1.098566   -0.149518
      7          6           0        1.749490    1.351925   -0.084431
      8          6           0        2.653201    0.301743    0.055339
      9          6           0        2.179557   -1.007949    0.132380
     10          6           0        0.812895   -1.261545    0.071245
     11          1           0        0.457974   -2.285877    0.140303
     12          1           0       -0.323624    1.916123   -0.255007
     13          1           0        2.109560    2.373438   -0.143688
     14          1           0        3.717953    0.499927    0.105334
     15          1           0        2.875707   -1.831958    0.245120
     16          1           0       -1.970925   -1.476924    0.836842
 ---------------------------------------------------------------------

 SCF Done:  E(RHF) =  -627.432287410     A.U. after    2 cycles

 The electronic state is 1-A.
 Alpha  occ. eigenvalues --  -84.29331 -15.49859 -11.24507 -11.24415 -11.24343
 Alpha  occ. eigenvalues --  -11.24261 -11.24148 -11.23965  -6.76023  -4.28953
 Alpha  occ. eigenvalues --   -4.28713  -4.27756  -1.17334  -1.14932  -1.02158
 Alpha  occ. eigenvalues --   -1.01537  -0.86781  -0.83385  -0.79313  -0.71291
 Alpha  occ. eigenvalues --   -0.70146  -0.64728  -0.63557  -0.60108  -0.58787
 Alpha  occ. eigenvalues --   -0.56749  -0.51739  -0.50424  -0.49253  -0.43646
 Alpha  occ. eigenvalues --   -0.37949  -0.34557  -0.30749
 Alpha virt. eigenvalues --    0.03270   0.03749   0.03967   0.04962   0.05752
 Alpha virt. eigenvalues --    0.06029   0.07625   0.07844   0.08587   0.09464
 Alpha virt. eigenvalues --    0.10587   0.10725   0.11703   0.12605   0.13902

 Mulliken charges:
               1
     1  C    0.489786
     2  P    0.187339
     3  N    0.047167
     4  H   -0.052818
     5  H    0.004981
     6  C   -0.275708
     7  C    0.286580
     8  C    0.021391
     9  C    0.565398
    10  C   -0.352729
    11  H   -0.273360
    12  H   -0.307327
    13  H   -0.228630
    14  H   -0.205592
    15  H   -0.220379
    16  H    0.313901
 Sum of Mulliken charges =  -0.00000

 Dipole moment (field-independent basis, Debye):
    X=             -0.4530    Y=              0.2873    Z=              1.1294  Tot=              1.2503

 Test job not archived.
 1\1\GINC-SE086\SP\RHF\Aug-CC-pVDZ\C6H8N1P1\OHZDE\08-Apr-2025\0\\#t hf
 aug-cc-pvdz iop(5/13=1,5/36=2,99/5=2) pseudo=read geom=check guess=(re
 ad,tcheck) scf=(maxcycle=1)\\title\\0,1\C,0,-0.103603,-0.210674,-0.065
 829\P,0,-1.895771,-0.588078,-0.275237\N,0,-2.624207,0.838106,0.316793\
 H,0,-2.559151,1.076849,1.297309\H,0,-3.530864,1.05045,-0.070334\C,0,0.
 380022,1.098566,-0.149518\C,0,1.74949,1.351925,-0.084431\C,0,2.653201,
 0.301743,0.055339\C,0,2.179557,-1.007949,0.13238\C,0,0.812895,-1.26154
 5,0.071245\H,0,0.457974,-2.285877,0.140303\H,0,-0.323625,1.916123,-0.2

 Normal termination of Gaussian 16 at Tue Apr  8 23:29:57 2025.
