 Gaussian 16, Revision C.01,

 ----------------------------------------------------------------------
 #t hf aug-cc-pvdz symm=none int=(grid=ultrafine) guess=(read,tcheck) s
 table=(opt,rrhf)
 ----------------------------------------------------------------------
 -----
 title
 -----
 Symbolic Z-matrix:
 Charge =  0 Multiplicity = 1

 SCF Done:  E(RHF) =  -719.454393983     A.U. after   14 cycles
 Normal termination of Gaussian 16 at Tue Apr  8 23:14:15 2025.
 Gaussian 16:  ES64L-G16RevC.01  3-Jul-2019

 ----------------------------------------------------------------------
 #t hf aug-cc-pvdz iop(5/13=1,5/36=2,99/5=2) pseudo=read geom=check gue
 ss=(read,tcheck) scf=(maxcycle=1)
 ----------------------------------------------------------------------
 -----
 title
 -----
 Structure from the checkpoint file:  "BDE49_expt_842_mol1.chk"
 Charge =  0 Multiplicity = 1

                         Standard orientation:
 ---------------------------------------------------------------------
 Center     Atomic      Atomic             Coordinates (Angstroms)
 Number     Number       Type             X           Y           Z
 ---------------------------------------------------------------------
      1          6           0        1.038623    0.062329    0.973565
      2          6           0       -0.372887    0.590102    0.685413
      3          7           0       -0.462326    1.795932   -0.144807
      4          6           0       -1.265209   -0.513600    0.071010
      5          1           0       -0.841138    0.819991    1.651074
      6          8           0       -1.143821   -1.679795    0.340445
      7          8           0       -2.199476   -0.040914   -0.758360
      8          1           0       -2.011203    0.921273   -0.832414
      9          1           0        0.244539    1.762117   -0.876900
     10          1           0       -0.318639    2.640430    0.396280
     11         16           0        2.034204   -0.272615   -0.534737
     12          1           0        0.981682   -0.847747    1.567720
     13          1           0        1.609764    0.806953    1.531356
     14          1           0        1.367208   -1.380021   -0.904286
 ---------------------------------------------------------------------

 SCF Done:  E(RHF) =  -719.840218641     A.U. after    2 cycles

 The electronic state is 1-A.
 Alpha  occ. eigenvalues --  -93.96236 -20.59180 -20.53415 -15.53105 -11.39278
 Alpha  occ. eigenvalues --  -11.31215 -11.29233  -8.24316  -6.22164  -6.22023
 Alpha  occ. eigenvalues --   -6.21810  -1.54228  -1.45526  -1.23198  -1.08787
 Alpha  occ. eigenvalues --   -0.99115  -0.88611  -0.81387  -0.76481  -0.72396
 Alpha  occ. eigenvalues --   -0.68940  -0.65034  -0.64378  -0.61690  -0.59288
 Alpha  occ. eigenvalues --   -0.56391  -0.53413  -0.49916  -0.47467  -0.46741
 Alpha  occ. eigenvalues --   -0.43494  -0.38361
 Alpha virt. eigenvalues --    0.02236   0.03927   0.04477   0.05258   0.06267
 Alpha virt. eigenvalues --    0.06584   0.06956   0.09614   0.09794   0.11801
 Alpha virt. eigenvalues --    0.12780   0.13366   0.13810   0.14120   0.15097

 Mulliken charges:
               1
     1  C   -0.324884
     2  C   -1.756879
     3  N    0.251106
     4  C    2.288232
     5  H    0.277982
     6  O   -1.248406
     7  O   -1.295796
     8  H    0.486237
     9  H    0.288903
    10  H    0.293972
    11  S   -0.034767
    12  H    0.179328
    13  H    0.222316
    14  H    0.372655
 Sum of Mulliken charges =   0.00000

 Dipole moment (field-independent basis, Debye):
    X=              1.2997    Y=              4.1502    Z=              1.6205  Tot=              4.6411

 Test job not archived.
 1\1\GINC-SE454\SP\RHF\Aug-CC-pVDZ\C3H7N1O2S1\OHZDE\08-Apr-2025\0\\#t h
 f aug-cc-pvdz iop(5/13=1,5/36=2,99/5=2) pseudo=read geom=check guess=(
 read,tcheck) scf=(maxcycle=1)\\title\\0,1\C,0,1.038623,0.062329,0.9735
 65\C,0,-0.372887,0.590102,0.685413\N,0,-0.462326,1.795932,-0.144807\C,
 0,-1.265209,-0.5136,0.07101\H,0,-0.841138,0.819991,1.651074\O,0,-1.143
 821,-1.679795,0.340445\O,0,-2.199476,-0.040914,-0.75836\H,0,-2.011203,
 0.921273,-0.832414\H,0,0.244539,1.762117,-0.8769\H,0,-0.318639,2.64043
 ,0.39628\S,0,2.034204,-0.272615,-0.534737\H,0,0.981682,-0.847747,1.567

 Normal termination of Gaussian 16 at Tue Apr  8 23:14:20 2025.
