 Gaussian 16, Revision C.01,

 ----------------------------------------------------------------------
 #t hf aug-cc-pvdz symm=none int=(grid=ultrafine) guess=(read,tcheck) s
 table=(opt,rrhf)
 ----------------------------------------------------------------------
 -----
 title
 -----
 Symbolic Z-matrix:
 Charge =  0 Multiplicity = 1

 SCF Done:  E(RHF) =  -576.153863662     A.U. after   13 cycles
 Normal termination of Gaussian 16 at Tue Apr  8 23:52:11 2025.
 Gaussian 16:  ES64L-G16RevC.01  3-Jul-2019

 ----------------------------------------------------------------------
 #t hf aug-cc-pvdz iop(5/13=1,5/36=2,99/5=2) pseudo=read geom=check gue
 ss=(read,tcheck) scf=(maxcycle=1)
 ----------------------------------------------------------------------
 -----
 title
 -----
 Structure from the checkpoint file:  "BDE49_nonexpt_1907_mol1.chk"
 Charge =  0 Multiplicity = 1

                         Standard orientation:
 ---------------------------------------------------------------------
 Center     Atomic      Atomic             Coordinates (Angstroms)
 Number     Number       Type             X           Y           Z
 ---------------------------------------------------------------------
      1         14           0       -2.339853   -0.225320   -0.403768
      2          6           0       -0.933968   -0.010662    0.858099
      3          1           0       -2.604454    1.055866   -1.104959
      4          1           0       -3.577703   -0.634007    0.303802
      5          1           0       -1.976416   -1.247704   -1.408019
      6          7           0        0.327767    0.429741    0.248915
      7          6           0        1.306971   -0.512532    0.035928
      8          8           0        1.116379   -1.695427    0.276447
      9          6           0        2.639872   -0.033711   -0.522806
     10          1           0        3.122531    0.693718    0.135119
     11          1           0        2.525380    0.426254   -1.508098
     12          1           0        3.279363   -0.908621   -0.614988
     13          6           0        0.504771    1.865041    0.092002
     14          1           0       -0.378757    2.300413   -0.382744
     15          1           0        1.361965    2.086905   -0.538388
     16          1           0        0.647494    2.360572    1.061590
     17          1           0       -0.750249   -0.974129    1.336720
     18          1           0       -1.222486    0.701626    1.639391
 ---------------------------------------------------------------------

 SCF Done:  E(RHF) =  -576.487174103     A.U. after    2 cycles

 The electronic state is 1-A.
 Alpha  occ. eigenvalues --  -69.52588 -20.50194 -15.52883 -11.35495 -11.28281
 Alpha  occ. eigenvalues --  -11.25755 -11.24721  -6.19704  -3.95075  -3.95062
 Alpha  occ. eigenvalues --   -3.95053  -1.45144  -1.24984  -1.02273  -0.98488
 Alpha  occ. eigenvalues --   -0.93647  -0.77030  -0.73091  -0.69582  -0.67682
 Alpha  occ. eigenvalues --   -0.65380  -0.59576  -0.58696  -0.58180  -0.56893
 Alpha  occ. eigenvalues --   -0.55050  -0.53567  -0.48683  -0.48202  -0.47497
 Alpha  occ. eigenvalues --   -0.41720  -0.38284
 Alpha virt. eigenvalues --    0.03081   0.03797   0.03933   0.04533   0.05042
 Alpha virt. eigenvalues --    0.05655   0.06000   0.06612   0.07576   0.09040
 Alpha virt. eigenvalues --    0.09855   0.09997   0.10189   0.11223   0.11967

 Mulliken charges:
               1
     1  Si   0.884921
     2  C   -0.794038
     3  H   -0.165389
     4  H   -0.188330
     5  H   -0.095867
     6  N    0.723638
     7  C    0.679342
     8  O   -1.311316
     9  C   -0.550343
    10  H    0.302099
    11  H    0.293119
    12  H    0.035580
    13  C   -0.351002
    14  H    0.131677
    15  H   -0.002758
    16  H    0.204739
    17  H    0.080077
    18  H    0.123853
 Sum of Mulliken charges =  -0.00000

 Dipole moment (field-independent basis, Debye):
    X=              0.4947    Y=              3.7434    Z=             -0.0693  Tot=              3.7765

 Test job not archived.
 1\1\GINC-SE073\SP\RHF\Aug-CC-pVDZ\C4H11N1O1Si1\OHZDE\08-Apr-2025\0\\#t
  hf aug-cc-pvdz iop(5/13=1,5/36=2,99/5=2) pseudo=read geom=check guess
 =(read,tcheck) scf=(maxcycle=1)\\title\\0,1\Si,0,-2.339853,-0.22532,-0
 .403768\C,0,-0.933968,-0.010662,0.858099\H,0,-2.604454,1.055866,-1.104
 959\H,0,-3.577703,-0.634007,0.303802\H,0,-1.976416,-1.247704,-1.408019
 \N,0,0.327767,0.429741,0.248915\C,0,1.306971,-0.512532,0.035928\O,0,1.
 116379,-1.695427,0.276447\C,0,2.639872,-0.033711,-0.522806\H,0,3.12253
 1,0.693718,0.135119\H,0,2.52538,0.426254,-1.508098\H,0,3.279363,-0.908

 Normal termination of Gaussian 16 at Tue Apr  8 23:52:18 2025.
