 Gaussian 16, Revision C.01,

 ----------------------------------------------------------------------
 #t hf aug-cc-pvdz symm=none int=(grid=ultrafine) guess=(read,tcheck) s
 table=(opt,rrhf)
 ----------------------------------------------------------------------
 -----
 title
 -----
 Symbolic Z-matrix:
 Charge =  0 Multiplicity = 1

 SCF Done:  E(RHF) =  -626.159719111     A.U. after   14 cycles
 Normal termination of Gaussian 16 at Tue Apr  8 22:44:52 2025.
 Gaussian 16:  ES64L-G16RevC.01  3-Jul-2019

 ----------------------------------------------------------------------
 #t hf aug-cc-pvdz iop(5/13=1,5/36=2,99/5=2) pseudo=read geom=check gue
 ss=(read,tcheck) scf=(maxcycle=1)
 ----------------------------------------------------------------------
 -----
 title
 -----
 Structure from the checkpoint file:  "BDE49_expt_150_mol1.chk"
 Charge =  0 Multiplicity = 1

                         Standard orientation:
 ---------------------------------------------------------------------
 Center     Atomic      Atomic             Coordinates (Angstroms)
 Number     Number       Type             X           Y           Z
 ---------------------------------------------------------------------
      1          6           0        0.000000    0.696916   -1.729572
      2          6           0       -0.000000   -0.696916   -1.729572
      3          6           0        0.000000   -1.381851   -0.526570
      4          1           0        0.000000   -1.259915   -2.653452
      5          9           0        0.000000   -2.723674   -0.500730
      6          6           0        0.000000    1.381851   -0.526570
      7          1           0        0.000000    1.259915   -2.653452
      8          6           0        0.000000    0.695005    0.684657
      9          6           0       -0.000000   -0.695005    0.684657
     10          9           0        0.000000   -1.359080    1.843214
     11          9           0        0.000000    2.723674   -0.500730
     12          9           0        0.000000    1.359080    1.843214
 ---------------------------------------------------------------------

 SCF Done:  E(RHF) =  -626.747683114     A.U. after    2 cycles

 The electronic state is 1-A1.
 Alpha  occ. eigenvalues --  -26.51227 -26.51225 -26.50619 -26.50618 -11.37842
 Alpha  occ. eigenvalues --  -11.37764 -11.37195 -11.37165 -11.29096 -11.29024
 Alpha  occ. eigenvalues --   -1.65515  -1.64389  -1.63326  -1.62808  -1.20644
 Alpha  occ. eigenvalues --   -1.07125  -1.05994  -0.91773  -0.90679  -0.80643
 Alpha  occ. eigenvalues --   -0.80012  -0.78147  -0.74287  -0.73689  -0.72017
 Alpha  occ. eigenvalues --   -0.70757  -0.69088  -0.68160  -0.67759  -0.67694
 Alpha  occ. eigenvalues --   -0.65656  -0.61709  -0.58712  -0.57616  -0.53467
 Alpha  occ. eigenvalues --   -0.38637  -0.37468
 Alpha virt. eigenvalues --    0.02900   0.04218   0.06705   0.07973   0.08548
 Alpha virt. eigenvalues --    0.08681   0.09322   0.10804   0.11493   0.12963
 Alpha virt. eigenvalues --    0.13055   0.13377   0.14037   0.14581   0.14728

 Mulliken charges:
               1
     1  C    0.150515
     2  C    0.150515
     3  C    1.110905
     4  H   -0.164309
     5  F   -0.976737
     6  C    1.110905
     7  H   -0.164309
     8  C    0.831055
     9  C    0.831055
    10  F   -0.951428
    11  F   -0.976737
    12  F   -0.951428
 Sum of Mulliken charges =  -0.00000

 Dipole moment (field-independent basis, Debye):
    X=             -0.0000    Y=              0.0000    Z=             -2.6911  Tot=              2.6911

 Test job not archived.
 1\1\GINC-SE094\SP\RHF\Aug-CC-pVDZ\C6H2F4\OHZDE\08-Apr-2025\0\\#t hf au
 g-cc-pvdz iop(5/13=1,5/36=2,99/5=2) pseudo=read geom=check guess=(read
 ,tcheck) scf=(maxcycle=1)\\title\\0,1\C,0,0.,0.696916,-1.729572\C,0,0.
 ,-0.696916,-1.729572\C,0,0.,-1.381851,-0.52657\H,0,0.,-1.259915,-2.653
 452\F,0,0.,-2.723674,-0.50073\C,0,0.,1.381851,-0.52657\H,0,0.,1.259915
 ,-2.653452\C,0,0.,0.695005,0.684657\C,0,0.,-0.695005,0.684657\F,0,0.,-
 1.35908,1.843214\F,0,0.,2.723674,-0.50073\F,0,0.,1.35908,1.843214\\Ver
 sion=ES64L-G16RevC.01\State=1-A1\HF=-626.7476831\RMSD=2.538e-02\Dipole

 Normal termination of Gaussian 16 at Tue Apr  8 22:44:57 2025.
