 Gaussian 16, Revision C.01,

 ----------------------------------------------------------------------
 #t hf aug-cc-pvdz symm=none int=(grid=ultrafine) guess=(read,tcheck) s
 table=(opt,rrhf)
 ----------------------------------------------------------------------
 -----
 title
 -----
 Symbolic Z-matrix:
 Charge =  0 Multiplicity = 1

 SCF Done:  E(RHF) =  -572.338919311     A.U. after   15 cycles
 Normal termination of Gaussian 16 at Tue Apr  8 23:28:28 2025.
 Gaussian 16:  ES64L-G16RevC.01  3-Jul-2019

 ----------------------------------------------------------------------
 #t hf aug-cc-pvdz iop(5/13=1,5/36=2,99/5=2) pseudo=read geom=check gue
 ss=(read,tcheck) scf=(maxcycle=1)
 ----------------------------------------------------------------------
 -----
 title
 -----
 Structure from the checkpoint file:  "BDE49_nonexpt_1318_mol1.chk"
 Charge =  0 Multiplicity = 1

                         Standard orientation:
 ---------------------------------------------------------------------
 Center     Atomic      Atomic             Coordinates (Angstroms)
 Number     Number       Type             X           Y           Z
 ---------------------------------------------------------------------
      1          6           0       -1.020396   -0.326188   -0.016484
      2         15           0        0.700871    0.136360   -0.617040
      3          6           0        1.661550   -1.186921    0.244463
      4          1           0        1.553053   -1.140122    1.330516
      5          1           0        2.716879   -1.102364   -0.022568
      6          1           0        1.288482   -2.152418   -0.098875
      7          8           0       -1.280707   -1.476586    0.259762
      8          6           0       -2.080358    0.761616    0.000468
      9          1           0       -2.034416    1.371698   -0.905815
     10          1           0       -1.913837    1.427412    0.853409
     11          1           0       -3.065153    0.302856    0.094891
     12          6           0        1.061623    1.625050    0.440159
     13          1           0        0.454885    2.471220    0.111971
     14          1           0        2.109295    1.900151    0.297599
     15          1           0        0.888891    1.447508    1.504742
 ---------------------------------------------------------------------

 SCF Done:  E(RHF) =  -572.628097675     A.U. after    2 cycles

 The electronic state is 1-A.
 Alpha  occ. eigenvalues --  -84.27559 -20.54182 -11.34106 -11.24995 -11.24900
 Alpha  occ. eigenvalues --  -11.23691  -6.74709  -4.27260  -4.27170  -4.26431
 Alpha  occ. eigenvalues --   -1.47355  -1.03909  -1.00434  -0.94834  -0.82420
 Alpha  occ. eigenvalues --   -0.71213  -0.63661  -0.62780  -0.61397  -0.59517
 Alpha  occ. eigenvalues --   -0.57779  -0.56932  -0.56824  -0.52731  -0.50439
 Alpha  occ. eigenvalues --   -0.46357  -0.39289  -0.32060
 Alpha virt. eigenvalues --    0.03324   0.03741   0.04389   0.04666   0.06116
 Alpha virt. eigenvalues --    0.06427   0.07214   0.07642   0.08540   0.09213
 Alpha virt. eigenvalues --    0.10515   0.11714   0.12434   0.13897   0.14050

 Mulliken charges:
               1
     1  C    0.715122
     2  P    1.341820
     3  C   -0.767360
     4  H    0.101756
     5  H    0.104797
     6  H    0.155962
     7  O   -1.270255
     8  C   -0.651943
     9  H    0.299255
    10  H    0.251678
    11  H    0.088562
    12  C   -0.715709
    13  H    0.104356
    14  H    0.092939
    15  H    0.149019
 Sum of Mulliken charges =  -0.00000

 Dipole moment (field-independent basis, Debye):
    X=              0.9999    Y=              2.7152    Z=              0.4843  Tot=              2.9337

 Test job not archived.
 1\1\GINC-SE247\SP\RHF\Aug-CC-pVDZ\C4H9O1P1\OHZDE\08-Apr-2025\0\\#t hf
 aug-cc-pvdz iop(5/13=1,5/36=2,99/5=2) pseudo=read geom=check guess=(re
 ad,tcheck) scf=(maxcycle=1)\\title\\0,1\C,0,-1.020396,-0.326188,-0.016
 484\P,0,0.700871,0.13636,-0.61704\C,0,1.66155,-1.186921,0.244463\H,0,1
 .553053,-1.140122,1.330516\H,0,2.716879,-1.102365,-0.022568\H,0,1.2884
 82,-2.152418,-0.098875\O,0,-1.280707,-1.476586,0.259762\C,0,-2.080358,
 0.761616,0.000468\H,0,-2.034416,1.371698,-0.905815\H,0,-1.913837,1.427
 412,0.853409\H,0,-3.065153,0.302857,0.094891\C,0,1.061623,1.62505,0.44

 Normal termination of Gaussian 16 at Tue Apr  8 23:28:33 2025.
