 Gaussian 16, Revision C.01,

 ----------------------------------------------------------------------
 #t hf aug-cc-pvdz symm=none int=(grid=ultrafine) guess=(read,tcheck) s
 table=(opt,rrhf)
 ----------------------------------------------------------------------
 -----
 title
 -----
 Symbolic Z-matrix:
 Charge =  0 Multiplicity = 1

 SCF Done:  E(RHF) =  -370.303931409     A.U. after   12 cycles
 Normal termination of Gaussian 16 at Wed Apr  9 00:37:48 2025.
 Gaussian 16:  ES64L-G16RevC.01  3-Jul-2019

 ----------------------------------------------------------------------
 #t hf aug-cc-pvdz iop(5/13=1,5/36=2,99/5=2) pseudo=read geom=check gue
 ss=(read,tcheck) scf=(maxcycle=1)
 ----------------------------------------------------------------------
 -----
 title
 -----
 Structure from the checkpoint file:  "BDE49_nonexpt_537_mol1.chk"
 Charge =  0 Multiplicity = 1

                         Standard orientation:
 ---------------------------------------------------------------------
 Center     Atomic      Atomic             Coordinates (Angstroms)
 Number     Number       Type             X           Y           Z
 ---------------------------------------------------------------------
      1          5           0        1.343175    1.109698   -0.000000
      2          1           0        2.377038    1.698334   -0.000000
      3          8           0        0.784764    0.790079    1.200595
      4          8           0        0.784764    0.790079   -1.200595
      5          6           0       -0.636703   -0.783833    0.000000
      6          6           0       -0.459940    0.063387   -1.260229
      7          6           0       -0.459940    0.063387    1.260229
      8          6           0       -0.459940   -0.750635    2.544529
      9          1           0        0.341600   -1.493596    2.523962
     10          1           0       -1.414372   -1.268250    2.675040
     11          1           0       -0.297469   -0.096804    3.403534
     12          1           0       -1.263718    0.809185    1.306519
     13          1           0        0.105516   -1.591507   -0.000000
     14          1           0       -1.627981   -1.247673    0.000000
     15          6           0       -0.459940   -0.750635   -2.544529
     16          1           0       -1.263718    0.809185   -1.306519
     17          1           0        0.341600   -1.493596   -2.523962
     18          1           0       -0.297469   -0.096804   -3.403534
     19          1           0       -1.414372   -1.268250   -2.675040
 ---------------------------------------------------------------------

 SCF Done:  E(RHF) =  -370.690881833     A.U. after    2 cycles

 The electronic state is 1-A'.
 Alpha  occ. eigenvalues --  -20.54245 -20.54242 -11.30067 -11.30056 -11.24311
 Alpha  occ. eigenvalues --  -11.23161 -11.23154  -7.62556  -1.48035  -1.43684
 Alpha  occ. eigenvalues --   -1.09038  -1.02427  -0.95112  -0.83844  -0.82938
 Alpha  occ. eigenvalues --   -0.73000  -0.68081  -0.67667  -0.65222  -0.61279
 Alpha  occ. eigenvalues --   -0.56517  -0.56463  -0.56049  -0.55294  -0.54233
 Alpha  occ. eigenvalues --   -0.53374  -0.52566  -0.47624  -0.46544  -0.44795
 Alpha  occ. eigenvalues --   -0.43775
 Alpha virt. eigenvalues --    0.03137   0.03438   0.03704   0.03864   0.05564
 Alpha virt. eigenvalues --    0.05896   0.06017   0.06123   0.07140   0.08712
 Alpha virt. eigenvalues --    0.08853   0.09398   0.09502   0.11658   0.13581

 Mulliken charges:
               1
     1  B    0.622518
     2  H    0.111749
     3  O   -1.388286
     4  O   -1.388286
     5  C   -0.640686
     6  C    0.894726
     7  C    0.894726
     8  C   -0.343694
     9  H    0.213036
    10  H    0.195718
    11  H    0.166963
    12  H    0.082281
    13  H    0.162565
    14  H    0.102368
    15  C   -0.343694
    16  H    0.082281
    17  H    0.213036
    18  H    0.166963
    19  H    0.195718
 Sum of Mulliken charges =  -0.00000

 Dipole moment (field-independent basis, Debye):
    X=             -2.5545    Y=             -1.6085    Z=             -0.0000  Tot=              3.0187

 Test job not archived.
 1\1\GINC-SE166\SP\RHF\Aug-CC-pVDZ\C5H11B1O2\OHZDE\09-Apr-2025\0\\#t hf
  aug-cc-pvdz iop(5/13=1,5/36=2,99/5=2) pseudo=read geom=check guess=(r
 ead,tcheck) scf=(maxcycle=1)\\title\\0,1\B,0,1.343175,1.109698,0.\H,0,
 2.377038,1.698334,0.\O,0,0.784764,0.790079,1.200595\O,0,0.784764,0.790
 079,-1.200595\C,0,-0.636703,-0.783833,0.\C,0,-0.45994,0.063387,-1.2602
 29\C,0,-0.45994,0.063387,1.260229\C,0,-0.45994,-0.750635,2.544529\H,0,
 0.3416,-1.493596,2.523962\H,0,-1.414372,-1.26825,2.67504\H,0,-0.297469
 ,-0.096804,3.403534\H,0,-1.263718,0.809185,1.306519\H,0,0.105516,-1.59

 Normal termination of Gaussian 16 at Wed Apr  9 00:37:54 2025.
