 Gaussian 16, Revision C.01,

 ----------------------------------------------------------------------
 #t hf aug-cc-pvdz symm=none int=(grid=ultrafine) guess=(read,tcheck) s
 table=(opt,rrhf)
 ----------------------------------------------------------------------
 -----
 title
 -----
 Symbolic Z-matrix:
 Charge =  0 Multiplicity = 1

 SCF Done:  E(RHF) =  -563.710935278     A.U. after   15 cycles
 Normal termination of Gaussian 16 at Wed Apr  9 00:33:38 2025.
 Gaussian 16:  ES64L-G16RevC.01  3-Jul-2019

 ----------------------------------------------------------------------
 #t hf aug-cc-pvdz iop(5/13=1,5/36=2,99/5=2) pseudo=read geom=check gue
 ss=(read,tcheck) scf=(maxcycle=1)
 ----------------------------------------------------------------------
 -----
 title
 -----
 Structure from the checkpoint file:  "BDE49_nonexpt_413_mol1.chk"
 Charge =  0 Multiplicity = 1

                         Standard orientation:
 ---------------------------------------------------------------------
 Center     Atomic      Atomic             Coordinates (Angstroms)
 Number     Number       Type             X           Y           Z
 ---------------------------------------------------------------------
      1          9           0        1.952572    1.519051   -0.409445
      2          5           0        1.882475    0.261445   -0.032947
      3          9           0        2.993069   -0.402572    0.185322
      4          6           0        0.478124   -0.488937    0.154151
      5          8           0        0.366036   -1.662576    0.349365
      6          8           0       -0.577532    0.406536    0.112596
      7          6           0       -1.902103   -0.007179   -0.146285
      8          8           0       -2.160517   -0.953050   -0.817335
      9          6           0       -2.858754    0.953615    0.497394
     10          1           0       -2.764317    0.885230    1.584314
     11          1           0       -3.875444    0.709223    0.197233
     12          1           0       -2.610887    1.977734    0.211727
 ---------------------------------------------------------------------

 SCF Done:  E(RHF) =  -564.243285766     A.U. after    2 cycles

 The electronic state is 1-A.
 Alpha  occ. eigenvalues --  -26.51235 -26.50837 -20.62671 -20.58355 -20.56847
 Alpha  occ. eigenvalues --  -11.42279 -11.41487 -11.27433  -7.76447  -1.66396
 Alpha  occ. eigenvalues --   -1.62509  -1.58676  -1.51864  -1.48054  -1.06113
 Alpha  occ. eigenvalues --   -0.94327  -0.84350  -0.79800  -0.77482  -0.75765
 Alpha  occ. eigenvalues --   -0.72769  -0.71804  -0.70067  -0.68466  -0.66120
 Alpha  occ. eigenvalues --   -0.65581  -0.63855  -0.61976  -0.60669  -0.58632
 Alpha  occ. eigenvalues --   -0.54478  -0.49351  -0.48872  -0.45150
 Alpha virt. eigenvalues --    0.02975   0.03617   0.04633   0.05016   0.05376
 Alpha virt. eigenvalues --    0.06065   0.06258   0.06990   0.10405   0.12081
 Alpha virt. eigenvalues --    0.12541   0.12879   0.14211   0.14699   0.15007

 Mulliken charges:
               1
     1  F   -0.608595
     2  B    1.610143
     3  F   -0.700956
     4  C    1.436571
     5  O   -1.002830
     6  O   -1.381993
     7  C    1.667303
     8  O   -1.103215
     9  C   -0.612319
    10  H    0.254698
    11  H    0.189428
    12  H    0.251765
 Sum of Mulliken charges =   0.00000

 Dipole moment (field-independent basis, Debye):
    X=             -1.0353    Y=              3.3440    Z=              1.2433  Tot=              3.7148

 Test job not archived.
 1\1\GINC-SE177\SP\RHF\Aug-CC-pVDZ\C3H3B1F2O3\OHZDE\09-Apr-2025\0\\#t h
 f aug-cc-pvdz iop(5/13=1,5/36=2,99/5=2) pseudo=read geom=check guess=(
 read,tcheck) scf=(maxcycle=1)\\title\\0,1\F,0,-1.952572,1.519051,0.409
 445\B,0,-1.882475,0.261445,0.032947\F,0,-2.993069,-0.402572,-0.185322\
 C,0,-0.478124,-0.488937,-0.154151\O,0,-0.366036,-1.662576,-0.349365\O,
 0,0.577532,0.406536,-0.112596\C,0,1.902103,-0.007179,0.146285\O,0,2.16
 0517,-0.95305,0.817335\C,0,2.858754,0.953615,-0.497394\H,0,2.764317,0.
 88523,-1.584314\H,0,3.875444,0.709223,-0.197233\H,0,2.610887,1.977734,

 Normal termination of Gaussian 16 at Wed Apr  9 00:33:44 2025.
