 Gaussian 16, Revision C.01,

 ----------------------------------------------------------------------
 #t hf aug-cc-pvdz symm=none int=(grid=ultrafine) guess=(read,tcheck) s
 table=opt
 ----------------------------------------------------------------------
 -----
 title
 -----
 Symbolic Z-matrix:
 Charge =  0 Multiplicity = 2

 SCF Done:  E(UHF) =  -775.969459014     A.U. after   15 cycles
 Normal termination of Gaussian 16 at Tue Apr  8 23:13:43 2025.
 Gaussian 16:  ES64L-G16RevC.01  3-Jul-2019

 ----------------------------------------------------------------------
 #t hf aug-cc-pvdz iop(5/13=1,5/36=2,99/5=2) pseudo=read geom=check gue
 ss=(read,tcheck) scf=(maxcycle=1)
 ----------------------------------------------------------------------
 -----
 title
 -----
 Structure from the checkpoint file:  "BDE49_expt_803_mol2.chk"
 Charge =  0 Multiplicity = 2

                         Standard orientation:
 ---------------------------------------------------------------------
 Center     Atomic      Atomic             Coordinates (Angstroms)
 Number     Number       Type             X           Y           Z
 ---------------------------------------------------------------------
      1         14           0        0.219994   -0.980604   -0.000000
      2         14           0       -0.747842    1.179484    0.000000
      3          6           0       -0.350845   -1.913707    1.541835
      4          6           0        2.114777   -0.914485   -0.000000
      5          6           0       -0.350845   -1.913707   -1.541835
      6          6           0       -0.350845    2.208575   -1.545877
      7          6           0       -0.350845    2.208575    1.545877
      8          1           0       -1.440455   -2.000950   -1.573702
      9          1           0        0.067338   -2.925915   -1.556040
     10          1           0       -0.029310   -1.410804   -2.458652
     11          1           0       -0.029310   -1.410804    2.458652
     12          1           0        0.067338   -2.925915    1.556040
     13          1           0       -1.440455   -2.000950    1.573702
     14          1           0        0.711908    2.477012    1.577735
     15          1           0       -0.587613    1.662994    2.462768
     16          1           0       -0.926355    3.139092    1.552526
     17          1           0        0.711908    2.477012   -1.577735
     18          1           0       -0.926355    3.139092   -1.552526
     19          1           0       -0.587613    1.662994   -2.462768
     20          1           0        2.497893   -0.395947    0.883622
     21          1           0        2.497893   -0.395947   -0.883622
     22          1           0        2.534696   -1.926785   -0.000000
 ---------------------------------------------------------------------

 SCF Done:  E(UHF) =  -776.257708222     A.U. after    2 cycles

 The electronic state is 2-A'.
 Alpha  occ. eigenvalues --  -69.50870 -69.50798 -11.21437 -11.21434 -11.21020
 Alpha  occ. eigenvalues --  -11.20863 -11.20859  -6.18045  -6.17810  -3.93973
 Alpha  occ. eigenvalues --   -3.93167  -3.93126  -3.93100  -3.93086  -3.93027
 Alpha  occ. eigenvalues --   -0.97701  -0.95975  -0.92789  -0.92487  -0.92245
 Alpha  occ. eigenvalues --   -0.69050  -0.61258  -0.57821  -0.57016  -0.56645
 Alpha  occ. eigenvalues --   -0.56509  -0.55734  -0.55204  -0.54815  -0.54468
 Alpha  occ. eigenvalues --   -0.54150  -0.53502  -0.44893  -0.43997  -0.43248
 Alpha  occ. eigenvalues --   -0.38551  -0.29189
 Alpha virt. eigenvalues --    0.03380   0.03498   0.03585   0.03816   0.05606
 Alpha virt. eigenvalues --    0.05812   0.05985   0.06148   0.06309   0.08060
 Alpha virt. eigenvalues --    0.08426   0.08658   0.08986   0.09303   0.09347

  Beta  occ. eigenvalues --  -69.50779 -69.50357 -11.21446 -11.21443 -11.20939
  Beta  occ. eigenvalues --  -11.20877 -11.20874  -6.17780  -6.17288  -3.93122
  Beta  occ. eigenvalues --   -3.93104  -3.93066  -3.92728  -3.92701  -3.91884
  Beta  occ. eigenvalues --   -0.97483  -0.95414  -0.92690  -0.92342  -0.92191
  Beta  occ. eigenvalues --   -0.66830  -0.59535  -0.57439  -0.56583  -0.56521
  Beta  occ. eigenvalues --   -0.55877  -0.55407  -0.55059  -0.54331  -0.54278
  Beta  occ. eigenvalues --   -0.54138  -0.53474  -0.44601  -0.43551  -0.43120
  Beta  occ. eigenvalues --   -0.37220
  Beta virt. eigenvalues --    0.03063   0.03460   0.03530   0.03631   0.05493
  Beta virt. eigenvalues --    0.05837   0.06001   0.06089   0.06163   0.07077
  Beta virt. eigenvalues --    0.08064   0.08496   0.08952   0.08992   0.09391

 Mulliken charges and spin densities:
               1          2
     1  Si   2.524021  -0.012442
     2  Si   1.440820   1.083791
     3  C   -0.675674  -0.008351
     4  C   -0.653094   0.015043
     5  C   -0.675674  -0.008351
     6  C   -0.758132  -0.014312
     7  C   -0.758132  -0.014312
     8  H   -0.043747  -0.003988
     9  H   -0.054596  -0.003281
    10  H   -0.062670   0.004116
    11  H   -0.062670   0.004116
    12  H   -0.054596  -0.003281
    13  H   -0.043747  -0.003988
    14  H    0.058126   0.007839
    15  H   -0.017102  -0.005947
    16  H   -0.001399  -0.011978
    17  H    0.058126   0.007839
    18  H   -0.001399  -0.011978
    19  H   -0.017102  -0.005947
    20  H   -0.067667  -0.008478
    21  H   -0.067667  -0.008478
    22  H   -0.066028   0.002368
 Sum of Mulliken charges =   0.00000   1.00000

 Dipole moment (field-independent basis, Debye):
    X=              0.6325    Y=              0.0103    Z=              0.0000  Tot=              0.6326
                          Isotropic Fermi Contact Couplings
        Atom                 a.u.       MegaHertz       Gauss      10(-4) cm-1
     1  Si(29)             0.02772     -24.63495      -8.79036      -8.21733
     2  Si(29)             0.45353    -403.06698    -143.82432    -134.44867
     3  C(13)             -0.00360      -4.04252      -1.44247      -1.34844
     4  C(13)              0.01919      21.57599       7.69885       7.19697
     5  C(13)             -0.00360      -4.04252      -1.44247      -1.34844
     6  C(13)              0.00135       1.51943       0.54217       0.50683
     7  C(13)              0.00135       1.51943       0.54217       0.50683
     8  H(1)              -0.00005      -0.24356      -0.08691      -0.08124

 Normal termination of Gaussian 16 at Tue Apr  8 23:13:51 2025.
