 Gaussian 16, Revision C.01,

 ----------------------------------------------------------------------
 #t hf aug-cc-pvdz symm=none int=(grid=ultrafine) guess=(read,tcheck) s
 table=(opt,rrhf)
 ----------------------------------------------------------------------
 -----
 title
 -----
 Symbolic Z-matrix:
 Charge =  0 Multiplicity = 1

 SCF Done:  E(RHF) =  -766.133342201     A.U. after   17 cycles
 Normal termination of Gaussian 16 at Wed Apr  9 00:24:40 2025.
 Gaussian 16:  ES64L-G16RevC.01  3-Jul-2019

 ----------------------------------------------------------------------
 #t hf aug-cc-pvdz iop(5/13=1,5/36=2,99/5=2) pseudo=read geom=check gue
 ss=(read,tcheck) scf=(maxcycle=1)
 ----------------------------------------------------------------------
 -----
 title
 -----
 Structure from the checkpoint file:  "BDE49_nonexpt_2697_mol1.chk"
 Charge =  0 Multiplicity = 1

                         Standard orientation:
 ---------------------------------------------------------------------
 Center     Atomic      Atomic             Coordinates (Angstroms)
 Number     Number       Type             X           Y           Z
 ---------------------------------------------------------------------
      1          9           0        2.489966   -0.016717    0.906531
      2         16           0        1.766550   -0.727285   -0.450021
      3          6           0        0.068777   -0.377772   -0.141829
      4          6           0       -0.422724    0.948383   -0.101771
      5          6           0       -1.796396    1.120860    0.069856
      6          6           0       -2.664693    0.033193    0.164288
      7          6           0       -0.801104   -1.469517   -0.015492
      8          1           0       -0.390260   -2.471771   -0.017179
      9          6           0       -2.171101   -1.266726    0.113490
     10          1           0       -2.840602   -2.114490    0.198373
     11          1           0       -2.196211    2.128196    0.116552
     12          6           0        0.496232    2.134369   -0.219051
     13          1           0        1.213232    2.157138    0.604260
     14          1           0       -0.068890    3.067360   -0.220309
     15          1           0        1.082704    2.077918   -1.141168
     16          1           0       -3.728415    0.205935    0.284079
 ---------------------------------------------------------------------

 SCF Done:  E(RHF) =  -766.560120593     A.U. after    2 cycles

 The electronic state is 1-A.
 Alpha  occ. eigenvalues --  -94.03157 -26.45645 -11.28209 -11.27495 -11.26932
 Alpha  occ. eigenvalues --  -11.26580 -11.25507 -11.25380 -11.23967  -8.30415
 Alpha  occ. eigenvalues --   -6.28214  -6.27928  -6.27649  -1.55135  -1.18337
 Alpha  occ. eigenvalues --   -1.07731  -1.06101  -0.97574  -0.93935  -0.84432
 Alpha  occ. eigenvalues --   -0.81704  -0.71515  -0.68157  -0.66395  -0.63697
 Alpha  occ. eigenvalues --   -0.63123  -0.62865  -0.60134  -0.58619  -0.56778
 Alpha  occ. eigenvalues --   -0.54821  -0.52139  -0.51556  -0.48310  -0.40193
 Alpha  occ. eigenvalues --   -0.35786  -0.34785
 Alpha virt. eigenvalues --    0.02969   0.03439   0.04139   0.04700   0.05278
 Alpha virt. eigenvalues --    0.05725   0.06642   0.07995   0.09062   0.09382
 Alpha virt. eigenvalues --    0.09821   0.10627   0.11908   0.12991   0.13600

 Mulliken charges:
               1
     1  F   -0.685483
     2  S    0.555814
     3  C    0.168129
     4  C    0.658885
     5  C    0.689149
     6  C   -0.123465
     7  C   -0.269895
     8  H   -0.214424
     9  C    0.060628
    10  H   -0.209905
    11  H   -0.284946
    12  C   -0.715385
    13  H    0.318010
    14  H    0.001316
    15  H    0.277037
    16  H   -0.225463
 Sum of Mulliken charges =  -0.00000

 Dipole moment (field-independent basis, Debye):
    X=             -2.8400    Y=              0.3608    Z=             -0.6593  Tot=              2.9377

 Test job not archived.
 1\1\GINC-SE458\SP\RHF\Aug-CC-pVDZ\C7H7F1S1\OHZDE\09-Apr-2025\0\\#t hf
 aug-cc-pvdz iop(5/13=1,5/36=2,99/5=2) pseudo=read geom=check guess=(re
 ad,tcheck) scf=(maxcycle=1)\\title\\0,1\F,0,2.489966,-0.016718,0.90653
 1\S,0,1.76655,-0.727286,-0.450021\C,0,0.068777,-0.377772,-0.141829\C,0
 ,-0.422724,0.948383,-0.101771\C,0,-1.796396,1.12086,0.069856\C,0,-2.66
 4693,0.033193,0.164288\C,0,-0.801104,-1.469517,-0.015492\H,0,-0.39026,
 -2.471771,-0.017179\C,0,-2.171101,-1.266726,0.11349\H,0,-2.840602,-2.1
 1449,0.198373\H,0,-2.19621,2.128196,0.116552\C,0,0.496233,2.134369,-0.

 Normal termination of Gaussian 16 at Wed Apr  9 00:24:48 2025.
