 Gaussian 16, Revision C.01,

 ----------------------------------------------------------------------
 #t hf aug-cc-pvdz symm=none int=(grid=ultrafine) guess=(read,tcheck) s
 table=(opt,rrhf)
 ----------------------------------------------------------------------
 -----
 title
 -----
 Symbolic Z-matrix:
 Charge =  0 Multiplicity = 1

 SCF Done:  E(RHF) =  -631.952592255     A.U. after   13 cycles
 Normal termination of Gaussian 16 at Wed Apr  9 00:07:55 2025.
 Gaussian 16:  ES64L-G16RevC.01  3-Jul-2019

 ----------------------------------------------------------------------
 #t hf aug-cc-pvdz iop(5/13=1,5/36=2,99/5=2) pseudo=read geom=check gue
 ss=(read,tcheck) scf=(maxcycle=1)
 ----------------------------------------------------------------------
 -----
 title
 -----
 Structure from the checkpoint file:  "BDE49_nonexpt_2265_mol1.chk"
 Charge =  0 Multiplicity = 1

                         Standard orientation:
 ---------------------------------------------------------------------
 Center     Atomic      Atomic             Coordinates (Angstroms)
 Number     Number       Type             X           Y           Z
 ---------------------------------------------------------------------
      1          8           0        1.162386   -0.932500    0.088484
      2         14           0       -0.031005    0.167528   -0.071050
      3          6           0        2.555618   -0.650497    0.194120
      4          8           0       -0.247002    1.121149    1.259131
      5          6           0       -1.560908   -0.807374   -0.441807
      6          1           0        2.866029    0.084314   -0.554125
      7          1           0        3.099850   -1.581618    0.028971
      8          1           0        2.801009   -0.269331    1.190889
      9          6           0       -2.749163   -0.554428    0.112393
     10          1           0       -1.486933   -1.626175   -1.155765
     11          1           0       -2.884631    0.250311    0.830046
     12          1           0       -3.638537   -1.131683   -0.125891
     13          1           0       -0.485316    0.689570    2.082837
     14          8           0        0.408704    1.210989   -1.259952
     15          1           0        0.096615    2.115929   -1.191789
 ---------------------------------------------------------------------

 SCF Done:  E(RHF) =  -632.332957711     A.U. after    2 cycles

 The electronic state is 1-A.
 Alpha  occ. eigenvalues --  -69.58887 -20.54843 -20.54125 -20.53273 -11.28555
 Alpha  occ. eigenvalues --  -11.25306 -11.22690  -6.24972  -4.00502  -4.00464
 Alpha  occ. eigenvalues --   -4.00280  -1.45977  -1.42810  -1.41980  -1.04093
 Alpha  occ. eigenvalues --   -0.93646  -0.80401  -0.75539  -0.70726  -0.66568
 Alpha  occ. eigenvalues --   -0.65497  -0.62659  -0.62249  -0.58412  -0.56300
 Alpha  occ. eigenvalues --   -0.54669  -0.52971  -0.50298  -0.47277  -0.45811
 Alpha  occ. eigenvalues --   -0.44885  -0.39082
 Alpha virt. eigenvalues --    0.03333   0.04255   0.04389   0.04954   0.05920
 Alpha virt. eigenvalues --    0.06192   0.07224   0.07520   0.08407   0.08952
 Alpha virt. eigenvalues --    0.09574   0.10182   0.12888   0.14636   0.15503

 Mulliken charges:
               1
     1  O   -1.908350
     2  Si   4.037388
     3  C    0.348147
     4  O   -1.472335
     5  C    0.018839
     6  H    0.106935
     7  H   -0.000619
     8  H    0.101515
     9  C    0.016089
    10  H   -0.207875
    11  H   -0.146091
    12  H   -0.065994
    13  H    0.370919
    14  O   -1.535821
    15  H    0.337253
 Sum of Mulliken charges =  -0.00000

 Dipole moment (field-independent basis, Debye):
    X=             -0.5798    Y=              0.2492    Z=              1.2336  Tot=              1.3857

 Test job not archived.
 1\1\GINC-SE329\SP\RHF\Aug-CC-pVDZ\C3H8O3Si1\OHZDE\09-Apr-2025\0\\#t hf
  aug-cc-pvdz iop(5/13=1,5/36=2,99/5=2) pseudo=read geom=check guess=(r
 ead,tcheck) scf=(maxcycle=1)\\title\\0,1\O,0,1.162386,-0.9325,0.088484
 \Si,0,-0.031005,0.167528,-0.07105\C,0,2.555618,-0.650497,0.19412\O,0,-
 0.247002,1.121149,1.259131\C,0,-1.560908,-0.807374,-0.441807\H,0,2.866
 029,0.084314,-0.554125\H,0,3.09985,-1.581618,0.028971\H,0,2.801009,-0.
 269331,1.190889\C,0,-2.749163,-0.554428,0.112393\H,0,-1.486933,-1.6261
 75,-1.155765\H,0,-2.884631,0.250311,0.830046\H,0,-3.638537,-1.131683,-

 Normal termination of Gaussian 16 at Wed Apr  9 00:08:00 2025.
