 Gaussian 16, Revision C.01,

 ----------------------------------------------------------------------
 #t hf aug-cc-pvdz symm=none int=(grid=ultrafine) guess=(read,tcheck) s
 table=(opt,rrhf)
 ----------------------------------------------------------------------
 -----
 title
 -----
 Symbolic Z-matrix:
 Charge =  0 Multiplicity = 1

 SCF Done:  E(RHF) =  -341.417244649     A.U. after   12 cycles
 Normal termination of Gaussian 16 at Wed Apr  9 00:32:28 2025.
 Gaussian 16:  ES64L-G16RevC.01  3-Jul-2019

 ----------------------------------------------------------------------
 #t hf aug-cc-pvdz iop(5/13=1,5/36=2,99/5=2) pseudo=read geom=check gue
 ss=(read,tcheck) scf=(maxcycle=1)
 ----------------------------------------------------------------------
 -----
 title
 -----
 Structure from the checkpoint file:  "BDE49_nonexpt_373_mol1.chk"
 Charge =  0 Multiplicity = 1

                         Standard orientation:
 ---------------------------------------------------------------------
 Center     Atomic      Atomic             Coordinates (Angstroms)
 Number     Number       Type             X           Y           Z
 ---------------------------------------------------------------------
      1          9           0        2.175946   -0.398326    0.490299
      2          9           0        0.966487    1.257438   -0.437678
      3          5           0        1.020086   -0.012389   -0.042945
      4          6           0       -0.172986   -1.000773   -0.224038
      5          6           0       -1.542770   -0.364769   -0.519937
      6          1           0        0.113374   -1.673837   -1.046493
      7          6           0       -2.091584    0.454910    0.652159
      8          1           0       -2.257991   -1.153098   -0.775981
      9          1           0       -1.462337    0.275997   -1.403871
     10          1           0       -2.200273   -0.162858    1.549343
     11          1           0       -3.073702    0.873333    0.417265
     12          1           0       -0.228567   -1.655657    0.654436
     13          1           0       -1.428796    1.289847    0.897331
 ---------------------------------------------------------------------

 SCF Done:  E(RHF) =  -341.755162340     A.U. after    2 cycles

 The electronic state is 1-A.
 Alpha  occ. eigenvalues --  -26.47226 -26.47121 -11.24114 -11.22992 -11.22885
 Alpha  occ. eigenvalues --   -7.70911  -1.62363  -1.58196  -1.07077  -0.95065
 Alpha  occ. eigenvalues --   -0.82971  -0.79060  -0.73599  -0.69962  -0.69003
 Alpha  occ. eigenvalues --   -0.63219  -0.62550  -0.61851  -0.60734  -0.56612
 Alpha  occ. eigenvalues --   -0.53671  -0.49898  -0.49357  -0.47737
 Alpha virt. eigenvalues --    0.03444   0.03808   0.03982   0.04309   0.06512
 Alpha virt. eigenvalues --    0.06676   0.07033   0.07463   0.08377   0.10113
 Alpha virt. eigenvalues --    0.11864   0.14014   0.14692   0.15302   0.15551

 Mulliken charges:
               1
     1  F   -0.802422
     2  F   -0.689065
     3  B    1.702549
     4  C   -0.217889
     5  C   -0.455457
     6  H    0.099319
     7  C   -0.322009
     8  H    0.134077
     9  H    0.131985
    10  H    0.167318
    11  H    0.097755
    12  H    0.032916
    13  H    0.120924
 Sum of Mulliken charges =  -0.00000

 Dipole moment (field-independent basis, Debye):
    X=             -1.4932    Y=             -1.0327    Z=             -0.2824  Tot=              1.8374

 Test job not archived.
 1\1\GINC-SE336\SP\RHF\Aug-CC-pVDZ\C3H7B1F2\OHZDE\09-Apr-2025\0\\#t hf
 aug-cc-pvdz iop(5/13=1,5/36=2,99/5=2) pseudo=read geom=check guess=(re
 ad,tcheck) scf=(maxcycle=1)\\title\\0,1\F,0,2.175946,-0.398326,0.49029
 9\F,0,0.966487,1.257438,-0.437678\B,0,1.020086,-0.012389,-0.042945\C,0
 ,-0.172986,-1.000773,-0.224038\C,0,-1.54277,-0.364769,-0.519937\H,0,0.
 113374,-1.673837,-1.046493\C,0,-2.091584,0.45491,0.652159\H,0,-2.25799
 1,-1.153098,-0.775981\H,0,-1.462337,0.275997,-1.403871\H,0,-2.200273,-
 0.162858,1.549343\H,0,-3.073702,0.873333,0.417265\H,0,-0.228567,-1.655

 Normal termination of Gaussian 16 at Wed Apr  9 00:32:32 2025.
