 Gaussian 16, Revision C.01,

 ----------------------------------------------------------------------
 #t hf aug-cc-pvdz symm=none int=(grid=ultrafine) guess=(read,tcheck) s
 table=opt
 ----------------------------------------------------------------------
 -----
 title
 -----
 Symbolic Z-matrix:
 Charge =  0 Multiplicity = 2

 SCF Done:  E(UHF) =  -646.600519855     A.U. after   18 cycles
 Normal termination of Gaussian 16 at Tue Apr  8 22:54:35 2025.
 Gaussian 16:  ES64L-G16RevC.01  3-Jul-2019

 ----------------------------------------------------------------------
 #t hf aug-cc-pvdz iop(5/13=1,5/36=2,99/5=2) pseudo=read geom=check gue
 ss=(read,tcheck) scf=(maxcycle=1)
 ----------------------------------------------------------------------
 -----
 title
 -----
 Structure from the checkpoint file:  "BDE49_expt_1833_mol2.chk"
 Charge =  0 Multiplicity = 2

                         Standard orientation:
 ---------------------------------------------------------------------
 Center     Atomic      Atomic             Coordinates (Angstroms)
 Number     Number       Type             X           Y           Z
 ---------------------------------------------------------------------
      1         16           0        0.150485    0.000001    0.254918
      2          8           0        0.670083   -1.272514   -0.192700
      3          8           0        0.670065    1.272522   -0.192700
      4          9           0       -1.458771   -0.000010   -0.110610
 ---------------------------------------------------------------------

 SCF Done:  E(UHF) =  -646.887783149     A.U. after    2 cycles

 The electronic state is 2-A.
 Alpha  occ. eigenvalues --  -94.28012 -26.54145 -20.64479 -20.64477  -8.53227
 Alpha  occ. eigenvalues --   -6.51408  -6.50768  -6.50679  -1.69359  -1.60114
 Alpha  occ. eigenvalues --   -1.54130  -0.98472  -0.79765  -0.77506  -0.76228
 Alpha  occ. eigenvalues --   -0.69324  -0.67931  -0.60662  -0.58847  -0.55321
 Alpha  occ. eigenvalues --   -0.49898
 Alpha virt. eigenvalues --    0.07480   0.08060   0.08609   0.08968   0.14487
 Alpha virt. eigenvalues --    0.19935   0.20450   0.21124   0.21818   0.24500
 Alpha virt. eigenvalues --    0.25641   0.25698   0.28269   0.28858   0.32138

  Beta  occ. eigenvalues --  -94.27587 -26.53383 -20.63018 -20.63015  -8.52627
  Beta  occ. eigenvalues --   -6.50832  -6.50663  -6.49533  -1.66801  -1.56919
  Beta  occ. eigenvalues --   -1.49785  -0.91952  -0.76393  -0.73595  -0.73015
  Beta  occ. eigenvalues --   -0.65723  -0.62877  -0.58458  -0.54107  -0.50564
  Beta virt. eigenvalues --   -0.04489   0.08108   0.08414   0.08820   0.09888
  Beta virt. eigenvalues --    0.16922   0.20293   0.20832   0.21661   0.22174
  Beta virt. eigenvalues --    0.25131   0.26281   0.27529   0.28506   0.30438

 Mulliken charges and spin densities:
               1          2
     1  S    2.730346   0.332287
     2  O   -1.063233   0.294762
     3  O   -1.063233   0.294760
     4  F   -0.603880   0.078191
 Sum of Mulliken charges =  -0.00000   1.00000

 Dipole moment (field-independent basis, Debye):
    X=             -0.3326    Y=             -0.0000    Z=              1.2914  Tot=              1.3336
                          Isotropic Fermi Contact Couplings
        Atom                 a.u.       MegaHertz       Gauss      10(-4) cm-1
     1  S(33)              0.78583     269.91194      96.31129      90.03293
     2  O(17)              0.07119     -43.15318     -15.39813     -14.39435
     3  O(17)              0.07119     -43.15320     -15.39814     -14.39436
     4  F(19)              0.09098     382.77555     136.58383     127.68018
 --------------------------------------------------------
       Center         ----  Spin Dipole Couplings  ----
                      3XX-RR        3YY-RR        3ZZ-RR
 --------------------------------------------------------

 Normal termination of Gaussian 16 at Tue Apr  8 22:54:37 2025.
