 Gaussian 16, Revision C.01,

 ----------------------------------------------------------------------
 #t hf aug-cc-pvdz symm=none int=(grid=ultrafine) guess=(read,tcheck) s
 table=(opt,rrhf)
 ----------------------------------------------------------------------
 -----
 title
 -----
 Symbolic Z-matrix:
 Charge =  0 Multiplicity = 1

 SCF Done:  E(RHF) =  -707.657164201     A.U. after   14 cycles
 Normal termination of Gaussian 16 at Tue Apr  8 23:52:08 2025.
 Gaussian 16:  ES64L-G16RevC.01  3-Jul-2019

 ----------------------------------------------------------------------
 #t hf aug-cc-pvdz iop(5/13=1,5/36=2,99/5=2) pseudo=read geom=check gue
 ss=(read,tcheck) scf=(maxcycle=1)
 ----------------------------------------------------------------------
 -----
 title
 -----
 Structure from the checkpoint file:  "BDE49_nonexpt_1890_mol1.chk"
 Charge =  0 Multiplicity = 1

                         Standard orientation:
 ---------------------------------------------------------------------
 Center     Atomic      Atomic             Coordinates (Angstroms)
 Number     Number       Type             X           Y           Z
 ---------------------------------------------------------------------
      1         14           0       -0.647597   -1.408626   -0.339955
      2          6           0        0.476370   -0.967257    1.125147
      3          8           0       -1.439688   -0.052896   -0.946715
      4          1           0       -1.611066   -2.414469    0.165722
      5          1           0        0.056430   -1.925158   -1.526938
      6          8           0       -2.229262    0.497754    0.164008
      7          6           0       -1.855769    1.863598    0.269667
      8          1           0       -2.490429    2.255982    1.068306
      9          1           0       -2.063790    2.393350   -0.664211
     10          1           0       -0.800767    1.964185    0.539822
     11          8           0        1.305880    0.175052    0.928178
     12          8           0        2.092910   -0.120816   -0.275297
     13          6           0        2.769327    1.081464   -0.584887
     14          1           0        3.380155    0.836385   -1.456088
     15          1           0        3.414077    1.393075    0.243085
     16          1           0        2.066405    1.881927   -0.837227
     17          1           0        1.082521   -1.835161    1.424613
     18          1           0       -0.145477   -0.688937    1.981327
 ---------------------------------------------------------------------

 SCF Done:  E(RHF) =  -708.109909731     A.U. after    2 cycles

 The electronic state is 1-A.
 Alpha  occ. eigenvalues --  -69.55812 -20.61664 -20.61389 -20.61231 -20.59065
 Alpha  occ. eigenvalues --  -11.29241 -11.29003 -11.28270  -6.22482  -3.97952
 Alpha  occ. eigenvalues --   -3.97808  -3.97773  -1.57972  -1.56545  -1.31244
 Alpha  occ. eigenvalues --   -1.28363  -0.93325  -0.92394  -0.92226  -0.74617
 Alpha  occ. eigenvalues --   -0.68909  -0.67927  -0.67197  -0.66246  -0.64888
 Alpha  occ. eigenvalues --   -0.63303  -0.60015  -0.56436  -0.56148  -0.55455
 Alpha  occ. eigenvalues --   -0.52659  -0.50775  -0.49251  -0.46913  -0.46343
 Alpha  occ. eigenvalues --   -0.43225  -0.40371
 Alpha virt. eigenvalues --    0.03655   0.04054   0.04170   0.04567   0.05817
 Alpha virt. eigenvalues --    0.06074   0.06543   0.07210   0.07398   0.08908
 Alpha virt. eigenvalues --    0.09624   0.09905   0.11518   0.12619   0.13138

 Mulliken charges:
               1
     1  Si   1.886362
     2  C    0.257166
     3  O   -0.928078
     4  H   -0.235426
     5  H   -0.135395
     6  O   -0.824042
     7  C    0.454709
     8  H    0.064896
     9  H    0.124633
    10  H    0.106225
    11  O   -0.771754
    12  O   -0.743605
    13  C    0.444848
    14  H    0.024047
    15  H    0.121457
    16  H    0.132391
    17  H    0.010319
    18  H    0.011245
 Sum of Mulliken charges =  -0.00000

 Dipole moment (field-independent basis, Debye):
    X=              1.2433    Y=              1.1044    Z=              0.8115  Tot=              1.8504

 Test job not archived.
 1\1\GINC-SE396\SP\RHF\Aug-CC-pVDZ\C3H10O4Si1\OHZDE\08-Apr-2025\0\\#t h
 f aug-cc-pvdz iop(5/13=1,5/36=2,99/5=2) pseudo=read geom=check guess=(
 read,tcheck) scf=(maxcycle=1)\\title\\0,1\Si,0,-0.647597,-1.408626,-0.
 339955\C,0,0.47637,-0.967257,1.125147\O,0,-1.439688,-0.052896,-0.94671
 5\H,0,-1.611066,-2.414469,0.165722\H,0,0.05643,-1.925158,-1.526938\O,0
 ,-2.229262,0.497754,0.164008\C,0,-1.855769,1.863598,0.269667\H,0,-2.49
 0429,2.255982,1.068306\H,0,-2.06379,2.39335,-0.664211\H,0,-0.800767,1.
 964185,0.539822\O,0,1.30588,0.175052,0.928178\O,0,2.09291,-0.120816,-0

 Normal termination of Gaussian 16 at Tue Apr  8 23:52:15 2025.
