 Gaussian 16, Revision C.01,

 ----------------------------------------------------------------------
 #t hf aug-cc-pvdz symm=none int=(grid=ultrafine) guess=(read,tcheck) s
 table=(opt,rrhf)
 ----------------------------------------------------------------------
 -----
 title
 -----
 Symbolic Z-matrix:
 Charge =  0 Multiplicity = 1

 SCF Done:  E(RHF) =  -1292.60056110     A.U. after   14 cycles
 Normal termination of Gaussian 16 at Wed Apr  9 00:22:37 2025.
 Gaussian 16:  ES64L-G16RevC.01  3-Jul-2019

 ----------------------------------------------------------------------
 #t hf aug-cc-pvdz iop(5/13=1,5/36=2,99/5=2) pseudo=read geom=check gue
 ss=(read,tcheck) scf=(maxcycle=1)
 ----------------------------------------------------------------------
 -----
 title
 -----
 Structure from the checkpoint file:  "BDE49_nonexpt_2662_mol1.chk"
 Charge =  0 Multiplicity = 1

                         Standard orientation:
 ---------------------------------------------------------------------
 Center     Atomic      Atomic             Coordinates (Angstroms)
 Number     Number       Type             X           Y           Z
 ---------------------------------------------------------------------
      1          9           0       -1.991907    0.949894    0.449455
      2         16           0       -1.317426   -0.253926   -0.515740
      3         16           0        0.357992   -0.804428    0.426457
      4         16           0        1.966244    0.438699   -0.210674
      5          1           0        1.818219    1.365438    0.754225
 ---------------------------------------------------------------------

 SCF Done:  E(RHF) =  -1292.86982152     A.U. after    2 cycles

 The electronic state is 1-A.
 Alpha  occ. eigenvalues --  -94.07367 -94.03678 -94.00507 -26.47823  -8.34568
 Alpha  occ. eigenvalues --   -8.31525  -8.28463  -6.32279  -6.32036  -6.31692
 Alpha  occ. eigenvalues --   -6.29264  -6.29026  -6.28801  -6.26269  -6.26107
 Alpha  occ. eigenvalues --   -6.25848  -1.57531  -1.15130  -1.03065  -0.87793
 Alpha  occ. eigenvalues --   -0.67024  -0.66055  -0.65558  -0.59998  -0.52885
 Alpha  occ. eigenvalues --   -0.52153  -0.43450  -0.40807  -0.39708
 Alpha virt. eigenvalues --    0.03496   0.04601   0.06121   0.06818   0.09700
 Alpha virt. eigenvalues --    0.09981   0.11573   0.12140   0.12803   0.13344
 Alpha virt. eigenvalues --    0.14251   0.16142   0.17159   0.18057   0.20454

 Mulliken charges:
               1
     1  F   -0.606665
     2  S    0.618471
     3  S   -0.070797
     4  S   -0.378904
     5  H    0.437895
 Sum of Mulliken charges =   0.00000

 Dipole moment (field-independent basis, Debye):
    X=              1.1808    Y=              0.0276    Z=              0.0237  Tot=              1.1813

 Test job not archived.
 1\1\GINC-SE102\SP\RHF\Aug-CC-pVDZ\F1H1S3\OHZDE\09-Apr-2025\0\\#t hf au
 g-cc-pvdz iop(5/13=1,5/36=2,99/5=2) pseudo=read geom=check guess=(read
 ,tcheck) scf=(maxcycle=1)\\title\\0,1\F,0,-1.991907,0.949894,0.449455\
 S,0,-1.317426,-0.253926,-0.51574\S,0,0.357992,-0.804428,0.426457\S,0,1
 .966244,0.438699,-0.210674\H,0,1.818219,1.365438,0.754225\\Version=ES6
 4L-G16RevC.01\State=1-A\HF=-1292.8698215\RMSD=3.200e-03\Dipole=0.46454
 97,0.0108703,0.0093352\Quadrupole=-0.6154026,0.582109,0.0332937,2.7627
 509,1.8727408,0.9607211\PG=C01 [X(F1H1S3)]\\@

 Normal termination of Gaussian 16 at Wed Apr  9 00:22:38 2025.
