 Gaussian 16, Revision C.01,

 ----------------------------------------------------------------------
 #t hf aug-cc-pvdz symm=none int=(grid=ultrafine) guess=(read,tcheck) s
 table=opt
 ----------------------------------------------------------------------
 -----
 title
 -----
 Symbolic Z-matrix:
 Charge =  0 Multiplicity = 2

 SCF Done:  E(UHF) =  -606.415558447     A.U. after   21 cycles
 Normal termination of Gaussian 16 at Tue Apr  8 23:31:17 2025.
 Gaussian 16:  ES64L-G16RevC.01  3-Jul-2019

 ----------------------------------------------------------------------
 #t hf aug-cc-pvdz iop(5/13=1,5/36=2,99/5=2) pseudo=read geom=check gue
 ss=(read,tcheck) scf=(maxcycle=1)
 ----------------------------------------------------------------------
 -----
 title
 -----
 Structure from the checkpoint file:  "BDE49_nonexpt_1400_mol2.chk"
 Charge =  0 Multiplicity = 2

                         Standard orientation:
 ---------------------------------------------------------------------
 Center     Atomic      Atomic             Coordinates (Angstroms)
 Number     Number       Type             X           Y           Z
 ---------------------------------------------------------------------
      1         15           0        0.137695    1.355337   -0.099785
      2          6           0       -0.984259   -0.142944    0.011191
      3          8           0       -0.278076   -1.312465    0.059792
      4          6           0        1.130945   -1.166757   -0.183657
      5          6           0        1.582869    0.241080    0.232133
      6          1           0        1.314071   -1.334426   -1.249177
      7          1           0        1.625054   -1.953728    0.385784
      8          8           0       -2.180605   -0.120802    0.065463
      9          1           0        2.479809    0.556863   -0.304395
     10          1           0        1.807754    0.279112    1.304519
 ---------------------------------------------------------------------

 SCF Done:  E(UHF) =  -606.716683408     A.U. after    2 cycles

 The electronic state is 2-A.
 Alpha  occ. eigenvalues --  -84.31007 -20.59735 -20.55133 -11.39285 -11.32655
 Alpha  occ. eigenvalues --  -11.27499  -6.78268  -4.30738  -4.30256  -4.30001
 Alpha  occ. eigenvalues --   -1.54628  -1.47052  -1.07433  -0.96702  -0.84270
 Alpha  occ. eigenvalues --   -0.76926  -0.70560  -0.69048  -0.64729  -0.61102
 Alpha  occ. eigenvalues --   -0.58475  -0.57182  -0.53220  -0.46722  -0.43229
 Alpha  occ. eigenvalues --   -0.39955  -0.35079
 Alpha virt. eigenvalues --    0.02768   0.03910   0.04253   0.05677   0.06986
 Alpha virt. eigenvalues --    0.08655   0.09462   0.10290   0.11179   0.12629
 Alpha virt. eigenvalues --    0.13073   0.14383   0.14810   0.15086   0.15979

  Beta  occ. eigenvalues --  -84.30326 -20.59801 -20.54440 -11.39707 -11.32625
  Beta  occ. eigenvalues --  -11.27641  -6.77405  -4.29703  -4.29596  -4.27438
  Beta  occ. eigenvalues --   -1.54450  -1.45923  -1.06761  -0.95030  -0.82626
  Beta  occ. eigenvalues --   -0.75882  -0.70125  -0.68483  -0.63284  -0.60314
  Beta  occ. eigenvalues --   -0.57977  -0.55212  -0.53104  -0.44553  -0.42046
  Beta  occ. eigenvalues --   -0.38805
  Beta virt. eigenvalues --    0.01597   0.02875   0.04198   0.04337   0.05744
  Beta virt. eigenvalues --    0.07176   0.08782   0.09586   0.10871   0.11936
  Beta virt. eigenvalues --    0.12966   0.13508   0.14554   0.14921   0.15534

 Mulliken charges and spin densities:
               1          2
     1  P    1.127782   1.165289
     2  C    1.133844  -0.226750
     3  O   -1.222359  -0.005343
     4  C    0.496436   0.002788
     5  C   -0.822347  -0.127120
     6  H    0.107443   0.002919
     7  H    0.060084   0.000813
     8  O   -1.159452   0.172388
     9  H    0.155092   0.005815
    10  H    0.123479   0.009201
 Sum of Mulliken charges =  -0.00000   1.00000

 Dipole moment (field-independent basis, Debye):
    X=              5.0154    Y=              0.6050    Z=             -0.1921  Tot=              5.0555
                          Isotropic Fermi Contact Couplings
        Atom                 a.u.       MegaHertz       Gauss      10(-4) cm-1
     1  P(31)              0.20062     363.35114     129.65272     121.20089
     2  C(13)             -0.05827     -65.50331     -23.37321     -21.84955
     3  O(17)             -0.00899       5.45180       1.94534       1.81852
     4  C(13)              0.00718       8.07326       2.88074       2.69295
     5  C(13)             -0.02632     -29.58466     -10.55654      -9.86838
     6  H(1)              -0.00045      -2.01150      -0.71775      -0.67097
     7  H(1)              -0.00042      -1.89790      -0.67722      -0.63307
     8  O(17)              0.05139     -31.15406     -11.11654     -10.39188

 Normal termination of Gaussian 16 at Tue Apr  8 23:31:21 2025.
