 Gaussian 16, Revision C.01,

 ----------------------------------------------------------------------
 #t hf aug-cc-pvdz symm=none int=(grid=ultrafine) guess=(read,tcheck) s
 table=(opt,rrhf)
 ----------------------------------------------------------------------
 -----
 title
 -----
 Symbolic Z-matrix:
 Charge =  0 Multiplicity = 1

 SCF Done:  E(RHF) =  -1078.67038769     A.U. after   15 cycles
 Normal termination of Gaussian 16 at Tue Apr  8 23:47:05 2025.
 Gaussian 16:  ES64L-G16RevC.01  3-Jul-2019

 ----------------------------------------------------------------------
 #t hf aug-cc-pvdz iop(5/13=1,5/36=2,99/5=2) pseudo=read geom=check gue
 ss=(read,tcheck) scf=(maxcycle=1)
 ----------------------------------------------------------------------
 -----
 title
 -----
 Structure from the checkpoint file:  "BDE49_nonexpt_1771_mol1.chk"
 Charge =  0 Multiplicity = 1

                         Standard orientation:
 ---------------------------------------------------------------------
 Center     Atomic      Atomic             Coordinates (Angstroms)
 Number     Number       Type             X           Y           Z
 ---------------------------------------------------------------------
      1          6           0        0.570469   -1.205053    0.275029
      2          6           0        1.928588   -1.214703   -0.025901
      3          6           0        2.582488   -0.000007   -0.171803
      4          6           0        1.928596    1.214700   -0.025946
      5          6           0        0.570477    1.205070    0.274984
      6          6           0       -0.134678    0.000014    0.429572
      7          1           0        0.057484   -2.153921    0.391755
      8          1           0        2.481706   -2.137824   -0.146053
      9         14           0       -1.951573    0.000028    0.825612
     10          1           0        2.481720    2.137812   -0.146133
     11          9           0        3.899388   -0.000017   -0.461386
     12          1           0        0.057499    2.153946    0.391674
     13         17           0       -3.110904   -0.000029   -0.915815
     14          1           0       -2.320576    1.220491    1.567914
     15          1           0       -2.320580   -1.220384    1.567995
 ---------------------------------------------------------------------

 SCF Done:  E(RHF) =  -1079.10572107     A.U. after    2 cycles

 The electronic state is 1-A.
 Alpha  occ. eigenvalues -- -105.55425 -69.58318 -26.48846 -11.35426 -11.27692
 Alpha  occ. eigenvalues --  -11.27687 -11.26415 -11.26397 -11.25076 -10.60414
 Alpha  occ. eigenvalues --   -7.77300  -7.76998  -7.76997  -6.24979  -4.00402
 Alpha  occ. eigenvalues --   -4.00272  -4.00267  -1.61828  -1.17854  -1.05365
 Alpha  occ. eigenvalues --   -1.04865  -1.03034  -0.87772  -0.85953  -0.76793
 Alpha  occ. eigenvalues --   -0.74419  -0.71407  -0.68432  -0.66518  -0.63316
 Alpha  occ. eigenvalues --   -0.62931  -0.60993  -0.54734  -0.53683  -0.52698
 Alpha  occ. eigenvalues --   -0.51880  -0.51390  -0.45527  -0.45447  -0.37389
 Alpha  occ. eigenvalues --   -0.36258
 Alpha virt. eigenvalues --    0.03156   0.03454   0.04063   0.04827   0.05293
 Alpha virt. eigenvalues --    0.05749   0.07588   0.07979   0.08451   0.08492
 Alpha virt. eigenvalues --    0.09547   0.10420   0.11222   0.12292   0.13204

 Mulliken charges:
               1
     1  C    0.769911
     2  C    0.031842
     3  C    1.328523
     4  C    0.031839
     5  C    0.769896
     6  C   -1.193010
     7  H   -0.290875
     8  H   -0.180247
     9  Si   1.084605
    10  H   -0.180249
    11  F   -0.978515
    12  H   -0.290873
    13  Cl  -0.605051
    14  H   -0.148899
    15  H   -0.148897
 Sum of Mulliken charges =  -0.00000

 Dipole moment (field-independent basis, Debye):
    X=              0.6811    Y=              0.0000    Z=              1.5077  Tot=              1.6544

 Test job not archived.
 1\1\GINC-SE253\SP\RHF\Aug-CC-pVDZ\C6H6Cl1F1Si1\OHZDE\08-Apr-2025\0\\#t
  hf aug-cc-pvdz iop(5/13=1,5/36=2,99/5=2) pseudo=read geom=check guess
 =(read,tcheck) scf=(maxcycle=1)\\title\\0,1\C,0,0.570469,-1.205053,0.2
 75029\C,0,1.928588,-1.214703,-0.025901\C,0,2.582488,-0.000007,-0.17180
 3\C,0,1.928596,1.2147,-0.025946\C,0,0.570477,1.20507,0.274984\C,0,-0.1
 34678,0.000014,0.429572\H,0,0.057484,-2.153921,0.391755\H,0,2.481706,-
 2.137824,-0.146053\Si,0,-1.951573,0.000028,0.825612\H,0,2.48172,2.1378
 12,-0.146133\F,0,3.899388,-0.000017,-0.461386\H,0,0.057499,2.153946,0.

 Normal termination of Gaussian 16 at Tue Apr  8 23:47:12 2025.
