 Gaussian 16, Revision C.01,

 ----------------------------------------------------------------------
 #t hf aug-cc-pvdz symm=none int=(grid=ultrafine) guess=(read,tcheck) s
 table=(opt,rrhf)
 ----------------------------------------------------------------------
 -----
 title
 -----
 Symbolic Z-matrix:
 Charge =  0 Multiplicity = 1

 SCF Done:  E(RHF) =  -1161.53806382     A.U. after   10 cycles
 Normal termination of Gaussian 16 at Tue Apr  8 22:58:52 2025.
 Gaussian 16:  ES64L-G16RevC.01  3-Jul-2019

 ----------------------------------------------------------------------
 #t hf aug-cc-pvdz iop(5/13=1,5/36=2,99/5=2) pseudo=read geom=check gue
 ss=(read,tcheck) scf=(maxcycle=1)
 ----------------------------------------------------------------------
 -----
 title
 -----
 Structure from the checkpoint file:  "BDE49_expt_1940_mol1.chk"
 Charge =  0 Multiplicity = 1

                         Standard orientation:
 ---------------------------------------------------------------------
 Center     Atomic      Atomic             Coordinates (Angstroms)
 Number     Number       Type             X           Y           Z
 ---------------------------------------------------------------------
      1         14           0        0.925745   -0.733229    0.949011
      2         14           0       -0.925745    0.733229    0.949011
      3         14           0       -0.925745    2.204526   -0.894758
      4          1           0       -0.916894    1.530720    2.203296
      5          1           0       -2.177875   -0.067072    0.931766
      6          1           0        0.311444    3.022128   -0.897656
      7          1           0       -2.095069    3.114662   -0.833060
      8          1           0       -0.988011    1.440017   -2.163888
      9         14           0        0.925745   -2.204526   -0.894758
     10          1           0        0.916894   -1.530720    2.203296
     11          1           0        2.177875    0.067072    0.931766
     12          1           0       -0.311444   -3.022128   -0.897656
     13          1           0        2.095069   -3.114662   -0.833060
     14          1           0        0.988011   -1.440017   -2.163888
 ---------------------------------------------------------------------

 SCF Done:  E(RHF) =  -1161.67922370     A.U. after    2 cycles

 The electronic state is 1-A.
 Alpha  occ. eigenvalues --  -69.53073 -69.53073 -69.52764 -69.52764  -6.20260
 Alpha  occ. eigenvalues --   -6.20260  -6.20037  -6.20026  -3.95619  -3.95618
 Alpha  occ. eigenvalues --   -3.95614  -3.95614  -3.95610  -3.95610  -3.95384
 Alpha  occ. eigenvalues --   -3.95352  -3.95347  -3.95337  -3.95332  -3.95301
 Alpha  occ. eigenvalues --   -0.80550  -0.76500  -0.71293  -0.66182  -0.51499
 Alpha  occ. eigenvalues --   -0.51031  -0.49899  -0.49228  -0.48056  -0.47961
 Alpha  occ. eigenvalues --   -0.44063  -0.41198  -0.38920
 Alpha virt. eigenvalues --    0.03624   0.03980   0.04174   0.04178   0.06081
 Alpha virt. eigenvalues --    0.06336   0.06738   0.07347   0.07743   0.08572
 Alpha virt. eigenvalues --    0.08774   0.09020   0.09344   0.09524   0.09813

 Mulliken charges:
               1
     1  Si   0.185771
     2  Si   0.185771
     3  Si   0.411938
     4  H   -0.122404
     5  H   -0.124053
     6  H   -0.103535
     7  H   -0.134264
     8  H   -0.113453
     9  Si   0.411938
    10  H   -0.122404
    11  H   -0.124053
    12  H   -0.103535
    13  H   -0.134264
    14  H   -0.113453
 Sum of Mulliken charges =  -0.00000

 Dipole moment (field-independent basis, Debye):
    X=             -0.0000    Y=              0.0000    Z=              0.0653  Tot=              0.0653

 Test job not archived.
 1\1\GINC-SE173\SP\RHF\Aug-CC-pVDZ\H10Si4\OHZDE\08-Apr-2025\0\\#t hf au
 g-cc-pvdz iop(5/13=1,5/36=2,99/5=2) pseudo=read geom=check guess=(read
 ,tcheck) scf=(maxcycle=1)\\title\\0,1\Si,0,0.925745,-0.733229,0.949011
 \Si,0,-0.925745,0.733229,0.949011\Si,0,-0.925745,2.204526,-0.894758\H,
 0,-0.916894,1.53072,2.203296\H,0,-2.177875,-0.067072,0.931766\H,0,0.31
 1444,3.022128,-0.897656\H,0,-2.095069,3.114662,-0.83306\H,0,-0.988011,
 1.440017,-2.163888\Si,0,0.925745,-2.204526,-0.894758\H,0,0.916894,-1.5
 3072,2.203296\H,0,2.177875,0.067072,0.931766\H,0,-0.311444,-3.022128,-

 Normal termination of Gaussian 16 at Tue Apr  8 22:58:55 2025.
