 Gaussian 16, Revision C.01,

 ----------------------------------------------------------------------
 #t hf aug-cc-pvdz symm=none int=(grid=ultrafine) guess=(read,tcheck) s
 table=opt
 ----------------------------------------------------------------------
 -----
 title
 -----
 Symbolic Z-matrix:
 Charge =  0 Multiplicity = 2

 SCF Done:  E(UHF) =  -622.650837152     A.U. after   15 cycles
 Normal termination of Gaussian 16 at Tue Apr  8 23:45:12 2025.
 Gaussian 16:  ES64L-G16RevC.01  3-Jul-2019

 ----------------------------------------------------------------------
 #t hf aug-cc-pvdz iop(5/13=1,5/36=2,99/5=2) pseudo=read geom=check gue
 ss=(read,tcheck) scf=(maxcycle=1)
 ----------------------------------------------------------------------
 -----
 title
 -----
 Structure from the checkpoint file:  "BDE49_nonexpt_174_mol2.chk"
 Charge =  0 Multiplicity = 2

                         Standard orientation:
 ---------------------------------------------------------------------
 Center     Atomic      Atomic             Coordinates (Angstroms)
 Number     Number       Type             X           Y           Z
 ---------------------------------------------------------------------
      1         17           0       -1.505167   -0.166215   -0.000011
      2          5           0       -0.167254    0.920437    0.000001
      3          6           0        1.347010    0.570566    0.000011
      4          9           0        1.632427   -0.804864    0.000010
      5          1           0        1.825096    1.021923    0.879702
      6          1           0        1.825109    1.021927   -0.879671
 ---------------------------------------------------------------------

 SCF Done:  E(UHF) =  -622.879935091     A.U. after    2 cycles

 The electronic state is 2-A.
 Alpha  occ. eigenvalues -- -105.58720 -26.45299 -11.32459 -10.63757  -7.80673
 Alpha  occ. eigenvalues --   -7.80370  -7.80312  -7.68869  -1.57013  -1.10003
 Alpha  occ. eigenvalues --   -0.97647  -0.72156  -0.69268  -0.68593  -0.63582
 Alpha  occ. eigenvalues --   -0.54170  -0.53669  -0.51792  -0.50657  -0.36476
 Alpha virt. eigenvalues --    0.03356   0.03840   0.05068   0.05405   0.06017
 Alpha virt. eigenvalues --    0.08913   0.09563   0.11629   0.14565   0.15198
 Alpha virt. eigenvalues --    0.15766   0.16853   0.18598   0.19095   0.20802

  Beta  occ. eigenvalues -- -105.58651 -26.45080 -11.32307 -10.63677  -7.80579
  Beta  occ. eigenvalues --   -7.80337  -7.80105  -7.66888  -1.56382  -1.09032
  Beta  occ. eigenvalues --   -0.96730  -0.70361  -0.69097  -0.66816  -0.61901
  Beta  occ. eigenvalues --   -0.53934  -0.52101  -0.50759  -0.48999
  Beta virt. eigenvalues --    0.02581   0.04169   0.04776   0.05361   0.06960
  Beta virt. eigenvalues --    0.07438   0.10275   0.10895   0.13029   0.14727
  Beta virt. eigenvalues --    0.15846   0.16466   0.17064   0.18784   0.19348

 Mulliken charges and spin densities:
               1          2
     1  Cl  -0.192473   0.006883
     2  B    0.255068   0.996297
     3  C    0.337800  -0.001901
     4  F   -0.704300   0.026240
     5  H    0.151953  -0.013759
     6  H    0.151953  -0.013759
 Sum of Mulliken charges =  -0.00000   1.00000

 Dipole moment (field-independent basis, Debye):
    X=              0.5963    Y=              1.7164    Z=              0.0000  Tot=              1.8170
                          Isotropic Fermi Contact Couplings
        Atom                 a.u.       MegaHertz       Gauss      10(-4) cm-1
     1  Cl(35)             0.06450      28.28244      10.09188       9.43401
     2  B(11)              0.31200     447.52190     159.68694     149.27724
     3  C(13)              0.06843      76.92942      27.45033      25.66089
     4  F(19)              0.03260     137.16989      48.94563      45.75495
     5  H(1)              -0.00134      -6.00230      -2.14177      -2.00215
     6  H(1)              -0.00134      -6.00230      -2.14177      -2.00215
 --------------------------------------------------------
       Center         ----  Spin Dipole Couplings  ----

 1\1\GINC-SE331\SP\UHF\Aug-CC-pVDZ\C1H2B1Cl1F1(2)\OHZDE\08-Apr-2025\0\\
 #t hf aug-cc-pvdz iop(5/13=1,5/36=2,99/5=2) pseudo=read geom=check gue
 ss=(read,tcheck) scf=(maxcycle=1)\\title\\0,2\Cl,0,-1.505167,-0.166215
 ,-0.000011\B,0,-0.167254,0.920437,0.000001\C,0,1.34701,0.570566,0.0000
 11\F,0,1.632427,-0.804864,0.00001\H,0,1.825096,1.021923,0.879702\H,0,1
 .825109,1.021927,-0.879671\\Version=ES64L-G16RevC.01\State=2-A\HF=-622
 .8799351\S2=0.755163\S2-1=0.\S2A=0.750019\RMSD=4.291e-03\Dipole=0.2345
 865,0.675294,0.0000032\Quadrupole=-0.359025,-1.1437427,1.5027677,3.067

 Normal termination of Gaussian 16 at Tue Apr  8 23:45:14 2025.
