 Gaussian 16, Revision C.01,

 ----------------------------------------------------------------------
 #t hf aug-cc-pvdz symm=none int=(grid=ultrafine) guess=(read,tcheck) s
 table=(opt,rrhf)
 ----------------------------------------------------------------------
 -----
 title
 -----
 Symbolic Z-matrix:
 Charge =  0 Multiplicity = 1

 SCF Done:  E(RHF) =  -836.264096323     A.U. after   17 cycles
 Normal termination of Gaussian 16 at Tue Apr  8 23:56:19 2025.
 Gaussian 16:  ES64L-G16RevC.01  3-Jul-2019

 ----------------------------------------------------------------------
 #t hf aug-cc-pvdz iop(5/13=1,5/36=2,99/5=2) pseudo=read geom=check gue
 ss=(read,tcheck) scf=(maxcycle=1)
 ----------------------------------------------------------------------
 -----
 title
 -----
 Structure from the checkpoint file:  "BDE49_nonexpt_1998_mol1.chk"
 Charge =  0 Multiplicity = 1

                         Standard orientation:
 ---------------------------------------------------------------------
 Center     Atomic      Atomic             Coordinates (Angstroms)
 Number     Number       Type             X           Y           Z
 ---------------------------------------------------------------------
      1          6           0       -0.225613    2.041035   -0.849778
      2         14           0       -0.026805    0.560849    0.203756
      3          7           0        1.480236   -0.394407   -0.250583
      4          7           0       -1.383391   -0.673474   -0.021795
      5          8           0       -1.198223   -1.807555    0.397106
      6          8           0       -2.414061   -0.255845   -0.543631
      7          8           0        1.427634   -0.737637   -1.435348
      8          8           0        2.396879   -0.610205    0.520157
      9          9           0        0.017751    0.849312    1.760371
     10          1           0       -0.259564    1.742588   -1.898975
     11          1           0        0.610530    2.728929   -0.700242
     12          1           0       -1.157533    2.551677   -0.597661
 ---------------------------------------------------------------------

 SCF Done:  E(RHF) =  -836.813900308     A.U. after    2 cycles

 The electronic state is 1-A.
 Alpha  occ. eigenvalues --  -69.71285 -26.52817 -20.63243 -20.62703 -20.62624
 Alpha  occ. eigenvalues --  -20.62467 -15.79452 -15.79367 -11.29279  -6.37451
 Alpha  occ. eigenvalues --   -4.12807  -4.12694  -4.12555  -1.69442  -1.68984
 Alpha  occ. eigenvalues --   -1.64255  -1.53693  -1.53478  -1.07789  -1.01769
 Alpha  occ. eigenvalues --   -1.01351  -0.86048  -0.83182  -0.78909  -0.77423
 Alpha  occ. eigenvalues --   -0.77195  -0.76178  -0.75586  -0.70970  -0.70134
 Alpha  occ. eigenvalues --   -0.63593  -0.63348  -0.60042  -0.53039  -0.52705
 Alpha  occ. eigenvalues --   -0.50518  -0.49725  -0.47975  -0.47362
 Alpha virt. eigenvalues --    0.01461   0.02061   0.02381   0.04370   0.04699
 Alpha virt. eigenvalues --    0.05955   0.07854   0.08018   0.08948   0.12272
 Alpha virt. eigenvalues --    0.12875   0.13320   0.13860   0.15346   0.16061

 Mulliken charges:
               1
     1  C   -0.543715
     2  Si   2.249434
     3  N    1.860522
     4  N    1.932681
     5  O   -1.270054
     6  O   -1.169801
     7  O   -1.237408
     8  O   -1.173533
     9  F   -0.969775
    10  H    0.152829
    11  H    0.066799
    12  H    0.102020
 Sum of Mulliken charges =   0.00000

 Dipole moment (field-independent basis, Debye):
    X=             -0.2381    Y=              4.8777    Z=             -0.4671  Tot=              4.9058

 Test job not archived.
 1\1\GINC-SE096\SP\RHF\Aug-CC-pVDZ\C1H3F1N2O4Si1\OHZDE\08-Apr-2025\0\\#
 t hf aug-cc-pvdz iop(5/13=1,5/36=2,99/5=2) pseudo=read geom=check gues
 s=(read,tcheck) scf=(maxcycle=1)\\title\\0,1\C,0,-0.225613,2.041035,-0
 .849778\Si,0,-0.026805,0.560849,0.203756\N,0,1.480236,-0.394407,-0.250
 583\N,0,-1.383391,-0.673474,-0.021795\O,0,-1.198223,-1.807555,0.397106
 \O,0,-2.414061,-0.255845,-0.543631\O,0,1.427634,-0.737637,-1.435348\O,
 0,2.396879,-0.610205,0.520157\F,0,0.017751,0.849312,1.760371\H,0,-0.25
 9564,1.742588,-1.898975\H,0,0.61053,2.728929,-0.700242\H,0,-1.157533,2

 Normal termination of Gaussian 16 at Tue Apr  8 23:56:26 2025.
