 Gaussian 16, Revision C.01,

 ----------------------------------------------------------------------
 #t hf aug-cc-pvdz symm=none int=(grid=ultrafine) guess=(read,tcheck) s
 table=(opt,rrhf)
 ----------------------------------------------------------------------
 -----
 title
 -----
 Symbolic Z-matrix:
 Charge =  0 Multiplicity = 1

 SCF Done:  E(RHF) =  -663.586890910     A.U. after   14 cycles
 Normal termination of Gaussian 16 at Tue Apr  8 23:52:33 2025.
 Gaussian 16:  ES64L-G16RevC.01  3-Jul-2019

 ----------------------------------------------------------------------
 #t hf aug-cc-pvdz iop(5/13=1,5/36=2,99/5=2) pseudo=read geom=check gue
 ss=(read,tcheck) scf=(maxcycle=1)
 ----------------------------------------------------------------------
 -----
 title
 -----
 Structure from the checkpoint file:  "BDE49_nonexpt_1915_mol1.chk"
 Charge =  0 Multiplicity = 1

                         Standard orientation:
 ---------------------------------------------------------------------
 Center     Atomic      Atomic             Coordinates (Angstroms)
 Number     Number       Type             X           Y           Z
 ---------------------------------------------------------------------
      1         14           0       -0.410939   -1.567831    0.217789
      2          6           0        1.330320   -1.290968   -0.467307
      3          7           0        1.985847   -0.162628    0.158946
      4          6           0        1.994941    1.035938    0.066012
      5          8           0        2.100190    2.202651    0.067816
      6          7           0       -1.338333   -0.162513   -0.103962
      7          1           0       -0.355604   -1.796889    1.674796
      8          1           0       -1.019750   -2.725077   -0.473099
      9          6           0       -2.200316    0.670024   -0.068978
     10          8           0       -3.021502    1.499081   -0.066273
     11          1           0        1.290847   -1.168709   -1.555525
     12          1           0        1.925879   -2.187528   -0.270811
 ---------------------------------------------------------------------

 SCF Done:  E(RHF) =  -663.980584617     A.U. after    2 cycles

 The electronic state is 1-A.
 Alpha  occ. eigenvalues --  -69.58949 -20.60640 -20.59633 -15.53719 -15.52877
 Alpha  occ. eigenvalues --  -11.42765 -11.41276 -11.30383  -6.25605  -4.01070
 Alpha  occ. eigenvalues --   -4.00929  -4.00913  -1.55398  -1.54095  -1.28721
 Alpha  occ. eigenvalues --   -1.27548  -1.02783  -0.88763  -0.76467  -0.74026
 Alpha  occ. eigenvalues --   -0.72138  -0.69488  -0.68371  -0.67244  -0.66964
 Alpha  occ. eigenvalues --   -0.64697  -0.60080  -0.56101  -0.54013  -0.48728
 Alpha  occ. eigenvalues --   -0.47282  -0.46762  -0.42661
 Alpha virt. eigenvalues --    0.02729   0.03684   0.03932   0.05027   0.06391
 Alpha virt. eigenvalues --    0.06906   0.08066   0.08258   0.09108   0.10891
 Alpha virt. eigenvalues --    0.11180   0.11571   0.12442   0.12859   0.13305

 Mulliken charges:
               1
     1  Si   1.126819
     2  C   -0.671577
     3  N    0.735135
     4  C    0.047048
     5  O   -0.806007
     6  N    0.554936
     7  H   -0.131749
     8  H   -0.140070
     9  C   -0.077222
    10  O   -0.830804
    11  H    0.138380
    12  H    0.055111
 Sum of Mulliken charges =  -0.00000

 Dipole moment (field-independent basis, Debye):
    X=              0.0978    Y=             -3.6586    Z=             -0.7962  Tot=              3.7455

 Test job not archived.
 1\1\GINC-SE361\SP\RHF\Aug-CC-pVDZ\C3H4N2O2Si1\OHZDE\08-Apr-2025\0\\#t
 hf aug-cc-pvdz iop(5/13=1,5/36=2,99/5=2) pseudo=read geom=check guess=
 (read,tcheck) scf=(maxcycle=1)\\title\\0,1\Si,0,-0.410939,-1.567831,0.
 217789\C,0,1.33032,-1.290968,-0.467307\N,0,1.985847,-0.162628,0.158946
 \C,0,1.994941,1.035938,0.066012\O,0,2.10019,2.202651,0.067816\N,0,-1.3
 38333,-0.162513,-0.103962\H,0,-0.355604,-1.796889,1.674796\H,0,-1.0197
 5,-2.725077,-0.473099\C,0,-2.200316,0.670024,-0.068978\O,0,-3.021502,1
 .499081,-0.066273\H,0,1.290847,-1.168709,-1.555525\H,0,1.925879,-2.187

 Normal termination of Gaussian 16 at Tue Apr  8 23:52:39 2025.
