 Gaussian 16, Revision C.01,

 ----------------------------------------------------------------------
 #t hf aug-cc-pvdz symm=none int=(grid=ultrafine) guess=(read,tcheck) s
 table=(opt,rrhf)
 ----------------------------------------------------------------------
 -----
 title
 -----
 Symbolic Z-matrix:
 Charge =  0 Multiplicity = 1

 SCF Done:  E(RHF) =  -685.934755155     A.U. after   16 cycles
 Normal termination of Gaussian 16 at Tue Apr  8 23:33:14 2025.
 Gaussian 16:  ES64L-G16RevC.01  3-Jul-2019

 ----------------------------------------------------------------------
 #t hf aug-cc-pvdz iop(5/13=1,5/36=2,99/5=2) pseudo=read geom=check gue
 ss=(read,tcheck) scf=(maxcycle=1)
 ----------------------------------------------------------------------
 -----
 title
 -----
 Structure from the checkpoint file:  "BDE49_nonexpt_1429_mol1.chk"
 Charge =  0 Multiplicity = 1

                         Standard orientation:
 ---------------------------------------------------------------------
 Center     Atomic      Atomic             Coordinates (Angstroms)
 Number     Number       Type             X           Y           Z
 ---------------------------------------------------------------------
      1          6           0        2.503145    0.229756   -0.005896
      2          6           0        1.484783    1.183752    0.006380
      3          6           0        0.141405    0.809561    0.018788
      4          6           0        2.175819   -1.120348   -0.001660
      5          6           0        0.840071   -1.524471    0.011372
      6          6           0       -0.171266   -0.563279    0.016820
      7          1           0        3.540191    0.543824   -0.012701
      8          1           0        1.741475    2.237436    0.009835
      9         15           0       -1.240523    2.023562   -0.115391
     10          1           0        0.600839   -2.579446    0.017392
     11          8           0       -1.506364   -0.849816    0.030457
     12          1           0        2.956822   -1.872271   -0.006557
     13          6           0       -1.920933   -2.207636   -0.027064
     14          1           0       -3.009241   -2.185696   -0.034833
     15          1           0       -1.576390   -2.767835    0.848944
     16          1           0       -1.560942   -2.696991   -0.938465
     17          1           0       -0.499231    3.140104    0.349893
     18          1           0       -1.852910    1.781967    1.141258
 ---------------------------------------------------------------------

 SCF Done:  E(RHF) =  -686.333244121     A.U. after    2 cycles

 The electronic state is 1-A.
 Alpha  occ. eigenvalues --  -84.26971 -20.57777 -11.31204 -11.30031 -11.25054
 Alpha  occ. eigenvalues --  -11.25039 -11.24613 -11.24297 -11.23753  -6.73998
 Alpha  occ. eigenvalues --   -4.26935  -4.26602  -4.25797  -1.50247  -1.15544
 Alpha  occ. eigenvalues --   -1.03725  -1.02128  -0.95167  -0.88212  -0.82675
 Alpha  occ. eigenvalues --   -0.80000  -0.72515  -0.68335  -0.66203  -0.65958
 Alpha  occ. eigenvalues --   -0.63004  -0.59514  -0.56984  -0.54346  -0.52843
 Alpha  occ. eigenvalues --   -0.51654  -0.48899  -0.47747  -0.46895  -0.38134
 Alpha  occ. eigenvalues --   -0.33436  -0.30520
 Alpha virt. eigenvalues --    0.03277   0.03589   0.03925   0.04998   0.05107
 Alpha virt. eigenvalues --    0.05499   0.07175   0.07884   0.08476   0.08874
 Alpha virt. eigenvalues --    0.10423   0.10752   0.11235   0.11829   0.12649

 Mulliken charges:
               1
     1  C    0.238680
     2  C    0.481734
     3  C   -0.618685
     4  C    0.345410
     5  C   -0.095603
     6  C    2.016605
     7  H   -0.223819
     8  H   -0.270897
     9  P   -0.521215
    10  H   -0.445269
    11  O   -1.867782
    12  H   -0.219118
    13  C    0.151211
    14  H   -0.032550
    15  H    0.176279
    16  H    0.183446
    17  H    0.281570
    18  H    0.420005
 Sum of Mulliken charges =   0.00000

 Dipole moment (field-independent basis, Debye):
    X=              0.2874    Y=             -1.8929    Z=              0.3234  Tot=              1.9418

 Test job not archived.
 1\1\GINC-SE361\SP\RHF\Aug-CC-pVDZ\C7H9O1P1\OHZDE\08-Apr-2025\0\\#t hf
 aug-cc-pvdz iop(5/13=1,5/36=2,99/5=2) pseudo=read geom=check guess=(re
 ad,tcheck) scf=(maxcycle=1)\\title\\0,1\C,0,2.503145,0.229757,-0.00589
 6\C,0,1.484783,1.183752,0.00638\C,0,0.141405,0.809561,0.018788\C,0,2.1
 7582,-1.120347,-0.00166\C,0,0.840072,-1.524471,0.011372\C,0,-0.171266,
 -0.563279,0.01682\H,0,3.540191,0.543825,-0.012701\H,0,1.741474,2.23743
 7,0.009835\P,0,-1.240524,2.023561,-0.115391\H,0,0.60084,-2.579446,0.01
 7392\O,0,-1.506363,-0.849817,0.030457\H,0,2.956823,-1.87227,-0.006557\

 Normal termination of Gaussian 16 at Tue Apr  8 23:33:23 2025.
