 Gaussian 16, Revision C.01,

 ----------------------------------------------------------------------
 #t hf aug-cc-pvdz symm=none int=(grid=ultrafine) guess=(read,tcheck) s
 table=(opt,rrhf)
 ----------------------------------------------------------------------
 -----
 title
 -----
 Symbolic Z-matrix:
 Charge =  0 Multiplicity = 1

 SCF Done:  E(RHF) =  -404.463382138     A.U. after   15 cycles
 Normal termination of Gaussian 16 at Tue Apr  8 23:11:13 2025.
 Gaussian 16:  ES64L-G16RevC.01  3-Jul-2019

 ----------------------------------------------------------------------
 #t hf aug-cc-pvdz iop(5/13=1,5/36=2,99/5=2) pseudo=read geom=check gue
 ss=(read,tcheck) scf=(maxcycle=1)
 ----------------------------------------------------------------------
 -----
 title
 -----
 Structure from the checkpoint file:  "BDE49_expt_721_mol1.chk"
 Charge =  0 Multiplicity = 1

                         Standard orientation:
 ---------------------------------------------------------------------
 Center     Atomic      Atomic             Coordinates (Angstroms)
 Number     Number       Type             X           Y           Z
 ---------------------------------------------------------------------
      1          6           0        1.386436   -0.007644   -0.000000
      2          6           0        0.717956    1.208584   -0.000000
      3          6           0       -0.671908    1.219956   -0.000000
      4          6           0        0.701425   -1.210911   -0.000000
      5          6           0       -0.692316   -1.196181   -0.000000
      6          6           0       -1.382752    0.017276   -0.000000
      7          9           0        2.741011   -0.017143   -0.000000
      8          1           0        1.286438    2.130281   -0.000000
      9          1           0       -1.221727    2.152790   -0.000000
     10          1           0        1.253239   -2.142531   -0.000000
     11          1           0       -1.239228   -2.134174   -0.000000
     12          8           0       -2.747976    0.094466   -0.000000
     13          1           0       -3.117066   -0.794286    0.000001
 ---------------------------------------------------------------------

 SCF Done:  E(RHF) =  -404.863711940     A.U. after    2 cycles

 The electronic state is 1-A.
 Alpha  occ. eigenvalues --  -26.47172 -20.58780 -11.32989 -11.31772 -11.26145
 Alpha  occ. eigenvalues --  -11.26001 -11.25896 -11.25339  -1.59934  -1.50097
 Alpha  occ. eigenvalues --   -1.16603  -1.04161  -1.01643  -0.88153  -0.84591
 Alpha  occ. eigenvalues --   -0.75785  -0.74048  -0.70801  -0.66906  -0.64572
 Alpha  occ. eigenvalues --   -0.62784  -0.62103  -0.59633  -0.58902  -0.56122
 Alpha  occ. eigenvalues --   -0.51759  -0.49397  -0.36804  -0.32696
 Alpha virt. eigenvalues --    0.02841   0.03901   0.04153   0.05439   0.06313
 Alpha virt. eigenvalues --    0.08808   0.10148   0.10606   0.12114   0.12885
 Alpha virt. eigenvalues --    0.13401   0.13479   0.13810   0.13920   0.14734

 Mulliken charges:
               1
     1  C    1.077023
     2  C    0.106424
     3  C    0.302621
     4  C   -0.071328
     5  C    0.048447
     6  C    1.721083
     7  F   -0.985974
     8  H   -0.179544
     9  H   -0.208324
    10  H   -0.173031
    11  H   -0.303470
    12  O   -1.739161
    13  H    0.405233
 Sum of Mulliken charges =  -0.00000

 Dipole moment (field-independent basis, Debye):
    X=             -1.5208    Y=             -1.3078    Z=              0.0000  Tot=              2.0058

 Test job not archived.
 1\1\GINC-SE393\SP\RHF\Aug-CC-pVDZ\C6H5F1O1\OHZDE\08-Apr-2025\0\\#t hf
 aug-cc-pvdz iop(5/13=1,5/36=2,99/5=2) pseudo=read geom=check guess=(re
 ad,tcheck) scf=(maxcycle=1)\\title\\0,1\C,0,-1.386436,-0.007644,0.\C,0
 ,-0.717956,1.208584,0.\C,0,0.671908,1.219956,0.\C,0,-0.701425,-1.21091
 1,0.\C,0,0.692316,-1.196181,0.\C,0,1.382752,0.017276,0.\F,0,-2.741011,
 -0.017142,0.\H,0,-1.286437,2.130281,0.\H,0,1.221728,2.15279,0.\H,0,-1.
 253239,-2.142531,0.\H,0,1.239228,-2.134174,0.\O,0,2.747976,0.094465,0.
 \H,0,3.117066,-0.794287,-0.000001\\Version=ES64L-G16RevC.01\State=1-A\

 Normal termination of Gaussian 16 at Tue Apr  8 23:11:17 2025.
