 Gaussian 16, Revision C.01,

 ----------------------------------------------------------------------
 #t hf aug-cc-pvdz symm=none int=(grid=ultrafine) guess=(read,tcheck) s
 table=opt
 ----------------------------------------------------------------------
 -----
 title
 -----
 Symbolic Z-matrix:
 Charge =  0 Multiplicity = 2

 SCF Done:  E(UHF) =  -611.427773193     A.U. after   16 cycles
 Normal termination of Gaussian 16 at Wed Apr  9 00:13:29 2025.
 Gaussian 16:  ES64L-G16RevC.01  3-Jul-2019

 ----------------------------------------------------------------------
 #t hf aug-cc-pvdz iop(5/13=1,5/36=2,99/5=2) pseudo=read geom=check gue
 ss=(read,tcheck) scf=(maxcycle=1)
 ----------------------------------------------------------------------
 -----
 title
 -----
 Structure from the checkpoint file:  "BDE49_nonexpt_2413_mol2.chk"
 Charge =  0 Multiplicity = 2

                         Standard orientation:
 ---------------------------------------------------------------------
 Center     Atomic      Atomic             Coordinates (Angstroms)
 Number     Number       Type             X           Y           Z
 ---------------------------------------------------------------------
      1         14           0       -2.477232    0.076788   -0.049022
      2          8           0       -0.857070    0.588757   -0.044080
      3          1           0       -2.782219   -0.684463    1.187787
      4          1           0       -3.203778    1.372088   -0.063745
      5          6           0        0.109680   -0.372438   -0.032813
      6          8           0       -0.178528   -1.556483   -0.052199
      7          7           0        1.369488    0.132535   -0.001531
      8          6           0        1.679781    1.554244    0.037306
      9          1           0        0.762978    2.133833    0.010224
     10          1           0        2.303076    1.827960   -0.821137
     11          1           0        2.230976    1.798001    0.952596
     12          6           0        2.496524   -0.788287    0.017811
     13          1           0        2.119081   -1.806496   -0.021891
     14          1           0        3.084254   -0.654762    0.932654
     15          1           0        3.149329   -0.608243   -0.843048
 ---------------------------------------------------------------------

 SCF Done:  E(UHF) =  -611.781744585     A.U. after    2 cycles

 The electronic state is 2-A.
 Alpha  occ. eigenvalues --  -69.57683 -20.57823 -20.51473 -15.53470 -11.41407
 Alpha  occ. eigenvalues --  -11.27730 -11.27089  -6.24269  -4.00133  -3.99381
 Alpha  occ. eigenvalues --   -3.99232  -1.53241  -1.43423  -1.26140  -0.99014
 Alpha  occ. eigenvalues --   -0.97637  -0.81840  -0.74893  -0.71691  -0.69303
 Alpha  occ. eigenvalues --   -0.67939  -0.62103  -0.61464  -0.58032  -0.57291
 Alpha  occ. eigenvalues --   -0.57075  -0.54866  -0.50548  -0.48025  -0.44710
 Alpha  occ. eigenvalues --   -0.41122  -0.34582
 Alpha virt. eigenvalues --    0.03320   0.04325   0.04669   0.04825   0.05731
 Alpha virt. eigenvalues --    0.06221   0.06433   0.07422   0.07499   0.09305
 Alpha virt. eigenvalues --    0.10172   0.10923   0.12792   0.13292   0.13850

  Beta  occ. eigenvalues --  -69.57105 -20.57578 -20.51474 -15.53451 -11.41407
  Beta  occ. eigenvalues --  -11.27731 -11.27091  -6.23356  -3.99020  -3.98866
  Beta  occ. eigenvalues --   -3.98025  -1.52853  -1.43173  -1.26083  -0.99002
  Beta  occ. eigenvalues --   -0.97550  -0.80916  -0.74696  -0.70501  -0.69064
  Beta  occ. eigenvalues --   -0.66121  -0.61715  -0.60447  -0.57953  -0.57281
  Beta  occ. eigenvalues --   -0.56371  -0.54408  -0.49416  -0.46897  -0.44528
  Beta  occ. eigenvalues --   -0.41009
  Beta virt. eigenvalues --    0.02862   0.03338   0.04468   0.04767   0.04845
  Beta virt. eigenvalues --    0.05852   0.06375   0.06989   0.07563   0.08778
  Beta virt. eigenvalues --    0.09763   0.10438   0.11193   0.12879   0.13766

 Mulliken charges and spin densities:
               1          2
     1  Si   0.911539   0.948258
     2  O   -1.626664  -0.041981
     3  H   -0.117414   0.059197
     4  H   -0.147839   0.039815
     5  C    0.836882   0.017443
     6  O   -1.081091  -0.011522
     7  N    0.882925  -0.005142
     8  C   -0.280109  -0.000342
     9  H    0.046359  -0.002464
    10  H    0.156591  -0.000626
    11  H    0.165692   0.000834
    12  C   -0.149209  -0.003689
    13  H    0.011843   0.000119
    14  H    0.196019   0.000019
    15  H    0.194474   0.000081
 Sum of Mulliken charges =  -0.00000   1.00000

 Dipole moment (field-independent basis, Debye):
    X=              1.6474    Y=              2.2725    Z=              0.1407  Tot=              2.8103
                          Isotropic Fermi Contact Couplings
        Atom                 a.u.       MegaHertz       Gauss      10(-4) cm-1
     1  Si(29)             0.74964    -666.22501    -237.72565    -222.22874
     2  O(17)              0.02280     -13.82343      -4.93255      -4.61100
     3  H(1)               0.01416      63.29330      22.58462      21.11237
     4  H(1)               0.01368      61.13038      21.81284      20.39090
     5  C(13)             -0.00132      -1.48263      -0.52904      -0.49455
     6  O(17)              0.00179      -1.08325      -0.38653      -0.36133
     7  N(14)              0.00290       0.93792       0.33467       0.31286
     8  C(13)             -0.00023      -0.26169      -0.09338      -0.08729

 1\1\GINC-SE166\SP\UHF\Aug-CC-pVDZ\C3H8N1O2Si1(2)\OHZDE\09-Apr-2025\0\\
 #t hf aug-cc-pvdz iop(5/13=1,5/36=2,99/5=2) pseudo=read geom=check gue
 ss=(read,tcheck) scf=(maxcycle=1)\\title\\0,2\Si,0,-2.477232,0.076788,
 -0.049022\O,0,-0.85707,0.588757,-0.04408\H,0,-2.782219,-0.684463,1.187
 787\H,0,-3.203778,1.372088,-0.063745\C,0,0.10968,-0.372438,-0.032813\O
 ,0,-0.178528,-1.556483,-0.052199\N,0,1.369488,0.132535,-0.001531\C,0,1
 .679781,1.554244,0.037306\H,0,0.762978,2.133833,0.010224\H,0,2.303076,
 1.82796,-0.821137\H,0,2.230976,1.798001,0.952596\C,0,2.496524,-0.78828

 Normal termination of Gaussian 16 at Wed Apr  9 00:13:36 2025.
