 Gaussian 16, Revision C.01,

 ----------------------------------------------------------------------
 #t hf aug-cc-pvdz symm=none int=(grid=ultrafine) guess=(read,tcheck) s
 table=opt
 ----------------------------------------------------------------------
 -----
 title
 -----
 Symbolic Z-matrix:
 Charge =  0 Multiplicity = 2

 SCF Done:  E(UHF) =  -995.025231636     A.U. after   24 cycles
 Normal termination of Gaussian 16 at Tue Apr  8 23:58:26 2025.
 Gaussian 16:  ES64L-G16RevC.01  3-Jul-2019

 ----------------------------------------------------------------------
 #t hf aug-cc-pvdz iop(5/13=1,5/36=2,99/5=2) pseudo=read geom=check gue
 ss=(read,tcheck) scf=(maxcycle=1)
 ----------------------------------------------------------------------
 -----
 title
 -----
 Structure from the checkpoint file:  "BDE49_nonexpt_206_mol2.chk"
 Charge =  0 Multiplicity = 2

                         Standard orientation:
 ---------------------------------------------------------------------
 Center     Atomic      Atomic             Coordinates (Angstroms)
 Number     Number       Type             X           Y           Z
 ---------------------------------------------------------------------
      1         17           0       -2.232290   -0.268150   -0.129111
      2          5           0       -0.775347    0.138937    0.669460
      3          6           0        0.610448    0.566204    0.117594
      4          8           0        0.869787    1.722972   -0.125458
      5         16           0        1.880805   -0.722862   -0.074140
      6          1           0        1.111806   -1.751347    0.331925
 ---------------------------------------------------------------------

 SCF Done:  E(UHF) =  -995.285873438     A.U. after    2 cycles

 The electronic state is 2-A.
 Alpha  occ. eigenvalues -- -105.61485 -93.99165 -20.58171 -11.38285 -10.66491
 Alpha  occ. eigenvalues --   -8.27314  -7.83396  -7.83115  -7.83038  -7.71853
 Alpha  occ. eigenvalues --   -6.25146  -6.25000  -6.24745  -1.51745  -1.12774
 Alpha  occ. eigenvalues --   -1.07347  -0.86705  -0.72819  -0.66185  -0.64617
 Alpha  occ. eigenvalues --   -0.60983  -0.55356  -0.54853  -0.52889  -0.44421
 Alpha  occ. eigenvalues --   -0.41819  -0.37080
 Alpha virt. eigenvalues --    0.02529   0.03709   0.04914   0.05175   0.05723
 Alpha virt. eigenvalues --    0.07287   0.09487   0.09826   0.11421   0.12334
 Alpha virt. eigenvalues --    0.13655   0.14174   0.15812   0.15997   0.17325

  Beta  occ. eigenvalues -- -105.61423 -93.99167 -20.57253 -11.38559 -10.66419
  Beta  occ. eigenvalues --   -8.27317  -7.83345  -7.83077  -7.82828  -7.69875
  Beta  occ. eigenvalues --   -6.25114  -6.25003  -6.24778  -1.49766  -1.11857
  Beta  occ. eigenvalues --   -1.07261  -0.84860  -0.71529  -0.65217  -0.63614
  Beta  occ. eigenvalues --   -0.56782  -0.55174  -0.53032  -0.51876  -0.42254
  Beta  occ. eigenvalues --   -0.40413
  Beta virt. eigenvalues --    0.02045   0.03709   0.04876   0.05293   0.05500
  Beta virt. eigenvalues --    0.07090   0.07799   0.09758   0.11327   0.11885
  Beta virt. eigenvalues --    0.13439   0.13694   0.14529   0.16096   0.16767

 Mulliken charges and spin densities:
               1          2
     1  Cl  -0.171337   0.016159
     2  B    0.263857   0.948275
     3  C    0.615951  -0.194630
     4  O   -1.036775   0.227473
     5  S    0.003479   0.006633
     6  H    0.324825  -0.003910
 Sum of Mulliken charges =   0.00000   1.00000

 Dipole moment (field-independent basis, Debye):
    X=             -1.3232    Y=             -2.4507    Z=              0.5984  Tot=              2.8487
                          Isotropic Fermi Contact Couplings
        Atom                 a.u.       MegaHertz       Gauss      10(-4) cm-1
     1  Cl(35)             0.05820      25.51970       9.10606       8.51246
     2  B(11)              0.30667     439.87016     156.95661     146.72489
     3  C(13)              0.00323       3.62651       1.29403       1.20967
     4  O(17)              0.06761     -40.98675     -14.62509     -13.67171
     5  S(33)             -0.00646      -2.22031      -0.79226      -0.74061
     6  H(1)              -0.00035      -1.55860      -0.55615      -0.51989
 --------------------------------------------------------
       Center         ----  Spin Dipole Couplings  ----

 Normal termination of Gaussian 16 at Tue Apr  8 23:58:28 2025.
