 Gaussian 16, Revision C.01,

 ----------------------------------------------------------------------
 #t hf aug-cc-pvdz symm=none int=(grid=ultrafine) guess=(read,tcheck) s
 table=opt
 ----------------------------------------------------------------------
 -----
 title
 -----
 Symbolic Z-matrix:
 Charge =  0 Multiplicity = 2

 SCF Done:  E(UHF) =  -515.404086372     A.U. after   14 cycles

 1\1\GINC-SE177\Stability\UHF\Aug-CC-pVDZ\H3O3Si1\OHZDE\08-Apr-2025\0\\
 #t hf aug-cc-pvdz symm=none int=(grid=ultrafine) guess=(read,tcheck) s
 table=opt\\title\\0,2\Si,0,0.000004,-0.000006,0.371708\O,0,-1.222152,-
 0.937579,-0.215502\O,0,1.423059,-0.589603,-0.215513\O,0,-0.200908,1.52
 7196,-0.215488\H,0,-1.197683,-1.876402,-0.010623\H,0,2.22386,-0.098991
 ,-0.010621\H,0,-1.026221,1.975373,-0.01065\\Version=ES64L-G16RevC.01\H
 F=-515.4040864\S2=0.753874\S2-1=0.\S2A=0.75001\RMSD=6.758e-09\Dipole=-
 0.0000326,-0.0000298,0.6775046\Quadrupole=1.543829,1.5435629,-3.087391

 Normal termination of Gaussian 16 at Tue Apr  8 22:45:30 2025.
 Gaussian 16:  ES64L-G16RevC.01  3-Jul-2019

 ----------------------------------------------------------------------
 #t hf aug-cc-pvdz iop(5/13=1,5/36=2,99/5=2) pseudo=read geom=check gue
 ss=(read,tcheck) scf=(maxcycle=1)
 ----------------------------------------------------------------------
 -----
 title
 -----
 Structure from the checkpoint file:  "BDE49_expt_1541_mol2.chk"
 Charge =  0 Multiplicity = 2

                         Standard orientation:
 ---------------------------------------------------------------------
 Center     Atomic      Atomic             Coordinates (Angstroms)
 Number     Number       Type             X           Y           Z
 ---------------------------------------------------------------------
      1         14           0        0.000004   -0.000006    0.371708
      2          8           0       -1.229979   -0.927287   -0.215502
      3          8           0        1.418060   -0.601528   -0.215513
      4          8           0       -0.188082    1.528828   -0.215488
      5          1           0       -1.213391   -1.866283   -0.010623
      6          1           0        2.222951   -0.117655   -0.010621
      7          1           0       -1.009604    1.983917   -0.010650
 ---------------------------------------------------------------------

 SCF Done:  E(UHF) =  -515.654457254     A.U. after    2 cycles

 The electronic state is 2-A.
 Alpha  occ. eigenvalues --  -69.61242 -20.55907 -20.55907 -20.55903  -6.27285
 Alpha  occ. eigenvalues --   -4.02914  -4.02435  -4.02435  -1.47145  -1.43738
 Alpha  occ. eigenvalues --   -1.43737  -0.79511  -0.70964  -0.70963  -0.61744
 Alpha  occ. eigenvalues --   -0.56753  -0.56753  -0.53517  -0.51835  -0.51835
 Alpha  occ. eigenvalues --   -0.34180
 Alpha virt. eigenvalues --    0.03822   0.04777   0.04777   0.06228   0.07786
 Alpha virt. eigenvalues --    0.07786   0.12577   0.17156   0.17157   0.18898
 Alpha virt. eigenvalues --    0.19624   0.19624   0.23619   0.23619   0.23743

  Beta  occ. eigenvalues --  -69.60712 -20.55457 -20.55457 -20.55453  -6.26384
  Beta  occ. eigenvalues --   -4.02123  -4.02123  -4.01223  -1.45881  -1.42469
  Beta  occ. eigenvalues --   -1.42469  -0.78015  -0.70314  -0.70313  -0.57470
  Beta  occ. eigenvalues --   -0.55005  -0.55004  -0.52792  -0.50414  -0.50414
  Beta virt. eigenvalues --    0.02355   0.04950   0.04950   0.05956   0.07872
  Beta virt. eigenvalues --    0.07872   0.07947   0.15422   0.18337   0.18337
  Beta virt. eigenvalues --    0.19491   0.20277   0.20277   0.24037   0.24997

 Mulliken charges and spin densities:
               1          2
     1  Si   2.628408   0.925778
     2  O   -1.273618   0.033577
     3  O   -1.273611   0.033578
     4  O   -1.273626   0.033574
     5  H    0.397484  -0.008837
     6  H    0.397481  -0.008836
     7  H    0.397483  -0.008833
 Sum of Mulliken charges =   0.00000   1.00000

 Dipole moment (field-independent basis, Debye):
    X=             -0.0001    Y=             -0.0001    Z=              1.5736  Tot=              1.5736
                          Isotropic Fermi Contact Couplings
        Atom                 a.u.       MegaHertz       Gauss      10(-4) cm-1
     1  Si(29)             0.94211    -837.27777    -298.76153    -279.28580
     2  O(17)              0.07048     -42.72189     -15.24423     -14.25049
     3  O(17)              0.07048     -42.72292     -15.24460     -14.25083
     4  O(17)              0.07048     -42.72256     -15.24447     -14.25071
     5  H(1)              -0.00198      -8.82867      -3.15029      -2.94493
     6  H(1)              -0.00198      -8.82881      -3.15034      -2.94497
     7  H(1)              -0.00198      -8.82848      -3.15022      -2.94486
 --------------------------------------------------------

 Normal termination of Gaussian 16 at Tue Apr  8 22:45:33 2025.
