 Gaussian 16, Revision C.01,

 ----------------------------------------------------------------------
 #t hf aug-cc-pvdz symm=none int=(grid=ultrafine) guess=(read,tcheck) s
 table=(opt,rrhf)
 ----------------------------------------------------------------------
 -----
 title
 -----
 Symbolic Z-matrix:
 Charge =  0 Multiplicity = 1

 SCF Done:  E(RHF) =  -769.016327699     A.U. after   13 cycles
 Normal termination of Gaussian 16 at Wed Apr  9 00:10:35 2025.
 Gaussian 16:  ES64L-G16RevC.01  3-Jul-2019

 ----------------------------------------------------------------------
 #t hf aug-cc-pvdz iop(5/13=1,5/36=2,99/5=2) pseudo=read geom=check gue
 ss=(read,tcheck) scf=(maxcycle=1)
 ----------------------------------------------------------------------
 -----
 title
 -----
 Structure from the checkpoint file:  "BDE49_nonexpt_2361_mol1.chk"
 Charge =  0 Multiplicity = 1

                         Standard orientation:
 ---------------------------------------------------------------------
 Center     Atomic      Atomic             Coordinates (Angstroms)
 Number     Number       Type             X           Y           Z
 ---------------------------------------------------------------------
      1         14           0       -0.214416    1.112884    0.231705
      2         14           0       -1.827372   -0.568734   -0.134589
      3          8           0        1.322713    0.714784   -0.423836
      4          1           0       -0.032372    1.400951    1.671947
      5          1           0       -0.528330    2.367334   -0.481496
      6          6           0        1.880358   -0.481146   -0.205019
      7          1           0       -3.160034    0.081690   -0.215472
      8          1           0       -1.839081   -1.550635    0.969623
      9          1           0       -1.559526   -1.250580   -1.422273
     10          8           0        1.371736   -1.368727    0.427874
     11          1           0        2.866639   -0.548446   -0.684136
 ---------------------------------------------------------------------

 SCF Done:  E(RHF) =  -769.267377941     A.U. after    2 cycles

 The electronic state is 1-A.
 Alpha  occ. eigenvalues --  -69.57452 -69.53195 -20.59074 -20.55642 -11.40870
 Alpha  occ. eigenvalues --   -6.24102  -6.20382  -3.99545  -3.99397  -3.99376
 Alpha  occ. eigenvalues --   -3.95742  -3.95735  -3.95725  -1.54677  -1.45873
 Alpha  occ. eigenvalues --   -0.90066  -0.77175  -0.74348  -0.71428  -0.65552
 Alpha  occ. eigenvalues --   -0.63673  -0.55538  -0.51731  -0.49544  -0.49259
 Alpha  occ. eigenvalues --   -0.47549  -0.46296  -0.41747
 Alpha virt. eigenvalues --    0.03538   0.03969   0.04370   0.05742   0.06670
 Alpha virt. eigenvalues --    0.07269   0.07601   0.07689   0.08949   0.09718
 Alpha virt. eigenvalues --    0.10521   0.10579   0.11336   0.12694   0.13088

 Mulliken charges:
               1
     1  Si   1.109878
     2  Si   0.254054
     3  O   -1.410843
     4  H   -0.131348
     5  H   -0.155179
     6  C    1.414691
     7  H   -0.143586
     8  H   -0.074253
     9  H   -0.078472
    10  O   -0.871974
    11  H    0.087031
 Sum of Mulliken charges =   0.00000

 Dipole moment (field-independent basis, Debye):
    X=              0.1405    Y=              1.3275    Z=             -0.7372  Tot=              1.5249

 Test job not archived.
 1\1\GINC-SE402\SP\RHF\Aug-CC-pVDZ\C1H6O2Si2\OHZDE\09-Apr-2025\0\\#t hf
  aug-cc-pvdz iop(5/13=1,5/36=2,99/5=2) pseudo=read geom=check guess=(r
 ead,tcheck) scf=(maxcycle=1)\\title\\0,1\Si,0,-0.214416,1.112884,0.231
 705\Si,0,-1.827372,-0.568734,-0.134589\O,0,1.322713,0.714784,-0.423836
 \H,0,-0.032372,1.400951,1.671947\H,0,-0.52833,2.367334,-0.481496\C,0,1
 .880358,-0.481146,-0.205019\H,0,-3.160034,0.08169,-0.215472\H,0,-1.839
 081,-1.550635,0.969623\H,0,-1.559526,-1.25058,-1.422273\O,0,1.371736,-
 1.368727,0.427874\H,0,2.866639,-0.548446,-0.684136\\Version=ES64L-G16R

 Normal termination of Gaussian 16 at Wed Apr  9 00:10:45 2025.
