 Gaussian 16, Revision C.01,

 ----------------------------------------------------------------------
 #t hf aug-cc-pvdz symm=none int=(grid=ultrafine) guess=(read,tcheck) s
 table=(opt,rrhf)
 ----------------------------------------------------------------------
 -----
 title
 -----
 Symbolic Z-matrix:
 Charge =  0 Multiplicity = 1

 SCF Done:  E(RHF) =  -471.051525844     A.U. after   14 cycles
 Normal termination of Gaussian 16 at Tue Apr  8 23:30:06 2025.
 Gaussian 16:  ES64L-G16RevC.01  3-Jul-2019

 ----------------------------------------------------------------------
 #t hf aug-cc-pvdz iop(5/13=1,5/36=2,99/5=2) pseudo=read geom=check gue
 ss=(read,tcheck) scf=(maxcycle=1)
 ----------------------------------------------------------------------
 -----
 title
 -----
 Structure from the checkpoint file:  "BDE49_nonexpt_135_mol1.chk"
 Charge =  0 Multiplicity = 1

                         Standard orientation:
 ---------------------------------------------------------------------
 Center     Atomic      Atomic             Coordinates (Angstroms)
 Number     Number       Type             X           Y           Z
 ---------------------------------------------------------------------
      1          5           0       -2.668512   -0.147507    0.187949
      2          5           0       -1.216234   -0.883650    0.012614
      3         15           0        0.369309   -0.047556   -0.456551
      4          6           0        0.461622    1.690177    0.176565
      5          1           0        0.488457    1.737497    1.267269
      6          1           0       -0.410030    2.243610   -0.179278
      7          1           0        1.354724    2.178477   -0.219356
      8          6           0        1.819220   -0.897870    0.319022
      9          1           0        1.766354   -1.961874    0.082346
     10          1           0        1.840771   -0.777950    1.404161
     11          1           0        2.746237   -0.499147   -0.098858
     12          1           0       -1.125221   -2.077838    0.044163
     13          1           0       -3.323594    0.289925   -0.711713
     14          1           0       -3.138659   -0.017414    1.283192
 ---------------------------------------------------------------------

 SCF Done:  E(RHF) =  -471.241599175     A.U. after    2 cycles

 The electronic state is 1-A.
 Alpha  occ. eigenvalues --  -84.25211 -11.24322 -11.24236  -7.58259  -7.57541
 Alpha  occ. eigenvalues --   -6.72640  -4.25275  -4.25138  -4.24362  -1.01359
 Alpha  occ. eigenvalues --   -0.94673  -0.80147  -0.71403  -0.61762  -0.59229
 Alpha  occ. eigenvalues --   -0.58267  -0.56784  -0.56516  -0.49311  -0.48024
 Alpha  occ. eigenvalues --   -0.44151  -0.42173  -0.29660
 Alpha virt. eigenvalues --    0.02929   0.03588   0.03866   0.04221   0.05106
 Alpha virt. eigenvalues --    0.05657   0.06102   0.06496   0.07365   0.08232
 Alpha virt. eigenvalues --    0.08318   0.08598   0.09821   0.10313   0.11454

 Mulliken charges:
               1
     1  B   -0.694011
     2  B    0.264423
     3  P    0.833036
     4  C   -0.916686
     5  H    0.104905
     6  H    0.045928
     7  H    0.092780
     8  C   -0.873275
     9  H    0.036361
    10  H    0.108799
    11  H    0.098972
    12  H    0.236739
    13  H    0.353378
    14  H    0.308652
 Sum of Mulliken charges =   0.00000

 Dipole moment (field-independent basis, Debye):
    X=              1.3213    Y=              0.5141    Z=              0.8919  Tot=              1.6750

 Test job not archived.
 1\1\GINC-SE049\SP\RHF\Aug-CC-pVDZ\C2H9B2P1\OHZDE\08-Apr-2025\0\\#t hf
 aug-cc-pvdz iop(5/13=1,5/36=2,99/5=2) pseudo=read geom=check guess=(re
 ad,tcheck) scf=(maxcycle=1)\\title\\0,1\B,0,-2.668512,-0.147507,0.1879
 49\B,0,-1.216234,-0.88365,0.012614\P,0,0.369309,-0.047556,-0.456551\C,
 0,0.461622,1.690177,0.176565\H,0,0.488457,1.737497,1.267269\H,0,-0.410
 03,2.24361,-0.179278\H,0,1.354724,2.178477,-0.219356\C,0,1.81922,-0.89
 787,0.319022\H,0,1.766354,-1.961874,0.082346\H,0,1.840771,-0.77795,1.4
 04161\H,0,2.746237,-0.499146,-0.098858\H,0,-1.125221,-2.077838,0.04416

 Normal termination of Gaussian 16 at Tue Apr  8 23:30:10 2025.
