 Gaussian 16, Revision C.01,

 ----------------------------------------------------------------------
 #t hf aug-cc-pvdz symm=none int=(grid=ultrafine) guess=(read,tcheck) s
 table=(opt,rrhf)
 ----------------------------------------------------------------------
 -----
 title
 -----
 Symbolic Z-matrix:
 Charge =  0 Multiplicity = 1

 SCF Done:  E(RHF) =  -1380.49677906     A.U. after   18 cycles
 Normal termination of Gaussian 16 at Tue Apr  8 23:28:28 2025.
 Gaussian 16:  ES64L-G16RevC.01  3-Jul-2019

 ----------------------------------------------------------------------
 #t hf aug-cc-pvdz iop(5/13=1,5/36=2,99/5=2) pseudo=read geom=check gue
 ss=(read,tcheck) scf=(maxcycle=1)
 ----------------------------------------------------------------------
 -----
 title
 -----
 Structure from the checkpoint file:  "BDE49_nonexpt_1265_mol1.chk"
 Charge =  0 Multiplicity = 1

                         Standard orientation:
 ---------------------------------------------------------------------
 Center     Atomic      Atomic             Coordinates (Angstroms)
 Number     Number       Type             X           Y           Z
 ---------------------------------------------------------------------
      1          6           0       -0.859672   -0.427732   -0.286886
      2          6           0       -1.834435   -0.140328   -1.249408
      3          1           0       -1.563533   -0.107307   -2.298794
      4          6           0       -3.150798    0.103822   -0.862744
      5          1           0       -3.900547    0.326291   -1.613153
      6          6           0       -3.500189    0.051686    0.483452
      7          1           0       -4.525052    0.236468    0.784729
      8          6           0       -2.533555   -0.240725    1.447019
      9          1           0       -2.806062   -0.280020    2.495386
     10          6           0       -1.217875   -0.475893    1.067216
     11          1           0       -0.471993   -0.706123    1.818917
     12         15           0        0.844636   -0.720683   -0.904168
     13         17           0        1.404762   -2.478354    0.082953
     14          6           0        1.768886    0.498750    0.229498
     15          8           0        2.621740    0.197612    1.017562
     16          6           0        1.441221    1.993391    0.010314
     17          9           0        0.861717    2.174821   -1.214576
     18          9           0        0.551878    2.392103    0.960547
     19          1           0        2.338915    2.611923    0.080234
 ---------------------------------------------------------------------

 SCF Done:  E(RHF) =  -1381.17753810     A.U. after    2 cycles

 The electronic state is 1-A.
 Alpha  occ. eigenvalues -- -105.56829 -84.35190 -26.50623 -26.50155 -20.59068
 Alpha  occ. eigenvalues --  -11.44855 -11.38057 -11.27381 -11.27173 -11.26940
 Alpha  occ. eigenvalues --  -11.26792 -11.26147 -11.26124 -10.61694  -7.78609
 Alpha  occ. eigenvalues --   -7.78233  -7.78224  -6.81795  -4.34394  -4.34045
 Alpha  occ. eigenvalues --   -4.33696  -1.66905  -1.60152  -1.52230  -1.17893
 Alpha  occ. eigenvalues --   -1.08710  -1.04048  -1.03677  -1.02321  -0.90946
 Alpha  occ. eigenvalues --   -0.85872  -0.84912  -0.79995  -0.78946  -0.76662
 Alpha  occ. eigenvalues --   -0.73868  -0.71546  -0.66968  -0.66795  -0.65955
 Alpha  occ. eigenvalues --   -0.64680  -0.62936  -0.62306  -0.62032  -0.59063
 Alpha  occ. eigenvalues --   -0.58074  -0.56018  -0.53666  -0.52868  -0.51516
 Alpha  occ. eigenvalues --   -0.49199  -0.47523  -0.43258  -0.37755  -0.36616
 Alpha  occ. eigenvalues --   -0.35394
 Alpha virt. eigenvalues --    0.03019   0.03545   0.03837   0.04508   0.05689
 Alpha virt. eigenvalues --    0.06162   0.06436   0.06933   0.08133   0.08911
 Alpha virt. eigenvalues --    0.09294   0.09813   0.10388   0.10799   0.11915

 Mulliken charges:
               1
     1  C    0.674941
     2  C   -0.458794
     3  H   -0.249619
     4  C    0.364342
     5  H   -0.214632
     6  C    0.249001
     7  H   -0.206689
     8  C    0.332147
     9  H   -0.225853
    10  C    0.154977
    11  H   -0.377572
    12  P    0.928095
    13  Cl  -0.497313
    14  C    0.542549
    15  O   -1.265540
    16  C    1.614864
    17  F   -0.733256
    18  F   -0.719710
    19  H    0.088061
 Sum of Mulliken charges =  -0.00000

 Dipole moment (field-independent basis, Debye):
    X=             -2.5300    Y=              1.6574    Z=             -1.0594  Tot=              3.2047

 Test job not archived.
 1\1\GINC-SE338\SP\RHF\Aug-CC-pVDZ\C8H6Cl1F2O1P1\OHZDE\08-Apr-2025\0\\#
 t hf aug-cc-pvdz iop(5/13=1,5/36=2,99/5=2) pseudo=read geom=check gues
 s=(read,tcheck) scf=(maxcycle=1)\\title\\0,1\C,0,-0.859672,-0.427732,-
 0.286886\C,0,-1.834435,-0.140328,-1.249408\H,0,-1.563533,-0.107307,-2.
 298794\C,0,-3.150798,0.103822,-0.862744\H,0,-3.900547,0.326291,-1.6131
 53\C,0,-3.500189,0.051686,0.483452\H,0,-4.525052,0.236467,0.784729\C,0
 ,-2.533555,-0.240725,1.447019\H,0,-2.806062,-0.28002,2.495386\C,0,-1.2
 17875,-0.475893,1.067216\H,0,-0.471993,-0.706123,1.818917\P,0,0.844636

 Normal termination of Gaussian 16 at Tue Apr  8 23:28:41 2025.
