 Gaussian 16, Revision C.01,

 ----------------------------------------------------------------------
 #t hf aug-cc-pvdz symm=none int=(grid=ultrafine) guess=(read,tcheck) s
 table=opt
 ----------------------------------------------------------------------
 -----
 title
 -----
 Symbolic Z-matrix:
 Charge =  0 Multiplicity = 2

 SCF Done:  E(UHF) =  -627.924003755     A.U. after   18 cycles
 Normal termination of Gaussian 16 at Tue Apr  8 23:05:12 2025.
 Gaussian 16:  ES64L-G16RevC.01  3-Jul-2019

 ----------------------------------------------------------------------
 #t hf aug-cc-pvdz iop(5/13=1,5/36=2,99/5=2) pseudo=read geom=check gue
 ss=(read,tcheck) scf=(maxcycle=1)
 ----------------------------------------------------------------------
 -----
 title
 -----
 Structure from the checkpoint file:  "BDE49_expt_385_mol2.chk"
 Charge =  0 Multiplicity = 2

                         Standard orientation:
 ---------------------------------------------------------------------
 Center     Atomic      Atomic             Coordinates (Angstroms)
 Number     Number       Type             X           Y           Z
 ---------------------------------------------------------------------
      1          8           0        0.166833    1.306327    0.087671
      2          6           0       -1.225378    1.159436   -0.192300
      3          6           0       -1.645553   -0.222980    0.311454
      4          1           0       -1.393581    1.241765   -1.271951
      5          1           0       -1.741829    1.969376    0.323562
      6         16           0       -0.206152   -1.286045   -0.099470
      7          1           0       -2.538101   -0.591551   -0.193173
      8          1           0       -1.802406   -0.229352    1.390842
      9          6           0        0.842691    0.162355   -0.268175
     10          6           0        2.275955    0.128548    0.136501
     11          1           0        2.393960    0.118721    1.230854
     12          1           0        2.790853    1.012101   -0.249871
     13          1           0        2.768571   -0.759102   -0.264984
 ---------------------------------------------------------------------

 SCF Done:  E(UHF) =  -628.221743068     A.U. after    2 cycles

 The electronic state is 2-A.
 Alpha  occ. eigenvalues --  -93.94947 -20.57415 -11.31414 -11.30592 -11.27845
 Alpha  occ. eigenvalues --  -11.23651  -8.23099  -6.20887  -6.20759  -6.20585
 Alpha  occ. eigenvalues --   -1.50402  -1.09459  -1.06073  -0.94638  -0.84684
 Alpha  occ. eigenvalues --   -0.78587  -0.69568  -0.67732  -0.63781  -0.60078
 Alpha  occ. eigenvalues --   -0.58050  -0.55423  -0.54043  -0.50404  -0.49185
 Alpha  occ. eigenvalues --   -0.46263  -0.39970  -0.29573
 Alpha virt. eigenvalues --    0.03510   0.04276   0.04355   0.04776   0.06347
 Alpha virt. eigenvalues --    0.06553   0.07002   0.08847   0.10750   0.12240
 Alpha virt. eigenvalues --    0.12470   0.13499   0.14676   0.15232   0.15721

  Beta  occ. eigenvalues --  -93.94898 -20.57005 -11.30604 -11.28788 -11.27846
  Beta  occ. eigenvalues --  -11.23831  -8.23037  -6.20893  -6.20763  -6.20332
  Beta  occ. eigenvalues --   -1.49010  -1.08804  -1.03691  -0.94411  -0.84387
  Beta  occ. eigenvalues --   -0.75200  -0.68162  -0.67193  -0.60531  -0.58481
  Beta  occ. eigenvalues --   -0.56689  -0.54876  -0.53102  -0.48800  -0.47113
  Beta  occ. eigenvalues --   -0.45382  -0.36378
  Beta virt. eigenvalues --    0.03505   0.04227   0.04356   0.04770   0.06329
  Beta virt. eigenvalues --    0.06451   0.07033   0.08877   0.10775   0.12113
  Beta virt. eigenvalues --    0.12476   0.12589   0.13873   0.15024   0.15352

 Mulliken charges and spin densities:
               1          2
     1  O   -1.347780   0.040158
     2  C    0.613987  -0.020156
     3  C   -0.780440   0.007867
     4  H    0.176453  -0.010578
     5  H    0.020707   0.001083
     6  S    0.480602  -0.007219
     7  H    0.184686   0.002371
     8  H    0.149156  -0.003463
     9  C    0.397990   1.122778
    10  C   -0.487092  -0.178734
    11  H    0.243993   0.046366
    12  H    0.171228   0.001128
    13  H    0.176509  -0.001602
 Sum of Mulliken charges =  -0.00000   1.00000

 Dipole moment (field-independent basis, Debye):
    X=             -1.3607    Y=              0.7858    Z=              0.2557  Tot=              1.5920
                          Isotropic Fermi Contact Couplings
        Atom                 a.u.       MegaHertz       Gauss      10(-4) cm-1
     1  O(17)              0.03808     -23.08508      -8.23733      -7.70035
     2  C(13)             -0.00170      -1.91667      -0.68391      -0.63933
     3  C(13)             -0.00087      -0.97671      -0.34851      -0.32579
     4  H(1)               0.00007       0.32619       0.11639       0.10881
     5  H(1)              -0.00070      -3.11652      -1.11205      -1.03956
     6  S(33)              0.05570      19.13242       6.82692       6.38189
     7  H(1)              -0.00061      -2.74844      -0.98071      -0.91678
     8  H(1)               0.00106       4.74390       1.69274       1.58240

 Normal termination of Gaussian 16 at Tue Apr  8 23:05:17 2025.
