 Gaussian 16, Revision C.01,

 ----------------------------------------------------------------------
 #t hf aug-cc-pvdz symm=none int=(grid=ultrafine) guess=(read,tcheck) s
 table=(opt,rrhf)
 ----------------------------------------------------------------------
 -----
 title
 -----
 Symbolic Z-matrix:
 Charge =  0 Multiplicity = 1

 SCF Done:  E(RHF) =  -820.009676761     A.U. after   17 cycles
 Normal termination of Gaussian 16 at Wed Apr  9 00:42:33 2025.
 Gaussian 16:  ES64L-G16RevC.01  3-Jul-2019

 ----------------------------------------------------------------------
 #t hf aug-cc-pvdz iop(5/13=1,5/36=2,99/5=2) pseudo=read geom=check gue
 ss=(read,tcheck) scf=(maxcycle=1)
 ----------------------------------------------------------------------
 -----
 title
 -----
 Structure from the checkpoint file:  "BDE49_nonexpt_708_mol1.chk"
 Charge =  0 Multiplicity = 1

                         Standard orientation:
 ---------------------------------------------------------------------
 Center     Atomic      Atomic             Coordinates (Angstroms)
 Number     Number       Type             X           Y           Z
 ---------------------------------------------------------------------
      1         15           0        0.106511   -0.680876    0.752073
      2          5           0       -1.403939    0.347400   -0.037724
      3          7           0        1.407311    0.353825   -0.071162
      4          9           0        0.146480   -1.965758   -0.223242
      5          8           0        1.374297    1.534712    0.305431
      6          8           0        2.228771   -0.127882   -0.813232
      7          8           0       -2.477826   -0.406811   -0.352920
      8          8           0       -1.377519    1.689008   -0.136403
      9          1           0       -0.508611    2.067121    0.078668
     10          1           0       -3.220646    0.111854   -0.686826
 ---------------------------------------------------------------------

 SCF Done:  E(RHF) =  -820.505263572     A.U. after    2 cycles

 The electronic state is 1-A.
 Alpha  occ. eigenvalues --  -84.40941 -26.50481 -20.62704 -20.60974 -20.59911
 Alpha  occ. eigenvalues --  -20.59313 -15.79655  -7.70134  -6.87149  -4.39977
 Alpha  occ. eigenvalues --   -4.39412  -4.38430  -1.69078  -1.61700  -1.53221
 Alpha  occ. eigenvalues --   -1.52017  -1.48366  -1.05356  -0.88540  -0.82418
 Alpha  occ. eigenvalues --   -0.78519  -0.77185  -0.76854  -0.75641  -0.69164
 Alpha  occ. eigenvalues --   -0.68103  -0.65814  -0.61314  -0.60200  -0.58042
 Alpha  occ. eigenvalues --   -0.53011  -0.51698  -0.47835  -0.47664  -0.40033
 Alpha virt. eigenvalues --    0.03105   0.03340   0.04631   0.05233   0.05481
 Alpha virt. eigenvalues --    0.07100   0.07440   0.08108   0.09419   0.10604
 Alpha virt. eigenvalues --    0.12337   0.14157   0.15910   0.16555   0.18554

 Mulliken charges:
               1
     1  P    0.738770
     2  B    1.587255
     3  N    1.831454
     4  F   -0.796176
     5  O   -1.223541
     6  O   -1.154003
     7  O   -1.018358
     8  O   -1.219692
     9  H    0.730199
    10  H    0.524092
 Sum of Mulliken charges =  -0.00000

 Dipole moment (field-independent basis, Debye):
    X=             -3.1059    Y=              0.0347    Z=              1.1598  Tot=              3.3156

 Test job not archived.
 1\1\GINC-SE103\SP\RHF\Aug-CC-pVDZ\B1F1H2N1O4P1\OHZDE\09-Apr-2025\0\\#t
  hf aug-cc-pvdz iop(5/13=1,5/36=2,99/5=2) pseudo=read geom=check guess
 =(read,tcheck) scf=(maxcycle=1)\\title\\0,1\P,0,0.106511,-0.680876,0.7
 52073\B,0,-1.403939,0.3474,-0.037724\N,0,1.407311,0.353825,-0.071162\F
 ,0,0.14648,-1.965758,-0.223242\O,0,1.374297,1.534712,0.305431\O,0,2.22
 8771,-0.127882,-0.813232\O,0,-2.477826,-0.40681,-0.35292\O,0,-1.377519
 ,1.689008,-0.136403\H,0,-0.508611,2.067121,0.078668\H,0,-3.220646,0.11
 1855,-0.686826\\Version=ES64L-G16RevC.01\State=1-A\HF=-820.5052636\RMS

 Normal termination of Gaussian 16 at Wed Apr  9 00:42:38 2025.
