 Gaussian 16, Revision C.01,

 ----------------------------------------------------------------------
 #t hf aug-cc-pvdz symm=none int=(grid=ultrafine) guess=(read,tcheck) s
 table=(opt,rrhf)
 ----------------------------------------------------------------------
 -----
 title
 -----
 Symbolic Z-matrix:
 Charge =  0 Multiplicity = 1

 SCF Done:  E(RHF) =  -670.137938165     A.U. after   13 cycles
 Normal termination of Gaussian 16 at Tue Apr  8 23:38:07 2025.
 Gaussian 16:  ES64L-G16RevC.01  3-Jul-2019

 ----------------------------------------------------------------------
 #t hf aug-cc-pvdz iop(5/13=1,5/36=2,99/5=2) pseudo=read geom=check gue
 ss=(read,tcheck) scf=(maxcycle=1)
 ----------------------------------------------------------------------
 -----
 title
 -----
 Structure from the checkpoint file:  "BDE49_nonexpt_1569_mol1.chk"
 Charge =  0 Multiplicity = 1

                         Standard orientation:
 ---------------------------------------------------------------------
 Center     Atomic      Atomic             Coordinates (Angstroms)
 Number     Number       Type             X           Y           Z
 ---------------------------------------------------------------------
      1         15           0       -0.637455   -0.024212    0.554092
      2          7           0        1.040868   -0.043751    0.645450
      3          9           0       -0.979432   -1.102248   -0.599752
      4          9           0       -0.765291    1.263950   -0.406847
      5          8           0        1.802722   -0.113353   -0.554852
      6          1           0        2.117694    0.791624   -0.668355
      7          1           0        1.438791   -0.670696    1.337024
 ---------------------------------------------------------------------

 SCF Done:  E(RHF) =  -670.491277464     A.U. after    2 cycles

 The electronic state is 1-A.
 Alpha  occ. eigenvalues --  -84.43316 -26.48116 -26.47554 -20.61584 -15.58084
 Alpha  occ. eigenvalues --   -6.88703  -4.41355  -4.41218  -4.40115  -1.62098
 Alpha  occ. eigenvalues --   -1.57217  -1.51226  -1.15699  -0.87889  -0.75353
 Alpha  occ. eigenvalues --   -0.74355  -0.71227  -0.68892  -0.67481  -0.64379
 Alpha  occ. eigenvalues --   -0.63627  -0.61331  -0.52704  -0.48258  -0.40909
 Alpha virt. eigenvalues --    0.03426   0.05119   0.07529   0.07794   0.09107
 Alpha virt. eigenvalues --    0.13505   0.13788   0.15935   0.16829   0.18058
 Alpha virt. eigenvalues --    0.19228   0.19530   0.21352   0.25326   0.25724

 Mulliken charges:
               1
     1  P    1.695757
     2  N    0.404415
     3  F   -0.733628
     4  F   -0.724943
     5  O   -1.026882
     6  H    0.310139
     7  H    0.075142
 Sum of Mulliken charges =  -0.00000

 Dipole moment (field-independent basis, Debye):
    X=              1.3822    Y=              0.3572    Z=              1.7750  Tot=              2.2779

 Test job not archived.
 1\1\GINC-SE361\SP\RHF\Aug-CC-pVDZ\F2H2N1O1P1\OHZDE\08-Apr-2025\0\\#t h
 f aug-cc-pvdz iop(5/13=1,5/36=2,99/5=2) pseudo=read geom=check guess=(
 read,tcheck) scf=(maxcycle=1)\\title\\0,1\P,0,-0.637455,-0.024212,0.55
 4092\N,0,1.040868,-0.043751,0.64545\F,0,-0.979432,-1.102248,-0.599752\
 F,0,-0.765291,1.26395,-0.406847\O,0,1.802722,-0.113353,-0.554852\H,0,2
 .117694,0.791623,-0.668355\H,0,1.438791,-0.670696,1.337024\\Version=ES
 64L-G16RevC.01\State=1-A\HF=-670.4912775\RMSD=1.085e-02\Dipole=0.54381
 9,0.1405168,0.6983391\Quadrupole=1.1805273,-0.8250976,-0.3554297,1.260

 Normal termination of Gaussian 16 at Tue Apr  8 23:38:09 2025.
