 Gaussian 16, Revision C.01,

 ----------------------------------------------------------------------
 #t hf aug-cc-pvdz symm=none int=(grid=ultrafine) guess=(read,tcheck) s
 table=(opt,rrhf)
 ----------------------------------------------------------------------
 -----
 title
 -----
 Symbolic Z-matrix:
 Charge =  0 Multiplicity = 1

 SCF Done:  E(RHF) =  -2037.12322735     A.U. after   16 cycles
 Normal termination of Gaussian 16 at Tue Apr  8 23:26:26 2025.
 Gaussian 16:  ES64L-G16RevC.01  3-Jul-2019

 ----------------------------------------------------------------------
 #t hf aug-cc-pvdz iop(5/13=1,5/36=2,99/5=2) pseudo=read geom=check gue
 ss=(read,tcheck) scf=(maxcycle=1)
 ----------------------------------------------------------------------
 -----
 title
 -----
 Structure from the checkpoint file:  "BDE49_nonexpt_1244_mol1.chk"
 Charge =  0 Multiplicity = 1

                         Standard orientation:
 ---------------------------------------------------------------------
 Center     Atomic      Atomic             Coordinates (Angstroms)
 Number     Number       Type             X           Y           Z
 ---------------------------------------------------------------------
      1         17           0       -1.595392   -1.618073   -1.264123
      2         17           0       -1.595367    1.618323   -1.263817
      3         16           0       -0.348266   -0.000133    1.368435
      4          8           0       -0.483475   -1.270457    2.059279
      5          8           0       -0.483466    1.270054    2.059533
      6         15           0       -2.115121    0.000015   -0.059847
      7          6           0        1.767144   -1.220047    0.113332
      8          6           0        2.968576   -1.210984   -0.588048
      9          6           0        3.564118    0.000085   -0.939600
     10          6           0        2.968581    1.211088   -0.587810
     11          6           0        1.767149    1.220019    0.113572
     12          6           0        1.180831   -0.000047    0.453968
     13          1           0        1.297157   -2.146901    0.413795
     14          1           0        3.442005   -2.148470   -0.854245
     15          1           0        4.500768    0.000136   -1.485198
     16          1           0        3.442015    2.148624   -0.853823
     17          1           0        1.297166    2.146815    0.414216
 ---------------------------------------------------------------------

 SCF Done:  E(RHF) =  -2037.76147256     A.U. after    2 cycles

 The electronic state is 1-A.
 Alpha  occ. eigenvalues -- -105.60277-105.60277 -94.20560 -84.42579 -20.55506
 Alpha  occ. eigenvalues --  -20.55500 -11.29876 -11.28547 -11.28542 -11.28138
 Alpha  occ. eigenvalues --  -11.27248 -11.27234 -10.65150 -10.65144  -8.45944
 Alpha  occ. eigenvalues --   -7.82063  -7.82055  -7.81673  -7.81670  -7.81654
 Alpha  occ. eigenvalues --   -7.81653  -6.88660  -6.44027  -6.43787  -6.43733
 Alpha  occ. eigenvalues --   -4.40313  -4.40302  -4.39789  -1.56760  -1.45237
 Alpha  occ. eigenvalues --   -1.19614  -1.13817  -1.07662  -1.07198  -1.05377
 Alpha  occ. eigenvalues --   -0.95790  -0.87310  -0.86380  -0.80650  -0.75090
 Alpha  occ. eigenvalues --   -0.69756  -0.68817  -0.68024  -0.65771  -0.64900
 Alpha  occ. eigenvalues --   -0.63681  -0.59183  -0.56618  -0.56396  -0.54232
 Alpha  occ. eigenvalues --   -0.54127  -0.53354  -0.51910  -0.50540  -0.49932
 Alpha  occ. eigenvalues --   -0.48806  -0.47527  -0.45086  -0.39571  -0.37723
 Alpha  occ. eigenvalues --   -0.36860
 Alpha virt. eigenvalues --    0.02621   0.03295   0.03760   0.04492   0.05907
 Alpha virt. eigenvalues --    0.06032   0.06524   0.07581   0.07614   0.08237
 Alpha virt. eigenvalues --    0.09184   0.10336   0.10470   0.11699   0.11744

 Mulliken charges:
               1
     1  Cl  -0.427736
     2  Cl  -0.427736
     3  S    3.936255
     4  O   -1.678316
     5  O   -1.678315
     6  P    0.970799
     7  C   -0.543815
     8  C    0.550704
     9  C   -0.031699
    10  C    0.550701
    11  C   -0.543821
    12  C    0.472565
    13  H   -0.256154
    14  H   -0.218586
    15  H   -0.200102
    16  H   -0.218586
    17  H   -0.256157
 Sum of Mulliken charges =  -0.00000

 Dipole moment (field-independent basis, Debye):
    X=              2.1807    Y=              0.0004    Z=             -3.6222  Tot=              4.2280

 Test job not archived.
 1\1\GINC-SE232\SP\RHF\Aug-CC-pVDZ\C6H5Cl2O2P1S1\OHZDE\08-Apr-2025\0\\#
 t hf aug-cc-pvdz iop(5/13=1,5/36=2,99/5=2) pseudo=read geom=check gues
 s=(read,tcheck) scf=(maxcycle=1)\\title\\0,1\Cl,0,-1.595392,-1.618073,
 -1.264123\Cl,0,-1.595367,1.618323,-1.263817\S,0,-0.348266,-0.000133,1.
 368435\O,0,-0.483475,-1.270457,2.059279\O,0,-0.483466,1.270054,2.05953
 3\P,0,-2.115121,0.000015,-0.059847\C,0,1.767144,-1.220047,0.113332\C,0
 ,2.968576,-1.210984,-0.588048\C,0,3.564118,0.000085,-0.9396\C,0,2.9685
 81,1.211088,-0.58781\C,0,1.767149,1.220019,0.113572\C,0,1.180831,-0.00

 Normal termination of Gaussian 16 at Tue Apr  8 23:26:41 2025.
