 Gaussian 16, Revision C.01,

 ----------------------------------------------------------------------
 #t hf aug-cc-pvdz symm=none int=(grid=ultrafine) guess=(read,tcheck) s
 table=(opt,rrhf)
 ----------------------------------------------------------------------
 -----
 title
 -----
 Symbolic Z-matrix:
 Charge =  0 Multiplicity = 1

 SCF Done:  E(RHF) =  -388.330327296     A.U. after   12 cycles

 1\1\GINC-SE045\Stability\RHF\Aug-CC-pVDZ\C8H18O1\OHZDE\08-Apr-2025\0\\
 #t hf aug-cc-pvdz symm=none int=(grid=ultrafine) guess=(read,tcheck) s
 table=(opt,rrhf)\\title\\0,1\O,0,-0.347337,-0.060091,-0.333082\C,0,-1.
 75403,-0.160284,-0.023991\C,0,-1.972406,-0.36691,1.482895\H,0,-1.69616
 6,0.517754,2.061539\H,0,-1.376942,-1.211739,1.837704\C,0,-2.518529,1.0
 7483,-0.525104\H,0,-3.595775,0.923712,-0.416583\H,0,-2.300943,1.250083
 ,-1.581762\H,0,-2.255412,1.974679,0.036052\C,0,-2.197621,-1.404942,-0.
 797389\H,0,-1.633578,-2.277407,-0.460211\H,0,-2.008383,-1.269629,-1.86

 Normal termination of Gaussian 16 at Tue Apr  8 22:44:37 2025.
 Gaussian 16:  ES64L-G16RevC.01  3-Jul-2019

 ----------------------------------------------------------------------
 #t hf aug-cc-pvdz iop(5/13=1,5/36=2,99/5=2) pseudo=read geom=check gue
 ss=(read,tcheck) scf=(maxcycle=1)
 ----------------------------------------------------------------------
 -----
 title
 -----
 Structure from the checkpoint file:  "BDE49_expt_1390_mol1.chk"
 Charge =  0 Multiplicity = 1

                         Standard orientation:
 ---------------------------------------------------------------------
 Center     Atomic      Atomic             Coordinates (Angstroms)
 Number     Number       Type             X           Y           Z
 ---------------------------------------------------------------------
      1          8           0        0.347337    0.060091   -0.333082
      2          6           0        1.754030    0.160284   -0.023991
      3          6           0        1.972406    0.366910    1.482895
      4          1           0        1.696166   -0.517754    2.061539
      5          1           0        1.376942    1.211739    1.837704
      6          6           0        2.518529   -1.074830   -0.525104
      7          1           0        3.595775   -0.923712   -0.416583
      8          1           0        2.300943   -1.250083   -1.581762
      9          1           0        2.255412   -1.974679    0.036052
     10          6           0        2.197621    1.404942   -0.797389
     11          1           0        1.633578    2.277407   -0.460211
     12          1           0        2.008383    1.269629   -1.864528
     13          1           0        3.263298    1.598004   -0.650556
     14          1           0        3.025316    0.577507    1.688655
     15          6           0       -0.397198   -1.026882    0.200492
     16          6           0       -1.847938   -0.862656   -0.238317
     17          1           0       -0.340888   -1.043182    1.298328
     18          1           0       -0.007938   -1.985552   -0.167193
     19          6           0       -2.526540    0.394131    0.316649
     20          1           0       -2.402602   -1.755364    0.077152
     21          1           0       -1.876025   -0.843686   -1.333858
     22          6           0       -3.973913    0.550940   -0.156838
     23          1           0       -1.940247    1.267977    0.020529
     24          1           0       -2.500955    0.361026    1.413214
     25          1           0       -4.026643    0.619969   -1.247945
     26          1           0       -4.432296    1.454620    0.254213
     27          1           0       -4.588902   -0.301618    0.149517
 ---------------------------------------------------------------------

 SCF Done:  E(RHF) =  -388.756500230     A.U. after    2 cycles

 The electronic state is 1-A.
 Alpha  occ. eigenvalues --  -20.52864 -11.28918 -11.27328 -11.22235 -11.22198
 Alpha  occ. eigenvalues --  -11.22085 -11.21792 -11.21695 -11.21688  -1.44229
 Alpha  occ. eigenvalues --   -1.08681  -1.05176  -0.97108  -0.94018  -0.93508
 Alpha  occ. eigenvalues --   -0.85628  -0.79039  -0.75558  -0.66530  -0.65084
 Alpha  occ. eigenvalues --   -0.62828  -0.62073  -0.60296  -0.58462  -0.56522
 Alpha  occ. eigenvalues --   -0.55715  -0.54545  -0.52644  -0.52086  -0.51758
 Alpha  occ. eigenvalues --   -0.50440  -0.49386  -0.47376  -0.47017  -0.46558
 Alpha  occ. eigenvalues --   -0.43985  -0.40341
 Alpha virt. eigenvalues --    0.03396   0.03498   0.03650   0.04147   0.04947
 Alpha virt. eigenvalues --    0.05270   0.05514   0.06184   0.06346   0.07644
 Alpha virt. eigenvalues --    0.07828   0.08088   0.08784   0.09580   0.09758

 Mulliken charges:
               1
     1  O   -1.596455
     2  C   -1.042813
     3  C    0.100732
     4  H    0.194120
     5  H    0.243766
     6  C    0.116711
     7  H    0.161030
     8  H    0.226560
     9  H    0.210600
    10  C    0.025411
    11  H    0.220281
    12  H    0.210970
    13  H    0.209173
    14  H    0.164716
    15  C    0.315993
    16  C   -0.494737
    17  H    0.177447
    18  H    0.105710
    19  C   -0.148522
    20  H    0.152070
    21  H    0.174262
    22  C   -0.442366
    23  H    0.163053
    24  H    0.090855
    25  H    0.175873
    26  H    0.123011
    27  H    0.162547
 Sum of Mulliken charges =  -0.00000

 Dipole moment (field-independent basis, Debye):
    X=              0.7478    Y=             -0.7087    Z=              0.6707  Tot=              1.2293

 Test job not archived.
 1\1\GINC-SE045\SP\RHF\Aug-CC-pVDZ\C8H18O1\OHZDE\08-Apr-2025\0\\#t hf a
 ug-cc-pvdz iop(5/13=1,5/36=2,99/5=2) pseudo=read geom=check guess=(rea
 d,tcheck) scf=(maxcycle=1)\\title\\0,1\O,0,-0.347337,-0.060091,-0.3330
 82\C,0,-1.75403,-0.160284,-0.023991\C,0,-1.972406,-0.36691,1.482895\H,
 0,-1.696166,0.517754,2.061539\H,0,-1.376942,-1.211739,1.837704\C,0,-2.
 518529,1.07483,-0.525104\H,0,-3.595775,0.923712,-0.416583\H,0,-2.30094
 3,1.250083,-1.581762\H,0,-2.255412,1.974679,0.036052\C,0,-2.197621,-1.
 404942,-0.797389\H,0,-1.633578,-2.277407,-0.460211\H,0,-2.008383,-1.26

 Normal termination of Gaussian 16 at Tue Apr  8 22:44:56 2025.
