 Gaussian 16, Revision C.01,

 ----------------------------------------------------------------------
 #t hf aug-cc-pvdz symm=none int=(grid=ultrafine) guess=(read,tcheck) s
 table=(opt,rrhf)
 ----------------------------------------------------------------------
 -----
 title
 -----
 Symbolic Z-matrix:
 Charge =  0 Multiplicity = 1

 SCF Done:  E(RHF) =  -1755.28848612     A.U. after   17 cycles
 Normal termination of Gaussian 16 at Wed Apr  9 00:53:09 2025.
 Gaussian 16:  ES64L-G16RevC.01  3-Jul-2019

 ----------------------------------------------------------------------
 #t hf aug-cc-pvdz iop(5/13=1,5/36=2,99/5=2) pseudo=read geom=check gue
 ss=(read,tcheck) scf=(maxcycle=1)
 ----------------------------------------------------------------------
 -----
 title
 -----
 Structure from the checkpoint file:  "BDE49_nonexpt_936_mol1.chk"
 Charge =  0 Multiplicity = 1

                         Standard orientation:
 ---------------------------------------------------------------------
 Center     Atomic      Atomic             Coordinates (Angstroms)
 Number     Number       Type             X           Y           Z
 ---------------------------------------------------------------------
      1          6           0        0.520034    0.379345    0.057559
      2          6           0       -0.901161   -0.046203    0.098001
      3          6           0       -1.363628   -0.802431    1.180593
      4          1           0       -0.677676   -1.078401    1.971648
      5          6           0       -2.698221   -1.190746    1.234884
      6          1           0       -3.056120   -1.766885    2.080027
      7          6           0       -3.568416   -0.845653    0.203170
      8          1           0       -4.606625   -1.154701    0.243758
      9          6           0       -3.104462   -0.105889   -0.883987
     10          1           0       -3.778406    0.156444   -1.691008
     11          6           0       -1.776186    0.299863   -0.937386
     12          1           0       -1.414681    0.873520   -1.781317
     13          7           0        1.423425   -0.705200    0.316052
     14          7           0        1.049390    1.534638   -0.068741
     15         17           0        3.116206   -0.253105    0.461825
     16         17           0        1.253898   -1.995917   -0.907132
     17         17           0       -0.042102    2.898095   -0.041239
 ---------------------------------------------------------------------

 SCF Done:  E(RHF) =  -1755.88605879     A.U. after    2 cycles

 The electronic state is 1-A.
 Alpha  occ. eigenvalues -- -105.62301-105.61621-105.59448 -15.65481 -15.57999
 Alpha  occ. eigenvalues --  -11.37476 -11.28049 -11.27164 -11.27136 -11.26851
 Alpha  occ. eigenvalues --  -11.26331 -11.26308 -10.66733 -10.66081 -10.63966
 Alpha  occ. eigenvalues --   -7.83693  -7.83198  -7.83165  -7.83047  -7.82534
 Alpha  occ. eigenvalues --   -7.82504  -7.80924  -7.80449  -7.80444  -1.33927
 Alpha  occ. eigenvalues --   -1.24615  -1.18156  -1.08287  -1.07354  -1.04317
 Alpha  occ. eigenvalues --   -1.03972  -0.98774  -0.88553  -0.86160  -0.79072
 Alpha  occ. eigenvalues --   -0.74785  -0.71235  -0.70052  -0.68311  -0.65502
 Alpha  occ. eigenvalues --   -0.65077  -0.62537  -0.61663  -0.57611  -0.55933
 Alpha  occ. eigenvalues --   -0.53838  -0.53205  -0.52981  -0.51147  -0.49931
 Alpha  occ. eigenvalues --   -0.47512  -0.45719  -0.44905  -0.42404  -0.36973
 Alpha  occ. eigenvalues --   -0.36725
 Alpha virt. eigenvalues --    0.02619   0.02851   0.03351   0.03946   0.04992
 Alpha virt. eigenvalues --    0.06113   0.06327   0.07234   0.07681   0.08869
 Alpha virt. eigenvalues --    0.09497   0.10306   0.10643   0.10964   0.11364

 Mulliken charges:
               1
     1  C   -3.269781
     2  C    2.292004
     3  C   -0.148513
     4  H   -0.284922
     5  C    0.274923
     6  H   -0.231830
     7  C    0.129962
     8  H   -0.210625
     9  C    0.347858
    10  H   -0.236603
    11  C   -0.048603
    12  H   -0.305506
    13  N    0.379526
    14  N    1.001286
    15  Cl   0.131123
    16  Cl   0.127083
    17  Cl   0.052617
 Sum of Mulliken charges =  -0.00000

 Dipole moment (field-independent basis, Debye):
    X=             -3.2559    Y=             -1.9974    Z=             -0.2065  Tot=              3.8253

 Test job not archived.
 1\1\GINC-SE435\SP\RHF\Aug-CC-pVDZ\C7H5Cl3N2\OHZDE\09-Apr-2025\0\\#t hf
  aug-cc-pvdz iop(5/13=1,5/36=2,99/5=2) pseudo=read geom=check guess=(r
 ead,tcheck) scf=(maxcycle=1)\\title\\0,1\C,0,0.520034,0.379345,0.05755
 9\C,0,-0.901161,-0.046203,0.098001\C,0,-1.363628,-0.802431,1.180593\H,
 0,-0.677676,-1.078401,1.971648\C,0,-2.698221,-1.190746,1.234884\H,0,-3
 .05612,-1.766885,2.080027\C,0,-3.568416,-0.845653,0.20317\H,0,-4.60662
 5,-1.154701,0.243758\C,0,-3.104462,-0.105889,-0.883987\H,0,-3.778406,0
 .156444,-1.691008\C,0,-1.776186,0.299863,-0.937386\H,0,-1.414681,0.873

 Normal termination of Gaussian 16 at Wed Apr  9 00:53:21 2025.
