 Gaussian 16, Revision C.01,

 ----------------------------------------------------------------------
 #t hf aug-cc-pvdz symm=none int=(grid=ultrafine) guess=(read,tcheck) s
 table=(opt,rrhf)
 ----------------------------------------------------------------------
 -----
 title
 -----
 Symbolic Z-matrix:
 Charge =  0 Multiplicity = 1

 SCF Done:  E(RHF) =  -597.110994105     A.U. after   12 cycles
 Normal termination of Gaussian 16 at Tue Apr  8 23:59:12 2025.
 Gaussian 16:  ES64L-G16RevC.01  3-Jul-2019

 ----------------------------------------------------------------------
 #t hf aug-cc-pvdz iop(5/13=1,5/36=2,99/5=2) pseudo=read geom=check gue
 ss=(read,tcheck) scf=(maxcycle=1)
 ----------------------------------------------------------------------
 -----
 title
 -----
 Structure from the checkpoint file:  "BDE49_nonexpt_2069_mol1.chk"
 Charge =  0 Multiplicity = 1

                         Standard orientation:
 ---------------------------------------------------------------------
 Center     Atomic      Atomic             Coordinates (Angstroms)
 Number     Number       Type             X           Y           Z
 ---------------------------------------------------------------------
      1         14           0        1.780073   -0.472755   -0.459630
      2          6           0        0.003264   -0.224723    0.260026
      3          8           0       -0.817184   -0.417057   -0.892511
      4          8           0       -0.234835    1.044140    0.857505
      5          6           0       -2.229556   -0.454159   -0.679399
      6          1           0       -2.687230   -0.361753   -1.664313
      7          1           0       -2.557207    0.376058   -0.047252
      8          1           0       -2.547341   -1.400804   -0.229213
      9          6           0        0.047162    2.181905    0.050246
     10          1           0       -0.347609    3.045011    0.586307
     11          1           0       -0.433638    2.108573   -0.929440
     12          1           0        1.126576    2.321960   -0.090246
     13          6           0       -0.278917   -1.234322    1.373539
     14          1           0       -0.265323   -2.253567    0.982595
     15          1           0       -1.251816   -1.034778    1.829003
     16          1           0        0.474858   -1.146403    2.158655
     17          1           0        1.985991    0.311204   -1.696764
     18          1           0        1.959885   -1.910614   -0.761691
     19          1           0        2.786268   -0.065188    0.550754
 ---------------------------------------------------------------------

 SCF Done:  E(RHF) =  -597.466691799     A.U. after    2 cycles

 The electronic state is 1-A.
 Alpha  occ. eigenvalues --  -69.52412 -20.54905 -20.54885 -11.33096 -11.28160
 Alpha  occ. eigenvalues --  -11.28034 -11.23071  -6.19574  -3.94934  -3.94928
 Alpha  occ. eigenvalues --   -3.94903  -1.49212  -1.42838  -1.02955  -0.94648
 Alpha  occ. eigenvalues --   -0.92475  -0.81033  -0.73978  -0.68769  -0.66515
 Alpha  occ. eigenvalues --   -0.64517  -0.61801  -0.60322  -0.59049  -0.56073
 Alpha  occ. eigenvalues --   -0.53641  -0.52348  -0.50444  -0.48379  -0.48288
 Alpha  occ. eigenvalues --   -0.44375  -0.43301  -0.40111
 Alpha virt. eigenvalues --    0.03644   0.03916   0.04066   0.04265   0.05940
 Alpha virt. eigenvalues --    0.06072   0.06433   0.06709   0.07218   0.08978
 Alpha virt. eigenvalues --    0.09222   0.09771   0.10241   0.11001   0.11822

 Mulliken charges:
               1
     1  Si   0.442042
     2  C    1.566849
     3  O   -1.475572
     4  O   -1.555373
     5  C    0.258498
     6  H   -0.016714
     7  H    0.193440
     8  H    0.128785
     9  C    0.263522
    10  H    0.008927
    11  H    0.199923
    12  H    0.130741
    13  C   -0.388841
    14  H    0.198609
    15  H    0.172326
    16  H    0.126858
    17  H   -0.077986
    18  H   -0.135785
    19  H   -0.040251
 Sum of Mulliken charges =  -0.00000

 Dipole moment (field-independent basis, Debye):
    X=             -0.7807    Y=              0.2011    Z=              0.0993  Tot=              0.8122

 Test job not archived.
 1\1\GINC-SE345\SP\RHF\Aug-CC-pVDZ\C4H12O2Si1\OHZDE\08-Apr-2025\0\\#t h
 f aug-cc-pvdz iop(5/13=1,5/36=2,99/5=2) pseudo=read geom=check guess=(
 read,tcheck) scf=(maxcycle=1)\\title\\0,1\Si,0,1.780073,-0.472755,-0.4
 5963\C,0,0.003264,-0.224723,0.260026\O,0,-0.817184,-0.417057,-0.892511
 \O,0,-0.234835,1.04414,0.857505\C,0,-2.229556,-0.454158,-0.679399\H,0,
 -2.68723,-0.361752,-1.664313\H,0,-2.557207,0.376059,-0.047252\H,0,-2.5
 47341,-1.400803,-0.229213\C,0,0.047163,2.181905,0.050246\H,0,-0.347608
 ,3.045011,0.586307\H,0,-0.433637,2.108573,-0.92944\H,0,1.126577,2.3219

 Normal termination of Gaussian 16 at Tue Apr  8 23:59:20 2025.
