 Gaussian 16, Revision C.01,

 ----------------------------------------------------------------------
 #t hf aug-cc-pvdz symm=none int=(grid=ultrafine) guess=(read,tcheck) s
 table=(opt,rrhf)
 ----------------------------------------------------------------------
 -----
 title
 -----
 Symbolic Z-matrix:
 Charge =  0 Multiplicity = 1

 SCF Done:  E(RHF) =  -473.900867033     A.U. after   15 cycles
 Normal termination of Gaussian 16 at Wed Apr  9 00:38:16 2025.
 Gaussian 16:  ES64L-G16RevC.01  3-Jul-2019

 ----------------------------------------------------------------------
 #t hf aug-cc-pvdz iop(5/13=1,5/36=2,99/5=2) pseudo=read geom=check gue
 ss=(read,tcheck) scf=(maxcycle=1)
 ----------------------------------------------------------------------
 -----
 title
 -----
 Structure from the checkpoint file:  "BDE49_nonexpt_565_mol1.chk"
 Charge =  0 Multiplicity = 1

                         Standard orientation:
 ---------------------------------------------------------------------
 Center     Atomic      Atomic             Coordinates (Angstroms)
 Number     Number       Type             X           Y           Z
 ---------------------------------------------------------------------
      1          7           0        0.098905    0.438685    0.000096
      2          5           0       -1.250554   -0.166033    0.000039
      3          7           0        1.250602   -0.323694    0.000159
      4          8           0       -1.487876   -1.492817    0.000071
      5          8           0       -2.271235    0.739173   -0.000044
      6          8           0        2.315415    0.267268   -0.000169
      7          8           0        1.135568   -1.555492   -0.000176
      8          6           0        0.323087    1.885940    0.000057
      9          1           0        0.882538    2.188837   -0.886193
     10          1           0        0.882459    2.188892    0.886337
     11          1           0       -0.656781    2.354151   -0.000003
     12          1           0       -0.649610   -1.984375    0.000145
     13          1           0       -3.125880    0.297025   -0.000073
 ---------------------------------------------------------------------

 SCF Done:  E(RHF) =  -474.366199241     A.U. after    2 cycles

 The electronic state is 1-A.
 Alpha  occ. eigenvalues --  -20.60592 -20.59659 -20.57891 -20.56520 -15.83829
 Alpha  occ. eigenvalues --  -15.59066 -11.29240  -7.69081  -1.69477  -1.52731
 Alpha  occ. eigenvalues --   -1.50215  -1.46165  -1.31235  -1.04554  -0.92631
 Alpha  occ. eigenvalues --   -0.85429  -0.79365  -0.77969  -0.76384  -0.74012
 Alpha  occ. eigenvalues --   -0.69631  -0.63921  -0.60952  -0.59159  -0.58606
 Alpha  occ. eigenvalues --   -0.57795  -0.52946  -0.51213  -0.49406  -0.47744
 Alpha  occ. eigenvalues --   -0.47170
 Alpha virt. eigenvalues --    0.03420   0.04222   0.04765   0.05266   0.05884
 Alpha virt. eigenvalues --    0.06030   0.06425   0.07117   0.09321   0.10315
 Alpha virt. eigenvalues --    0.13466   0.14324   0.14740   0.16007   0.17051

 Mulliken charges:
               1
     1  N    0.460126
     2  B    1.338319
     3  N    2.107174
     4  O   -1.378594
     5  O   -1.169485
     6  O   -1.360844
     7  O   -1.361136
     8  C   -0.203422
     9  H    0.205307
    10  H    0.205302
    11  H   -0.024599
    12  H    0.744614
    13  H    0.437237
 Sum of Mulliken charges =  -0.00000

 Dipole moment (field-independent basis, Debye):
    X=             -2.1499    Y=              1.8820    Z=              0.0005  Tot=              2.8572

 Test job not archived.
 1\1\GINC-SE090\SP\RHF\Aug-CC-pVDZ\C1H5B1N2O4\OHZDE\09-Apr-2025\0\\#t h
 f aug-cc-pvdz iop(5/13=1,5/36=2,99/5=2) pseudo=read geom=check guess=(
 read,tcheck) scf=(maxcycle=1)\\title\\0,1\N,0,-0.098905,0.438685,-0.00
 0096\B,0,1.250554,-0.166033,-0.000039\N,0,-1.250602,-0.323694,-0.00015
 9\O,0,1.487876,-1.492817,-0.000071\O,0,2.271235,0.739173,0.000044\O,0,
 -2.315415,0.267268,0.000169\O,0,-1.135568,-1.555492,0.000176\C,0,-0.32
 3087,1.88594,-0.000057\H,0,-0.882538,2.188837,0.886193\H,0,-0.882459,2
 .188892,-0.886337\H,0,0.656781,2.354151,0.000003\H,0,0.64961,-1.984375

 Normal termination of Gaussian 16 at Wed Apr  9 00:38:21 2025.
