 Gaussian 16, Revision C.01,

 ----------------------------------------------------------------------
 #t hf aug-cc-pvdz symm=none int=(grid=ultrafine) guess=(read,tcheck) s
 table=(opt,rrhf)
 ----------------------------------------------------------------------
 -----
 title
 -----
 Symbolic Z-matrix:
 Charge =  0 Multiplicity = 1

 SCF Done:  E(RHF) =  -914.688326065     A.U. after   12 cycles
 Normal termination of Gaussian 16 at Wed Apr  9 00:11:50 2025.
 Gaussian 16:  ES64L-G16RevC.01  3-Jul-2019

 ----------------------------------------------------------------------
 #t hf aug-cc-pvdz iop(5/13=1,5/36=2,99/5=2) pseudo=read geom=check gue
 ss=(read,tcheck) scf=(maxcycle=1)
 ----------------------------------------------------------------------
 -----
 title
 -----
 Structure from the checkpoint file:  "BDE49_nonexpt_2398_mol1.chk"
 Charge =  0 Multiplicity = 1

                         Standard orientation:
 ---------------------------------------------------------------------
 Center     Atomic      Atomic             Coordinates (Angstroms)
 Number     Number       Type             X           Y           Z
 ---------------------------------------------------------------------
      1         14           0        0.713821   -0.942113    0.000600
      2         14           0       -0.713831    0.942138    0.000614
      3          7           0       -2.345160    0.407504    0.000453
      4          1           0       -0.488843    1.771454   -1.204082
      5          1           0       -0.489086    1.771250    1.205486
      6          6           0       -3.454531   -0.038962   -0.000607
      7          8           0       -4.541614   -0.468736   -0.001210
      8          7           0        2.345149   -0.407477    0.000771
      9          1           0        0.489001   -1.771289   -1.204225
     10          1           0        0.488909   -1.771365    1.205344
     11          6           0        3.454528    0.038971   -0.000319
     12          8           0        4.541645    0.468656   -0.001606
 ---------------------------------------------------------------------

 SCF Done:  E(RHF) =  -915.071103536     A.U. after    2 cycles

 The electronic state is 1-A.
 Alpha  occ. eigenvalues --  -69.58664 -69.58664 -20.60314 -20.60314 -15.52990
 Alpha  occ. eigenvalues --  -15.52988 -11.42524 -11.42523  -6.25360  -6.25348
 Alpha  occ. eigenvalues --   -4.00816  -4.00815  -4.00688  -4.00660  -4.00650
 Alpha  occ. eigenvalues --   -4.00613  -1.55035  -1.55016  -1.27573  -1.27547
 Alpha  occ. eigenvalues --   -0.90843  -0.88213  -0.73924  -0.73666  -0.68080
 Alpha  occ. eigenvalues --   -0.67428  -0.67209  -0.67102  -0.66961  -0.63987
 Alpha  occ. eigenvalues --   -0.55367  -0.53070  -0.52140  -0.49258  -0.46750
 Alpha  occ. eigenvalues --   -0.46513  -0.41401
 Alpha virt. eigenvalues --    0.03033   0.03271   0.03918   0.05496   0.05598
 Alpha virt. eigenvalues --    0.06894   0.06933   0.07471   0.08316   0.08751
 Alpha virt. eigenvalues --    0.09241   0.09554   0.10903   0.11039   0.12037

 Mulliken charges:
               1
     1  Si   0.421854
     2  Si   0.421857
     3  N    0.648482
     4  H   -0.098411
     5  H   -0.098239
     6  C   -0.054837
     7  O   -0.818855
     8  N    0.648491
     9  H   -0.098450
    10  H   -0.098200
    11  C   -0.054833
    12  O   -0.818859
 Sum of Mulliken charges =  -0.00000

 Dipole moment (field-independent basis, Debye):
    X=             -0.0000    Y=              0.0001    Z=              0.0006  Tot=              0.0006

 Test job not archived.
 1\1\GINC-SE435\SP\RHF\Aug-CC-pVDZ\C2H4N2O2Si2\OHZDE\09-Apr-2025\0\\#t
 hf aug-cc-pvdz iop(5/13=1,5/36=2,99/5=2) pseudo=read geom=check guess=
 (read,tcheck) scf=(maxcycle=1)\\title\\0,1\Si,0,-0.713821,0.942113,0.0
 006\Si,0,0.713831,-0.942138,0.000614\N,0,2.34516,-0.407504,0.000453\H,
 0,0.488843,-1.771454,-1.204082\H,0,0.489086,-1.77125,1.205486\C,0,3.45
 4531,0.038962,-0.000607\O,0,4.541614,0.468736,-0.00121\N,0,-2.345149,0
 .407477,0.000771\H,0,-0.489001,1.771289,-1.204225\H,0,-0.488909,1.7713
 65,1.205344\C,0,-3.454528,-0.038971,-0.000319\O,0,-4.541645,-0.468656,

 Normal termination of Gaussian 16 at Wed Apr  9 00:11:55 2025.
