 Gaussian 16, Revision C.01,

 ----------------------------------------------------------------------
 #t hf aug-cc-pvdz symm=none int=(grid=ultrafine) guess=(read,tcheck) s
 table=(opt,rrhf)
 ----------------------------------------------------------------------
 -----
 title
 -----
 Symbolic Z-matrix:
 Charge =  0 Multiplicity = 1

 SCF Done:  E(RHF) =  -1130.06339699     A.U. after   13 cycles
 Normal termination of Gaussian 16 at Tue Apr  8 23:43:32 2025.
 Gaussian 16:  ES64L-G16RevC.01  3-Jul-2019

 ----------------------------------------------------------------------
 #t hf aug-cc-pvdz iop(5/13=1,5/36=2,99/5=2) pseudo=read geom=check gue
 ss=(read,tcheck) scf=(maxcycle=1)
 ----------------------------------------------------------------------
 -----
 title
 -----
 Structure from the checkpoint file:  "BDE49_nonexpt_1674_mol1.chk"
 Charge =  0 Multiplicity = 1

                         Standard orientation:
 ---------------------------------------------------------------------
 Center     Atomic      Atomic             Coordinates (Angstroms)
 Number     Number       Type             X           Y           Z
 ---------------------------------------------------------------------
      1          6           0       -1.931689    1.733333    0.015275
      2         15           0       -1.594599    0.018084    0.678535
      3          1           0       -2.133747    1.749142   -1.058772
      4          1           0       -1.080497    2.384484    0.223832
      5          1           0       -2.798053    2.143579    0.540932
      6          6           0       -3.091366   -0.880713    0.006914
      7          1           0       -3.976525   -0.529254    0.544139
      8          1           0       -2.987815   -1.950564    0.198680
      9          1           0       -3.248598   -0.725756   -1.063729
     10         14           0       -0.053921   -0.709474   -0.848594
     11         15           0        2.132811   -0.211767   -0.451686
     12          6           0        2.323756   -0.906288    1.271652
     13          1           0        1.576822   -0.535601    1.977179
     14          1           0        3.319101   -0.645736    1.641134
     15          1           0        2.261053   -1.995910    1.229564
     16          6           0        2.051007    1.615958   -0.070770
     17          1           0        3.054556    1.957158    0.196331
     18          1           0        1.373006    1.860182    0.750361
     19          1           0        1.743971    2.163611   -0.964701
     20          1           0       -0.394413   -0.217177   -2.213154
     21          1           0       -0.137388   -2.194025   -0.862651
 ---------------------------------------------------------------------

 SCF Done:  E(RHF) =  -1130.37036934     A.U. after    2 cycles

 The electronic state is 1-A.
 Alpha  occ. eigenvalues --  -84.25886 -84.25686 -69.53128 -11.24118 -11.24097
 Alpha  occ. eigenvalues --  -11.24028 -11.23644  -6.73030  -6.72835  -6.20193
 Alpha  occ. eigenvalues --   -4.25417  -4.25377  -4.25190  -4.25150  -4.24755
 Alpha  occ. eigenvalues --   -4.24548  -3.95476  -3.95467  -3.95454  -1.01346
 Alpha  occ. eigenvalues --   -1.00611  -0.94289  -0.93899  -0.79526  -0.73960
 Alpha  occ. eigenvalues --   -0.66429  -0.59780  -0.59109  -0.58637  -0.58209
 Alpha  occ. eigenvalues --   -0.56689  -0.56475  -0.56232  -0.55760  -0.49340
 Alpha  occ. eigenvalues --   -0.45623  -0.44998  -0.42185  -0.40333  -0.31927
 Alpha  occ. eigenvalues --   -0.29463
 Alpha virt. eigenvalues --    0.03635   0.03764   0.04123   0.04262   0.05412
 Alpha virt. eigenvalues --    0.05575   0.06183   0.06427   0.07316   0.07935
 Alpha virt. eigenvalues --    0.08083   0.08906   0.09174   0.09755   0.10311

 Mulliken charges:
               1
     1  C   -0.738916
     2  P    0.611254
     3  H    0.104191
     4  H   -0.000755
     5  H    0.107935
     6  C   -0.817010
     7  H    0.062707
     8  H    0.053081
     9  H    0.092918
    10  Si   1.421192
    11  P    0.377831
    12  C   -0.779261
    13  H    0.151397
    14  H    0.062681
    15  H    0.043672
    16  C   -0.724504
    17  H    0.026368
    18  H    0.154764
    19  H    0.066562
    20  H   -0.076716
    21  H   -0.199392
 Sum of Mulliken charges =   0.00000

 Dipole moment (field-independent basis, Debye):
    X=             -0.7390    Y=              0.9506    Z=              0.5275  Tot=              1.3146

 Test job not archived.
 1\1\GINC-SE058\SP\RHF\Aug-CC-pVDZ\C4H14P2Si1\OHZDE\08-Apr-2025\0\\#t h
 f aug-cc-pvdz iop(5/13=1,5/36=2,99/5=2) pseudo=read geom=check guess=(
 read,tcheck) scf=(maxcycle=1)\\title\\0,1\C,0,-1.931689,1.733333,0.015
 275\P,0,-1.594599,0.018084,0.678535\H,0,-2.133747,1.749142,-1.058772\H
 ,0,-1.080497,2.384484,0.223832\H,0,-2.798053,2.143579,0.540932\C,0,-3.
 091366,-0.880713,0.006914\H,0,-3.976525,-0.529254,0.544139\H,0,-2.9878
 15,-1.950564,0.19868\H,0,-3.248598,-0.725756,-1.063729\Si,0,-0.053921,
 -0.709474,-0.848594\P,0,2.132811,-0.211767,-0.451686\C,0,2.323756,-0.9

 Normal termination of Gaussian 16 at Tue Apr  8 23:43:43 2025.
