 Gaussian 16, Revision C.01,

 ----------------------------------------------------------------------
 #t hf aug-cc-pvdz symm=none int=(grid=ultrafine) guess=(read,tcheck) s
 table=(opt,rrhf)
 ----------------------------------------------------------------------
 -----
 title
 -----
 Symbolic Z-matrix:
 Charge =  0 Multiplicity = 1

 SCF Done:  E(RHF) =  -767.733647465     A.U. after   15 cycles

 1\1\GINC-SE453\Stability\RHF\Aug-CC-pVDZ\C8H9Cl1\OHZDE\08-Apr-2025\0\\
 #t hf aug-cc-pvdz symm=none int=(grid=ultrafine) guess=(read,tcheck) s
 table=(opt,rrhf)\\title\\0,1\C,0,0.021653,1.571669,0.155295\C,0,-1.290
 048,1.843893,-0.221921\C,0,-2.22377,0.815107,-0.301786\C,0,-1.864686,-
 0.505508,-0.007627\C,0,-0.546472,-0.760862,0.372667\C,0,0.402661,0.262
 585,0.457301\H,0,0.749649,2.373549,0.215803\H,0,-1.586819,2.861492,-0.
 449949\C,0,1.806422,-0.042743,0.875316\C,0,-2.873547,-1.623247,-0.1194
 81\H,0,-3.24526,1.038242,-0.593046\H,0,-0.248365,-1.778634,0.606576\H,

 Normal termination of Gaussian 16 at Tue Apr  8 22:49:36 2025.
 Gaussian 16:  ES64L-G16RevC.01  3-Jul-2019

 ----------------------------------------------------------------------
 #t hf aug-cc-pvdz iop(5/13=1,5/36=2,99/5=2) pseudo=read geom=check gue
 ss=(read,tcheck) scf=(maxcycle=1)
 ----------------------------------------------------------------------
 -----
 title
 -----
 Structure from the checkpoint file:  "BDE49_expt_1690_mol1.chk"
 Charge =  0 Multiplicity = 1

                         Standard orientation:
 ---------------------------------------------------------------------
 Center     Atomic      Atomic             Coordinates (Angstroms)
 Number     Number       Type             X           Y           Z
 ---------------------------------------------------------------------
      1          6           0        0.021653    1.571669    0.155295
      2          6           0       -1.290048    1.843893   -0.221921
      3          6           0       -2.223770    0.815107   -0.301786
      4          6           0       -1.864686   -0.505508   -0.007627
      5          6           0       -0.546472   -0.760862    0.372667
      6          6           0        0.402661    0.262585    0.457301
      7          1           0        0.749649    2.373549    0.215803
      8          1           0       -1.586819    2.861492   -0.449949
      9          6           0        1.806422   -0.042743    0.875316
     10          6           0       -2.873547   -1.623247   -0.119481
     11          1           0       -3.245260    1.038242   -0.593046
     12          1           0       -0.248365   -1.778634    0.606576
     13          1           0        2.290952    0.810477    1.344156
     14         17           0        2.882385   -0.471649   -0.556025
     15          1           0        1.862059   -0.905599    1.535001
     16          1           0       -3.846540   -1.323027    0.277806
     17          1           0       -2.546030   -2.512427    0.422881
     18          1           0       -3.023473   -1.911396   -1.165385
 ---------------------------------------------------------------------

 SCF Done:  E(RHF) =  -768.133409426     A.U. after    2 cycles

 The electronic state is 1-A.
 Alpha  occ. eigenvalues -- -105.54979 -11.31154 -11.25860 -11.25595 -11.24956
 Alpha  occ. eigenvalues --  -11.24704 -11.24603 -11.24523 -11.24067 -10.59736
 Alpha  occ. eigenvalues --   -7.76669  -7.76304  -7.76299  -1.17288  -1.10246
 Alpha  occ. eigenvalues --   -1.05010  -1.01898  -0.94598  -0.91128  -0.83458
 Alpha  occ. eigenvalues --   -0.80118  -0.70742  -0.67975  -0.64764  -0.61241
 Alpha  occ. eigenvalues --   -0.59988  -0.58963  -0.58692  -0.56434  -0.55215
 Alpha  occ. eigenvalues --   -0.51391  -0.50605  -0.49547  -0.44180  -0.43995
 Alpha  occ. eigenvalues --   -0.34939  -0.34068
 Alpha virt. eigenvalues --    0.03315   0.03354   0.03547   0.04744   0.04931
 Alpha virt. eigenvalues --    0.05170   0.07239   0.08024   0.08056   0.08816
 Alpha virt. eigenvalues --    0.09157   0.10311   0.10699   0.12587   0.13094

 Mulliken charges:
               1
     1  C   -0.194590
     2  C   -0.061990
     3  C    0.273150
     4  C    0.460355
     5  C    0.194842
     6  C    1.369230
     7  H   -0.284417
     8  H   -0.230140
     9  C   -0.637808
    10  C   -0.809289
    11  H   -0.284080
    12  H   -0.281352
    13  H    0.010829
    14  Cl  -0.103478
    15  H    0.031695
    16  H    0.180068
    17  H    0.078408
    18  H    0.288568
 Sum of Mulliken charges =  -0.00000

 Dipole moment (field-independent basis, Debye):
    X=             -2.1453    Y=              0.3238    Z=              1.4886  Tot=              2.6312

 Test job not archived.
 1\1\GINC-SE453\SP\RHF\Aug-CC-pVDZ\C8H9Cl1\OHZDE\08-Apr-2025\0\\#t hf a
 ug-cc-pvdz iop(5/13=1,5/36=2,99/5=2) pseudo=read geom=check guess=(rea
 d,tcheck) scf=(maxcycle=1)\\title\\0,1\C,0,0.021653,1.571669,0.155295\
 C,0,-1.290048,1.843893,-0.221921\C,0,-2.22377,0.815107,-0.301786\C,0,-
 1.864686,-0.505508,-0.007627\C,0,-0.546472,-0.760862,0.372667\C,0,0.40
 2661,0.262585,0.457301\H,0,0.749649,2.373549,0.215803\H,0,-1.586819,2.
 861492,-0.449949\C,0,1.806422,-0.042743,0.875316\C,0,-2.873547,-1.6232
 47,-0.119481\H,0,-3.24526,1.038242,-0.593046\H,0,-0.248365,-1.778634,0

 Normal termination of Gaussian 16 at Tue Apr  8 22:49:44 2025.
