 Gaussian 16, Revision C.01,

 ----------------------------------------------------------------------
 #t hf aug-cc-pvdz symm=none int=(grid=ultrafine) guess=(read,tcheck) s
 table=(opt,rrhf)
 ----------------------------------------------------------------------
 -----
 title
 -----
 Symbolic Z-matrix:
 Charge =  0 Multiplicity = 1

 SCF Done:  E(RHF) =  -896.863792543     A.U. after   16 cycles
 Normal termination of Gaussian 16 at Tue Apr  8 22:45:22 2025.
 Gaussian 16:  ES64L-G16RevC.01  3-Jul-2019

 ----------------------------------------------------------------------
 #t hf aug-cc-pvdz iop(5/13=1,5/36=2,99/5=2) pseudo=read geom=check gue
 ss=(read,tcheck) scf=(maxcycle=1)
 ----------------------------------------------------------------------
 -----
 title
 -----
 Structure from the checkpoint file:  "BDE49_expt_1226_mol1.chk"
 Charge =  0 Multiplicity = 1

                         Standard orientation:
 ---------------------------------------------------------------------
 Center     Atomic      Atomic             Coordinates (Angstroms)
 Number     Number       Type             X           Y           Z
 ---------------------------------------------------------------------
      1          6           0       -1.658016    0.579407    0.482207
      2          6           0       -0.727998    1.718147    0.796099
      3         16           0        0.596537    2.025801   -0.470510
      4          1           0       -0.241832    1.580190    1.762461
      5          1           0       -1.264316    2.669624    0.822553
      6          6           0        1.616044    0.563130   -0.291256
      7          6           0        1.405189   -0.549179   -1.112012
      8          6           0        2.659305    0.544609    0.641210
      9          6           0        3.474412   -0.578593    0.757418
     10          6           0        3.258610   -1.686898   -0.060286
     11          6           0        2.225361   -1.669547   -0.994631
     12          1           0        2.055780   -2.528284   -1.634471
     13          1           0        0.600543   -0.529639   -1.836191
     14          1           0        4.282471   -0.584700    1.480478
     15          1           0        3.897246   -2.558688    0.027403
     16          1           0        2.832032    1.414894    1.263343
     17          6           0       -2.679575    0.727571   -0.464029
     18          6           0       -1.518114   -0.652372    1.128130
     19          6           0       -2.378336   -1.710752    0.839703
     20          6           0       -3.391837   -1.550599   -0.100766
     21          6           0       -3.540176   -0.325910   -0.752554
     22          1           0       -2.795954    1.675753   -0.978864
     23          1           0       -4.329557   -0.192321   -1.483981
     24          1           0       -2.255673   -2.658780    1.351563
     25          1           0       -4.063727   -2.371592   -0.324392
     26          1           0       -0.730818   -0.783355    1.862845
 ---------------------------------------------------------------------

 SCF Done:  E(RHF) =  -897.437927900     A.U. after    2 cycles

 The electronic state is 1-A.
 Alpha  occ. eigenvalues --  -93.94607 -11.27549 -11.27025 -11.25134 -11.25066
 Alpha  occ. eigenvalues --  -11.25024 -11.24888 -11.24785 -11.24678 -11.24435
 Alpha  occ. eigenvalues --  -11.24388 -11.24256 -11.24214 -11.24206  -8.22600
 Alpha  occ. eigenvalues --   -6.20423  -6.20264  -6.20058  -1.16856  -1.15964
 Alpha  occ. eigenvalues --   -1.08668  -1.03786  -1.02214  -1.01707  -0.98068
 Alpha  occ. eigenvalues --   -0.89742  -0.84143  -0.83782  -0.81990  -0.79608
 Alpha  occ. eigenvalues --   -0.71469  -0.70596  -0.66113  -0.65170  -0.64588
 Alpha  occ. eigenvalues --   -0.63890  -0.60506  -0.60124  -0.59634  -0.58554
 Alpha  occ. eigenvalues --   -0.57081  -0.54187  -0.51752  -0.51295  -0.50917
 Alpha  occ. eigenvalues --   -0.50229  -0.48943  -0.45344  -0.36250  -0.35292
 Alpha  occ. eigenvalues --   -0.35052  -0.34378  -0.32988
 Alpha virt. eigenvalues --    0.03040   0.03123   0.03605   0.03960   0.04367
 Alpha virt. eigenvalues --    0.04578   0.05366   0.05765   0.06763   0.07170
 Alpha virt. eigenvalues --    0.08114   0.08653   0.08843   0.09668   0.10286

 Mulliken charges:
               1
     1  C    1.741518
     2  C   -0.896130
     3  S    0.153044
     4  H   -0.046104
     5  H    0.058756
     6  C    0.645441
     7  C    0.159325
     8  C   -0.256326
     9  C    0.247954
    10  C    0.199804
    11  C    0.121947
    12  H   -0.257954
    13  H   -0.287986
    14  H   -0.220443
    15  H   -0.216022
    16  H   -0.263872
    17  C    0.038139
    18  C    0.327850
    19  C   -0.060868
    20  C    0.170021
    21  C    0.077906
    22  H   -0.331396
    23  H   -0.240424
    24  H   -0.266705
    25  H   -0.224161
    26  H   -0.373314
 Sum of Mulliken charges =   0.00000

 Dipole moment (field-independent basis, Debye):
    X=             -0.1848    Y=             -1.5464    Z=              0.9962  Tot=              1.8488

 Test job not archived.
 1\1\GINC-SE106\SP\RHF\Aug-CC-pVDZ\C13H12S1\OHZDE\08-Apr-2025\0\\#t hf
 aug-cc-pvdz iop(5/13=1,5/36=2,99/5=2) pseudo=read geom=check guess=(re
 ad,tcheck) scf=(maxcycle=1)\\title\\0,1\C,0,-1.658016,0.579407,0.48220
 7\C,0,-0.727998,1.718147,0.796099\S,0,0.596537,2.025801,-0.47051\H,0,-
 0.241832,1.58019,1.762461\H,0,-1.264316,2.669624,0.822553\C,0,1.616044
 ,0.56313,-0.291256\C,0,1.405189,-0.549179,-1.112012\C,0,2.659305,0.544
 609,0.64121\C,0,3.474412,-0.578593,0.757418\C,0,3.25861,-1.686898,-0.0
 60286\C,0,2.225361,-1.669547,-0.994631\H,0,2.05578,-2.528284,-1.634471

 Normal termination of Gaussian 16 at Tue Apr  8 22:45:51 2025.
