 Gaussian 16, Revision C.01,

 ----------------------------------------------------------------------
 #t hf aug-cc-pvdz symm=none int=(grid=ultrafine) guess=(read,tcheck) s
 table=(opt,rrhf)
 ----------------------------------------------------------------------
 -----
 title
 -----
 Symbolic Z-matrix:
 Charge =  0 Multiplicity = 1

 SCF Done:  E(RHF) =  -734.992831449     A.U. after   15 cycles
 Normal termination of Gaussian 16 at Wed Apr  9 00:49:16 2025.
 Gaussian 16:  ES64L-G16RevC.01  3-Jul-2019

 ----------------------------------------------------------------------
 #t hf aug-cc-pvdz iop(5/13=1,5/36=2,99/5=2) pseudo=read geom=check gue
 ss=(read,tcheck) scf=(maxcycle=1)
 ----------------------------------------------------------------------
 -----
 title
 -----
 Structure from the checkpoint file:  "BDE49_nonexpt_833_mol1.chk"
 Charge =  0 Multiplicity = 1

                         Standard orientation:
 ---------------------------------------------------------------------
 Center     Atomic      Atomic             Coordinates (Angstroms)
 Number     Number       Type             X           Y           Z
 ---------------------------------------------------------------------
      1          6           0        2.715873   -1.302712    0.488938
      2          6           0        1.419555   -1.491245    0.015334
      3          6           0        3.235808   -0.014874    0.562126
      4          6           0        2.457788    1.068808    0.161652
      5          6           0        1.155048    0.893885   -0.314652
      6          6           0        0.616352   -0.413288   -0.391890
      7          1           0        3.313583   -2.154573    0.793582
      8          1           0        1.024501   -2.500413   -0.045189
      9          5           0       -2.473207   -0.062645    0.422540
     10          8           0       -2.063783    0.483807    1.610836
     11          8           0       -3.808415   -0.135633    0.174278
     12          1           0        2.870382    2.071353    0.215742
     13          1           0        4.244069    0.148958    0.926403
     14          6           0        0.353234    2.100729   -0.749194
     15          1           0        0.922957    3.021907   -0.614881
     16          1           0       -0.573127    2.200147   -0.174063
     17          1           0        0.069881    2.033206   -1.803926
     18          1           0       -4.335532    0.211801    0.905908
     19          1           0       -1.107879    0.472532    1.722899
     20         14           0       -1.152039   -0.760510   -0.966909
     21          1           0       -1.404861   -0.145134   -2.295263
     22          1           0       -1.273737   -2.232615   -1.121979
 ---------------------------------------------------------------------

 SCF Done:  E(RHF) =  -735.479495606     A.U. after    2 cycles

 The electronic state is 1-A.
 Alpha  occ. eigenvalues --  -69.51351 -20.56387 -20.55801 -11.25915 -11.25017
 Alpha  occ. eigenvalues --  -11.24996 -11.24331 -11.24316 -11.24140 -11.23257
 Alpha  occ. eigenvalues --   -7.64097  -6.18589  -3.93953  -3.93943  -3.93888
 Alpha  occ. eigenvalues --   -1.48418  -1.44095  -1.15925  -1.05269  -1.01847
 Alpha  occ. eigenvalues --   -0.94224  -0.84132  -0.81625  -0.78071  -0.74725
 Alpha  occ. eigenvalues --   -0.71941  -0.68369  -0.65856  -0.63034  -0.61509
 Alpha  occ. eigenvalues --   -0.59133  -0.58795  -0.57149  -0.56551  -0.55887
 Alpha  occ. eigenvalues --   -0.54517  -0.50534  -0.50400  -0.49351  -0.47659
 Alpha  occ. eigenvalues --   -0.45886  -0.42409  -0.34771  -0.34019
 Alpha virt. eigenvalues --    0.03189   0.03280   0.03505   0.03957   0.04897
 Alpha virt. eigenvalues --    0.05004   0.06286   0.06712   0.06992   0.07569
 Alpha virt. eigenvalues --    0.08014   0.08812   0.09089   0.09474   0.09959

 Mulliken charges:
               1
     1  C    0.209440
     2  C    0.148983
     3  C    0.151767
     4  C    0.695988
     5  C    0.577803
     6  C   -0.364832
     7  H   -0.221263
     8  H   -0.350498
     9  B    1.908445
    10  O   -1.459024
    11  O   -1.322702
    12  H   -0.298201
    13  H   -0.231239
    14  C   -0.787914
    15  H   -0.013297
    16  H    0.196682
    17  H    0.271142
    18  H    0.526135
    19  H    0.657739
    20  Si  -0.030184
    21  H   -0.062614
    22  H   -0.202354
 Sum of Mulliken charges =  -0.00000

 Dipole moment (field-independent basis, Debye):
    X=              1.3257    Y=              0.8645    Z=              1.0726  Tot=              1.9119

 Test job not archived.
 1\1\GINC-SE368\SP\RHF\Aug-CC-pVDZ\C7H11B1O2Si1\OHZDE\09-Apr-2025\0\\#t
  hf aug-cc-pvdz iop(5/13=1,5/36=2,99/5=2) pseudo=read geom=check guess
 =(read,tcheck) scf=(maxcycle=1)\\title\\0,1\C,0,2.715873,-1.302712,0.4
 88938\C,0,1.419555,-1.491245,0.015334\C,0,3.235808,-0.014874,0.562126\
 C,0,2.457788,1.068808,0.161652\C,0,1.155048,0.893885,-0.314652\C,0,0.6
 16352,-0.413288,-0.39189\H,0,3.313583,-2.154573,0.793582\H,0,1.024501,
 -2.500413,-0.045189\B,0,-2.473207,-0.062645,0.42254\O,0,-2.063783,0.48
 3807,1.610836\O,0,-3.808415,-0.135633,0.174278\H,0,2.870382,2.071353,0

 Normal termination of Gaussian 16 at Wed Apr  9 00:49:28 2025.
