 Gaussian 16, Revision C.01,

 ----------------------------------------------------------------------
 #t hf aug-cc-pvdz symm=none int=(grid=ultrafine) guess=(read,tcheck) s
 table=(opt,rrhf)
 ----------------------------------------------------------------------
 -----
 title
 -----
 Symbolic Z-matrix:
 Charge =  0 Multiplicity = 1

 SCF Done:  E(RHF) =  -1662.79454045     A.U. after   14 cycles
 Normal termination of Gaussian 16 at Tue Apr  8 22:50:37 2025.
 Gaussian 16:  ES64L-G16RevC.01  3-Jul-2019

 ----------------------------------------------------------------------
 #t hf aug-cc-pvdz iop(5/13=1,5/36=2,99/5=2) pseudo=read geom=check gue
 ss=(read,tcheck) scf=(maxcycle=1)
 ----------------------------------------------------------------------
 -----
 title
 -----
 Structure from the checkpoint file:  "BDE49_expt_1724_mol1.chk"
 Charge =  0 Multiplicity = 1

                         Standard orientation:
 ---------------------------------------------------------------------
 Center     Atomic      Atomic             Coordinates (Angstroms)
 Number     Number       Type             X           Y           Z
 ---------------------------------------------------------------------
      1          6           0        0.713435   -0.001156   -0.000869
      2          6           0       -0.668598    0.771991    0.008814
      3         17           0        2.046544    1.168785   -0.067735
      4         17           0        0.838486   -1.070241   -1.453664
      5         17           0        0.905761   -0.976979    1.510680
      6          7           0       -1.822896    0.051369    0.029588
      7          6           0       -3.078562    0.803793   -0.006479
      8          8           0       -0.629874    1.982908    0.000987
      9          1           0       -2.859567    1.866844   -0.007351
     10          1           0       -3.684988    0.554144    0.869303
     11          1           0       -3.642403    0.545165   -0.908550
     12          6           0       -2.006252   -1.397270    0.001216
     13          1           0       -1.090194   -1.935846    0.204832
     14          1           0       -2.390311   -1.712516   -0.974733
     15          1           0       -2.736859   -1.671397    0.767613
 ---------------------------------------------------------------------

 SCF Done:  E(RHF) =  -1663.30858377     A.U. after    2 cycles

 The electronic state is 1-A.
 Alpha  occ. eigenvalues -- -105.60363-105.60350-105.59054 -20.53543 -15.55210
 Alpha  occ. eigenvalues --  -11.46113 -11.40010 -11.28948 -11.27846 -10.65151
 Alpha  occ. eigenvalues --  -10.65138 -10.63864  -7.82094  -7.82084  -7.81680
 Alpha  occ. eigenvalues --   -7.81667  -7.81665  -7.81656  -7.80825  -7.80374
 Alpha  occ. eigenvalues --   -7.80366  -1.49227  -1.27645  -1.21146  -1.07525
 Alpha  occ. eigenvalues --   -1.06660  -1.00026  -0.99688  -0.88693  -0.77545
 Alpha  occ. eigenvalues --   -0.72600  -0.69589  -0.69548  -0.64496  -0.62824
 Alpha  occ. eigenvalues --   -0.62616  -0.59853  -0.58300  -0.56500  -0.55818
 Alpha  occ. eigenvalues --   -0.52386  -0.51691  -0.49518  -0.47813  -0.46922
 Alpha  occ. eigenvalues --   -0.45960  -0.43780  -0.41800
 Alpha virt. eigenvalues --    0.03194   0.04317   0.04375   0.05722   0.06285
 Alpha virt. eigenvalues --    0.07068   0.07883   0.08813   0.09027   0.09292
 Alpha virt. eigenvalues --    0.10910   0.11190   0.13020   0.13660   0.14280

 Mulliken charges:
               1
     1  C   -0.684860
     2  C    0.311824
     3  Cl   0.114225
     4  Cl   0.084939
     5  Cl   0.075757
     6  N    1.059260
     7  C   -0.255025
     8  O   -1.160005
     9  H   -0.029125
    10  H    0.211701
    11  H    0.242323
    12  C   -0.361707
    13  H    0.054493
    14  H    0.192558
    15  H    0.143640
 Sum of Mulliken charges =  -0.00000

 Dipole moment (field-independent basis, Debye):
    X=             -2.8162    Y=             -2.5586    Z=             -0.0216  Tot=              3.8050

 Test job not archived.
 1\1\GINC-SE073\SP\RHF\Aug-CC-pVDZ\C4H6Cl3N1O1\OHZDE\08-Apr-2025\0\\#t
 hf aug-cc-pvdz iop(5/13=1,5/36=2,99/5=2) pseudo=read geom=check guess=
 (read,tcheck) scf=(maxcycle=1)\\title\\0,1\C,0,0.713435,-0.001156,-0.0
 00869\C,0,-0.668598,0.771991,0.008814\Cl,0,2.046544,1.168785,-0.067735
 \Cl,0,0.838486,-1.070241,-1.453664\Cl,0,0.905761,-0.976979,1.51068\N,0
 ,-1.822896,0.051369,0.029588\C,0,-3.078562,0.803793,-0.006479\O,0,-0.6
 29874,1.982908,0.000987\H,0,-2.859567,1.866844,-0.007351\H,0,-3.684988
 ,0.554143,0.869303\H,0,-3.642403,0.545164,-0.90855\C,0,-2.006252,-1.39

 Normal termination of Gaussian 16 at Tue Apr  8 22:50:44 2025.
