 Gaussian 16, Revision C.01,

 ----------------------------------------------------------------------
 #t hf aug-cc-pvdz symm=none int=(grid=ultrafine) guess=(read,tcheck) s
 table=(opt,rrhf)
 ----------------------------------------------------------------------
 -----
 title
 -----
 Symbolic Z-matrix:
 Charge =  0 Multiplicity = 1

 SCF Done:  E(RHF) =  -921.575273777     A.U. after   17 cycles
 Normal termination of Gaussian 16 at Tue Apr  8 23:32:32 2025.
 Gaussian 16:  ES64L-G16RevC.01  3-Jul-2019

 ----------------------------------------------------------------------
 #t hf aug-cc-pvdz iop(5/13=1,5/36=2,99/5=2) pseudo=read geom=check gue
 ss=(read,tcheck) scf=(maxcycle=1)
 ----------------------------------------------------------------------
 -----
 title
 -----
 Structure from the checkpoint file:  "BDE49_nonexpt_1382_mol1.chk"
 Charge =  0 Multiplicity = 1

                         Standard orientation:
 ---------------------------------------------------------------------
 Center     Atomic      Atomic             Coordinates (Angstroms)
 Number     Number       Type             X           Y           Z
 ---------------------------------------------------------------------
      1          6           0       -0.709852   -0.210966   -0.389971
      2          6           0       -1.442361    0.893753   -0.838783
      3          1           0       -1.002278    1.583603   -1.549920
      4          6           0       -2.735867    1.109935   -0.369969
      5          1           0       -3.297857    1.968984   -0.718473
      6          6           0       -3.311099    0.215954    0.530904
      7          1           0       -4.321914    0.379927    0.886843
      8          6           0       -2.589167   -0.894514    0.967976
      9          1           0       -3.036875   -1.594072    1.664873
     10          6           0       -1.290741   -1.108033    0.515719
     11          1           0       -0.728212   -1.971013    0.851245
     12         15           0        0.984543   -0.486124   -1.046326
     13          9           0        1.109236   -2.093917   -0.802594
     14          6           0        1.903982   -0.003016    0.552932
     15          8           0        2.411597   -0.817819    1.276612
     16          6           0        2.004113    1.489237    0.833973
     17          9           0        1.426951    2.205960   -0.214498
     18          1           0        3.054169    1.778384    0.925610
     19          1           0        1.472306    1.726121    1.758962
 ---------------------------------------------------------------------

 SCF Done:  E(RHF) =  -922.183696617     A.U. after    2 cycles

 The electronic state is 1-A.
 Alpha  occ. eigenvalues --  -84.35758 -26.48107 -26.46252 -20.57025 -11.36464
 Alpha  occ. eigenvalues --  -11.35407 -11.26663 -11.26531 -11.26266 -11.26235
 Alpha  occ. eigenvalues --  -11.25823 -11.25768  -6.82061  -4.35020  -4.34528
 Alpha  occ. eigenvalues --   -4.33879  -1.60236  -1.57485  -1.50273  -1.17279
 Alpha  occ. eigenvalues --   -1.04898  -1.03449  -1.02567  -0.91377  -0.85250
 Alpha  occ. eigenvalues --   -0.83453  -0.77862  -0.73346  -0.72533  -0.71734
 Alpha  occ. eigenvalues --   -0.70045  -0.66654  -0.65990  -0.65897  -0.64376
 Alpha  occ. eigenvalues --   -0.62215  -0.61424  -0.59391  -0.58790  -0.58132
 Alpha  occ. eigenvalues --   -0.53510  -0.52795  -0.52186  -0.51887  -0.42676
 Alpha  occ. eigenvalues --   -0.38932  -0.36205  -0.33695
 Alpha virt. eigenvalues --    0.03040   0.03639   0.03761   0.04580   0.04920
 Alpha virt. eigenvalues --    0.06071   0.06649   0.07198   0.07958   0.08439
 Alpha virt. eigenvalues --    0.09212   0.09741   0.10661   0.11100   0.11534

 Mulliken charges:
               1
     1  C    0.479372
     2  C   -0.346053
     3  H   -0.243740
     4  C    0.377930
     5  H   -0.216145
     6  C    0.125493
     7  H   -0.209606
     8  C    0.503011
     9  H   -0.207920
    10  C   -0.087508
    11  H   -0.310875
    12  P    1.628381
    13  F   -0.876856
    14  C    0.510490
    15  O   -1.319375
    16  C    0.497538
    17  F   -0.680705
    18  H    0.167942
    19  H    0.208628
 Sum of Mulliken charges =  -0.00000

 Dipole moment (field-independent basis, Debye):
    X=             -1.9717    Y=              2.5013    Z=              0.4957  Tot=              3.2234

 Test job not archived.
 1\1\GINC-SE072\SP\RHF\Aug-CC-pVDZ\C8H7F2O1P1\OHZDE\08-Apr-2025\0\\#t h
 f aug-cc-pvdz iop(5/13=1,5/36=2,99/5=2) pseudo=read geom=check guess=(
 read,tcheck) scf=(maxcycle=1)\\title\\0,1\C,0,-0.709852,-0.210966,-0.3
 89971\C,0,-1.442361,0.893753,-0.838783\H,0,-1.002278,1.583603,-1.54992
 \C,0,-2.735867,1.109935,-0.369969\H,0,-3.297857,1.968984,-0.718473\C,0
 ,-3.311099,0.215954,0.530904\H,0,-4.321914,0.379927,0.886843\C,0,-2.58
 9167,-0.894514,0.967976\H,0,-3.036875,-1.594072,1.664873\C,0,-1.290741
 ,-1.108033,0.515719\H,0,-0.728212,-1.971013,0.851245\P,0,0.984543,-0.4

 Normal termination of Gaussian 16 at Tue Apr  8 23:32:46 2025.
