 Gaussian 16, Revision C.01,

 ----------------------------------------------------------------------
 #t hf aug-cc-pvdz symm=none int=(grid=ultrafine) guess=(read,tcheck) s
 table=(opt,rrhf)
 ----------------------------------------------------------------------
 -----
 title
 -----
 Symbolic Z-matrix:
 Charge =  0 Multiplicity = 1

 SCF Done:  E(RHF) =  -1348.24042843     A.U. after   13 cycles
 Normal termination of Gaussian 16 at Tue Apr  8 23:32:02 2025.
 Gaussian 16:  ES64L-G16RevC.01  3-Jul-2019

 ----------------------------------------------------------------------
 #t hf aug-cc-pvdz iop(5/13=1,5/36=2,99/5=2) pseudo=read geom=check gue
 ss=(read,tcheck) scf=(maxcycle=1)
 ----------------------------------------------------------------------
 -----
 title
 -----
 Structure from the checkpoint file:  "BDE49_nonexpt_1359_mol1.chk"
 Charge =  0 Multiplicity = 1

                         Standard orientation:
 ---------------------------------------------------------------------
 Center     Atomic      Atomic             Coordinates (Angstroms)
 Number     Number       Type             X           Y           Z
 ---------------------------------------------------------------------
      1          9           0       -2.840796    0.527383   -0.662082
      2          9           0       -2.878996   -1.333707    0.945621
      3          8           0        0.777135    3.043203    0.118359
      4          6           0       -0.257693    2.290162   -0.549599
      5          1           0       -0.220046    2.412169   -1.636146
      6          1           0       -1.256688    2.554299   -0.189614
      7          6           0        0.285652    0.948734    0.025230
      8         15           0       -1.962527   -0.790046   -0.274814
      9          6           0       -0.723026    0.076432    0.783267
     10          1           0       -1.294106    0.683784    1.492163
     11          1           0       -0.209951   -0.704810    1.350926
     12          6           0        1.158324    1.891497    0.901398
     13          1           0        0.813575    1.969313    1.938933
     14          1           0        2.236689    1.723543    0.889777
     15          6           0        1.123569    0.193138   -1.026853
     16         15           0        2.135271   -1.267874   -0.535889
     17          9           0        0.918133   -2.286599   -0.168912
     18          9           0        2.498318   -0.821872    0.985707
     19          1           0        1.833006    0.894006   -1.484340
     20          1           0        0.498404   -0.175747   -1.851689
 ---------------------------------------------------------------------

 SCF Done:  E(RHF) =  -1348.96287580     A.U. after    2 cycles

 The electronic state is 1-A.
 Alpha  occ. eigenvalues --  -84.42591 -84.41232 -26.49345 -26.49281 -26.48132
 Alpha  occ. eigenvalues --  -26.48023 -20.55331 -11.30414 -11.30305 -11.28872
 Alpha  occ. eigenvalues --  -11.27909 -11.26458  -6.88191  -6.86859  -4.40913
 Alpha  occ. eigenvalues --   -4.40485  -4.39678  -4.39606  -4.39209  -4.38252
 Alpha  occ. eigenvalues --   -1.62818  -1.61514  -1.58619  -1.57402  -1.47543
 Alpha  occ. eigenvalues --   -1.12709  -1.01591  -0.96089  -0.95686  -0.85798
 Alpha  occ. eigenvalues --   -0.84356  -0.77160  -0.72577  -0.71770  -0.71206
 Alpha  occ. eigenvalues --   -0.70674  -0.69634  -0.69503  -0.68703  -0.67797
 Alpha  occ. eigenvalues --   -0.66680  -0.64807  -0.63416  -0.62792  -0.61869
 Alpha  occ. eigenvalues --   -0.60631  -0.59965  -0.58241  -0.56710  -0.56121
 Alpha  occ. eigenvalues --   -0.53326  -0.48316  -0.47840  -0.42996  -0.38710
 Alpha  occ. eigenvalues --   -0.37560
 Alpha virt. eigenvalues --    0.03317   0.04011   0.04386   0.04818   0.05851
 Alpha virt. eigenvalues --    0.06074   0.06305   0.06974   0.07356   0.09017
 Alpha virt. eigenvalues --    0.09234   0.10484   0.11000   0.11524   0.12498

 Mulliken charges:
               1
     1  F   -0.881698
     2  F   -0.808583
     3  O   -1.303190
     4  C    0.909077
     5  H    0.097853
     6  H    0.053542
     7  C   -0.752806
     8  P    1.987759
     9  C   -0.766631
    10  H    0.029246
    11  H    0.111700
    12  C    0.897839
    13  H    0.052785
    14  H    0.085720
    15  C   -0.565695
    16  P    2.154794
    17  F   -0.775937
    18  F   -0.831759
    19  H    0.144524
    20  H    0.161459
 Sum of Mulliken charges =   0.00000

 Dipole moment (field-independent basis, Debye):
    X=              1.5140    Y=             -0.3483    Z=             -1.1319  Tot=              1.9221

 Test job not archived.
 1\1\GINC-SE071\SP\RHF\Aug-CC-pVDZ\C5H8F4O1P2\OHZDE\08-Apr-2025\0\\#t h
 f aug-cc-pvdz iop(5/13=1,5/36=2,99/5=2) pseudo=read geom=check guess=(
 read,tcheck) scf=(maxcycle=1)\\title\\0,1\F,0,-2.840796,0.527383,-0.66
 2082\F,0,-2.878996,-1.333707,0.945621\O,0,0.777135,3.043203,0.118359\C
 ,0,-0.257693,2.290162,-0.549599\H,0,-0.220046,2.412169,-1.636146\H,0,-
 1.256688,2.554299,-0.189614\C,0,0.285652,0.948734,0.02523\P,0,-1.96252
 7,-0.790046,-0.274814\C,0,-0.723026,0.076432,0.783267\H,0,-1.294106,0.
 683784,1.492163\H,0,-0.209951,-0.70481,1.350926\C,0,1.158324,1.891497,

 Normal termination of Gaussian 16 at Tue Apr  8 23:32:16 2025.
