 Gaussian 16, Revision C.01,

 ----------------------------------------------------------------------
 #t hf aug-cc-pvdz symm=none int=(grid=ultrafine) guess=(read,tcheck) s
 table=(opt,rrhf)
 ----------------------------------------------------------------------
 -----
 title
 -----
 Symbolic Z-matrix:
 Charge =  0 Multiplicity = 1

 SCF Done:  E(RHF) =  -647.133991866     A.U. after   16 cycles
 Normal termination of Gaussian 16 at Wed Apr  9 00:21:37 2025.
 Gaussian 16:  ES64L-G16RevC.01  3-Jul-2019

 ----------------------------------------------------------------------
 #t hf aug-cc-pvdz iop(5/13=1,5/36=2,99/5=2) pseudo=read geom=check gue
 ss=(read,tcheck) scf=(maxcycle=1)
 ----------------------------------------------------------------------
 -----
 title
 -----
 Structure from the checkpoint file:  "BDE49_nonexpt_2650_mol1.chk"
 Charge =  0 Multiplicity = 1

                         Standard orientation:
 ---------------------------------------------------------------------
 Center     Atomic      Atomic             Coordinates (Angstroms)
 Number     Number       Type             X           Y           Z
 ---------------------------------------------------------------------
      1          9           0       -1.462459    0.839509    0.076143
      2         16           0       -0.597849   -0.558557   -0.179647
      3          8           0        0.751759   -0.334942    0.562646
      4          8           0        1.820910    0.382123   -0.331300
      5          1           0        2.146361    1.003879    0.338303
 ---------------------------------------------------------------------

 SCF Done:  E(RHF) =  -647.422856087     A.U. after    2 cycles

 The electronic state is 1-A.
 Alpha  occ. eigenvalues --  -94.10266 -26.48402 -20.69301 -20.66132  -8.37052
 Alpha  occ. eigenvalues --   -6.34823  -6.34552  -6.34140  -1.61752  -1.57539
 Alpha  occ. eigenvalues --   -1.38670  -0.96256  -0.74371  -0.72241  -0.69667
 Alpha  occ. eigenvalues --   -0.66702  -0.62517  -0.59918  -0.54641  -0.52085
 Alpha  occ. eigenvalues --   -0.39351
 Alpha virt. eigenvalues --    0.03667   0.07050   0.07435   0.09806   0.10537
 Alpha virt. eigenvalues --    0.14484   0.16596   0.17827   0.20064   0.21578
 Alpha virt. eigenvalues --    0.22424   0.23099   0.24394   0.27478   0.29225

 Mulliken charges:
               1
     1  F   -0.632072
     2  S    1.342514
     3  O   -0.719957
     4  O   -0.489771
     5  H    0.499286
 Sum of Mulliken charges =   0.00000

 Dipole moment (field-independent basis, Debye):
    X=              1.2319    Y=              0.1822    Z=              0.5141  Tot=              1.3472

 Test job not archived.
 1\1\GINC-SE459\SP\RHF\Aug-CC-pVDZ\F1H1O2S1\OHZDE\09-Apr-2025\0\\#t hf
 aug-cc-pvdz iop(5/13=1,5/36=2,99/5=2) pseudo=read geom=check guess=(re
 ad,tcheck) scf=(maxcycle=1)\\title\\0,1\F,0,-1.462459,0.839509,0.07614
 3\S,0,-0.597849,-0.558557,-0.179647\O,0,0.751759,-0.334942,0.562646\O,
 0,1.82091,0.382123,-0.3313\H,0,2.146361,1.00388,0.338303\\Version=ES64
 L-G16RevC.01\State=1-A\HF=-647.4228561\RMSD=5.020e-03\Dipole=0.4846509
 ,0.0716643,0.2022578\Quadrupole=0.7194516,0.5436636,-1.2631152,3.41377
 98,1.967146,1.2399597\PG=C01 [X(F1H1O2S1)]\\@

 Normal termination of Gaussian 16 at Wed Apr  9 00:21:39 2025.
