 Gaussian 16, Revision C.01,

 ----------------------------------------------------------------------
 #t hf aug-cc-pvdz symm=none int=(grid=ultrafine) guess=(read,tcheck) s
 table=(opt,rrhf)
 ----------------------------------------------------------------------
 -----
 title
 -----
 Symbolic Z-matrix:
 Charge =  0 Multiplicity = 1

 SCF Done:  E(RHF) =  -554.910474301     A.U. after   12 cycles
 Normal termination of Gaussian 16 at Tue Apr  8 23:58:26 2025.
 Gaussian 16:  ES64L-G16RevC.01  3-Jul-2019

 ----------------------------------------------------------------------
 #t hf aug-cc-pvdz iop(5/13=1,5/36=2,99/5=2) pseudo=read geom=check gue
 ss=(read,tcheck) scf=(maxcycle=1)
 ----------------------------------------------------------------------
 -----
 title
 -----
 Structure from the checkpoint file:  "BDE49_nonexpt_2067_mol1.chk"
 Charge =  0 Multiplicity = 1

                         Standard orientation:
 ---------------------------------------------------------------------
 Center     Atomic      Atomic             Coordinates (Angstroms)
 Number     Number       Type             X           Y           Z
 ---------------------------------------------------------------------
      1         14           0        1.520469   -0.000000    0.011002
      2          6           0       -0.406207    0.000000   -0.013086
      3          8           0       -0.927639    1.099094   -0.720918
      4          1           0       -0.697649    1.888771   -0.219110
      5          8           0       -0.851749   -0.000004    1.322072
      6          1           0       -1.821368    0.000000    1.287076
      7          8           0       -0.927638   -1.099090   -0.720925
      8          1           0       -0.697657   -1.888769   -0.219115
      9          1           0        2.010965    1.211421    0.709570
     10          1           0        2.001624    0.000002   -1.385325
     11          1           0        2.010964   -1.211423    0.709567
 ---------------------------------------------------------------------

 SCF Done:  E(RHF) =  -555.209174655     A.U. after    2 cycles

 The electronic state is 1-A.
 Alpha  occ. eigenvalues --  -69.53874 -20.57548 -20.57203 -20.57201 -11.39588
 Alpha  occ. eigenvalues --   -6.21049  -3.96409  -3.96401  -3.96394  -1.54880
 Alpha  occ. eigenvalues --   -1.44642  -1.44430  -0.90487  -0.80459  -0.74028
 Alpha  occ. eigenvalues --   -0.67500  -0.65382  -0.62593  -0.61975  -0.53529
 Alpha  occ. eigenvalues --   -0.51791  -0.50059  -0.49556  -0.47429  -0.42307
 Alpha virt. eigenvalues --    0.03302   0.04319   0.04320   0.05354   0.06568
 Alpha virt. eigenvalues --    0.07416   0.08381   0.09096   0.10445   0.12006
 Alpha virt. eigenvalues --    0.14192   0.15092   0.15360   0.16797   0.19146

 Mulliken charges:
               1
     1  Si   0.887570
     2  C    2.675974
     3  O   -1.299176
     4  H    0.279005
     5  O   -1.152467
     6  H    0.167272
     7  O   -1.299176
     8  H    0.279005
     9  H   -0.188546
    10  H   -0.160916
    11  H   -0.188546
 Sum of Mulliken charges =  -0.00000

 Dipole moment (field-independent basis, Debye):
    X=              0.4473    Y=              0.0000    Z=              1.4824  Tot=              1.5484

 Test job not archived.
 1\1\GINC-SE366\SP\RHF\Aug-CC-pVDZ\C1H6O3Si1\OHZDE\08-Apr-2025\0\\#t hf
  aug-cc-pvdz iop(5/13=1,5/36=2,99/5=2) pseudo=read geom=check guess=(r
 ead,tcheck) scf=(maxcycle=1)\\title\\0,1\Si,0,1.520469,0.,0.011002\C,0
 ,-0.406207,0.,-0.013086\O,0,-0.927639,1.099094,-0.720918\H,0,-0.697649
 ,1.888771,-0.21911\O,0,-0.851749,-0.000004,1.322072\H,0,-1.821368,0.,1
 .287076\O,0,-0.927638,-1.09909,-0.720925\H,0,-0.697657,-1.888769,-0.21
 9115\H,0,2.010965,1.211421,0.70957\H,0,2.001624,0.000002,-1.385325\H,0
 ,2.010964,-1.211423,0.709567\\Version=ES64L-G16RevC.01\State=1-A\HF=-5

 Normal termination of Gaussian 16 at Tue Apr  8 23:58:29 2025.
