 Gaussian 16, Revision C.01,

 ----------------------------------------------------------------------
 #t hf aug-cc-pvdz symm=none int=(grid=ultrafine) guess=(read,tcheck) s
 table=opt
 ----------------------------------------------------------------------
 -----
 title
 -----
 Symbolic Z-matrix:
 Charge =  0 Multiplicity = 2

 SCF Done:  E(UHF) =  -174.149120325     A.U. after   16 cycles
 Normal termination of Gaussian 16 at Tue Apr  8 22:40:23 2025.
 Gaussian 16:  ES64L-G16RevC.01  3-Jul-2019

 ----------------------------------------------------------------------
 #t hf aug-cc-pvdz iop(5/13=1,5/36=2,99/5=2) pseudo=read geom=check gue
 ss=(read,tcheck) scf=(maxcycle=1)
 ----------------------------------------------------------------------
 -----
 title
 -----
 Structure from the checkpoint file:  "BDE49_expt_1326_mol3.chk"
 Charge =  0 Multiplicity = 2

                         Standard orientation:
 ---------------------------------------------------------------------
 Center     Atomic      Atomic             Coordinates (Angstroms)
 Number     Number       Type             X           Y           Z
 ---------------------------------------------------------------------
      1          8           0        0.000000    0.000000   -0.715266
      2          9           0        0.000000    0.000000    0.635792
 ---------------------------------------------------------------------

 SCF Done:  E(UHF) =  -174.301110327     A.U. after    2 cycles

 Unable to determine electronic state:  an orbital has unidentified symmetry.
 Alpha  occ. eigenvalues --  -26.55702 -20.75777  -1.75734  -1.35739  -0.81354
 Alpha  occ. eigenvalues --   -0.76390  -0.72457  -0.61991  -0.56168
 Alpha virt. eigenvalues --    0.11695   0.17360   0.17999   0.19047   0.25039
 Alpha virt. eigenvalues --    0.28880   0.29237   0.30536   0.50614   0.89423
 Alpha virt. eigenvalues --    0.89478   1.01611   1.04212   1.12593   1.24960

  Beta  occ. eigenvalues --  -26.55718 -20.71244  -1.71451  -1.23704  -0.75022
  Beta  occ. eigenvalues --   -0.71353  -0.68566  -0.52599
  Beta virt. eigenvalues --    0.05721   0.12401   0.17790   0.19279   0.23085
  Beta virt. eigenvalues --    0.26960   0.29224   0.29595   0.31601   0.50692
  Beta virt. eigenvalues --    0.92059   0.92112   1.04452   1.05240   1.14655

 Mulliken charges and spin densities:
               1          2
     1  O    0.278296   1.066946
     2  F   -0.278296  -0.066946
 Sum of Mulliken charges =  -0.00000   1.00000

 Dipole moment (field-independent basis, Debye):
    X=              0.0000    Y=              0.0000    Z=             -0.3282  Tot=              0.3282
                          Isotropic Fermi Contact Couplings
        Atom                 a.u.       MegaHertz       Gauss      10(-4) cm-1
     1  O(17)              0.22508    -136.44287     -48.68621     -45.51244
     2  F(19)              0.04848     203.96502      72.77979      68.03541
 --------------------------------------------------------
       Center         ----  Spin Dipole Couplings  ----
                      3XX-RR        3YY-RR        3ZZ-RR
 --------------------------------------------------------
     1   Atom        1.842984     -0.200858     -1.642126
     2   Atom        0.679735      0.303177     -0.982912

 Normal termination of Gaussian 16 at Tue Apr  8 22:40:25 2025.
