 Gaussian 16, Revision C.01,

 ----------------------------------------------------------------------
 #t hf aug-cc-pvdz symm=none int=(grid=ultrafine) guess=(read,tcheck) s
 table=(opt,rrhf)
 ----------------------------------------------------------------------
 -----
 title
 -----
 Symbolic Z-matrix:
 Charge =  0 Multiplicity = 1

 SCF Done:  E(RHF) =  -1012.93673576     A.U. after   11 cycles
 Normal termination of Gaussian 16 at Tue Apr  8 23:53:24 2025.
 Gaussian 16:  ES64L-G16RevC.01  3-Jul-2019

 ----------------------------------------------------------------------
 #t hf aug-cc-pvdz iop(5/13=1,5/36=2,99/5=2) pseudo=read geom=check gue
 ss=(read,tcheck) scf=(maxcycle=1)
 ----------------------------------------------------------------------
 -----
 title
 -----
 Structure from the checkpoint file:  "BDE49_nonexpt_1951_mol1.chk"
 Charge =  0 Multiplicity = 1

                         Standard orientation:
 ---------------------------------------------------------------------
 Center     Atomic      Atomic             Coordinates (Angstroms)
 Number     Number       Type             X           Y           Z
 ---------------------------------------------------------------------
      1         14           0       -0.640039    1.011058   -0.226733
      2          6           0        1.064729    0.775052    0.552967
      3         15           0        2.100951   -0.568903   -0.241736
      4          1           0        1.369452   -1.685684    0.241207
      5          1           0        3.089412   -0.682098    0.771662
      6         15           0       -1.977506   -0.787584    0.208132
      7          1           0       -0.493853    1.274641   -1.678272
      8          1           0       -1.299318    2.181117    0.403803
      9          1           0       -1.457666   -1.589952   -0.841310
     10          1           0       -3.049316   -0.290359   -0.579351
     11          1           0        0.951251    0.619661    1.628646
     12          1           0        1.610530    1.714854    0.414131
 ---------------------------------------------------------------------

 SCF Done:  E(RHF) =  -1013.10950345     A.U. after    2 cycles

 The electronic state is 1-A.
 Alpha  occ. eigenvalues --  -84.27900 -84.26673 -69.54358 -11.24219  -6.74902
 Alpha  occ. eigenvalues --   -6.73947  -6.21338  -4.27314  -4.27228  -4.26572
 Alpha  occ. eigenvalues --   -4.26286  -4.26126  -4.25596  -3.96691  -3.96650
 Alpha  occ. eigenvalues --   -3.96642  -0.99590  -0.86927  -0.81321  -0.69397
 Alpha  occ. eigenvalues --   -0.60073  -0.55507  -0.50719  -0.49941  -0.48214
 Alpha  occ. eigenvalues --   -0.44629  -0.42521  -0.34831  -0.34669
 Alpha virt. eigenvalues --    0.03550   0.04302   0.04451   0.05033   0.06240
 Alpha virt. eigenvalues --    0.06975   0.07359   0.08091   0.09123   0.09816
 Alpha virt. eigenvalues --    0.10364   0.10585   0.11658   0.11897   0.12664

 Mulliken charges:
               1
     1  Si   1.252046
     2  C   -0.847200
     3  P   -0.408373
     4  H    0.366055
     5  H    0.400926
     6  P   -1.208955
     7  H   -0.139954
     8  H   -0.174048
     9  H    0.361886
    10  H    0.331628
    11  H    0.035667
    12  H    0.030322
 Sum of Mulliken charges =  -0.00000

 Dipole moment (field-independent basis, Debye):
    X=              0.2090    Y=              0.4208    Z=              0.5299  Tot=              0.7082

 Test job not archived.
 1\1\GINC-SE072\SP\RHF\Aug-CC-pVDZ\C1H8P2Si1\OHZDE\08-Apr-2025\0\\#t hf
  aug-cc-pvdz iop(5/13=1,5/36=2,99/5=2) pseudo=read geom=check guess=(r
 ead,tcheck) scf=(maxcycle=1)\\title\\0,1\Si,0,0.640039,1.011058,0.2267
 33\C,0,-1.064729,0.775052,-0.552967\P,0,-2.100951,-0.568903,0.241736\H
 ,0,-1.369452,-1.685684,-0.241207\H,0,-3.089412,-0.682098,-0.771662\P,0
 ,1.977506,-0.787584,-0.208132\H,0,0.493853,1.274641,1.678272\H,0,1.299
 318,2.181117,-0.403803\H,0,1.457666,-1.589952,0.84131\H,0,3.049316,-0.
 290359,0.579351\H,0,-0.951251,0.619661,-1.628646\H,0,-1.61053,1.714854

 Normal termination of Gaussian 16 at Tue Apr  8 23:53:28 2025.
