 Gaussian 16, Revision C.01,

 ----------------------------------------------------------------------
 #t hf aug-cc-pvdz symm=none int=(grid=ultrafine) guess=(read,tcheck) s
 table=(opt,rrhf)
 ----------------------------------------------------------------------
 -----
 title
 -----
 Symbolic Z-matrix:
 Charge =  0 Multiplicity = 1

 SCF Done:  E(RHF) =  -540.261691445     A.U. after   11 cycles
 Normal termination of Gaussian 16 at Tue Apr  8 23:32:59 2025.
 Gaussian 16:  ES64L-G16RevC.01  3-Jul-2019

 ----------------------------------------------------------------------
 #t hf aug-cc-pvdz iop(5/13=1,5/36=2,99/5=2) pseudo=read geom=check gue
 ss=(read,tcheck) scf=(maxcycle=1)
 ----------------------------------------------------------------------
 -----
 title
 -----
 Structure from the checkpoint file:  "BDE49_nonexpt_1449_mol1.chk"
 Charge =  0 Multiplicity = 1

                         Standard orientation:
 ---------------------------------------------------------------------
 Center     Atomic      Atomic             Coordinates (Angstroms)
 Number     Number       Type             X           Y           Z
 ---------------------------------------------------------------------
      1         15           0       -0.041579    0.544729    0.000000
      2          9           0       -0.041579   -0.495334    1.232238
      3          9           0       -0.041579   -0.495334   -1.232238
      4          1           0        1.372105    0.745074    0.000000
 ---------------------------------------------------------------------

 SCF Done:  E(RHF) =  -540.484502355     A.U. after    2 cycles

 The electronic state is 1-A'.
 Alpha  occ. eigenvalues --  -84.42205 -26.48804 -26.48802  -6.87815  -4.40562
 Alpha  occ. eigenvalues --   -4.39818  -4.38865  -1.62448  -1.58260  -0.88917
 Alpha  occ. eigenvalues --   -0.71503  -0.71201  -0.69488  -0.65452  -0.62655
 Alpha  occ. eigenvalues --   -0.58379  -0.39474
 Alpha virt. eigenvalues --    0.04225   0.06262   0.06870   0.08860   0.15695
 Alpha virt. eigenvalues --    0.17258   0.17297   0.23719   0.24994   0.26535
 Alpha virt. eigenvalues --    0.27181   0.27347   0.32199   0.34765   0.35250

 Mulliken charges:
               1
     1  P    1.385646
     2  F   -0.736133
     3  F   -0.736133
     4  H    0.086621
 Sum of Mulliken charges =  -0.00000

 Dipole moment (field-independent basis, Debye):
    X=              0.5877    Y=              1.4542    Z=              0.0000  Tot=              1.5685

 Test job not archived.
 1\1\GINC-SE339\SP\RHF\Aug-CC-pVDZ\F2H1P1\OHZDE\08-Apr-2025\0\\#t hf au
 g-cc-pvdz iop(5/13=1,5/36=2,99/5=2) pseudo=read geom=check guess=(read
 ,tcheck) scf=(maxcycle=1)\\title\\0,1\P,0,-0.041579,0.544729,0.\F,0,-0
 .041579,-0.495334,1.232238\F,0,-0.041579,-0.495334,-1.232238\H,0,1.372
 105,0.745074,0.\\Version=ES64L-G16RevC.01\State=1-A'\HF=-540.4845024\R
 MSD=1.546e-02\Dipole=0.2312044,0.572129,0.\Quadrupole=0.8257912,0.1908
 613,-1.0166525,0.9971366,0.,0.\PG=CS [SG(H1P1),X(F2)]\\@

 Normal termination of Gaussian 16 at Tue Apr  8 23:33:00 2025.
