 Gaussian 16, Revision C.01,

 ----------------------------------------------------------------------
 #t hf aug-cc-pvdz symm=none int=(grid=ultrafine) guess=(read,tcheck) s
 table=(opt,rrhf)
 ----------------------------------------------------------------------
 -----
 title
 -----
 Symbolic Z-matrix:
 Charge =  0 Multiplicity = 1

 SCF Done:  E(RHF) =  -408.394436502     A.U. after   10 cycles
 Normal termination of Gaussian 16 at Tue Apr  8 22:44:49 2025.
 Gaussian 16:  ES64L-G16RevC.01  3-Jul-2019

 ----------------------------------------------------------------------
 #t hf aug-cc-pvdz iop(5/13=1,5/36=2,99/5=2) pseudo=read geom=check gue
 ss=(read,tcheck) scf=(maxcycle=1)
 ----------------------------------------------------------------------
 -----
 title
 -----
 Structure from the checkpoint file:  "BDE49_expt_1538_mol1.chk"
 Charge =  0 Multiplicity = 1

                         Standard orientation:
 ---------------------------------------------------------------------
 Center     Atomic      Atomic             Coordinates (Angstroms)
 Number     Number       Type             X           Y           Z
 ---------------------------------------------------------------------
      1         14           0       -0.000001   -0.000004    0.376076
      2          6           0       -1.499727   -0.969284   -0.222114
      3          1           0       -1.471594   -2.002658    0.135926
      4          1           0       -1.541766   -0.996550   -1.315642
      5          1           0       -2.430371   -0.519141    0.135822
      6          6           0       -0.089570    1.783425   -0.222122
      7          1           0       -0.092179    1.833506   -1.315644
      8          1           0        0.765583    2.364322    0.135818
      9          1           0       -0.998565    2.275734    0.135946
     10          6           0        1.589297   -0.814146   -0.222121
     11          1           0        0.000003    0.000014    1.864759
     12          1           0        1.633873   -0.837026   -1.315648
     13          1           0        1.664900   -1.845136    0.135920
     14          1           0        2.470130   -0.272980    0.135818
 ---------------------------------------------------------------------

 SCF Done:  E(RHF) =  -408.567593691     A.U. after    2 cycles

 The electronic state is 1-A.
 Alpha  occ. eigenvalues --  -69.50989 -11.20918 -11.20913 -11.20913  -6.18007
 Alpha  occ. eigenvalues --   -3.93360  -3.93352  -3.93352  -0.97463  -0.92648
 Alpha  occ. eigenvalues --   -0.92648  -0.66420  -0.57960  -0.56607  -0.56607
 Alpha  occ. eigenvalues --   -0.54629  -0.54629  -0.53585  -0.44685  -0.44066
 Alpha  occ. eigenvalues --   -0.44065
 Alpha virt. eigenvalues --    0.03479   0.04162   0.04162   0.04263   0.06732
 Alpha virt. eigenvalues --    0.06732   0.07230   0.07230   0.07323   0.09294
 Alpha virt. eigenvalues --    0.10451   0.10451   0.12443   0.14751   0.15764

 Mulliken charges:
               1
     1  Si   2.071135
     2  C   -0.563999
     3  H   -0.043379
     4  H    0.076393
     5  H   -0.043376
     6  C   -0.563979
     7  H    0.076353
     8  H   -0.043366
     9  H   -0.043358
    10  C   -0.563999
    11  H   -0.348064
    12  H    0.076378
    13  H   -0.043379
    14  H   -0.043359
 Sum of Mulliken charges =  -0.00000

 Dipole moment (field-independent basis, Debye):
    X=             -0.0000    Y=              0.0000    Z=             -0.5217  Tot=              0.5217

 Test job not archived.
 1\1\GINC-SE049\SP\RHF\Aug-CC-pVDZ\C3H10Si1\OHZDE\08-Apr-2025\0\\#t hf
 aug-cc-pvdz iop(5/13=1,5/36=2,99/5=2) pseudo=read geom=check guess=(re
 ad,tcheck) scf=(maxcycle=1)\\title\\0,1\Si,0,-0.000001,-0.000004,0.376
 076\C,0,-1.498524,-0.971142,-0.222114\H,0,-1.469111,-2.00448,0.135926\
 H,0,-1.54053,-0.99846,-1.315642\H,0,-2.429726,-0.522153,0.135822\C,0,-
 0.09178,1.783313,-0.222122\H,0,-0.094451,1.83339,-1.315644\H,0,0.76265
 2,2.365269,0.135818\H,0,-1.001384,2.274495,0.135946\C,0,1.590305,-0.81
 2176,-0.222121\H,0,0.000003,0.000014,1.864759\H,0,1.634909,-0.835,-1.3

 Normal termination of Gaussian 16 at Tue Apr  8 22:44:52 2025.
