 Gaussian 16, Revision C.01,

 ----------------------------------------------------------------------
 #t hf aug-cc-pvdz symm=none int=(grid=ultrafine) guess=(read,tcheck) s
 table=(opt,rrhf)
 ----------------------------------------------------------------------
 -----
 title
 -----
 Symbolic Z-matrix:
 Charge =  0 Multiplicity = 1

 SCF Done:  E(RHF) =  -1454.54480165     A.U. after   12 cycles
 Normal termination of Gaussian 16 at Wed Apr  9 00:13:10 2025.
 Gaussian 16:  ES64L-G16RevC.01  3-Jul-2019

 ----------------------------------------------------------------------
 #t hf aug-cc-pvdz iop(5/13=1,5/36=2,99/5=2) pseudo=read geom=check gue
 ss=(read,tcheck) scf=(maxcycle=1)
 ----------------------------------------------------------------------
 -----
 title
 -----
 Structure from the checkpoint file:  "BDE49_nonexpt_2416_mol1.chk"
 Charge =  0 Multiplicity = 1

                         Standard orientation:
 ---------------------------------------------------------------------
 Center     Atomic      Atomic             Coordinates (Angstroms)
 Number     Number       Type             X           Y           Z
 ---------------------------------------------------------------------
      1         14           0        0.783575   -0.891647    1.195064
      2         14           0       -0.783575    0.891647    1.195064
      3         16           0       -0.960882    1.925552   -0.689195
      4          1           0       -0.417557    1.822194    2.296058
      5          1           0       -2.152609    0.383123    1.448381
      6         16           0        0.960882   -1.925552   -0.689195
      7          1           0        0.417557   -1.822194    2.296058
      8          1           0        2.152609   -0.383123    1.448381
      9          6           0        0.783575    2.412195   -1.020398
     10          1           0        0.766746    2.991851   -1.943051
     11          1           0        1.411227    1.533666   -1.164580
     12          1           0        1.175453    3.037087   -0.218195
     13          6           0       -0.783575   -2.412195   -1.020398
     14          1           0       -0.766746   -2.991851   -1.943051
     15          1           0       -1.411227   -1.533666   -1.164580
     16          1           0       -1.175453   -3.037087   -0.218195
 ---------------------------------------------------------------------

 SCF Done:  E(RHF) =  -1454.82545769     A.U. after    2 cycles

 The electronic state is 1-A.
 Alpha  occ. eigenvalues --  -93.93923 -93.93919 -69.55478 -69.55477 -11.27445
 Alpha  occ. eigenvalues --  -11.27445  -8.22165  -8.22165  -6.22409  -6.22396
 Alpha  occ. eigenvalues --   -6.19968  -6.19968  -6.19832  -6.19832  -6.19626
 Alpha  occ. eigenvalues --   -6.19626  -3.97784  -3.97766  -3.97708  -3.97696
 Alpha  occ. eigenvalues --   -3.97674  -3.97624  -1.05755  -1.05273  -0.89024
 Alpha  occ. eigenvalues --   -0.88631  -0.75667  -0.68074  -0.60673  -0.60174
 Alpha  occ. eigenvalues --   -0.60145  -0.59908  -0.52656  -0.52360  -0.48973
 Alpha  occ. eigenvalues --   -0.48036  -0.46660  -0.43226  -0.41695  -0.36781
 Alpha  occ. eigenvalues --   -0.34870
 Alpha virt. eigenvalues --    0.03584   0.03863   0.03980   0.04084   0.05516
 Alpha virt. eigenvalues --    0.06015   0.06673   0.06751   0.07115   0.08682
 Alpha virt. eigenvalues --    0.09235   0.09324   0.10042   0.10335   0.10958

 Mulliken charges:
               1
     1  Si   0.802091
     2  Si   0.802091
     3  S   -0.375013
     4  H   -0.121708
     5  H   -0.097617
     6  S   -0.375013
     7  H   -0.121708
     8  H   -0.097617
     9  C   -0.664906
    10  H    0.158375
    11  H    0.173629
    12  H    0.125149
    13  C   -0.664906
    14  H    0.158375
    15  H    0.173629
    16  H    0.125149
 Sum of Mulliken charges =  -0.00000

 Dipole moment (field-independent basis, Debye):
    X=              0.0000    Y=              0.0000    Z=              0.5854  Tot=              0.5854

 Test job not archived.
 1\1\GINC-SE393\SP\RHF\Aug-CC-pVDZ\C2H10S2Si2\OHZDE\09-Apr-2025\0\\#t h
 f aug-cc-pvdz iop(5/13=1,5/36=2,99/5=2) pseudo=read geom=check guess=(
 read,tcheck) scf=(maxcycle=1)\\title\\0,1\Si,0,0.783575,-0.891647,1.19
 5064\Si,0,-0.783575,0.891647,1.195064\S,0,-0.960882,1.925552,-0.689195
 \H,0,-0.417557,1.822194,2.296058\H,0,-2.152609,0.383123,1.448381\S,0,0
 .960882,-1.925552,-0.689195\H,0,0.417557,-1.822194,2.296058\H,0,2.1526
 09,-0.383123,1.448381\C,0,0.783575,2.412195,-1.020398\H,0,0.766746,2.9
 91851,-1.943051\H,0,1.411227,1.533666,-1.16458\H,0,1.175453,3.037087,-

 Normal termination of Gaussian 16 at Wed Apr  9 00:13:15 2025.
