 Gaussian 16, Revision C.01,

 ----------------------------------------------------------------------
 #t hf aug-cc-pvdz symm=none int=(grid=ultrafine) guess=(read,tcheck) s
 table=(opt,rrhf)
 ----------------------------------------------------------------------
 -----
 title
 -----
 Symbolic Z-matrix:
 Charge =  0 Multiplicity = 1

 SCF Done:  E(RHF) =  -750.497000287     A.U. after   18 cycles
 Normal termination of Gaussian 16 at Tue Apr  8 22:56:10 2025.
 Gaussian 16:  ES64L-G16RevC.01  3-Jul-2019

 ----------------------------------------------------------------------
 #t hf aug-cc-pvdz iop(5/13=1,5/36=2,99/5=2) pseudo=read geom=check gue
 ss=(read,tcheck) scf=(maxcycle=1)
 ----------------------------------------------------------------------
 -----
 title
 -----
 Structure from the checkpoint file:  "BDE49_expt_1804_mol1.chk"
 Charge =  0 Multiplicity = 1

                         Standard orientation:
 ---------------------------------------------------------------------
 Center     Atomic      Atomic             Coordinates (Angstroms)
 Number     Number       Type             X           Y           Z
 ---------------------------------------------------------------------
      1          6           0        2.150476   -0.066180    0.000000
      2          6           0        1.302765   -1.167567    0.000012
      3          6           0       -0.069805   -0.951165    0.000009
      4          6           0        1.674613    1.240975   -0.000013
      5          6           0        0.302266    1.446011   -0.000015
      6          6           0       -0.573211    0.354392   -0.000004
      7          1           0        1.723342   -2.163129    0.000022
      8          1           0       -0.753108   -1.789200    0.000017
      9          1           0        2.375681    2.063535   -0.000022
     10          1           0       -0.111583    2.446097   -0.000025
     11          6           0       -2.044027    0.648784   -0.000008
     12          8           0       -2.781092   -0.495834    0.000004
     13          7           0       -4.354076   -0.233223    0.000125
     14          8           0       -4.878139   -1.242284   -0.000144
     15          8           0       -2.505328    1.759574    0.000013
     16          7           0        3.617067   -0.293389    0.000003
     17          8           0        4.008067   -1.451714    0.000027
     18          8           0        4.339774    0.692444    0.000002
 ---------------------------------------------------------------------

 SCF Done:  E(RHF) =  -751.216732814     A.U. after    2 cycles

 The electronic state is 1-A.
 Alpha  occ. eigenvalues --  -20.73172 -20.63104 -20.60086 -20.60067 -20.55985
 Alpha  occ. eigenvalues --  -15.80332 -15.79933 -11.42140 -11.33376 -11.29764
 Alpha  occ. eigenvalues --  -11.29246 -11.29148 -11.29010 -11.28702  -1.76960
 Alpha  occ. eigenvalues --   -1.68079  -1.55112  -1.51803  -1.46852  -1.21961
 Alpha  occ. eigenvalues --   -1.13004  -1.06877  -1.04532  -1.00383  -0.90015
 Alpha  occ. eigenvalues --   -0.89161  -0.84890  -0.81350  -0.80830  -0.77875
 Alpha  occ. eigenvalues --   -0.75890  -0.75615  -0.75594  -0.72936  -0.69497
 Alpha  occ. eigenvalues --   -0.67286  -0.65141  -0.64828  -0.64347  -0.61486
 Alpha  occ. eigenvalues --   -0.55590  -0.55205  -0.50828  -0.49914  -0.49746
 Alpha  occ. eigenvalues --   -0.49289  -0.46499  -0.46046  -0.40084  -0.38845
 Alpha virt. eigenvalues --   -0.00142   0.01859   0.03240   0.03905   0.04812
 Alpha virt. eigenvalues --    0.06470   0.07445   0.07784   0.07833   0.08224
 Alpha virt. eigenvalues --    0.09102   0.10968   0.11253   0.12081   0.12257

 Mulliken charges:
               1
     1  C   -0.395939
     2  C    0.116195
     3  C    0.359632
     4  C    0.201350
     5  C    0.026029
     6  C    1.817261
     7  H   -0.216907
     8  H   -0.273695
     9  H   -0.210240
    10  H   -0.343330
    11  C    0.961577
    12  O   -1.437720
    13  N    1.548074
    14  O   -0.897862
    15  O   -1.290353
    16  N    2.980686
    17  O   -1.472809
    18  O   -1.471947
 Sum of Mulliken charges =  -0.00000

 Dipole moment (field-independent basis, Debye):
    X=             -3.7052    Y=             -1.5200    Z=             -0.0001  Tot=              4.0049

 Test job not archived.
 1\1\GINC-SE334\SP\RHF\Aug-CC-pVDZ\C7H4N2O5\OHZDE\08-Apr-2025\0\\#t hf
 aug-cc-pvdz iop(5/13=1,5/36=2,99/5=2) pseudo=read geom=check guess=(re
 ad,tcheck) scf=(maxcycle=1)\\title\\0,1\C,0,2.150476,-0.06618,0.\C,0,1
 .302765,-1.167567,0.000012\C,0,-0.069805,-0.951165,0.000009\C,0,1.6746
 13,1.240975,-0.000013\C,0,0.302266,1.446011,-0.000015\C,0,-0.573211,0.
 354392,-0.000004\H,0,1.723342,-2.163129,0.000022\H,0,-0.753108,-1.7892
 ,0.000017\H,0,2.375681,2.063535,-0.000022\H,0,-0.111583,2.446097,-0.00
 0025\C,0,-2.044027,0.648784,-0.000008\O,0,-2.781092,-0.495834,0.000004

 Normal termination of Gaussian 16 at Tue Apr  8 22:56:23 2025.
