 Gaussian 16, Revision C.01,

 ----------------------------------------------------------------------
 #t hf aug-cc-pvdz symm=none int=(grid=ultrafine) guess=(read,tcheck) s
 table=(opt,rrhf)
 ----------------------------------------------------------------------
 -----
 title
 -----
 Symbolic Z-matrix:
 Charge =  0 Multiplicity = 1

 SCF Done:  E(RHF) =  -722.837722480     A.U. after   12 cycles
 Normal termination of Gaussian 16 at Tue Apr  8 23:40:08 2025.
 Gaussian 16:  ES64L-G16RevC.01  3-Jul-2019

 ----------------------------------------------------------------------
 #t hf aug-cc-pvdz iop(5/13=1,5/36=2,99/5=2) pseudo=read geom=check gue
 ss=(read,tcheck) scf=(maxcycle=1)
 ----------------------------------------------------------------------
 -----
 title
 -----
 Structure from the checkpoint file:  "BDE49_nonexpt_1625_mol1.chk"
 Charge =  0 Multiplicity = 1

                         Standard orientation:
 ---------------------------------------------------------------------
 Center     Atomic      Atomic             Coordinates (Angstroms)
 Number     Number       Type             X           Y           Z
 ---------------------------------------------------------------------
      1         15           0       -1.417833    0.331441   -0.096874
      2         15           0        0.562684   -0.733394    0.126841
      3          6           0        1.700168    0.740779   -0.036498
      4          1           0        1.430844    1.411617   -0.853482
      5          1           0        2.717797    0.374715   -0.193116
      6          1           0        1.690690    1.300814    0.901362
      7          1           0        0.587337   -1.116571   -1.241432
      8          1           0       -1.630139    0.486765    1.299545
      9          1           0       -2.170306   -0.872724   -0.143385
 ---------------------------------------------------------------------

 SCF Done:  E(RHF) =  -722.977951324     A.U. after    2 cycles

 The electronic state is 1-A.
 Alpha  occ. eigenvalues --  -84.27901 -84.27716 -11.24530  -6.74930  -6.74837
 Alpha  occ. eigenvalues --   -4.27203  -4.27091  -4.27009  -4.26925  -4.26549
 Alpha  occ. eigenvalues --   -4.26317  -0.99523  -0.87923  -0.75190  -0.58836
 Alpha  occ. eigenvalues --   -0.58435  -0.51889  -0.46790  -0.41987  -0.40587
 Alpha  occ. eigenvalues --   -0.30072
 Alpha virt. eigenvalues --    0.03818   0.04546   0.04923   0.05840   0.06729
 Alpha virt. eigenvalues --    0.07768   0.08828   0.10074   0.11257   0.11847
 Alpha virt. eigenvalues --    0.12832   0.13610   0.15772   0.16846   0.16995

 Mulliken charges:
               1
     1  P   -0.812900
     2  P   -0.109292
     3  C   -0.764730
     4  H    0.102931
     5  H    0.092008
     6  H    0.150150
     7  H    0.489732
     8  H    0.441337
     9  H    0.410764
 Sum of Mulliken charges =  -0.00000

 Dipole moment (field-independent basis, Debye):
    X=              0.5283    Y=              0.3612    Z=             -0.1078  Tot=              0.6489

 Test job not archived.
 1\1\GINC-SE102\SP\RHF\Aug-CC-pVDZ\C1H6P2\OHZDE\08-Apr-2025\0\\#t hf au
 g-cc-pvdz iop(5/13=1,5/36=2,99/5=2) pseudo=read geom=check guess=(read
 ,tcheck) scf=(maxcycle=1)\\title\\0,1\P,0,-1.417833,0.331441,-0.096874
 \P,0,0.562684,-0.733394,0.126841\C,0,1.700168,0.740779,-0.036498\H,0,1
 .430844,1.411617,-0.853482\H,0,2.717797,0.374715,-0.193116\H,0,1.69069
 ,1.300814,0.901362\H,0,0.587337,-1.116571,-1.241432\H,0,-1.630139,0.48
 6765,1.299545\H,0,-2.170306,-0.872724,-0.143385\\Version=ES64L-G16RevC
 .01\State=1-A\HF=-722.9779513\RMSD=3.066e-02\Dipole=0.2078379,0.142088

 Normal termination of Gaussian 16 at Tue Apr  8 23:40:11 2025.
