 Gaussian 16, Revision C.01,

 ----------------------------------------------------------------------
 #t hf aug-cc-pvdz symm=none int=(grid=ultrafine) guess=(read,tcheck) s
 table=(opt,rrhf)
 ----------------------------------------------------------------------
 -----
 title
 -----
 Symbolic Z-matrix:
 Charge =  0 Multiplicity = 1

 SCF Done:  E(RHF) =  -1375.21853690     A.U. after   14 cycles
 Normal termination of Gaussian 16 at Tue Apr  8 23:44:44 2025.
 Gaussian 16:  ES64L-G16RevC.01  3-Jul-2019

 ----------------------------------------------------------------------
 #t hf aug-cc-pvdz iop(5/13=1,5/36=2,99/5=2) pseudo=read geom=check gue
 ss=(read,tcheck) scf=(maxcycle=1)
 ----------------------------------------------------------------------
 -----
 title
 -----
 Structure from the checkpoint file:  "BDE49_nonexpt_1728_mol1.chk"
 Charge =  0 Multiplicity = 1

                         Standard orientation:
 ---------------------------------------------------------------------
 Center     Atomic      Atomic             Coordinates (Angstroms)
 Number     Number       Type             X           Y           Z
 ---------------------------------------------------------------------
      1         16           0       -0.253004    1.349456   -0.018735
      2         15           0       -1.794423   -0.118667   -0.043494
      3          8           0       -3.000847    0.618786   -0.404249
      4          8           0       -1.401793   -1.297119   -1.018889
      5          8           0        1.039220    0.514248    0.790657
      6          6           0        1.975534   -0.095961    0.023791
      7          9           0        1.464796   -1.172947   -0.643762
      8          9           0        2.927721   -0.541537    0.834210
      9          9           0        2.518893    0.704635   -0.895777
     10          1           0       -0.537825   -1.699923   -0.853603
     11          8           0       -1.712345   -0.856123    1.369746
     12          1           0       -1.947548   -0.285288    2.112866
 ---------------------------------------------------------------------

 SCF Done:  E(RHF) =  -1375.91807786     A.U. after    2 cycles

 The electronic state is 1-A.
 Alpha  occ. eigenvalues --  -94.05991 -84.48058 -26.54351 -26.54005 -26.53987
 Alpha  occ. eigenvalues --  -20.65797 -20.63063 -20.62318 -20.53765 -11.60492
 Alpha  occ. eigenvalues --   -8.33561  -6.93184  -6.31336  -6.31067  -6.30817
 Alpha  occ. eigenvalues --   -4.47331  -4.46574  -4.45351  -1.76445  -1.65478
 Alpha  occ. eigenvalues --   -1.64982  -1.57310  -1.55552  -1.50743  -1.42455
 Alpha  occ. eigenvalues --   -1.07488  -0.96694  -0.88285  -0.86076  -0.85693
 Alpha  occ. eigenvalues --   -0.83768  -0.78220  -0.73932  -0.72870  -0.70852
 Alpha  occ. eigenvalues --   -0.67764  -0.67460  -0.66775  -0.65731  -0.65398
 Alpha  occ. eigenvalues --   -0.61925  -0.61423  -0.59810  -0.58953  -0.57248
 Alpha  occ. eigenvalues --   -0.51812  -0.49649  -0.46138  -0.44023
 Alpha virt. eigenvalues --    0.03176   0.05096   0.05354   0.07029   0.08471
 Alpha virt. eigenvalues --    0.09274   0.09514   0.10518   0.10784   0.11744
 Alpha virt. eigenvalues --    0.13491   0.13858   0.15557   0.16628   0.18167

 Mulliken charges:
               1
     1  S    0.081508
     2  P    3.623554
     3  O   -1.368498
     4  O   -1.343992
     5  O   -1.358584
     6  C    2.875149
     7  F   -0.767044
     8  F   -0.671285
     9  F   -0.674102
    10  H    0.481991
    11  O   -1.274772
    12  H    0.396075
 Sum of Mulliken charges =  -0.00000

 Dipole moment (field-independent basis, Debye):
    X=              1.8353    Y=             -0.9070    Z=              2.0397  Tot=              2.8899

 Test job not archived.
 1\1\GINC-SE096\SP\RHF\Aug-CC-pVDZ\C1H2F3O4P1S1\OHZDE\08-Apr-2025\0\\#t
  hf aug-cc-pvdz iop(5/13=1,5/36=2,99/5=2) pseudo=read geom=check guess
 =(read,tcheck) scf=(maxcycle=1)\\title\\0,1\S,0,-0.253004,1.349456,-0.
 018735\P,0,-1.794423,-0.118667,-0.043494\O,0,-3.000847,0.618786,-0.404
 249\O,0,-1.401793,-1.297119,-1.018889\O,0,1.03922,0.514248,0.790657\C,
 0,1.975534,-0.095961,0.023791\F,0,1.464796,-1.172947,-0.643762\F,0,2.9
 27721,-0.541537,0.83421\F,0,2.518893,0.704635,-0.895777\H,0,-0.537825,
 -1.699923,-0.853603\O,0,-1.712345,-0.856123,1.369746\H,0,-1.947548,-0.

 Normal termination of Gaussian 16 at Tue Apr  8 23:44:52 2025.
