 Gaussian 16, Revision C.01,

 ----------------------------------------------------------------------
 #t hf aug-cc-pvdz symm=none int=(grid=ultrafine) guess=(read,tcheck) s
 table=(opt,rrhf)
 ----------------------------------------------------------------------
 -----
 title
 -----
 Symbolic Z-matrix:
 Charge =  0 Multiplicity = 1

 SCF Done:  E(RHF) =  -1473.64364618     A.U. after   15 cycles
 Normal termination of Gaussian 16 at Tue Apr  8 23:50:35 2025.
 Gaussian 16:  ES64L-G16RevC.01  3-Jul-2019

 ----------------------------------------------------------------------
 #t hf aug-cc-pvdz iop(5/13=1,5/36=2,99/5=2) pseudo=read geom=check gue
 ss=(read,tcheck) scf=(maxcycle=1)
 ----------------------------------------------------------------------
 -----
 title
 -----
 Structure from the checkpoint file:  "BDE49_nonexpt_1875_mol1.chk"
 Charge =  0 Multiplicity = 1

                         Standard orientation:
 ---------------------------------------------------------------------
 Center     Atomic      Atomic             Coordinates (Angstroms)
 Number     Number       Type             X           Y           Z
 ---------------------------------------------------------------------
      1         14           0       -0.370112    1.394870    0.503255
      2          6           0        0.941541    0.986695   -0.810644
      3          6           0       -1.642610   -0.039573    0.646967
      4          8           0       -1.991010   -0.646899    1.589571
      5          1           0       -1.140246    2.569582    0.056210
      6          1           0        0.235077    1.591409    1.832618
      7         17           0       -2.427726   -0.376988   -1.034506
      8          6           0        2.097699    0.206370   -0.272027
      9          8           0        3.194359    0.580691   -0.052195
     10         17           0        1.622449   -1.531080    0.105038
     11          1           0        1.328414    1.926966   -1.212270
     12          1           0        0.441450    0.429719   -1.605949
 ---------------------------------------------------------------------

 SCF Done:  E(RHF) =  -1474.08311426     A.U. after    2 cycles

 The electronic state is 1-A.
 Alpha  occ. eigenvalues -- -105.58876-105.57584 -69.60029 -20.61717 -20.60150
 Alpha  occ. eigenvalues --  -11.44222 -11.42543 -11.29432 -10.63709 -10.62416
 Alpha  occ. eigenvalues --   -7.80622  -7.80271  -7.80251  -7.79307  -7.78983
 Alpha  occ. eigenvalues --   -7.78976  -6.26995  -4.02383  -4.02332  -4.02310
 Alpha  occ. eigenvalues --   -1.56024  -1.55199  -1.12003  -1.07629  -1.04044
 Alpha  occ. eigenvalues --   -0.87058  -0.79995  -0.75720  -0.70345  -0.69908
 Alpha  occ. eigenvalues --   -0.67367  -0.66905  -0.62770  -0.61370  -0.60185
 Alpha  occ. eigenvalues --   -0.54347  -0.51777  -0.48981  -0.48654  -0.47837
 Alpha  occ. eigenvalues --   -0.47625  -0.46275  -0.43744
 Alpha virt. eigenvalues --    0.02445   0.03507   0.04494   0.05162   0.06377
 Alpha virt. eigenvalues --    0.06696   0.07341   0.08480   0.08633   0.09250
 Alpha virt. eigenvalues --    0.09655   0.11150   0.12037   0.12536   0.13030

 Mulliken charges:
               1
     1  Si   1.360520
     2  C   -0.539122
     3  C    0.568451
     4  O   -0.956217
     5  H   -0.109369
     6  H   -0.088713
     7  Cl  -0.258632
     8  C    0.953877
     9  O   -1.098172
    10  Cl  -0.144021
    11  H    0.068818
    12  H    0.242581
 Sum of Mulliken charges =   0.00000

 Dipole moment (field-independent basis, Debye):
    X=             -0.0511    Y=              3.3772    Z=             -0.9061  Tot=              3.4970

 Test job not archived.
 1\1\GINC-SE331\SP\RHF\Aug-CC-pVDZ\C3H4Cl2O2Si1\OHZDE\08-Apr-2025\0\\#t
  hf aug-cc-pvdz iop(5/13=1,5/36=2,99/5=2) pseudo=read geom=check guess
 =(read,tcheck) scf=(maxcycle=1)\\title\\0,1\Si,0,-0.370112,1.39487,0.5
 03255\C,0,0.941541,0.986695,-0.810644\C,0,-1.64261,-0.039573,0.646967\
 O,0,-1.99101,-0.646899,1.589571\H,0,-1.140246,2.569582,0.05621\H,0,0.2
 35077,1.591409,1.832618\Cl,0,-2.427726,-0.376988,-1.034506\C,0,2.09769
 9,0.20637,-0.272027\O,0,3.194359,0.580691,-0.052195\Cl,0,1.622449,-1.5
 3108,0.105038\H,0,1.328414,1.926966,-1.21227\H,0,0.44145,0.429719,-1.6

 Normal termination of Gaussian 16 at Tue Apr  8 23:50:41 2025.
