 Gaussian 16, Revision C.01,

 ----------------------------------------------------------------------
 #t hf aug-cc-pvdz symm=none int=(grid=ultrafine) guess=(read,tcheck) s
 table=(opt,rrhf)
 ----------------------------------------------------------------------
 -----
 title
 -----
 Symbolic Z-matrix:
 Charge =  0 Multiplicity = 1

 SCF Done:  E(RHF) =  -615.054715319     A.U. after   14 cycles

 1\1\GINC-SE402\Stability\RHF\Aug-CC-pVDZ\C4H7Cl1\OHZDE\08-Apr-2025\0\\
 #t hf aug-cc-pvdz symm=none int=(grid=ultrafine) guess=(read,tcheck) s
 table=(opt,rrhf)\\title\\0,1\C,0,0.766721,0.844796,0.080997\C,0,-0.527
 077,0.214764,0.45295\C,0,-1.597866,0.21126,-0.340487\Cl,0,2.105185,-0.
 409369,-0.088558\H,0,1.135745,1.527649,0.844964\H,0,0.717454,1.355811,
 -0.878313\C,0,-2.926471,-0.389121,0.003206\H,0,-0.5704,-0.256257,1.432
 034\H,0,-1.520417,0.677753,-1.321962\H,0,-2.920752,-0.839423,0.998016\
 H,0,-3.202233,-1.162652,-0.721878\H,0,-3.719385,0.366191,-0.027377\\Ve

 Normal termination of Gaussian 16 at Tue Apr  8 22:47:34 2025.
 Gaussian 16:  ES64L-G16RevC.01  3-Jul-2019

 ----------------------------------------------------------------------
 #t hf aug-cc-pvdz iop(5/13=1,5/36=2,99/5=2) pseudo=read geom=check gue
 ss=(read,tcheck) scf=(maxcycle=1)
 ----------------------------------------------------------------------
 -----
 title
 -----
 Structure from the checkpoint file:  "BDE49_expt_1651_mol1.chk"
 Charge =  0 Multiplicity = 1

                         Standard orientation:
 ---------------------------------------------------------------------
 Center     Atomic      Atomic             Coordinates (Angstroms)
 Number     Number       Type             X           Y           Z
 ---------------------------------------------------------------------
      1          6           0        0.766721    0.844796    0.080997
      2          6           0       -0.527077    0.214764    0.452950
      3          6           0       -1.597866    0.211260   -0.340487
      4         17           0        2.105185   -0.409369   -0.088558
      5          1           0        1.135745    1.527649    0.844964
      6          1           0        0.717454    1.355811   -0.878313
      7          6           0       -2.926471   -0.389121    0.003206
      8          1           0       -0.570400   -0.256257    1.432034
      9          1           0       -1.520417    0.677753   -1.321962
     10          1           0       -2.920752   -0.839423    0.998016
     11          1           0       -3.202233   -1.162652   -0.721878
     12          1           0       -3.719385    0.366191   -0.027377
 ---------------------------------------------------------------------

 SCF Done:  E(RHF) =  -615.301419881     A.U. after    2 cycles

 The electronic state is 1-A.
 Alpha  occ. eigenvalues -- -105.54775 -11.30967 -11.25727 -11.24880 -11.24338
 Alpha  occ. eigenvalues --  -10.59551  -7.76479  -7.76119  -7.76111  -1.12317
 Alpha  occ. eigenvalues --   -1.05888  -0.96780  -0.87555  -0.77485  -0.65487
 Alpha  occ. eigenvalues --   -0.65211  -0.58936  -0.57869  -0.55721  -0.53791
 Alpha  occ. eigenvalues --   -0.51865  -0.44266  -0.43809  -0.37315
 Alpha virt. eigenvalues --    0.03500   0.03880   0.04064   0.05171   0.06158
 Alpha virt. eigenvalues --    0.06515   0.08112   0.09570   0.10528   0.12024
 Alpha virt. eigenvalues --    0.13241   0.14047   0.14992   0.15837   0.15956

 Mulliken charges:
               1
     1  C   -0.754165
     2  C    0.720289
     3  C    0.264368
     4  Cl  -0.109878
     5  H    0.204868
     6  H    0.156746
     7  C   -0.743097
     8  H   -0.146935
     9  H   -0.174805
    10  H    0.114215
    11  H    0.236049
    12  H    0.232346
 Sum of Mulliken charges =  -0.00000

 Dipole moment (field-independent basis, Debye):
    X=             -2.4830    Y=              1.3802    Z=              0.0789  Tot=              2.8419

 Test job not archived.
 1\1\GINC-SE402\SP\RHF\Aug-CC-pVDZ\C4H7Cl1\OHZDE\08-Apr-2025\0\\#t hf a
 ug-cc-pvdz iop(5/13=1,5/36=2,99/5=2) pseudo=read geom=check guess=(rea
 d,tcheck) scf=(maxcycle=1)\\title\\0,1\C,0,0.766721,0.844796,0.080997\
 C,0,-0.527077,0.214764,0.45295\C,0,-1.597866,0.21126,-0.340487\Cl,0,2.
 105185,-0.409369,-0.088558\H,0,1.135745,1.527649,0.844964\H,0,0.717454
 ,1.355811,-0.878313\C,0,-2.926471,-0.389121,0.003206\H,0,-0.5704,-0.25
 6257,1.432034\H,0,-1.520417,0.677753,-1.321962\H,0,-2.920752,-0.839423
 ,0.998016\H,0,-3.202233,-1.162652,-0.721878\H,0,-3.719385,0.366191,-0.

 Normal termination of Gaussian 16 at Tue Apr  8 22:47:38 2025.
