 Gaussian 16, Revision C.01,

 ----------------------------------------------------------------------
 #t hf aug-cc-pvdz symm=none int=(grid=ultrafine) guess=(read,tcheck) s
 table=opt
 ----------------------------------------------------------------------
 -----
 title
 -----
 Symbolic Z-matrix:
 Charge =  0 Multiplicity = 2

 SCF Done:  E(UHF) =  -1203.27406298     A.U. after   21 cycles
 Normal termination of Gaussian 16 at Tue Apr  8 22:50:56 2025.
 Gaussian 16:  ES64L-G16RevC.01  3-Jul-2019

 ----------------------------------------------------------------------
 #t hf aug-cc-pvdz iop(5/13=1,5/36=2,99/5=2) pseudo=read geom=check gue
 ss=(read,tcheck) scf=(maxcycle=1)
 ----------------------------------------------------------------------
 -----
 title
 -----
 Structure from the checkpoint file:  "BDE49_expt_1724_mol2.chk"
 Charge =  0 Multiplicity = 2

                         Standard orientation:
 ---------------------------------------------------------------------
 Center     Atomic      Atomic             Coordinates (Angstroms)
 Number     Number       Type             X           Y           Z
 ---------------------------------------------------------------------
      1          6           0       -0.808709    0.033786    0.095123
      2          6           0        0.494529   -0.667967   -0.149775
      3         17           0       -1.114192    1.598139   -0.576039
      4         17           0       -2.183737   -0.922686    0.447744
      5          7           0        1.636391    0.032052    0.120749
      6          6           0        2.911103   -0.539642   -0.296027
      7          8           0        0.480389   -1.802404   -0.600107
      8          1           0        2.722583   -1.358569   -0.985250
      9          1           0        3.467187   -0.925472    0.566170
     10          1           0        3.516510    0.227686   -0.787537
     11          6           0        1.710867    1.211528    0.972126
     12          1           0        0.766356    1.377729    1.485120
     13          1           0        1.963664    2.109067    0.398145
     14          1           0        2.483904    1.055498    1.731303
 ---------------------------------------------------------------------

 SCF Done:  E(UHF) =  -1203.71129992     A.U. after    2 cycles

 The electronic state is 2-A.
 Alpha  occ. eigenvalues -- -105.60715-105.59727 -20.53180 -15.54349 -11.38842
 Alpha  occ. eigenvalues --  -11.38527 -11.28999 -11.27618 -10.65503 -10.64537
 Alpha  occ. eigenvalues --   -7.82326  -7.82181  -7.82037  -7.81397  -7.81208
 Alpha  occ. eigenvalues --   -7.81052  -1.48371  -1.27233  -1.20082  -1.08058
 Alpha  occ. eigenvalues --   -1.00344  -0.99510  -0.90196  -0.77001  -0.72399
 Alpha  occ. eigenvalues --   -0.69455  -0.69255  -0.63792  -0.62436  -0.61550
 Alpha  occ. eigenvalues --   -0.59064  -0.58284  -0.55966  -0.54847  -0.51438
 Alpha  occ. eigenvalues --   -0.50182  -0.47477  -0.45156  -0.42023  -0.37978
 Alpha virt. eigenvalues --    0.03117   0.04212   0.04468   0.05409   0.06283
 Alpha virt. eigenvalues --    0.07253   0.08170   0.08775   0.09050   0.11267
 Alpha virt. eigenvalues --    0.12757   0.12950   0.14169   0.14546   0.14724

  Beta  occ. eigenvalues -- -105.60697-105.59690 -20.52614 -15.54381 -11.38886
  Beta  occ. eigenvalues --  -11.36000 -11.28979 -11.27625 -10.65482 -10.64496
  Beta  occ. eigenvalues --   -7.82596  -7.82023  -7.81846  -7.81612  -7.81029
  Beta  occ. eigenvalues --   -7.80839  -1.47203  -1.27030  -1.16774  -1.07687
  Beta  occ. eigenvalues --   -1.00071  -0.99216  -0.87226  -0.76471  -0.70062
  Beta  occ. eigenvalues --   -0.69096  -0.68479  -0.62009  -0.61782  -0.59049
  Beta  occ. eigenvalues --   -0.58301  -0.56613  -0.55005  -0.52446  -0.50992
  Beta  occ. eigenvalues --   -0.48174  -0.47320  -0.44083  -0.40393
  Beta virt. eigenvalues --    0.03068   0.04094   0.04455   0.04865   0.05435
  Beta virt. eigenvalues --    0.06375   0.07338   0.08321   0.09057   0.09180
  Beta virt. eigenvalues --    0.11942   0.12860   0.13342   0.14270   0.14641

 Mulliken charges and spin densities:
               1          2
     1  C   -0.172829   1.196678
     2  C    0.400494  -0.285266
     3  Cl   0.001376  -0.026870
     4  Cl  -0.038254   0.003746
     5  N    0.789861  -0.005842
     6  C   -0.315415  -0.002141
     7  O   -1.157644   0.131600
     8  H    0.029429  -0.001510
     9  H    0.191201   0.000481
    10  H    0.221174   0.000756
    11  C   -0.353547   0.007526
    12  H    0.097793  -0.016313
    13  H    0.175558  -0.001698
    14  H    0.130804  -0.001147
 Sum of Mulliken charges =  -0.00000   1.00000

 Dipole moment (field-independent basis, Debye):
    X=              2.3401    Y=              2.6571    Z=              1.3886  Tot=              3.8033
                          Isotropic Fermi Contact Couplings
        Atom                 a.u.       MegaHertz       Gauss      10(-4) cm-1
     1  C(13)              0.31134     350.00762     124.89142     116.74997
     2  C(13)             -0.05760     -64.74916     -23.10411     -21.59799
     3  Cl(35)             0.03189      13.98416       4.98989       4.66461
     4  Cl(35)             0.03675      16.11208       5.74919       5.37441
     5  N(14)             -0.00949      -3.06751      -1.09456      -1.02321
     6  C(13)             -0.00129      -1.45162      -0.51797      -0.48421
     7  O(17)              0.04639     -28.12300     -10.03498      -9.38082
     8  H(1)               0.00008       0.37043       0.13218       0.12356

 1\1\GINC-SE096\SP\UHF\Aug-CC-pVDZ\C4H6Cl2N1O1(2)\OHZDE\08-Apr-2025\0\\
 #t hf aug-cc-pvdz iop(5/13=1,5/36=2,99/5=2) pseudo=read geom=check gue
 ss=(read,tcheck) scf=(maxcycle=1)\\title\\0,2\C,0,-0.808709,0.033786,0
 .095123\C,0,0.494529,-0.667967,-0.149775\Cl,0,-1.114192,1.598139,-0.57
 6039\Cl,0,-2.183737,-0.922686,0.447744\N,0,1.636391,0.032052,0.120749\
 C,0,2.911103,-0.539642,-0.296027\O,0,0.480389,-1.802404,-0.600107\H,0,
 2.722583,-1.358569,-0.98525\H,0,3.467187,-0.925472,0.56617\H,0,3.51651
 ,0.227686,-0.787537\C,0,1.710867,1.211528,0.972126\H,0,0.766356,1.3777

 Normal termination of Gaussian 16 at Tue Apr  8 22:51:03 2025.
