 Gaussian 16, Revision C.01,

 ----------------------------------------------------------------------
 #t hf aug-cc-pvdz symm=none int=(grid=ultrafine) guess=(read,tcheck) s
 table=(opt,rrhf)
 ----------------------------------------------------------------------
 -----
 title
 -----
 Symbolic Z-matrix:
 Charge =  0 Multiplicity = 1

 SCF Done:  E(RHF) =  -1317.02085199     A.U. after   15 cycles
 Normal termination of Gaussian 16 at Tue Apr  8 23:31:58 2025.
 Gaussian 16:  ES64L-G16RevC.01  3-Jul-2019

 ----------------------------------------------------------------------
 #t hf aug-cc-pvdz iop(5/13=1,5/36=2,99/5=2) pseudo=read geom=check gue
 ss=(read,tcheck) scf=(maxcycle=1)
 ----------------------------------------------------------------------
 -----
 title
 -----
 Structure from the checkpoint file:  "BDE49_nonexpt_1363_mol1.chk"
 Charge =  0 Multiplicity = 1

                         Standard orientation:
 ---------------------------------------------------------------------
 Center     Atomic      Atomic             Coordinates (Angstroms)
 Number     Number       Type             X           Y           Z
 ---------------------------------------------------------------------
      1          9           0        1.439309   -1.559252   -1.216758
      2          9           0        1.439322   -1.559428    1.216516
      3         16           0        0.837923    1.027538    0.000069
      4          8           0        1.109371    1.678551   -1.271665
      5          8           0        1.109386    1.678367    1.271894
      6         15           0        2.162192   -0.794966   -0.000070
      7          6           0       -1.473394    0.184026   -1.219739
      8          6           0       -2.776016   -0.304383   -1.211320
      9          6           0       -3.422784   -0.549176   -0.000019
     10          6           0       -2.775998   -0.304565    1.211309
     11          6           0       -1.473376    0.183843    1.219782
     12          6           0       -0.840932    0.426924    0.000036
     13          1           0       -0.955672    0.393994   -2.146411
     14          1           0       -3.286680   -0.490422   -2.148663
     15          1           0       -4.437746   -0.929849   -0.000040
     16          1           0       -3.286648   -0.490745    2.148632
     17          1           0       -0.955640    0.393672    2.146479
 ---------------------------------------------------------------------

 SCF Done:  E(RHF) =  -1317.68374401     A.U. after    2 cycles

 The electronic state is 1-A.
 Alpha  occ. eigenvalues --  -94.19893 -84.46439 -26.51788 -26.51787 -20.55259
 Alpha  occ. eigenvalues --  -20.55252 -11.29618 -11.28390 -11.28385 -11.28005
 Alpha  occ. eigenvalues --  -11.27167 -11.27153  -8.45381  -6.91898  -6.43455
 Alpha  occ. eigenvalues --   -6.43216  -6.43155  -4.44526  -4.43786  -4.43058
 Alpha  occ. eigenvalues --   -1.65614  -1.61086  -1.56354  -1.44934  -1.19460
 Alpha  occ. eigenvalues --   -1.07779  -1.05289  -0.97273  -0.89924  -0.87200
 Alpha  occ. eigenvalues --   -0.83167  -0.76324  -0.74367  -0.73928  -0.72505
 Alpha  occ. eigenvalues --   -0.69454  -0.69016  -0.67827  -0.66680  -0.65599
 Alpha  occ. eigenvalues --   -0.65300  -0.64458  -0.63528  -0.56437  -0.54824
 Alpha  occ. eigenvalues --   -0.54075  -0.51330  -0.51154  -0.48732  -0.47913
 Alpha  occ. eigenvalues --   -0.39907  -0.37665  -0.37234
 Alpha virt. eigenvalues --    0.02740   0.03419   0.03754   0.04415   0.05664
 Alpha virt. eigenvalues --    0.06053   0.06936   0.07939   0.07940   0.08509
 Alpha virt. eigenvalues --    0.10110   0.10753   0.12040   0.12583   0.13111

 Mulliken charges:
               1
     1  F   -0.776490
     2  F   -0.776490
     3  S    4.006757
     4  O   -1.721950
     5  O   -1.721949
     6  P    1.923939
     7  C   -0.332328
     8  C    0.403456
     9  C    0.019737
    10  C    0.403455
    11  C   -0.332326
    12  C    0.064795
    13  H   -0.269400
    14  H   -0.210646
    15  H   -0.200516
    16  H   -0.210646
    17  H   -0.269398
 Sum of Mulliken charges =  -0.00000

 Dipole moment (field-independent basis, Debye):
    X=             -2.6188    Y=             -3.6678    Z=             -0.0003  Tot=              4.5067

 Test job not archived.
 1\1\GINC-SE163\SP\RHF\Aug-CC-pVDZ\C6H5F2O2P1S1\OHZDE\08-Apr-2025\0\\#t
  hf aug-cc-pvdz iop(5/13=1,5/36=2,99/5=2) pseudo=read geom=check guess
 =(read,tcheck) scf=(maxcycle=1)\\title\\0,1\F,0,1.439309,-1.559252,-1.
 216758\F,0,1.439322,-1.559428,1.216516\S,0,0.837923,1.027538,0.000069\
 O,0,1.109371,1.678551,-1.271665\O,0,1.109386,1.678367,1.271894\P,0,2.1
 62192,-0.794966,-0.00007\C,0,-1.473394,0.184026,-1.219739\C,0,-2.77601
 6,-0.304383,-1.21132\C,0,-3.422784,-0.549176,-0.000019\C,0,-2.775998,-
 0.304565,1.211309\C,0,-1.473376,0.183843,1.219782\C,0,-0.840932,0.4269

 Normal termination of Gaussian 16 at Tue Apr  8 23:32:10 2025.
