 Gaussian 16, Revision C.01,

 ----------------------------------------------------------------------
 #t hf aug-cc-pvdz symm=none int=(grid=ultrafine) guess=(read,tcheck) s
 table=(opt,rrhf)
 ----------------------------------------------------------------------
 -----
 title
 -----
 Symbolic Z-matrix:
 Charge =  0 Multiplicity = 1

 SCF Done:  E(RHF) =  -518.446694593     A.U. after   12 cycles
 Normal termination of Gaussian 16 at Tue Apr  8 23:51:48 2025.
 Gaussian 16:  ES64L-G16RevC.01  3-Jul-2019

 ----------------------------------------------------------------------
 #t hf aug-cc-pvdz iop(5/13=1,5/36=2,99/5=2) pseudo=read geom=check gue
 ss=(read,tcheck) scf=(maxcycle=1)
 ----------------------------------------------------------------------
 -----
 title
 -----
 Structure from the checkpoint file:  "BDE49_nonexpt_1901_mol1.chk"
 Charge =  0 Multiplicity = 1

                         Standard orientation:
 ---------------------------------------------------------------------
 Center     Atomic      Atomic             Coordinates (Angstroms)
 Number     Number       Type             X           Y           Z
 ---------------------------------------------------------------------
      1          6           0        0.918467   -0.603378    0.567848
      2         14           0       -0.801554   -1.083149   -0.039881
      3          7           0       -1.661343    0.330341   -0.544768
      4          1           0       -1.475175   -1.813221    1.072739
      5          1           0       -0.728894   -1.957632   -1.231852
      6          7           0        1.616398    0.177842   -0.449576
      7          6           0       -2.206848    1.335263    0.364901
      8          1           0       -2.164936    0.270755   -1.417965
      9          1           0       -1.546596    1.450665    1.228935
     10          1           0       -3.205819    1.084353    0.747845
     11          1           0       -2.266747    2.313149   -0.123444
     12          6           0        2.914482    0.685519   -0.024999
     13          1           0        1.021452    0.943492   -0.747919
     14          1           0        3.600149   -0.151293    0.140518
     15          1           0        2.881501    1.276447    0.908318
     16          1           0        3.340963    1.311046   -0.813615
     17          1           0        1.473768   -1.532103    0.758487
     18          1           0        0.850102   -0.093273    1.550198
 ---------------------------------------------------------------------

 SCF Done:  E(RHF) =  -518.731386954     A.U. after    2 cycles

 The electronic state is 1-A.
 Alpha  occ. eigenvalues --  -69.52773 -15.47971 -15.47280 -11.26428 -11.24745
 Alpha  occ. eigenvalues --  -11.23553  -6.19647  -3.95044  -3.94999  -3.94955
 Alpha  occ. eigenvalues --   -1.19257  -1.16579  -0.94934  -0.91451  -0.86230
 Alpha  occ. eigenvalues --   -0.74084  -0.66787  -0.66324  -0.62266  -0.61792
 Alpha  occ. eigenvalues --   -0.60010  -0.57864  -0.54514  -0.52632  -0.51671
 Alpha  occ. eigenvalues --   -0.47364  -0.45763  -0.40523  -0.39180
 Alpha virt. eigenvalues --    0.03443   0.04242   0.04570   0.04650   0.05430
 Alpha virt. eigenvalues --    0.05662   0.05911   0.06433   0.06931   0.08651
 Alpha virt. eigenvalues --    0.08659   0.09679   0.09887   0.11338   0.12125

 Mulliken charges:
               1
     1  C   -0.728455
     2  Si   0.833318
     3  N    0.099887
     4  H   -0.151570
     5  H   -0.061008
     6  N    0.236396
     7  C   -0.480373
     8  H   -0.033050
     9  H    0.043644
    10  H    0.120108
    11  H    0.066984
    12  C   -0.476728
    13  H    0.189318
    14  H    0.103106
    15  H    0.157949
    16  H    0.034468
    17  H   -0.043596
    18  H    0.089601
 Sum of Mulliken charges =  -0.00000

 Dipole moment (field-independent basis, Debye):
    X=             -0.7835    Y=              1.2044    Z=              0.7537  Tot=              1.6225

 Test job not archived.
 1\1\GINC-SE341\SP\RHF\Aug-CC-pVDZ\C3H12N2Si1\OHZDE\08-Apr-2025\0\\#t h
 f aug-cc-pvdz iop(5/13=1,5/36=2,99/5=2) pseudo=read geom=check guess=(
 read,tcheck) scf=(maxcycle=1)\\title\\0,1\C,0,0.918467,-0.603378,0.567
 848\Si,0,-0.801554,-1.083149,-0.039881\N,0,-1.661343,0.330341,-0.54476
 8\H,0,-1.475175,-1.813221,1.072739\H,0,-0.728894,-1.957632,-1.231852\N
 ,0,1.616398,0.177842,-0.449576\C,0,-2.206848,1.335263,0.364901\H,0,-2.
 164936,0.270755,-1.417965\H,0,-1.546596,1.450665,1.228935\H,0,-3.20581
 9,1.084353,0.747845\H,0,-2.266747,2.313149,-0.123444\C,0,2.914482,0.68

 Normal termination of Gaussian 16 at Tue Apr  8 23:51:54 2025.
