 Gaussian 16, Revision C.01,

 ----------------------------------------------------------------------
 #t hf aug-cc-pvdz symm=none int=(grid=ultrafine) guess=(read,tcheck) s
 table=(opt,rrhf)
 ----------------------------------------------------------------------
 -----
 title
 -----
 Symbolic Z-matrix:
 Charge =  0 Multiplicity = 1

 SCF Done:  E(RHF) =  -1292.98606006     A.U. after   15 cycles
 Normal termination of Gaussian 16 at Wed Apr  9 00:18:34 2025.
 Gaussian 16:  ES64L-G16RevC.01  3-Jul-2019

 ----------------------------------------------------------------------
 #t hf aug-cc-pvdz iop(5/13=1,5/36=2,99/5=2) pseudo=read geom=check gue
 ss=(read,tcheck) scf=(maxcycle=1)
 ----------------------------------------------------------------------
 -----
 title
 -----
 Structure from the checkpoint file:  "BDE49_nonexpt_2573_mol1.chk"
 Charge =  0 Multiplicity = 1

                         Standard orientation:
 ---------------------------------------------------------------------
 Center     Atomic      Atomic             Coordinates (Angstroms)
 Number     Number       Type             X           Y           Z
 ---------------------------------------------------------------------
      1         17           0       -1.544448   -0.830772   -0.000014
      2         16           0       -0.715136    1.043948    0.000008
      3          6           0        0.999016    0.781930    0.000011
      4         16           0        1.891334   -0.566016    0.000001
      5          1           0        1.442345    1.784619    0.000023
 ---------------------------------------------------------------------

 SCF Done:  E(RHF) =  -1293.21565647     A.U. after    2 cycles

 The electronic state is 1-A.
 Alpha  occ. eigenvalues -- -105.60872 -94.05249 -93.95527 -11.37623 -10.65592
 Alpha  occ. eigenvalues --   -8.33075  -8.23758  -7.82541  -7.82055  -7.82032
 Alpha  occ. eigenvalues --   -6.30874  -6.30605  -6.30368  -6.21579  -6.21359
 Alpha  occ. eigenvalues --   -6.21130  -1.18806  -1.09270  -0.98680  -0.80278
 Alpha  occ. eigenvalues --   -0.64700  -0.59951  -0.56124  -0.53864  -0.48292
 Alpha  occ. eigenvalues --   -0.47361  -0.37676  -0.36846
 Alpha virt. eigenvalues --    0.02679   0.03039   0.03995   0.07099   0.07929
 Alpha virt. eigenvalues --    0.10769   0.10928   0.12531   0.13618   0.14579
 Alpha virt. eigenvalues --    0.15084   0.15639   0.16019   0.16450   0.18395

 Mulliken charges:
               1
     1  Cl  -0.194437
     2  S    0.562227
     3  C   -0.785477
     4  S    0.339754
     5  H    0.077932
 Sum of Mulliken charges =  -0.00000

 Dipole moment (field-independent basis, Debye):
    X=             -0.4906    Y=              2.1239    Z=              0.0000  Tot=              2.1799

 Test job not archived.
 1\1\GINC-SE106\SP\RHF\Aug-CC-pVDZ\C1H1Cl1S2\OHZDE\09-Apr-2025\0\\#t hf
  aug-cc-pvdz iop(5/13=1,5/36=2,99/5=2) pseudo=read geom=check guess=(r
 ead,tcheck) scf=(maxcycle=1)\\title\\0,1\Cl,0,-1.544448,-0.830772,-0.0
 00014\S,0,-0.715136,1.043948,0.000008\C,0,0.999016,0.78193,0.000011\S,
 0,1.891334,-0.566015,0.000001\H,0,1.442344,1.784619,0.000023\\Version=
 ES64L-G16RevC.01\State=1-A\HF=-1293.2156565\RMSD=5.335e-03\Dipole=-0.1
 93028,0.8356211,0.0000078\Quadrupole=-1.9437028,3.1365692,-1.1928664,1
 .665046,0.0000141,0.0000495\PG=C01 [X(C1H1Cl1S2)]\\@

 Normal termination of Gaussian 16 at Wed Apr  9 00:18:37 2025.
