 Gaussian 16, Revision C.01,

 ----------------------------------------------------------------------
 #t hf aug-cc-pvdz symm=none int=(grid=ultrafine) guess=(read,tcheck) s
 table=(opt,rrhf)
 ----------------------------------------------------------------------
 -----
 title
 -----
 Symbolic Z-matrix:
 Charge =  0 Multiplicity = 1

 SCF Done:  E(RHF) =  -932.455473002     A.U. after   14 cycles
 Normal termination of Gaussian 16 at Wed Apr  9 00:15:32 2025.
 Gaussian 16:  ES64L-G16RevC.01  3-Jul-2019

 ----------------------------------------------------------------------
 #t hf aug-cc-pvdz iop(5/13=1,5/36=2,99/5=2) pseudo=read geom=check gue
 ss=(read,tcheck) scf=(maxcycle=1)
 ----------------------------------------------------------------------
 -----
 title
 -----
 Structure from the checkpoint file:  "BDE49_nonexpt_2526_mol1.chk"
 Charge =  0 Multiplicity = 1

                         Standard orientation:
 ---------------------------------------------------------------------
 Center     Atomic      Atomic             Coordinates (Angstroms)
 Number     Number       Type             X           Y           Z
 ---------------------------------------------------------------------
      1         17           0       -1.359154   -0.204489   -0.002456
      2          8           0        1.558642   -0.683864   -0.119189
      3         16           0        0.558620    0.624761    0.014316
      4          1           0        1.698573   -1.048948    0.766217
 ---------------------------------------------------------------------

 SCF Done:  E(RHF) =  -932.664667406     A.U. after    2 cycles

 The electronic state is 1-A.
 Alpha  occ. eigenvalues -- -105.59105 -94.07142 -20.62663 -10.63852  -8.34216
 Alpha  occ. eigenvalues --   -7.80777  -7.80346  -7.80303  -6.31990  -6.31782
 Alpha  occ. eigenvalues --   -6.31390  -1.51346  -1.10844  -0.93426  -0.72383
 Alpha  occ. eigenvalues --   -0.62914  -0.60922  -0.52021  -0.49330  -0.48223
 Alpha  occ. eigenvalues --   -0.38601
 Alpha virt. eigenvalues --    0.03372   0.04616   0.07792   0.11045   0.11299
 Alpha virt. eigenvalues --    0.12946   0.15275   0.16188   0.16935   0.18040
 Alpha virt. eigenvalues --    0.20469   0.21974   0.25784   0.27883   0.31585

 Mulliken charges:
               1
     1  Cl  -0.269787
     2  O   -0.997076
     3  S    0.865926
     4  H    0.400938
 Sum of Mulliken charges =   0.00000

 Dipole moment (field-independent basis, Debye):
    X=              1.2451    Y=             -0.2024    Z=              1.4443  Tot=              1.9176

 Test job not archived.
 1\1\GINC-SE072\SP\RHF\Aug-CC-pVDZ\Cl1H1O1S1\OHZDE\09-Apr-2025\0\\#t hf
  aug-cc-pvdz iop(5/13=1,5/36=2,99/5=2) pseudo=read geom=check guess=(r
 ead,tcheck) scf=(maxcycle=1)\\title\\0,1\Cl,0,-1.359154,-0.204489,-0.0
 02456\O,0,1.558642,-0.683864,-0.119189\S,0,0.55862,0.624761,0.014316\H
 ,0,1.698573,-1.048948,0.766217\\Version=ES64L-G16RevC.01\State=1-A\HF=
 -932.6646674\RMSD=4.230e-03\Dipole=0.4898742,-0.0796279,0.568218\Quadr
 upole=0.4175262,0.4705336,-0.8880598,-0.4711939,2.1367669,-1.4390349\P
 G=C01 [X(Cl1H1O1S1)]\\@

 Normal termination of Gaussian 16 at Wed Apr  9 00:15:33 2025.
