 Gaussian 16, Revision C.01,

 ----------------------------------------------------------------------
 #t hf aug-cc-pvdz symm=none int=(grid=ultrafine) guess=(read,tcheck) s
 table=(opt,rrhf)
 ----------------------------------------------------------------------
 -----
 title
 -----
 Symbolic Z-matrix:
 Charge =  0 Multiplicity = 1

 SCF Done:  E(RHF) =  -389.172722257     A.U. after   15 cycles
 Normal termination of Gaussian 16 at Wed Apr  9 00:39:40 2025.
 Gaussian 16:  ES64L-G16RevC.01  3-Jul-2019

 ----------------------------------------------------------------------
 #t hf aug-cc-pvdz iop(5/13=1,5/36=2,99/5=2) pseudo=read geom=check gue
 ss=(read,tcheck) scf=(maxcycle=1)
 ----------------------------------------------------------------------
 -----
 title
 -----
 Structure from the checkpoint file:  "BDE49_nonexpt_575_mol1.chk"
 Charge =  0 Multiplicity = 1

                         Standard orientation:
 ---------------------------------------------------------------------
 Center     Atomic      Atomic             Coordinates (Angstroms)
 Number     Number       Type             X           Y           Z
 ---------------------------------------------------------------------
      1          5           0        2.213901    0.007739    0.033596
      2          6           0        2.235540    1.491943    0.580324
      3          6           0       -0.347257   -0.342336   -0.141204
      4          6           0        3.579261   -0.760998   -0.199721
      5          1           0        4.120170   -0.874147    0.748053
      6          1           0        4.245300   -0.179752   -0.848913
      7          1           0        3.474648   -1.757470   -0.642106
      8          1           0        2.311317    2.205150   -0.251413
      9          1           0        3.119154    1.664282    1.202766
     10          1           0        1.350683    1.771961    1.157450
     11          6           0       -1.282764   -1.322188    0.218879
     12          6           0       -0.803374    0.952881   -0.413638
     13          6           0       -2.156700    1.259846   -0.298235
     14          6           0       -3.080198    0.283820    0.067944
     15          6           0       -2.634616   -1.012699    0.318151
     16          1           0       -3.340434   -1.786719    0.598464
     17          1           0       -0.939575   -2.329873    0.431678
     18          1           0       -2.490728    2.269021   -0.512767
     19          1           0       -4.132986    0.527348    0.149301
     20          1           0       -0.103537    1.711080   -0.736928
     21          7           0        1.017627   -0.698641   -0.250295
     22          1           0        1.133742   -1.670696   -0.506493
 ---------------------------------------------------------------------

 SCF Done:  E(RHF) =  -389.584451725     A.U. after    2 cycles

 The electronic state is 1-A.
 Alpha  occ. eigenvalues --  -15.50112 -11.28365 -11.24511 -11.24445 -11.23788
 Alpha  occ. eigenvalues --  -11.23587 -11.23507 -11.19883 -11.19682  -7.58104
 Alpha  occ. eigenvalues --   -1.22216  -1.13435  -1.01795  -1.00191  -0.96088
 Alpha  occ. eigenvalues --   -0.92354  -0.84284  -0.83269  -0.74032  -0.72297
 Alpha  occ. eigenvalues --   -0.67973  -0.63611  -0.62070  -0.59991  -0.58521
 Alpha  occ. eigenvalues --   -0.56737  -0.53617  -0.53533  -0.52912  -0.52812
 Alpha  occ. eigenvalues --   -0.51113  -0.49877  -0.46661  -0.45344  -0.34754
 Alpha  occ. eigenvalues --   -0.32257
 Alpha virt. eigenvalues --    0.03216   0.03637   0.03759   0.04229   0.04485
 Alpha virt. eigenvalues --    0.04721   0.06103   0.06807   0.06935   0.07510
 Alpha virt. eigenvalues --    0.07694   0.09580   0.09997   0.10230   0.10662

 Mulliken charges:
               1
     1  B    0.630995
     2  C   -0.459992
     3  C   -1.608901
     4  C   -0.416775
     5  H    0.086900
     6  H    0.053182
     7  H   -0.081180
     8  H    0.141374
     9  H   -0.099591
    10  H    0.030426
    11  C    0.481254
    12  C    0.583696
    13  C    0.278029
    14  C    0.076867
    15  C    0.424366
    16  H   -0.221778
    17  H   -0.345300
    18  H   -0.252198
    19  H   -0.220364
    20  H   -0.311732
    21  N    1.158572
    22  H    0.072149
 Sum of Mulliken charges =  -0.00000

 Dipole moment (field-independent basis, Debye):
    X=             -0.0711    Y=             -0.4569    Z=             -0.0947  Tot=              0.4720

 Test job not archived.
 1\1\GINC-SE343\SP\RHF\Aug-CC-pVDZ\C8H12B1N1\OHZDE\09-Apr-2025\0\\#t hf
  aug-cc-pvdz iop(5/13=1,5/36=2,99/5=2) pseudo=read geom=check guess=(r
 ead,tcheck) scf=(maxcycle=1)\\title\\0,1\B,0,2.213901,0.007739,0.03359
 6\C,0,2.23554,1.491943,0.580324\C,0,-0.347257,-0.342336,-0.141204\C,0,
 3.579261,-0.760998,-0.199721\H,0,4.12017,-0.874147,0.748053\H,0,4.2453
 ,-0.179752,-0.848913\H,0,3.474648,-1.75747,-0.642106\H,0,2.311317,2.20
 515,-0.251413\H,0,3.119154,1.664282,1.202766\H,0,1.350683,1.771961,1.1
 5745\C,0,-1.282764,-1.322188,0.218879\C,0,-0.803374,0.952881,-0.413638

 Normal termination of Gaussian 16 at Wed Apr  9 00:39:52 2025.
