 Gaussian 16, Revision C.01,

 ----------------------------------------------------------------------
 #t hf aug-cc-pvdz symm=none int=(grid=ultrafine) guess=(read,tcheck) s
 table=(opt,rrhf)
 ----------------------------------------------------------------------
 -----
 title
 -----
 Symbolic Z-matrix:
 Charge =  0 Multiplicity = 1

 SCF Done:  E(RHF) =  -802.394759474     A.U. after   16 cycles
 Normal termination of Gaussian 16 at Tue Apr  8 23:01:17 2025.
 Gaussian 16:  ES64L-G16RevC.01  3-Jul-2019

 ----------------------------------------------------------------------
 #t hf aug-cc-pvdz iop(5/13=1,5/36=2,99/5=2) pseudo=read geom=check gue
 ss=(read,tcheck) scf=(maxcycle=1)
 ----------------------------------------------------------------------
 -----
 title
 -----
 Structure from the checkpoint file:  "BDE49_expt_206_mol1.chk"
 Charge =  0 Multiplicity = 1

                         Standard orientation:
 ---------------------------------------------------------------------
 Center     Atomic      Atomic             Coordinates (Angstroms)
 Number     Number       Type             X           Y           Z
 ---------------------------------------------------------------------
      1          6           0        2.498244   -1.537916    0.000000
      2          8           0        3.588849   -1.016361    0.000000
      3          6           0        1.213149   -0.801729    0.000000
      4          1           0        2.395227   -2.644614    0.000000
      5          6           0        1.201402    0.598805   -0.000000
      6          6           0        0.000000    1.290280   -0.000000
      7          6           0       -1.195684    0.569521   -0.000000
      8          6           0       -1.208806   -0.822545    0.000000
      9          6           0        0.004026   -1.502446    0.000000
     10          1           0        0.010884   -2.587827    0.000000
     11          1           0        2.147985    1.125971   -0.000000
     12          1           0       -0.022828    2.372255   -0.000000
     13         17           0       -2.715624    1.438637   -0.000000
     14          1           0       -2.150441   -1.355559    0.000000
 ---------------------------------------------------------------------

 SCF Done:  E(RHF) =  -802.813810901     A.U. after    2 cycles

 The electronic state is 1-A'.
 Alpha  occ. eigenvalues -- -105.58787 -20.55326 -11.35405 -11.33587 -11.28393
 Alpha  occ. eigenvalues --  -11.27685 -11.27523 -11.27374 -11.26967 -10.63586
 Alpha  occ. eigenvalues --   -7.80553  -7.80148  -7.80135  -1.48326  -1.20556
 Alpha  occ. eigenvalues --   -1.12195  -1.05547  -1.02533  -0.89702  -0.87722
 Alpha  occ. eigenvalues --   -0.81403  -0.73544  -0.70013  -0.67436  -0.64633
 Alpha  occ. eigenvalues --   -0.63440  -0.63403  -0.58056  -0.55737  -0.54563
 Alpha  occ. eigenvalues --   -0.54330  -0.48624  -0.48015  -0.43351  -0.37990
 Alpha  occ. eigenvalues --   -0.36296
 Alpha virt. eigenvalues --    0.02907   0.03692   0.04111   0.04442   0.05777
 Alpha virt. eigenvalues --    0.06204   0.07541   0.08709   0.09131   0.09977
 Alpha virt. eigenvalues --    0.11433   0.11788   0.12882   0.12915   0.13463

 Mulliken charges:
               1
     1  C    0.542332
     2  O   -1.267669
     3  C    1.494833
     4  H   -0.011124
     5  C    0.113512
     6  C    0.362277
     7  C   -0.557595
     8  C    0.147731
     9  C    0.449633
    10  H   -0.293047
    11  H   -0.308377
    12  H   -0.175149
    13  Cl  -0.308164
    14  H   -0.189193
 Sum of Mulliken charges =  -0.00000

 Dipole moment (field-independent basis, Debye):
    X=             -1.8425    Y=             -1.1961    Z=              0.0000  Tot=              2.1967

 Test job not archived.
 1\1\GINC-SE366\SP\RHF\Aug-CC-pVDZ\C7H5Cl1O1\OHZDE\08-Apr-2025\0\\#t hf
  aug-cc-pvdz iop(5/13=1,5/36=2,99/5=2) pseudo=read geom=check guess=(r
 ead,tcheck) scf=(maxcycle=1)\\title\\0,1\C,0,2.498244,-1.537916,0.\O,0
 ,3.588849,-1.016361,0.\C,0,1.213149,-0.801729,0.\H,0,2.395227,-2.64461
 4,0.\C,0,1.201402,0.598805,0.\C,0,0.,1.29028,0.\C,0,-1.195684,0.569521
 ,0.\C,0,-1.208806,-0.822545,0.\C,0,0.004026,-1.502446,0.\H,0,0.010884,
 -2.587827,0.\H,0,2.147985,1.125971,0.\H,0,-0.022828,2.372255,0.\Cl,0,-
 2.715624,1.438637,0.\H,0,-2.150441,-1.355559,0.\\Version=ES64L-G16RevC

 Normal termination of Gaussian 16 at Tue Apr  8 23:01:22 2025.
