 Gaussian 16, Revision C.01,

 ----------------------------------------------------------------------
 #t hf aug-cc-pvdz symm=none int=(grid=ultrafine) guess=(read,tcheck) s
 table=(opt,rrhf)
 ----------------------------------------------------------------------
 -----
 title
 -----
 Symbolic Z-matrix:
 Charge =  0 Multiplicity = 1

 SCF Done:  E(RHF) =  -763.659563761     A.U. after   13 cycles
 Normal termination of Gaussian 16 at Wed Apr  9 00:07:27 2025.
 Gaussian 16:  ES64L-G16RevC.01  3-Jul-2019

 ----------------------------------------------------------------------
 #t hf aug-cc-pvdz iop(5/13=1,5/36=2,99/5=2) pseudo=read geom=check gue
 ss=(read,tcheck) scf=(maxcycle=1)
 ----------------------------------------------------------------------
 -----
 title
 -----
 Structure from the checkpoint file:  "BDE49_nonexpt_2264_mol1.chk"
 Charge =  0 Multiplicity = 1

                         Standard orientation:
 ---------------------------------------------------------------------
 Center     Atomic      Atomic             Coordinates (Angstroms)
 Number     Number       Type             X           Y           Z
 ---------------------------------------------------------------------
      1         16           0       -1.478156   -0.135459   -0.091597
      2          8           0       -0.015999    0.707189    0.042409
      3          1           0       -1.680220   -0.361693    1.223684
      4         14           0        1.424233   -0.145359   -0.004458
      5          1           0        2.468595    0.894711    0.068646
      6          1           0        1.536767   -0.923778   -1.256331
      7          1           0        1.514093   -1.064389    1.152691
 ---------------------------------------------------------------------

 SCF Done:  E(RHF) =  -763.827115248     A.U. after    2 cycles

 The electronic state is 1-A.
 Alpha  occ. eigenvalues --  -94.01758 -69.56927 -20.57637  -8.29115  -6.26990
 Alpha  occ. eigenvalues --   -6.26771  -6.26509  -6.23542  -3.99035  -3.98895
 Alpha  occ. eigenvalues --   -3.98866  -1.45678  -0.99025  -0.75748  -0.64205
 Alpha  occ. eigenvalues --   -0.59629  -0.58948  -0.51091  -0.48559  -0.45449
 Alpha  occ. eigenvalues --   -0.38091
 Alpha virt. eigenvalues --    0.03678   0.04567   0.05218   0.05871   0.06970
 Alpha virt. eigenvalues --    0.08534   0.09160   0.09910   0.11998   0.13619
 Alpha virt. eigenvalues --    0.15134   0.16496   0.18197   0.19169   0.19651

 Mulliken charges:
               1
     1  S    0.237923
     2  O   -1.442873
     3  H    0.320650
     4  Si   1.524969
     5  H   -0.212591
     6  H   -0.207159
     7  H   -0.220918
 Sum of Mulliken charges =   0.00000

 Dipole moment (field-independent basis, Debye):
    X=              0.3739    Y=             -0.9080    Z=              0.8348  Tot=              1.2888

 Test job not archived.
 1\1\GINC-SE424\SP\RHF\Aug-CC-pVDZ\H4O1S1Si1\OHZDE\09-Apr-2025\0\\#t hf
  aug-cc-pvdz iop(5/13=1,5/36=2,99/5=2) pseudo=read geom=check guess=(r
 ead,tcheck) scf=(maxcycle=1)\\title\\0,1\S,0,-1.478156,-0.135459,-0.09
 1597\O,0,-0.015999,0.707189,0.042409\H,0,-1.68022,-0.361693,1.223684\S
 i,0,1.424233,-0.145359,-0.004458\H,0,2.468595,0.894711,0.068646\H,0,1.
 536767,-0.923778,-1.256331\H,0,1.514093,-1.064389,1.152691\\Version=ES
 64L-G16RevC.01\State=1-A\HF=-763.8271152\RMSD=4.399e-03\Dipole=0.14712
 21,-0.3572228,0.3284283\Quadrupole=1.395507,-2.0965151,0.7010081,0.825

 Normal termination of Gaussian 16 at Wed Apr  9 00:07:29 2025.
