 Gaussian 16, Revision C.01,

 ----------------------------------------------------------------------
 #t hf aug-cc-pvdz symm=none int=(grid=ultrafine) guess=(read,tcheck) s
 table=(opt,rrhf)
 ----------------------------------------------------------------------
 -----
 title
 -----
 Symbolic Z-matrix:
 Charge =  0 Multiplicity = 1

 SCF Done:  E(RHF) =  -1729.56097142     A.U. after   15 cycles
 Normal termination of Gaussian 16 at Wed Apr  9 00:18:41 2025.
 Gaussian 16:  ES64L-G16RevC.01  3-Jul-2019

 ----------------------------------------------------------------------
 #t hf aug-cc-pvdz iop(5/13=1,5/36=2,99/5=2) pseudo=read geom=check gue
 ss=(read,tcheck) scf=(maxcycle=1)
 ----------------------------------------------------------------------
 -----
 title
 -----
 Structure from the checkpoint file:  "BDE49_nonexpt_2576_mol1.chk"
 Charge =  0 Multiplicity = 1

                         Standard orientation:
 ---------------------------------------------------------------------
 Center     Atomic      Atomic             Coordinates (Angstroms)
 Number     Number       Type             X           Y           Z
 ---------------------------------------------------------------------
      1         17           0       -2.508100   -0.635141    0.000089
      2         16           0       -1.186498    1.015972   -0.000002
      3          6           0        0.427384    0.386322   -0.000133
      4         16           0        1.507904    1.634402    0.000055
      5         16           0        0.701985   -1.326287   -0.000095
      6          6           0        2.517743   -1.399444   -0.000011
      7          1           0        2.758302   -2.463165    0.000014
      8          1           0        2.917147   -0.923035    0.893750
      9          1           0        2.917226   -0.923058   -0.893750
 ---------------------------------------------------------------------

 SCF Done:  E(RHF) =  -1729.89367181     A.U. after    2 cycles

 The electronic state is 1-A.
 Alpha  occ. eigenvalues -- -105.59692 -94.05082 -94.00732 -93.94652 -11.40154
 Alpha  occ. eigenvalues --  -11.29456 -10.64359  -8.32746  -8.28861  -8.22887
 Alpha  occ. eigenvalues --   -7.81292  -7.80862  -7.80821  -6.30517  -6.30253
 Alpha  occ. eigenvalues --   -6.29975  -6.26676  -6.26465  -6.26294  -6.20733
 Alpha  occ. eigenvalues --   -6.20432  -6.20318  -1.20712  -1.11627  -1.06726
 Alpha  occ. eigenvalues --   -0.96480  -0.93747  -0.73580  -0.65887  -0.63008
 Alpha  occ. eigenvalues --   -0.60191  -0.58726  -0.55798  -0.52598  -0.49415
 Alpha  occ. eigenvalues --   -0.49173  -0.47681  -0.39855  -0.36866  -0.36061
 Alpha virt. eigenvalues --    0.02641   0.03051   0.03578   0.05346   0.05639
 Alpha virt. eigenvalues --    0.06722   0.08312   0.08631   0.10730   0.11036
 Alpha virt. eigenvalues --    0.12538   0.13208   0.13496   0.14514   0.15545

 Mulliken charges:
               1
     1  Cl  -0.264061
     2  S    0.741699
     3  C   -1.114543
     4  S    0.137916
     5  S    0.681311
     6  C   -0.824637
     7  H    0.132992
     8  H    0.254664
     9  H    0.254659
 Sum of Mulliken charges =  -0.00000

 Dipole moment (field-independent basis, Debye):
    X=              1.7476    Y=             -2.0984    Z=             -0.0000  Tot=              2.7309

 Test job not archived.
 1\1\GINC-SE365\SP\RHF\Aug-CC-pVDZ\C2H3Cl1S3\OHZDE\09-Apr-2025\0\\#t hf
  aug-cc-pvdz iop(5/13=1,5/36=2,99/5=2) pseudo=read geom=check guess=(r
 ead,tcheck) scf=(maxcycle=1)\\title\\0,1\Cl,0,2.5081,-0.63514,-0.00008
 9\S,0,1.186498,1.015972,0.000002\C,0,-0.427384,0.386322,0.000133\S,0,-
 1.507904,1.634402,-0.000055\S,0,-0.701985,-1.326287,0.000095\C,0,-2.51
 7743,-1.399445,0.000011\H,0,-2.758301,-2.463166,-0.000014\H,0,-2.91714
 7,-0.923036,-0.89375\H,0,-2.917226,-0.923059,0.89375\\Version=ES64L-G1
 6RevC.01\State=1-A\HF=-1729.8936718\RMSD=5.084e-03\Dipole=-0.6875764,-

 Normal termination of Gaussian 16 at Wed Apr  9 00:18:44 2025.
