 Gaussian 16, Revision C.01,

 ----------------------------------------------------------------------
 #t hf aug-cc-pvdz symm=none int=(grid=ultrafine) guess=(read,tcheck) s
 table=(opt,rrhf)
 ----------------------------------------------------------------------
 -----
 title
 -----
 Symbolic Z-matrix:
 Charge =  0 Multiplicity = 1

 SCF Done:  E(RHF) =  -1100.92257077     A.U. after   14 cycles
 Normal termination of Gaussian 16 at Tue Apr  8 23:39:11 2025.
 Gaussian 16:  ES64L-G16RevC.01  3-Jul-2019

 ----------------------------------------------------------------------
 #t hf aug-cc-pvdz iop(5/13=1,5/36=2,99/5=2) pseudo=read geom=check gue
 ss=(read,tcheck) scf=(maxcycle=1)
 ----------------------------------------------------------------------
 -----
 title
 -----
 Structure from the checkpoint file:  "BDE49_nonexpt_1589_mol1.chk"
 Charge =  0 Multiplicity = 1

                         Standard orientation:
 ---------------------------------------------------------------------
 Center     Atomic      Atomic             Coordinates (Angstroms)
 Number     Number       Type             X           Y           Z
 ---------------------------------------------------------------------
      1         17           0        2.084844    0.003254   -0.000000
      2          8           0        0.596243    0.909438   -0.000003
      3         15           0       -0.800700    0.064355   -0.000000
      4          8           0       -0.707160   -0.971322   -1.195109
      5          8           0       -1.876122    1.049429   -0.000003
      6          8           0       -0.707160   -0.971314    1.195115
      7          1           0       -0.939127   -0.575236    2.043613
      8          1           0       -0.939126   -0.575249   -2.043610
 ---------------------------------------------------------------------

 SCF Done:  E(RHF) =  -1101.33249799     A.U. after    2 cycles

 The electronic state is 1-A.
 Alpha  occ. eigenvalues -- -105.65264 -84.48321 -20.65453 -20.61958 -20.61954
 Alpha  occ. eigenvalues --  -20.52595 -10.69403  -7.86396  -7.85816  -7.85798
 Alpha  occ. eigenvalues --   -6.93199  -4.47388  -4.46613  -4.46497  -1.58436
 Alpha  occ. eigenvalues --   -1.50365  -1.49768  -1.41009  -1.05841  -0.88882
 Alpha  occ. eigenvalues --   -0.75015  -0.73272  -0.68348  -0.67032  -0.64574
 Alpha  occ. eigenvalues --   -0.62640  -0.58279  -0.56036  -0.55885  -0.49407
 Alpha  occ. eigenvalues --   -0.48798  -0.47959  -0.47161
 Alpha virt. eigenvalues --    0.03256   0.04201   0.04285   0.08133   0.09485
 Alpha virt. eigenvalues --    0.11201   0.11295   0.14085   0.14220   0.15026
 Alpha virt. eigenvalues --    0.17233   0.18044   0.21480   0.22608   0.22908

 Mulliken charges:
               1
     1  Cl   0.334123
     2  O   -1.278165
     3  P    4.009567
     4  O   -1.246236
     5  O   -1.312484
     6  O   -1.246236
     7  H    0.369715
     8  H    0.369716
 Sum of Mulliken charges =  -0.00000

 Dipole moment (field-independent basis, Debye):
    X=              1.2445    Y=             -1.5309    Z=              0.0000  Tot=              1.9730

 Test job not archived.
 1\1\GINC-SE128\SP\RHF\Aug-CC-pVDZ\Cl1H2O4P1\OHZDE\08-Apr-2025\0\\#t hf
  aug-cc-pvdz iop(5/13=1,5/36=2,99/5=2) pseudo=read geom=check guess=(r
 ead,tcheck) scf=(maxcycle=1)\\title\\0,1\Cl,0,2.084844,-0.003254,0.\O,
 0,0.596243,-0.909438,0.000003\P,0,-0.8007,-0.064355,0.\O,0,-0.70716,0.
 971322,1.195109\O,0,-1.876122,-1.049429,0.000003\O,0,-0.70716,0.971314
 ,-1.195115\H,0,-0.939127,0.575236,-2.043613\H,0,-0.939126,0.575249,2.0
 4361\\Version=ES64L-G16RevC.01\State=1-A\HF=-1101.332498\RMSD=9.864e-0
 3\Dipole=0.4896372,0.6023057,-0.0000026\Quadrupole=-2.9201584,-5.14740

 Normal termination of Gaussian 16 at Tue Apr  8 23:39:15 2025.
