 Gaussian 16, Revision C.01,

 ----------------------------------------------------------------------
 #t hf aug-cc-pvdz symm=none int=(grid=ultrafine) guess=(read,tcheck) s
 table=(opt,rrhf)
 ----------------------------------------------------------------------
 -----
 title
 -----
 Symbolic Z-matrix:
 Charge =  0 Multiplicity = 1

 SCF Done:  E(RHF) =  -1303.35062925     A.U. after   17 cycles
 Normal termination of Gaussian 16 at Tue Apr  8 23:43:35 2025.
 Gaussian 16:  ES64L-G16RevC.01  3-Jul-2019

 ----------------------------------------------------------------------
 #t hf aug-cc-pvdz iop(5/13=1,5/36=2,99/5=2) pseudo=read geom=check gue
 ss=(read,tcheck) scf=(maxcycle=1)
 ----------------------------------------------------------------------
 -----
 title
 -----
 Structure from the checkpoint file:  "BDE49_nonexpt_1649_mol1.chk"
 Charge =  0 Multiplicity = 1

                         Standard orientation:
 ---------------------------------------------------------------------
 Center     Atomic      Atomic             Coordinates (Angstroms)
 Number     Number       Type             X           Y           Z
 ---------------------------------------------------------------------
      1         14           0       -0.486112    0.022040    0.550773
      2          7           0       -1.074722    1.554021   -0.368808
      3         15           0        1.718495   -0.246009    0.099660
      4          7           0       -1.368964   -1.338814   -0.405920
      5          6           0       -1.145780    0.088340    2.267559
      6          8           0       -0.797145   -1.757988   -1.419065
      7          8           0        2.251427   -1.317876    0.941691
      8          8           0       -0.204827    2.369653   -0.686832
      9          8           0        2.385901    1.180374    0.321582
     10          8           0       -2.270390    1.695177   -0.565561
     11          8           0       -2.441685   -1.744980    0.003023
     12          1           0       -0.728581    0.944280    2.803951
     13          1           0       -0.865870   -0.824565    2.799053
     14          1           0       -2.234216    0.169199    2.240404
     15          8           0        1.781064   -0.388722   -1.490273
     16          1           0        1.196095   -1.094439   -1.815783
     17          1           0        2.006431    1.865488   -0.252128
 ---------------------------------------------------------------------

 SCF Done:  E(RHF) =  -1304.07303039     A.U. after    2 cycles

 The electronic state is 1-A.
 Alpha  occ. eigenvalues --  -84.46639 -69.67913 -20.64195 -20.64008 -20.63433
 Alpha  occ. eigenvalues --  -20.63180 -20.62304 -20.62059 -20.53789 -15.80366
 Alpha  occ. eigenvalues --  -15.80307 -11.29445  -6.91889  -6.34565  -4.46073
 Alpha  occ. eigenvalues --   -4.45372  -4.44330  -4.09846  -4.09775  -4.09648
 Alpha  occ. eigenvalues --   -1.70226  -1.69950  -1.56651  -1.54301  -1.54233
 Alpha  occ. eigenvalues --   -1.50111  -1.42185  -1.08324  -1.01630  -1.01484
 Alpha  occ. eigenvalues --   -0.88802  -0.86824  -0.83985  -0.78568  -0.78491
 Alpha  occ. eigenvalues --   -0.77526  -0.77104  -0.76288  -0.73897  -0.66320
 Alpha  occ. eigenvalues --   -0.64195  -0.63578  -0.63201  -0.60559  -0.59500
 Alpha  occ. eigenvalues --   -0.57859  -0.54151  -0.53824  -0.52515  -0.51687
 Alpha  occ. eigenvalues --   -0.50483  -0.49186  -0.48871  -0.48744  -0.45278
 Alpha virt. eigenvalues --   -0.00043   0.01102   0.02614   0.04321   0.04703
 Alpha virt. eigenvalues --    0.05269   0.05999   0.07290   0.07847   0.07874
 Alpha virt. eigenvalues --    0.09153   0.09469   0.10042   0.11301   0.12110

 Mulliken charges:
               1
     1  Si   1.347681
     2  N    1.795437
     3  P    3.445129
     4  N    2.101083
     5  C   -0.638773
     6  O   -1.303105
     7  O   -1.556970
     8  O   -1.185078
     9  O   -1.420759
    10  O   -1.177540
    11  O   -1.238257
    12  H    0.020547
    13  H    0.125943
    14  H    0.132204
    15  O   -1.447739
    16  H    0.532810
    17  H    0.467389
 Sum of Mulliken charges =  -0.00000

 Dipole moment (field-independent basis, Debye):
    X=             -0.9912    Y=              1.6888    Z=              2.0227  Tot=              2.8153

 Test job not archived.
 1\1\GINC-SE083\SP\RHF\Aug-CC-pVDZ\C1H5N2O7P1Si1\OHZDE\08-Apr-2025\0\\#
 t hf aug-cc-pvdz iop(5/13=1,5/36=2,99/5=2) pseudo=read geom=check gues
 s=(read,tcheck) scf=(maxcycle=1)\\title\\0,1\Si,0,-0.486112,0.02204,0.
 550773\N,0,-1.074723,1.55402,-0.368808\P,0,1.718495,-0.246008,0.09966\
 N,0,-1.368963,-1.338815,-0.40592\C,0,-1.14578,0.088339,2.267559\O,0,-0
 .797144,-1.757988,-1.419065\O,0,2.251428,-1.317875,0.941691\O,0,-0.204
 828,2.369653,-0.686832\O,0,2.385901,1.180375,0.321582\O,0,-2.270391,1.
 695176,-0.565561\O,0,-2.441684,-1.744981,0.003023\H,0,-0.728581,0.9442

 Normal termination of Gaussian 16 at Tue Apr  8 23:43:50 2025.
