 Gaussian 16, Revision C.01,

 ----------------------------------------------------------------------
 #t hf aug-cc-pvdz symm=none int=(grid=ultrafine) guess=(read,tcheck) s
 table=(opt,rrhf)
 ----------------------------------------------------------------------
 -----
 title
 -----
 Symbolic Z-matrix:
 Charge =  0 Multiplicity = 1

 SCF Done:  E(RHF) =  -930.590781941     A.U. after   17 cycles
 Normal termination of Gaussian 16 at Wed Apr  9 00:24:57 2025.
 Gaussian 16:  ES64L-G16RevC.01  3-Jul-2019

 ----------------------------------------------------------------------
 #t hf aug-cc-pvdz iop(5/13=1,5/36=2,99/5=2) pseudo=read geom=check gue
 ss=(read,tcheck) scf=(maxcycle=1)
 ----------------------------------------------------------------------
 -----
 title
 -----
 Structure from the checkpoint file:  "BDE49_nonexpt_2698_mol1.chk"
 Charge =  0 Multiplicity = 1

                         Standard orientation:
 ---------------------------------------------------------------------
 Center     Atomic      Atomic             Coordinates (Angstroms)
 Number     Number       Type             X           Y           Z
 ---------------------------------------------------------------------
      1          9           0       -2.943405    0.572146   -0.000057
      2         16           0       -1.777848   -0.676507    0.000001
      3          6           0       -0.391314    0.389026    0.000001
      4          6           0        0.898724   -0.165387   -0.000005
      5          6           0        2.060907    0.610378    0.000005
      6          6           0        1.934839    1.984920    0.000018
      7          6           0       -0.494874    1.790834    0.000013
      8          1           0       -1.474824    2.243924    0.000018
      9          6           0        0.654170    2.563324    0.000019
     10          1           0        0.557302    3.642991    0.000024
     11          1           0        2.816927    2.612410    0.000027
     12          7           0        0.976306   -1.590385   -0.000027
     13          8           0        2.041274   -2.180218    0.000023
     14          8           0       -0.140324   -2.174936    0.000017
     15          1           0        3.020340    0.110833   -0.000000
 ---------------------------------------------------------------------

 SCF Done:  E(RHF) =  -931.165487735     A.U. after    2 cycles

 The electronic state is 1-A.
 Alpha  occ. eigenvalues --  -94.06208 -26.45094 -20.62254 -20.61851 -15.81696
 Alpha  occ. eigenvalues --  -11.33803 -11.33183 -11.30196 -11.29772 -11.28279
 Alpha  occ. eigenvalues --  -11.28248  -8.33185  -6.30916  -6.30589  -6.30286
 Alpha  occ. eigenvalues --   -1.69009  -1.55084  -1.52837  -1.23586  -1.14179
 Alpha  occ. eigenvalues --   -1.10836  -1.03488  -0.96968  -0.88128  -0.88009
 Alpha  occ. eigenvalues --   -0.80876  -0.77359  -0.77146  -0.72882  -0.70550
 Alpha  occ. eigenvalues --   -0.67064  -0.66704  -0.63857  -0.61898  -0.59221
 Alpha  occ. eigenvalues --   -0.56715  -0.56327  -0.54677  -0.52348  -0.49628
 Alpha  occ. eigenvalues --   -0.48777  -0.44259  -0.40377  -0.34997
 Alpha virt. eigenvalues --   -0.00568   0.02424   0.03277   0.04471   0.06218
 Alpha virt. eigenvalues --    0.06808   0.07867   0.08685   0.09811   0.10059
 Alpha virt. eigenvalues --    0.11632   0.11703   0.12424   0.12625   0.12876

 Mulliken charges:
               1
     1  F   -0.746434
     2  S    0.921580
     3  C    0.097820
     4  C   -0.572161
     5  C    0.243908
     6  C    0.198578
     7  C    0.394100
     8  H   -0.139742
     9  C    0.218676
    10  H   -0.206940
    11  H   -0.201733
    12  N    2.996401
    13  O   -1.540386
    14  O   -1.439987
    15  H   -0.223681
 Sum of Mulliken charges =  -0.00000

 Dipole moment (field-independent basis, Debye):
    X=              2.6901    Y=              4.0895    Z=              0.0000  Tot=              4.8949

 Test job not archived.
 1\1\GINC-SE461\SP\RHF\Aug-CC-pVDZ\C6H4F1N1O2S1\OHZDE\09-Apr-2025\0\\#t
  hf aug-cc-pvdz iop(5/13=1,5/36=2,99/5=2) pseudo=read geom=check guess
 =(read,tcheck) scf=(maxcycle=1)\\title\\0,1\F,0,2.943405,0.572144,0.00
 0057\S,0,1.777847,-0.676509,-0.000001\C,0,0.391314,0.389026,-0.000001\
 C,0,-0.898724,-0.165386,0.000005\C,0,-2.060906,0.61038,-0.000005\C,0,-
 1.934837,1.984921,-0.000018\C,0,0.494875,1.790833,-0.000013\H,0,1.4748
 26,2.243923,-0.000018\C,0,-0.654168,2.563324,-0.000019\H,0,-0.557299,3
 .642991,-0.000024\H,0,-2.816925,2.612412,-0.000027\N,0,-0.976307,-1.59

 Normal termination of Gaussian 16 at Wed Apr  9 00:25:05 2025.
