 Gaussian 16, Revision C.01,

 ----------------------------------------------------------------------
 #t hf aug-cc-pvdz symm=none int=(grid=ultrafine) guess=(read,tcheck) s
 table=(opt,rrhf)
 ----------------------------------------------------------------------
 -----
 title
 -----
 Symbolic Z-matrix:
 Charge =  0 Multiplicity = 1

 SCF Done:  E(RHF) =  -1204.57598005     A.U. after   14 cycles
 Normal termination of Gaussian 16 at Tue Apr  8 23:49:56 2025.
 Gaussian 16:  ES64L-G16RevC.01  3-Jul-2019

 ----------------------------------------------------------------------
 #t hf aug-cc-pvdz iop(5/13=1,5/36=2,99/5=2) pseudo=read geom=check gue
 ss=(read,tcheck) scf=(maxcycle=1)
 ----------------------------------------------------------------------
 -----
 title
 -----
 Structure from the checkpoint file:  "BDE49_nonexpt_1819_mol1.chk"
 Charge =  0 Multiplicity = 1

                         Standard orientation:
 ---------------------------------------------------------------------
 Center     Atomic      Atomic             Coordinates (Angstroms)
 Number     Number       Type             X           Y           Z
 ---------------------------------------------------------------------
      1          6           0        3.723631    0.127022    0.349000
      2          6           0        2.849771    1.204128    0.478235
      3          6           0        1.520991    1.093422    0.073906
      4          6           0        3.261328   -1.071966   -0.190981
      5          6           0        1.935601   -1.197643   -0.595738
      6          6           0        1.071686   -0.114027   -0.457789
      7          1           0        4.756196    0.221353    0.663876
      8          1           0        3.200872    2.142155    0.893278
      9          1           0        0.837147    1.928638    0.159467
     10          1           0        3.933538   -1.915806   -0.297855
     11          1           0        1.558000   -2.120740   -1.017874
     12          8           0       -0.226033   -0.268324   -0.905385
     13         14           0       -1.670127    0.162994   -0.305243
     14          8           0       -2.841178   -0.287968   -1.332322
     15         17           0       -1.958942   -0.791267    1.518164
     16          1           0       -3.018578   -1.223455   -1.456732
     17          8           0       -1.715609    1.771857   -0.100936
     18          1           0       -2.498883    2.167337    0.289806
 ---------------------------------------------------------------------

 SCF Done:  E(RHF) =  -1205.14056782     A.U. after    2 cycles

 The electronic state is 1-A.
 Alpha  occ. eigenvalues -- -105.56157 -69.65582 -20.57316 -20.57227 -20.57180
 Alpha  occ. eigenvalues --  -11.31656 -11.25007 -11.24989 -11.24286 -11.24231
 Alpha  occ. eigenvalues --  -11.24083 -10.61187  -7.78071  -7.77779  -7.77777
 Alpha  occ. eigenvalues --   -6.31207  -4.06717  -4.06693  -4.06647  -1.50161
 Alpha  occ. eigenvalues --   -1.46825  -1.45412  -1.15529  -1.05721  -1.02454
 Alpha  occ. eigenvalues --   -1.01535  -0.85993  -0.84631  -0.79300  -0.74001
 Alpha  occ. eigenvalues --   -0.73159  -0.68863  -0.66813  -0.65329  -0.62510
 Alpha  occ. eigenvalues --   -0.60760  -0.60224  -0.58712  -0.55023  -0.54687
 Alpha  occ. eigenvalues --   -0.54502  -0.52804  -0.52072  -0.49868  -0.49333
 Alpha  occ. eigenvalues --   -0.47430  -0.47403  -0.35223  -0.33405
 Alpha virt. eigenvalues --    0.03156   0.03737   0.03746   0.04701   0.05145
 Alpha virt. eigenvalues --    0.05959   0.07001   0.07610   0.08624   0.09695
 Alpha virt. eigenvalues --    0.10026   0.10350   0.11171   0.12062   0.12951

 Mulliken charges:
               1
     1  C    0.020477
     2  C    0.629001
     3  C   -0.158620
     4  C    0.710288
     5  C   -0.450176
     6  C    2.022710
     7  H   -0.222821
     8  H   -0.217422
     9  H   -0.322717
    10  H   -0.208096
    11  H   -0.284526
    12  O   -2.573300
    13  Si   3.659306
    14  O   -1.382745
    15  Cl  -0.587602
    16  H    0.382151
    17  O   -1.447243
    18  H    0.431336
 Sum of Mulliken charges =  -0.00000

 Dipole moment (field-independent basis, Debye):
    X=             -0.3803    Y=             -0.1624    Z=              0.0450  Tot=              0.4160

 Test job not archived.
 1\1\GINC-SE073\SP\RHF\Aug-CC-pVDZ\C6H7Cl1O3Si1\OHZDE\08-Apr-2025\0\\#t
  hf aug-cc-pvdz iop(5/13=1,5/36=2,99/5=2) pseudo=read geom=check guess
 =(read,tcheck) scf=(maxcycle=1)\\title\\0,1\C,0,3.723631,0.127022,0.34
 9\C,0,2.849771,1.204128,0.478235\C,0,1.520991,1.093422,0.073906\C,0,3.
 261328,-1.071966,-0.190981\C,0,1.935601,-1.197643,-0.595738\C,0,1.0716
 86,-0.114027,-0.457789\H,0,4.756196,0.221353,0.663876\H,0,3.200872,2.1
 42155,0.893278\H,0,0.837147,1.928638,0.159467\H,0,3.933538,-1.915806,-
 0.297855\H,0,1.558,-2.12074,-1.017874\O,0,-0.226033,-0.268324,-0.90538

 Normal termination of Gaussian 16 at Tue Apr  8 23:50:07 2025.
