 Gaussian 16, Revision C.01,

 ----------------------------------------------------------------------
 #t hf aug-cc-pvdz symm=none int=(grid=ultrafine) guess=(read,tcheck) s
 table=(opt,rrhf)
 ----------------------------------------------------------------------
 -----
 title
 -----
 Symbolic Z-matrix:
 Charge =  0 Multiplicity = 1

 SCF Done:  E(RHF) =  -463.470432043     A.U. after   11 cycles
 Normal termination of Gaussian 16 at Wed Apr  9 00:00:14 2025.
 Gaussian 16:  ES64L-G16RevC.01  3-Jul-2019

 ----------------------------------------------------------------------
 #t hf aug-cc-pvdz iop(5/13=1,5/36=2,99/5=2) pseudo=read geom=check gue
 ss=(read,tcheck) scf=(maxcycle=1)
 ----------------------------------------------------------------------
 -----
 title
 -----
 Structure from the checkpoint file:  "BDE49_nonexpt_2104_mol1.chk"
 Charge =  0 Multiplicity = 1

                         Standard orientation:
 ---------------------------------------------------------------------
 Center     Atomic      Atomic             Coordinates (Angstroms)
 Number     Number       Type             X           Y           Z
 ---------------------------------------------------------------------
      1          7           0        0.000001   -0.775965    1.584519
      2         14           0        0.000000   -0.006096    0.028280
      3          6           0       -0.000002    1.879767    0.098825
      4          6           0       -1.549549   -0.578083   -0.867331
      5          1           0       -1.624655   -0.119079   -1.858055
      6          1           0       -1.547440   -1.663894   -0.996132
      7          1           0       -2.456022   -0.308318   -0.315304
      8          6           0        1.549549   -0.578079   -0.867332
      9          1           0        2.456022   -0.308312   -0.315305
     10          1           0        1.624654   -0.119076   -1.858055
     11          1           0        1.547444   -1.663890   -0.996132
     12          1           0       -0.828252   -0.738109    2.162486
     13          1           0        0.828254   -0.738108    2.162485
     14          1           0       -0.000003    2.317087   -0.905489
     15          1           0        0.883150    2.258584    0.623493
     16          1           0       -0.883155    2.258582    0.623493
 ---------------------------------------------------------------------

 SCF Done:  E(RHF) =  -463.701060867     A.U. after    2 cycles

 The electronic state is 1-A.
 Alpha  occ. eigenvalues --  -69.51685 -15.46361 -11.20258 -11.20258 -11.20151
 Alpha  occ. eigenvalues --   -6.18475  -3.93870  -3.93822  -3.93775  -1.12708
 Alpha  occ. eigenvalues --   -0.96361  -0.92405  -0.92151  -0.68923  -0.67620
 Alpha  occ. eigenvalues --   -0.58101  -0.56519  -0.56017  -0.54278  -0.54013
 Alpha  occ. eigenvalues --   -0.53017  -0.52114  -0.46778  -0.43694  -0.40679
 Alpha virt. eigenvalues --    0.03040   0.04246   0.04315   0.04664   0.06213
 Alpha virt. eigenvalues --    0.06364   0.06556   0.06671   0.07285   0.09450
 Alpha virt. eigenvalues --    0.09583   0.10425   0.10997   0.11990   0.13152

 Mulliken charges:
               1
     1  N    0.175485
     2  Si   1.828913
     3  C   -0.547870
     4  C   -0.538255
     5  H   -0.055173
     6  H   -0.008790
     7  H   -0.015318
     8  C   -0.538252
     9  H   -0.015317
    10  H   -0.055177
    11  H   -0.008790
    12  H   -0.029366
    13  H   -0.029367
    14  H   -0.020529
    15  H   -0.071098
    16  H   -0.071097
 Sum of Mulliken charges =  -0.00000

 Dipole moment (field-independent basis, Debye):
    X=             -0.0000    Y=              0.6087    Z=              0.4647  Tot=              0.7658

 Test job not archived.
 1\1\GINC-SE094\SP\RHF\Aug-CC-pVDZ\C3H11N1Si1\OHZDE\09-Apr-2025\0\\#t h
 f aug-cc-pvdz iop(5/13=1,5/36=2,99/5=2) pseudo=read geom=check guess=(
 read,tcheck) scf=(maxcycle=1)\\title\\0,1\N,0,0.000001,-0.775965,1.584
 519\Si,0,0.,-0.006096,0.02828\C,0,-0.000001,1.879767,0.098825\C,0,-1.5
 49549,-0.578082,-0.867331\H,0,-1.624655,-0.119078,-1.858055\H,0,-1.547
 441,-1.663893,-0.996132\H,0,-2.456022,-0.308317,-0.315304\C,0,1.549549
 ,-0.57808,-0.867332\H,0,2.456022,-0.308314,-0.315305\H,0,1.624654,-0.1
 19077,-1.858055\H,0,1.547443,-1.663891,-0.996132\H,0,-0.828252,-0.7381

 Normal termination of Gaussian 16 at Wed Apr  9 00:00:19 2025.
