 Gaussian 16, Revision C.01,

 ----------------------------------------------------------------------
 #t hf aug-cc-pvdz symm=none int=(grid=ultrafine) guess=(read,tcheck) s
 table=(opt,rrhf)
 ----------------------------------------------------------------------
 -----
 title
 -----
 Symbolic Z-matrix:
 Charge =  0 Multiplicity = 1

 SCF Done:  E(RHF) =  -762.864656689     A.U. after   18 cycles
 Normal termination of Gaussian 16 at Tue Apr  8 23:37:30 2025.
 Gaussian 16:  ES64L-G16RevC.01  3-Jul-2019

 ----------------------------------------------------------------------
 #t hf aug-cc-pvdz iop(5/13=1,5/36=2,99/5=2) pseudo=read geom=check gue
 ss=(read,tcheck) scf=(maxcycle=1)
 ----------------------------------------------------------------------
 -----
 title
 -----
 Structure from the checkpoint file:  "BDE49_nonexpt_1477_mol1.chk"
 Charge =  0 Multiplicity = 1

                         Standard orientation:
 ---------------------------------------------------------------------
 Center     Atomic      Atomic             Coordinates (Angstroms)
 Number     Number       Type             X           Y           Z
 ---------------------------------------------------------------------
      1          6           0       -1.945399    0.631860   -1.065853
      2          6           0       -0.612403    0.256479   -1.178443
      3          6           0       -2.735235    0.193364    0.005201
      4          6           0       -2.143661   -0.640405    0.956478
      5          6           0       -0.811007   -1.030496    0.841448
      6          6           0       -0.018873   -0.581564   -0.221620
      7          1           0       -0.027177    0.617842   -2.017042
      8          1           0       -2.381725    1.279114   -1.820446
      9          1           0       -2.733801   -0.999178    1.793602
     10          1           0       -0.384512   -1.696295    1.584593
     11         15           0        1.734994   -1.126908   -0.304357
     12          6           0        2.721811    0.431440    0.142473
     13          8           0        3.776706    0.621368   -0.412789
     14          6           0        2.205621    1.317530    1.256296
     15          1           0        1.295281    1.829789    0.933014
     16          1           0        2.970323    2.049101    1.519022
     17          1           0        1.940321    0.718306    2.132177
     18          6           0       -4.186836    0.592534    0.106314
     19          1           0       -4.320809    1.659011   -0.093595
     20          1           0       -4.590885    0.380148    1.097936
     21          1           0       -4.794768    0.047170   -0.623338
     22          1           0        1.945107   -0.976771   -1.692020
 ---------------------------------------------------------------------

 SCF Done:  E(RHF) =  -763.342141330     A.U. after    2 cycles

 The electronic state is 1-A.
 Alpha  occ. eigenvalues --  -84.28179 -20.54292 -11.34550 -11.26547 -11.26016
 Alpha  occ. eigenvalues --  -11.25962 -11.25760 -11.25129 -11.25072 -11.24704
 Alpha  occ. eigenvalues --  -11.24662  -6.75307  -4.28287  -4.27819  -4.27389
 Alpha  occ. eigenvalues --   -1.47690  -1.17177  -1.06764  -1.02924  -1.02085
 Alpha  occ. eigenvalues --   -0.96060  -0.88385  -0.85065  -0.81060  -0.73941
 Alpha  occ. eigenvalues --   -0.68966  -0.66984  -0.64936  -0.62935  -0.62565
 Alpha  occ. eigenvalues --   -0.61046  -0.60699  -0.59450  -0.56337  -0.55878
 Alpha  occ. eigenvalues --   -0.53469  -0.51478  -0.51098  -0.50876  -0.48359
 Alpha  occ. eigenvalues --   -0.40215  -0.36363  -0.35948  -0.32384
 Alpha virt. eigenvalues --    0.02946   0.03180   0.03567   0.04017   0.04892
 Alpha virt. eigenvalues --    0.05287   0.05792   0.06681   0.07238   0.07547
 Alpha virt. eigenvalues --    0.08103   0.08617   0.08959   0.09320   0.10361

 Mulliken charges:
               1
     1  C    0.801493
     2  C   -0.049050
     3  C    0.194211
     4  C    0.685862
     5  C   -0.935027
     6  C    0.631218
     7  H   -0.344982
     8  H   -0.302766
     9  H   -0.308647
    10  H   -0.254588
    11  P    0.259913
    12  C    0.694247
    13  O   -1.283627
    14  C   -0.593026
    15  H    0.278749
    16  H    0.079034
    17  H    0.264823
    18  C   -0.751318
    19  H    0.186711
    20  H    0.075469
    21  H    0.276372
    22  H    0.394929
 Sum of Mulliken charges =  -0.00000

 Dipole moment (field-independent basis, Debye):
    X=             -4.3365    Y=              0.5110    Z=              1.1529  Tot=              4.5161

 Test job not archived.
 1\1\GINC-SE341\SP\RHF\Aug-CC-pVDZ\C9H11O1P1\OHZDE\08-Apr-2025\0\\#t hf
  aug-cc-pvdz iop(5/13=1,5/36=2,99/5=2) pseudo=read geom=check guess=(r
 ead,tcheck) scf=(maxcycle=1)\\title\\0,1\C,0,-1.945399,0.63186,-1.0658
 53\C,0,-0.612403,0.256479,-1.178443\C,0,-2.735235,0.193364,0.005201\C,
 0,-2.143661,-0.640405,0.956478\C,0,-0.811007,-1.030496,0.841448\C,0,-0
 .018873,-0.581564,-0.22162\H,0,-0.027177,0.617842,-2.017042\H,0,-2.381
 725,1.279114,-1.820446\H,0,-2.733801,-0.999178,1.793602\H,0,-0.384512,
 -1.696295,1.584593\P,0,1.734994,-1.126908,-0.304357\C,0,2.721811,0.431

 Normal termination of Gaussian 16 at Tue Apr  8 23:37:44 2025.
