 Gaussian 16, Revision C.01,

 ----------------------------------------------------------------------
 #t hf aug-cc-pvdz symm=none int=(grid=ultrafine) guess=(read,tcheck) s
 table=opt
 ----------------------------------------------------------------------
 -----
 title
 -----
 Symbolic Z-matrix:
 Charge =  0 Multiplicity = 2

 SCF Done:  E(UHF) =  -887.358941325     A.U. after   25 cycles
 Normal termination of Gaussian 16 at Wed Apr  9 00:17:35 2025.
 Gaussian 16:  ES64L-G16RevC.01  3-Jul-2019

 ----------------------------------------------------------------------
 #t hf aug-cc-pvdz iop(5/13=1,5/36=2,99/5=2) pseudo=read geom=check gue
 ss=(read,tcheck) scf=(maxcycle=1)
 ----------------------------------------------------------------------
 -----
 title
 -----
 Structure from the checkpoint file:  "BDE49_nonexpt_2563_mol2.chk"
 Charge =  0 Multiplicity = 2

                         Standard orientation:
 ---------------------------------------------------------------------
 Center     Atomic      Atomic             Coordinates (Angstroms)
 Number     Number       Type             X           Y           Z
 ---------------------------------------------------------------------
      1         16           0        1.536459   -0.504812    0.000000
      2          6           0       -1.403230   -0.093111    0.000000
      3          7           0       -2.419347   -0.648972    0.000001
      4         16           0        0.048216    0.823654   -0.000001
 ---------------------------------------------------------------------

 SCF Done:  E(UHF) =  -887.557251104     A.U. after    2 cycles

 The electronic state is 2-A.
 Alpha  occ. eigenvalues --  -94.06914 -94.03277 -15.55229 -11.32033  -8.34751
 Alpha  occ. eigenvalues --   -8.31318  -6.32491  -6.32386  -6.32226  -6.30234
 Alpha  occ. eigenvalues --   -6.28775  -6.28330  -1.26831  -1.18247  -0.98616
 Alpha  occ. eigenvalues --   -0.71258  -0.63248  -0.59932  -0.59088  -0.53554
 Alpha  occ. eigenvalues --   -0.51092  -0.44047  -0.41620
 Alpha virt. eigenvalues --    0.03292   0.05591   0.07650   0.09199   0.09646
 Alpha virt. eigenvalues --    0.11141   0.11524   0.12083   0.12954   0.13959
 Alpha virt. eigenvalues --    0.15596   0.15736   0.17311   0.19023   0.22067

  Beta  occ. eigenvalues --  -94.06740 -94.02434 -15.54611 -11.32503  -8.34548
  Beta  occ. eigenvalues --   -8.30353  -6.32387  -6.32181  -6.31601  -6.28325
  Beta  occ. eigenvalues --   -6.27816  -6.26484  -1.25960  -1.15603  -0.92336
  Beta  occ. eigenvalues --   -0.70164  -0.62215  -0.58280  -0.56939  -0.49719
  Beta  occ. eigenvalues --   -0.44900  -0.42102
  Beta virt. eigenvalues --   -0.03802   0.04107   0.05634   0.07681   0.09511
  Beta virt. eigenvalues --    0.10392   0.11248   0.11986   0.12169   0.13956
  Beta virt. eigenvalues --    0.14125   0.15692   0.16090   0.17334   0.19249

 Mulliken charges and spin densities:
               1          2
     1  S    0.107045   0.927022
     2  C   -0.981161  -0.205500
     3  N    0.464277   0.174421
     4  S    0.409839   0.104058
 Sum of Mulliken charges =  -0.00000   1.00000

 Dipole moment (field-independent basis, Debye):
    X=              3.2878    Y=              1.4923    Z=             -0.0000  Tot=              3.6107
                          Isotropic Fermi Contact Couplings
        Atom                 a.u.       MegaHertz       Gauss      10(-4) cm-1
     1  S(33)              0.18672      64.13425      22.88470      21.39288
     2  C(13)             -0.05121     -57.56812     -20.54174     -19.20266
     3  N(14)              0.04644      15.00389       5.35376       5.00476
     4  S(33)              0.07695      26.43039       9.43102       8.81623
 --------------------------------------------------------
       Center         ----  Spin Dipole Couplings  ----
                      3XX-RR        3YY-RR        3ZZ-RR
 --------------------------------------------------------

 Normal termination of Gaussian 16 at Wed Apr  9 00:17:37 2025.
