 Gaussian 16, Revision C.01,

 ----------------------------------------------------------------------
 #t hf aug-cc-pvdz symm=none int=(grid=ultrafine) guess=(read,tcheck) s
 table=(opt,rrhf)
 ----------------------------------------------------------------------
 -----
 title
 -----
 Symbolic Z-matrix:
 Charge =  0 Multiplicity = 1

 SCF Done:  E(RHF) =  -932.851027347     A.U. after   16 cycles
 Normal termination of Gaussian 16 at Tue Apr  8 23:31:36 2025.
 Gaussian 16:  ES64L-G16RevC.01  3-Jul-2019

 ----------------------------------------------------------------------
 #t hf aug-cc-pvdz iop(5/13=1,5/36=2,99/5=2) pseudo=read geom=check gue
 ss=(read,tcheck) scf=(maxcycle=1)
 ----------------------------------------------------------------------
 -----
 title
 -----
 Structure from the checkpoint file:  "BDE49_nonexpt_1388_mol1.chk"
 Charge =  0 Multiplicity = 1

                         Standard orientation:
 ---------------------------------------------------------------------
 Center     Atomic      Atomic             Coordinates (Angstroms)
 Number     Number       Type             X           Y           Z
 ---------------------------------------------------------------------
      1          6           0       -1.862141   -0.823202    0.063075
      2          6           0       -1.895659    0.480570   -0.747130
      3         15           0       -0.129428   -1.507979    0.264986
      4          1           0       -2.458817   -1.605214   -0.415047
      5          1           0       -2.286872   -0.679461    1.061686
      6          6           0        0.813200    0.065911    0.222445
      7          6           0        0.050884    1.218200    0.823533
      8          6           0       -1.159991    1.648221   -0.055198
      9          1           0        0.718101    2.064751    0.990274
     10          1           0       -0.325712    0.896702    1.803690
     11          1           0       -0.809719    2.350827   -0.815340
     12          1           0       -1.852452    2.200256    0.587121
     13          1           0       -2.932570    0.775109   -0.940031
     14          1           0       -1.442670    0.290188   -1.725058
     15         16           0        2.346551    0.167976   -0.330710
     16          1           0        0.109560   -1.899298   -1.071078
 ---------------------------------------------------------------------

 SCF Done:  E(RHF) =  -933.161377190     A.U. after    2 cycles

 The electronic state is 1-A.
 Alpha  occ. eigenvalues --  -93.92707 -84.28491 -11.32659 -11.25928 -11.25768
 Alpha  occ. eigenvalues --  -11.25404 -11.25176  -8.20911  -6.75645  -6.18724
 Alpha  occ. eigenvalues --   -6.18540  -6.18313  -4.28318  -4.28155  -4.27495
 Alpha  occ. eigenvalues --   -1.14055  -1.06802  -1.00641  -0.93826  -0.84007
 Alpha  occ. eigenvalues --   -0.81711  -0.69455  -0.67274  -0.64409  -0.59080
 Alpha  occ. eigenvalues --   -0.58127  -0.55649  -0.53829  -0.52131  -0.49987
 Alpha  occ. eigenvalues --   -0.47812  -0.45475  -0.41956  -0.34411  -0.32140
 Alpha virt. eigenvalues --    0.02672   0.03346   0.03815   0.04525   0.04960
 Alpha virt. eigenvalues --    0.05910   0.06328   0.06652   0.07464   0.08110
 Alpha virt. eigenvalues --    0.09494   0.10457   0.11139   0.11800   0.13308

 Mulliken charges:
               1
     1  C   -0.483336
     2  C   -0.356347
     3  P    0.385376
     4  H    0.125428
     5  H    0.184081
     6  C   -0.355937
     7  C   -0.704615
     8  C   -0.375867
     9  H    0.122488
    10  H    0.303034
    11  H    0.169527
    12  H    0.164098
    13  H    0.108685
    14  H    0.151002
    15  S    0.040280
    16  H    0.522101
 Sum of Mulliken charges =   0.00000

 Dipole moment (field-independent basis, Debye):
    X=             -4.0723    Y=              0.4572    Z=              0.3992  Tot=              4.1173

 Test job not archived.
 1\1\GINC-SE051\SP\RHF\Aug-CC-pVDZ\C5H9P1S1\OHZDE\08-Apr-2025\0\\#t hf
 aug-cc-pvdz iop(5/13=1,5/36=2,99/5=2) pseudo=read geom=check guess=(re
 ad,tcheck) scf=(maxcycle=1)\\title\\0,1\C,0,-1.862141,-0.823202,0.0630
 75\C,0,-1.895659,0.48057,-0.74713\P,0,-0.129428,-1.507979,0.264986\H,0
 ,-2.458817,-1.605214,-0.415047\H,0,-2.286872,-0.679461,1.061686\C,0,0.
 8132,0.065911,0.222445\C,0,0.050884,1.2182,0.823533\C,0,-1.159991,1.64
 8221,-0.055198\H,0,0.718101,2.064751,0.990274\H,0,-0.325712,0.896702,1
 .80369\H,0,-0.809719,2.350827,-0.81534\H,0,-1.852452,2.200256,0.587121

 Normal termination of Gaussian 16 at Tue Apr  8 23:31:43 2025.
