 Gaussian 16, Revision C.01,

 ----------------------------------------------------------------------
 #t hf aug-cc-pvdz symm=none int=(grid=ultrafine) guess=(read,tcheck) s
 table=opt
 ----------------------------------------------------------------------
 -----
 title
 -----
 Symbolic Z-matrix:
 Charge =  0 Multiplicity = 2

 SCF Done:  E(UHF) =  -291.342846958     A.U. after   20 cycles
 Normal termination of Gaussian 16 at Wed Apr  9 00:33:17 2025.
 Gaussian 16:  ES64L-G16RevC.01  3-Jul-2019

 ----------------------------------------------------------------------
 #t hf aug-cc-pvdz iop(5/13=1,5/36=2,99/5=2) pseudo=read geom=check gue
 ss=(read,tcheck) scf=(maxcycle=1)
 ----------------------------------------------------------------------
 -----
 title
 -----
 Structure from the checkpoint file:  "BDE49_nonexpt_409_mol2.chk"
 Charge =  0 Multiplicity = 2

                         Standard orientation:
 ---------------------------------------------------------------------
 Center     Atomic      Atomic             Coordinates (Angstroms)
 Number     Number       Type             X           Y           Z
 ---------------------------------------------------------------------
      1          9           0       -2.206798   -0.225292    0.000000
      2          5           0       -0.953196   -0.581543    0.000000
      3          6           0        1.277408    0.194003   -0.000000
      4          7           0        2.423244    0.060125   -0.000000
      5          8           0       -0.000000    0.418806    0.000000
 ---------------------------------------------------------------------

 SCF Done:  E(UHF) =  -291.607854657     A.U. after    2 cycles

 The electronic state is 2-A'.
 Alpha  occ. eigenvalues --  -26.52869 -20.68364 -15.53544 -11.37241  -7.78352
 Alpha  occ. eigenvalues --   -1.67078  -1.61411  -1.25641  -0.94325  -0.81065
 Alpha  occ. eigenvalues --   -0.76226  -0.73222  -0.70855  -0.67870  -0.62907
 Alpha  occ. eigenvalues --   -0.52389  -0.50542  -0.44177
 Alpha virt. eigenvalues --    0.03243   0.04307   0.04803   0.05130   0.09244
 Alpha virt. eigenvalues --    0.10873   0.11819   0.12265   0.14307   0.16898
 Alpha virt. eigenvalues --    0.17746   0.20244   0.20554   0.21901   0.22206

  Beta  occ. eigenvalues --  -26.52564 -20.68055 -15.53643 -11.37177  -7.76032
  Beta  occ. eigenvalues --   -1.66135  -1.60476  -1.25789  -0.93392  -0.79216
  Beta  occ. eigenvalues --   -0.72957  -0.72804  -0.69282  -0.68098  -0.63046
  Beta  occ. eigenvalues --   -0.51836  -0.50731
  Beta virt. eigenvalues --    0.01241   0.03969   0.04404   0.04897   0.08709
  Beta virt. eigenvalues --    0.11516   0.12185   0.12255   0.13764   0.15329
  Beta virt. eigenvalues --    0.17190   0.17943   0.20590   0.21432   0.22255

 Mulliken charges and spin densities:
               1          2
     1  F   -0.510937  -0.049953
     2  B    0.752928   1.030245
     3  C   -0.152975   0.035408
     4  N    0.704799  -0.032246
     5  O   -0.793815   0.016547
 Sum of Mulliken charges =  -0.00000   1.00000

 Dipole moment (field-independent basis, Debye):
    X=             -3.4229    Y=             -0.2928    Z=             -0.0000  Tot=              3.4354
                          Isotropic Fermi Contact Couplings
        Atom                 a.u.       MegaHertz       Gauss      10(-4) cm-1
     1  F(19)              0.08577     360.85199     128.76096     120.36727
     2  B(11)              0.48229     691.78225     246.84511     230.75372
     3  C(13)              0.00526       5.91243       2.10970       1.97217
     4  N(14)             -0.00796      -2.57134      -0.91752      -0.85771
     5  O(17)              0.05181     -31.40515     -11.20614     -10.47563
 --------------------------------------------------------
       Center         ----  Spin Dipole Couplings  ----
                      3XX-RR        3YY-RR        3ZZ-RR

 Normal termination of Gaussian 16 at Wed Apr  9 00:33:19 2025.
