 Gaussian 16, Revision C.01,

 ----------------------------------------------------------------------
 #t hf aug-cc-pvdz symm=none int=(grid=ultrafine) guess=(read,tcheck) s
 table=opt
 ----------------------------------------------------------------------
 -----
 title
 -----
 Symbolic Z-matrix:
 Charge =  0 Multiplicity = 2

 SCF Done:  E(UHF) =  -572.203596135     A.U. after   19 cycles

 1\1\GINC-SE044\Stability\UHF\Aug-CC-pVDZ\C1Cl1O1\OHZDE\08-Apr-2025\0\\
 #t hf aug-cc-pvdz symm=none int=(grid=ultrafine) guess=(read,tcheck) s
 table=opt\\title\\0,2\C,0,0.,0.860358,0.\O,0,1.057992,1.317933,0.\Cl,0
 ,-0.497879,-0.923859,0.\\Version=ES64L-G16RevC.01\HF=-572.2035961\S2=0
 .785449\S2-1=0.\S2A=0.750707\RMSD=6.209e-09\Dipole=-0.2921036,0.012909
 3,0.\Quadrupole=-1.0184956,0.3285257,0.6899699,-1.0029747,0.,0.\PG=Unk
 nown\\@
 The archive entry for this job was punched.

 Normal termination of Gaussian 16 at Tue Apr  8 22:33:36 2025.
 Gaussian 16:  ES64L-G16RevC.01  3-Jul-2019

 ----------------------------------------------------------------------
 #t hf aug-cc-pvdz iop(5/13=1,5/36=2,99/5=2) pseudo=read geom=check gue
 ss=(read,tcheck) scf=(maxcycle=1)
 ----------------------------------------------------------------------
 -----
 title
 -----
 Structure from the checkpoint file:  "BDE49_expt_1076_mol3.chk"
 Charge =  0 Multiplicity = 2

                         Standard orientation:
 ---------------------------------------------------------------------
 Center     Atomic      Atomic             Coordinates (Angstroms)
 Number     Number       Type             X           Y           Z
 ---------------------------------------------------------------------
      1          6           0        0.000000    0.860358    0.000000
      2          8           0        1.057992    1.317933    0.000000
      3         17           0       -0.497879   -0.923859    0.000000
 ---------------------------------------------------------------------

 SCF Done:  E(UHF) =  -572.380146332     A.U. after    2 cycles

 The electronic state is 2-A'.
 Alpha  occ. eigenvalues -- -105.61321 -20.65043 -11.44597 -10.66067  -7.83798
 Alpha  occ. eigenvalues --   -7.82428  -7.82404  -1.60074  -1.11926  -0.83658
 Alpha  occ. eigenvalues --   -0.71342  -0.69654  -0.63961  -0.50858  -0.50659
 Alpha  occ. eigenvalues --   -0.42996
 Alpha virt. eigenvalues --    0.07598   0.07838   0.08032   0.10040   0.11952
 Alpha virt. eigenvalues --    0.12304   0.15414   0.15661   0.21062   0.23131
 Alpha virt. eigenvalues --    0.25375   0.26100   0.29207   0.33082   0.39423

  Beta  occ. eigenvalues -- -105.60755 -20.64494 -11.42612 -10.65465  -7.82117
  Beta  occ. eigenvalues --   -7.82077  -7.81497  -1.58519  -1.07279  -0.79756
  Beta  occ. eigenvalues --   -0.66417  -0.64043  -0.59323  -0.49910  -0.49233
  Beta virt. eigenvalues --    0.00839   0.08057   0.08769   0.09175   0.10879
  Beta virt. eigenvalues --    0.12996   0.13541   0.15795   0.16109   0.23417
  Beta virt. eigenvalues --    0.24376   0.25248   0.27033   0.29680   0.33658

 Mulliken charges and spin densities:
               1          2
     1  C    0.515201   0.572012
     2  O   -0.523200   0.057736
     3  Cl   0.007999   0.370252
 Sum of Mulliken charges =   0.00000   1.00000

 Dipole moment (field-independent basis, Debye):
    X=             -0.5462    Y=              0.1563    Z=              0.0000  Tot=              0.5681
                          Isotropic Fermi Contact Couplings
        Atom                 a.u.       MegaHertz       Gauss      10(-4) cm-1
     1  C(13)              0.55060     618.97937     220.86723     206.46929
     2  O(17)              0.06320     -38.31116     -13.67038     -12.77923
     3  Cl(35)             0.20929      91.76428      32.74378      30.60927
 --------------------------------------------------------
       Center         ----  Spin Dipole Couplings  ----
                      3XX-RR        3YY-RR        3ZZ-RR
 --------------------------------------------------------
     1   Atom        0.492650     -0.365979     -0.126672

 Normal termination of Gaussian 16 at Tue Apr  8 22:33:37 2025.
