 Gaussian 16, Revision C.01,

 ----------------------------------------------------------------------
 #t hf aug-cc-pvdz symm=none int=(grid=ultrafine) guess=(read,tcheck) s
 table=(opt,rrhf)
 ----------------------------------------------------------------------
 -----
 title
 -----
 Symbolic Z-matrix:
 Charge =  0 Multiplicity = 1

 SCF Done:  E(RHF) =  -323.222612882     A.U. after   10 cycles
 Normal termination of Gaussian 16 at Wed Apr  9 00:33:43 2025.
 Gaussian 16:  ES64L-G16RevC.01  3-Jul-2019

 ----------------------------------------------------------------------
 #t hf aug-cc-pvdz iop(5/13=1,5/36=2,99/5=2) pseudo=read geom=check gue
 ss=(read,tcheck) scf=(maxcycle=1)
 ----------------------------------------------------------------------
 -----
 title
 -----
 Structure from the checkpoint file:  "BDE49_nonexpt_421_mol1.chk"
 Charge =  0 Multiplicity = 1

                         Standard orientation:
 ---------------------------------------------------------------------
 Center     Atomic      Atomic             Coordinates (Angstroms)
 Number     Number       Type             X           Y           Z
 ---------------------------------------------------------------------
      1          9           0       -0.152371   -1.307183    0.000000
      2          5           0       -0.000000    0.000002    0.000000
      3          9           0       -1.055874    0.785550    0.000000
      4          9           0        1.208245    0.521632   -0.000000
 ---------------------------------------------------------------------

 SCF Done:  E(RHF) =  -323.516201792     A.U. after    2 cycles

 The electronic state is 1-A'.
 Alpha  occ. eigenvalues --  -26.50711 -26.50711 -26.50711  -7.79812  -1.67723
 Alpha  occ. eigenvalues --   -1.62500  -1.62500  -0.84667  -0.79940  -0.79940
 Alpha  occ. eigenvalues --   -0.74702  -0.67254  -0.67254  -0.66222  -0.66222
 Alpha  occ. eigenvalues --   -0.63909
 Alpha virt. eigenvalues --    0.04815   0.05559   0.05650   0.05650   0.19085
 Alpha virt. eigenvalues --    0.20055   0.21095   0.21095   0.26502   0.26502
 Alpha virt. eigenvalues --    0.27879   0.27879   0.28171   0.28679   0.34849

 Mulliken charges:
               1
     1  F   -0.547141
     2  B    1.641424
     3  F   -0.547142
     4  F   -0.547141
 Sum of Mulliken charges =  -0.00000

 Dipole moment (field-independent basis, Debye):
    X=              0.0000    Y=              0.0000    Z=             -0.0000  Tot=              0.0000

 Test job not archived.
 1\1\GINC-SE363\SP\RHF\Aug-CC-pVDZ\B1F3\OHZDE\09-Apr-2025\0\\#t hf aug-
 cc-pvdz iop(5/13=1,5/36=2,99/5=2) pseudo=read geom=check guess=(read,t
 check) scf=(maxcycle=1)\\title\\0,1\F,0,0.152371,1.307183,0.\B,0,0.,-0
 .000002,0.\F,0,1.055874,-0.78555,0.\F,0,-1.208245,-0.521632,0.\\Versio
 n=ES64L-G16RevC.01\State=1-A'\HF=-323.5162018\RMSD=4.465e-03\Dipole=-0
 .0000003,-0.0000035,0.\Quadrupole=-0.9702771,-0.9702594,1.9405365,0.00
 00044,0.,0.\PG=CS [SG(B1F3)]\\@

 Normal termination of Gaussian 16 at Wed Apr  9 00:33:44 2025.
