 Gaussian 16, Revision C.01,

 ----------------------------------------------------------------------
 #t hf aug-cc-pvdz symm=none int=(grid=ultrafine) guess=(read,tcheck) s
 table=(opt,rrhf)
 ----------------------------------------------------------------------
 -----
 title
 -----
 Symbolic Z-matrix:
 Charge =  0 Multiplicity = 1

 SCF Done:  E(RHF) =  -210.022056862     A.U. after   13 cycles
 Normal termination of Gaussian 16 at Tue Apr  8 23:02:44 2025.
 Gaussian 16:  ES64L-G16RevC.01  3-Jul-2019

 ----------------------------------------------------------------------
 #t hf aug-cc-pvdz iop(5/13=1,5/36=2,99/5=2) pseudo=read geom=check gue
 ss=(read,tcheck) scf=(maxcycle=1)
 ----------------------------------------------------------------------
 -----
 title
 -----
 Structure from the checkpoint file:  "BDE49_expt_300_mol1.chk"
 Charge =  0 Multiplicity = 1

                         Standard orientation:
 ---------------------------------------------------------------------
 Center     Atomic      Atomic             Coordinates (Angstroms)
 Number     Number       Type             X           Y           Z
 ---------------------------------------------------------------------
      1          6           0        1.082452   -0.000128   -0.097183
      2          7           0        2.207949   -0.000069    0.153760
      3          6           0       -0.353954   -0.000005   -0.398533
      4          6           0       -1.019811    1.279321    0.143285
      5          1           0       -0.947612    1.320895    1.232509
      6          1           0       -2.076853    1.288114   -0.132605
      7          1           0       -0.548608    2.175064   -0.265100
      8          6           0       -1.020062   -1.279191    0.143303
      9          1           0       -0.440304   -0.000004   -1.491219
     10          1           0       -0.947840   -1.320783    1.232524
     11          1           0       -0.549064   -2.175032   -0.265102
     12          1           0       -2.077114   -1.287758   -0.132557
 ---------------------------------------------------------------------

 SCF Done:  E(RHF) =  -210.242936188     A.U. after    2 cycles

 The electronic state is 1-A.
 Alpha  occ. eigenvalues --  -15.50788 -11.29589 -11.27541 -11.25539 -11.25528
 Alpha  occ. eigenvalues --   -1.23018  -1.11197  -0.96344  -0.88528  -0.71493
 Alpha  occ. eigenvalues --   -0.65289  -0.61052  -0.60823  -0.57301  -0.55310
 Alpha  occ. eigenvalues --   -0.53893  -0.53461  -0.48450  -0.48220
 Alpha virt. eigenvalues --    0.02906   0.03843   0.03876   0.04688   0.06290
 Alpha virt. eigenvalues --    0.06821   0.07276   0.09413   0.11170   0.13054
 Alpha virt. eigenvalues --    0.13676   0.14485   0.14861   0.15742   0.15794

 Mulliken charges:
               1
     1  C   -1.540112
     2  N    0.963584
     3  C   -0.787648
     4  C    0.017464
     5  H    0.239581
     6  H    0.151300
     7  H    0.149537
     8  C    0.017478
     9  H    0.248420
    10  H    0.239566
    11  H    0.149525
    12  H    0.151304
 Sum of Mulliken charges =  -0.00000

 Dipole moment (field-independent basis, Debye):
    X=             -4.8484    Y=              0.0001    Z=             -0.8930  Tot=              4.9299

 Test job not archived.
 1\1\GINC-SE329\SP\RHF\Aug-CC-pVDZ\C4H7N1\OHZDE\08-Apr-2025\0\\#t hf au
 g-cc-pvdz iop(5/13=1,5/36=2,99/5=2) pseudo=read geom=check guess=(read
 ,tcheck) scf=(maxcycle=1)\\title\\0,1\C,0,-1.082452,0.000128,-0.097183
 \N,0,-2.207949,0.00007,0.15376\C,0,0.353954,0.000005,-0.398533\C,0,1.0
 19811,-1.279321,0.143285\H,0,0.947612,-1.320895,1.232509\H,0,2.076853,
 -1.288114,-0.132605\H,0,0.548608,-2.175064,-0.2651\C,0,1.020062,1.2791
 91,0.143303\H,0,0.440304,0.000004,-1.491219\H,0,0.94784,1.320783,1.232
 524\H,0,0.549064,2.175032,-0.265102\H,0,2.077114,1.287758,-0.132557\\V

 Normal termination of Gaussian 16 at Tue Apr  8 23:02:47 2025.
