 Gaussian 16, Revision C.01,

 ----------------------------------------------------------------------
 #t hf aug-cc-pvdz symm=none int=(grid=ultrafine) guess=(read,tcheck) s
 table=(opt,rrhf)
 ----------------------------------------------------------------------
 -----
 title
 -----
 Symbolic Z-matrix:
 Charge =  0 Multiplicity = 1

 SCF Done:  E(RHF) =  -640.450825826     A.U. after   13 cycles
 Normal termination of Gaussian 16 at Wed Apr  9 00:43:53 2025.
 Gaussian 16:  ES64L-G16RevC.01  3-Jul-2019

 ----------------------------------------------------------------------
 #t hf aug-cc-pvdz iop(5/13=1,5/36=2,99/5=2) pseudo=read geom=check gue
 ss=(read,tcheck) scf=(maxcycle=1)
 ----------------------------------------------------------------------
 -----
 title
 -----
 Structure from the checkpoint file:  "BDE49_nonexpt_756_mol1.chk"
 Charge =  0 Multiplicity = 1

                         Standard orientation:
 ---------------------------------------------------------------------
 Center     Atomic      Atomic             Coordinates (Angstroms)
 Number     Number       Type             X           Y           Z
 ---------------------------------------------------------------------
      1         15           0       -0.591606    0.021477    0.548449
      2          5           0        1.147068   -0.724167   -0.019914
      3          9           0       -1.512880   -0.897357   -0.438139
      4          9           0       -0.553639    1.389230   -0.333959
      5          8           0        2.181184    0.130943   -0.082390
      6          1           0        3.023298   -0.276110   -0.315171
      7          1           0        1.264652   -1.899613   -0.203992
 ---------------------------------------------------------------------

 SCF Done:  E(RHF) =  -640.772899939     A.U. after    2 cycles

 The electronic state is 1-A.
 Alpha  occ. eigenvalues --  -84.38980 -26.47057 -26.46971 -20.60131  -7.65789
 Alpha  occ. eigenvalues --   -6.84811  -4.37595  -4.36901  -4.35918  -1.60032
 Alpha  occ. eigenvalues --   -1.56125  -1.50196  -0.87978  -0.79133  -0.70146
 Alpha  occ. eigenvalues --   -0.68635  -0.67631  -0.67449  -0.63510  -0.60763
 Alpha  occ. eigenvalues --   -0.58470  -0.56541  -0.50630  -0.35220
 Alpha virt. eigenvalues --    0.02858   0.03804   0.04916   0.05642   0.07940
 Alpha virt. eigenvalues --    0.08118   0.09763   0.11072   0.11514   0.11877
 Alpha virt. eigenvalues --    0.16975   0.18935   0.20764   0.21018   0.21384

 Mulliken charges:
               1
     1  P    1.245632
     2  B    0.596877
     3  F   -0.759313
     4  F   -0.774825
     5  O   -0.853746
     6  H    0.530415
     7  H    0.014961
 Sum of Mulliken charges =  -0.00000

 Dipole moment (field-independent basis, Debye):
    X=              3.0665    Y=             -1.5954    Z=              0.4055  Tot=              3.4804

 Test job not archived.
 1\1\GINC-SE435\SP\RHF\Aug-CC-pVDZ\B1F2H2O1P1\OHZDE\09-Apr-2025\0\\#t h
 f aug-cc-pvdz iop(5/13=1,5/36=2,99/5=2) pseudo=read geom=check guess=(
 read,tcheck) scf=(maxcycle=1)\\title\\0,1\P,0,-0.591606,0.021477,0.548
 449\B,0,1.147068,-0.724167,-0.019914\F,0,-1.512879,-0.897358,-0.438139
 \F,0,-0.553639,1.38923,-0.333959\O,0,2.181184,0.130944,-0.08239\H,0,3.
 023298,-0.276109,-0.315171\H,0,1.264653,-1.899613,-0.203992\\Version=E
 S64L-G16RevC.01\State=1-A\HF=-640.7728999\RMSD=1.194e-02\Dipole=1.2064
 699,-0.6276667,0.1595278\Quadrupole=3.5751144,-2.4726117,-1.1025026,-2

 Normal termination of Gaussian 16 at Wed Apr  9 00:43:55 2025.
