 Gaussian 16, Revision C.01,

 ----------------------------------------------------------------------
 #t hf aug-cc-pvdz symm=none int=(grid=ultrafine) guess=(read,tcheck) s
 table=(opt,rrhf)
 ----------------------------------------------------------------------
 -----
 title
 -----
 Symbolic Z-matrix:
 Charge =  0 Multiplicity = 1

 SCF Done:  E(RHF) =  -491.594742890     A.U. after   12 cycles
 Normal termination of Gaussian 16 at Tue Apr  8 23:37:08 2025.
 Gaussian 16:  ES64L-G16RevC.01  3-Jul-2019

 ----------------------------------------------------------------------
 #t hf aug-cc-pvdz iop(5/13=1,5/36=2,99/5=2) pseudo=read geom=check gue
 ss=(read,tcheck) scf=(maxcycle=1)
 ----------------------------------------------------------------------
 -----
 title
 -----
 Structure from the checkpoint file:  "BDE49_nonexpt_1538_mol1.chk"
 Charge =  0 Multiplicity = 1

                         Standard orientation:
 ---------------------------------------------------------------------
 Center     Atomic      Atomic             Coordinates (Angstroms)
 Number     Number       Type             X           Y           Z
 ---------------------------------------------------------------------
      1         15           0       -0.820915   -0.631994    0.092859
      2          6           0        0.993126   -0.566435   -0.369071
      3          7           0       -1.295992    1.004391   -0.065940
      4          7           0        1.647233    0.627253    0.179740
      5          1           0        1.043047   -0.515641   -1.460875
      6          1           0        1.447231   -1.524767   -0.070414
      7          1           0        2.561935    0.770080   -0.237045
      8          1           0        1.784798    0.525887    1.180664
      9          1           0       -0.566842   -0.642855    1.493759
     10          1           0       -1.851391    1.183709   -0.890945
     11          1           0       -0.522495    1.660608    0.009792
 ---------------------------------------------------------------------

 SCF Done:  E(RHF) =  -491.804396371     A.U. after    2 cycles

 The electronic state is 1-A.
 Alpha  occ. eigenvalues --  -84.28012 -15.49814 -15.48194 -11.26530  -6.74783
 Alpha  occ. eigenvalues --   -4.27524  -4.27004  -4.26557  -1.19033  -1.14902
 Alpha  occ. eigenvalues --   -0.93423  -0.79226  -0.70425  -0.68868  -0.64581
 Alpha  occ. eigenvalues --   -0.58999  -0.56477  -0.50365  -0.45592  -0.40720
 Alpha  occ. eigenvalues --   -0.33448
 Alpha virt. eigenvalues --    0.03291   0.04771   0.05180   0.05241   0.06729
 Alpha virt. eigenvalues --    0.07029   0.07736   0.09822   0.10757   0.12193
 Alpha virt. eigenvalues --    0.12765   0.14516   0.16677   0.17183   0.18551

 Mulliken charges:
               1
     1  P    0.284846
     2  C   -0.958605
     3  N   -0.219264
     4  N   -0.074595
     5  H    0.072190
     6  H    0.134888
     7  H    0.131626
     8  H    0.167086
     9  H    0.335689
    10  H    0.091301
    11  H    0.034838
 Sum of Mulliken charges =   0.00000

 Dipole moment (field-independent basis, Debye):
    X=              2.2720    Y=             -0.2388    Z=             -0.6572  Tot=              2.3771

 Test job not archived.
 1\1\GINC-SE331\SP\RHF\Aug-CC-pVDZ\C1H7N2P1\OHZDE\08-Apr-2025\0\\#t hf
 aug-cc-pvdz iop(5/13=1,5/36=2,99/5=2) pseudo=read geom=check guess=(re
 ad,tcheck) scf=(maxcycle=1)\\title\\0,1\P,0,-0.820915,-0.631994,0.0928
 59\C,0,0.993126,-0.566435,-0.369071\N,0,-1.295991,1.004391,-0.06594\N,
 0,1.647233,0.627252,0.17974\H,0,1.043047,-0.515641,-1.460875\H,0,1.447
 231,-1.524767,-0.070414\H,0,2.561935,0.770079,-0.237045\H,0,1.784798,0
 .525886,1.180664\H,0,-0.566842,-0.642855,1.493759\H,0,-1.85139,1.18371
 ,-0.890945\H,0,-0.522494,1.660608,0.009792\\Version=ES64L-G16RevC.01\S

 Normal termination of Gaussian 16 at Tue Apr  8 23:37:11 2025.
