 Gaussian 16, Revision C.01,

 ----------------------------------------------------------------------
 #t hf aug-cc-pvdz symm=none int=(grid=ultrafine) guess=(read,tcheck) s
 table=(opt,rrhf)
 ----------------------------------------------------------------------
 -----
 title
 -----
 Symbolic Z-matrix:
 Charge =  0 Multiplicity = 1

 SCF Done:  E(RHF) =  -685.934516643     A.U. after   15 cycles
 Normal termination of Gaussian 16 at Tue Apr  8 23:33:08 2025.
 Gaussian 16:  ES64L-G16RevC.01  3-Jul-2019

 ----------------------------------------------------------------------
 #t hf aug-cc-pvdz iop(5/13=1,5/36=2,99/5=2) pseudo=read geom=check gue
 ss=(read,tcheck) scf=(maxcycle=1)
 ----------------------------------------------------------------------
 -----
 title
 -----
 Structure from the checkpoint file:  "BDE49_nonexpt_1430_mol1.chk"
 Charge =  0 Multiplicity = 1

                         Standard orientation:
 ---------------------------------------------------------------------
 Center     Atomic      Atomic             Coordinates (Angstroms)
 Number     Number       Type             X           Y           Z
 ---------------------------------------------------------------------
      1          6           0       -0.140016    2.210719    0.002978
      2          6           0       -1.278131    1.404073   -0.005383
      3          6           0       -1.142441    0.013955   -0.011120
      4          6           0        1.128916    1.649032    0.009706
      5          6           0        1.274810    0.257767    0.002788
      6          6           0        0.138302   -0.557083   -0.013880
      7          1           0       -0.244455    3.290155    0.005615
      8          1           0       -2.261962    1.857537   -0.005642
      9         15           0       -2.578360   -1.154256   -0.026246
     10          8           0        2.556702   -0.204516    0.006240
     11          1           0        2.021887    2.262046    0.016327
     12          6           0        2.774401   -1.608995   -0.003283
     13          1           0        2.361711   -2.074010   -0.905382
     14          1           0        2.343650   -2.088859    0.882473
     15          1           0        3.855010   -1.740914    0.006426
     16          1           0        0.233273   -1.634854   -0.034885
     17          1           0       -3.486348   -0.334568   -0.744464
     18          1           0       -3.136035   -0.803383    1.232470
 ---------------------------------------------------------------------

 SCF Done:  E(RHF) =  -686.332851516     A.U. after    2 cycles

 The electronic state is 1-A.
 Alpha  occ. eigenvalues --  -84.27566 -20.57529 -11.31104 -11.29825 -11.25721
 Alpha  occ. eigenvalues --  -11.25068 -11.24512 -11.24076 -11.24046  -6.74628
 Alpha  occ. eigenvalues --   -4.27448  -4.26912  -4.26670  -1.49931  -1.15654
 Alpha  occ. eigenvalues --   -1.03680  -1.02168  -0.95179  -0.88432  -0.82746
 Alpha  occ. eigenvalues --   -0.80234  -0.71834  -0.67951  -0.67549  -0.65919
 Alpha  occ. eigenvalues --   -0.62473  -0.59146  -0.56768  -0.54354  -0.52643
 Alpha  occ. eigenvalues --   -0.52312  -0.51115  -0.46814  -0.46504  -0.36093
 Alpha  occ. eigenvalues --   -0.34441  -0.32092
 Alpha virt. eigenvalues --    0.03489   0.03666   0.04005   0.05198   0.05254
 Alpha virt. eigenvalues --    0.05410   0.06769   0.07016   0.08922   0.09112
 Alpha virt. eigenvalues --    0.09681   0.10072   0.10379   0.12079   0.12784

 Mulliken charges:
               1
     1  C    0.735980
     2  C    0.219011
     3  C    0.271143
     4  C   -0.146212
     5  C    2.048288
     6  C   -0.683829
     7  H   -0.218638
     8  H   -0.253214
     9  P   -0.638715
    10  O   -1.910612
    11  H   -0.259572
    12  C    0.141529
    13  H    0.184512
    14  H    0.186780
    15  H   -0.048630
    16  H   -0.423926
    17  H    0.346881
    18  H    0.449225
 Sum of Mulliken charges =   0.00000

 Dipole moment (field-independent basis, Debye):
    X=              0.3975    Y=             -0.4343    Z=              0.1114  Tot=              0.5992

 Test job not archived.
 1\1\GINC-SE435\SP\RHF\Aug-CC-pVDZ\C7H9O1P1\OHZDE\08-Apr-2025\0\\#t hf
 aug-cc-pvdz iop(5/13=1,5/36=2,99/5=2) pseudo=read geom=check guess=(re
 ad,tcheck) scf=(maxcycle=1)\\title\\0,1\C,0,-0.140016,2.210719,0.00297
 8\C,0,-1.278131,1.404073,-0.005383\C,0,-1.142441,0.013955,-0.01112\C,0
 ,1.128916,1.649032,0.009706\C,0,1.27481,0.257767,0.002788\C,0,0.138302
 ,-0.557083,-0.01388\H,0,-0.244455,3.290155,0.005615\H,0,-2.261962,1.85
 7537,-0.005642\P,0,-2.57836,-1.154256,-0.026246\O,0,2.556702,-0.204516
 ,0.00624\H,0,2.021887,2.262046,0.016327\C,0,2.774401,-1.608995,-0.0032

 Normal termination of Gaussian 16 at Tue Apr  8 23:33:17 2025.
