 Gaussian 16, Revision C.01,

 ----------------------------------------------------------------------
 #t hf aug-cc-pvdz symm=none int=(grid=ultrafine) guess=(read,tcheck) s
 table=(opt,rrhf)
 ----------------------------------------------------------------------
 -----
 title
 -----
 Symbolic Z-matrix:
 Charge =  0 Multiplicity = 1

 SCF Done:  E(RHF) =  -408.366900813     A.U. after   12 cycles
 Normal termination of Gaussian 16 at Tue Apr  8 23:57:31 2025.
 Gaussian 16:  ES64L-G16RevC.01  3-Jul-2019

 ----------------------------------------------------------------------
 #t hf aug-cc-pvdz iop(5/13=1,5/36=2,99/5=2) pseudo=read geom=check gue
 ss=(read,tcheck) scf=(maxcycle=1)
 ----------------------------------------------------------------------
 -----
 title
 -----
 Structure from the checkpoint file:  "BDE49_nonexpt_2034_mol1.chk"
 Charge =  0 Multiplicity = 1

                         Standard orientation:
 ---------------------------------------------------------------------
 Center     Atomic      Atomic             Coordinates (Angstroms)
 Number     Number       Type             X           Y           Z
 ---------------------------------------------------------------------
      1         14           0       -1.789588   -0.074796   -0.000007
      2          6           0       -0.022265    0.585869   -0.000024
      3          6           0        1.070351   -0.499398    0.000024
      4          1           0        0.098778    1.236194   -0.875464
      5          6           0        2.491081    0.075153    0.000012
      6          1           0        0.943023   -1.146779   -0.875254
      7          1           0        0.943011   -1.146714    0.875349
      8          1           0        2.663567    0.697989   -0.883126
      9          1           0        3.242484   -0.719660    0.000046
     10          1           0        0.098769    1.236262    0.875367
     11          1           0        2.663556    0.698054    0.883106
     12          1           0       -2.034877   -0.910927   -1.201472
     13          1           0       -2.764165    1.043754   -0.000090
     14          1           0       -2.034909   -0.910776    1.201557
 ---------------------------------------------------------------------

 SCF Done:  E(RHF) =  -408.538262065     A.U. after    2 cycles

 The electronic state is 1-A.
 Alpha  occ. eigenvalues --  -69.51969 -11.23658 -11.22511 -11.22144  -6.19084
 Alpha  occ. eigenvalues --   -3.94456  -3.94451  -3.94434  -1.06020  -0.93270
 Alpha  occ. eigenvalues --   -0.81325  -0.71999  -0.63837  -0.58476  -0.55358
 Alpha  occ. eigenvalues --   -0.55064  -0.49727  -0.48481  -0.47008  -0.46862
 Alpha  occ. eigenvalues --   -0.43546
 Alpha virt. eigenvalues --    0.03872   0.03895   0.03956   0.04138   0.05974
 Alpha virt. eigenvalues --    0.06731   0.06795   0.07711   0.08665   0.09735
 Alpha virt. eigenvalues --    0.10041   0.10413   0.11030   0.13679   0.15361

 Mulliken charges:
               1
     1  Si   0.954113
     2  C   -0.542664
     3  C   -0.404046
     4  H    0.111973
     5  C   -0.345119
     6  H    0.122483
     7  H    0.122485
     8  H    0.162486
     9  H    0.121155
    10  H    0.111976
    11  H    0.162485
    12  H   -0.190160
    13  H   -0.197009
    14  H   -0.190157
 Sum of Mulliken charges =  -0.00000

 Dipole moment (field-independent basis, Debye):
    X=              0.7662    Y=              0.2261    Z=             -0.0000  Tot=              0.7988

 Test job not archived.
 1\1\GINC-SE252\SP\RHF\Aug-CC-pVDZ\C3H10Si1\OHZDE\08-Apr-2025\0\\#t hf
 aug-cc-pvdz iop(5/13=1,5/36=2,99/5=2) pseudo=read geom=check guess=(re
 ad,tcheck) scf=(maxcycle=1)\\title\\0,1\Si,0,-1.789588,-0.074796,-0.00
 0007\C,0,-0.022265,0.585869,-0.000024\C,0,1.070351,-0.499398,0.000024\
 H,0,0.098778,1.236194,-0.875464\C,0,2.491081,0.075153,0.000012\H,0,0.9
 43023,-1.146779,-0.875254\H,0,0.943011,-1.146714,0.875349\H,0,2.663567
 ,0.697989,-0.883126\H,0,3.242484,-0.71966,0.000046\H,0,0.098769,1.2362
 62,0.875367\H,0,2.663556,0.698054,0.883106\H,0,-2.034877,-0.910927,-1.

 Normal termination of Gaussian 16 at Tue Apr  8 23:57:34 2025.
