 Gaussian 16, Revision C.01,

 ----------------------------------------------------------------------
 #t hf aug-cc-pvdz symm=none int=(grid=ultrafine) guess=(read,tcheck) s
 table=(opt,rrhf)
 ----------------------------------------------------------------------
 -----
 title
 -----
 Symbolic Z-matrix:
 Charge =  0 Multiplicity = 1

 SCF Done:  E(RHF) =  -1360.73826330     A.U. after   14 cycles
 Normal termination of Gaussian 16 at Wed Apr  9 00:03:09 2025.
 Gaussian 16:  ES64L-G16RevC.01  3-Jul-2019

 ----------------------------------------------------------------------
 #t hf aug-cc-pvdz iop(5/13=1,5/36=2,99/5=2) pseudo=read geom=check gue
 ss=(read,tcheck) scf=(maxcycle=1)
 ----------------------------------------------------------------------
 -----
 title
 -----
 Structure from the checkpoint file:  "BDE49_nonexpt_2155_mol1.chk"
 Charge =  0 Multiplicity = 1

                         Standard orientation:
 ---------------------------------------------------------------------
 Center     Atomic      Atomic             Coordinates (Angstroms)
 Number     Number       Type             X           Y           Z
 ---------------------------------------------------------------------
      1         14           0       -0.000018   -0.000005    0.251650
      2          7           0       -1.673821   -0.337658   -0.460386
      3          7           0        0.544439    1.618396   -0.460393
      4          7           0        1.129288   -1.280741   -0.460409
      5         17           0        0.000007   -0.000022    2.250505
      6          8           0        1.840226   -0.959743   -1.397547
      7          8           0        1.542079    2.097540    0.059697
      8          8           0       -1.751185   -1.113433   -1.397877
      9          8           0       -0.088747    2.073292   -1.397869
     10          8           0       -2.587599    0.286701    0.059755
     11          8           0        1.045323   -2.384300    0.059669
 ---------------------------------------------------------------------

 SCF Done:  E(RHF) =  -1361.41538350     A.U. after    2 cycles

 The electronic state is 1-A.
 Alpha  occ. eigenvalues -- -105.66895 -69.78149 -20.65477 -20.65474 -20.65474
 Alpha  occ. eigenvalues --  -20.65184 -20.65183 -20.65183 -15.82735 -15.82735
 Alpha  occ. eigenvalues --  -15.82733 -10.71829  -7.88730  -7.88348  -7.88348
 Alpha  occ. eigenvalues --   -6.43909  -4.19222  -4.19191  -4.19191  -1.72301
 Alpha  occ. eigenvalues --   -1.72048  -1.72048  -1.56653  -1.56653  -1.56584
 Alpha  occ. eigenvalues --   -1.18125  -1.09688  -1.03978  -1.03978  -0.88965
 Alpha  occ. eigenvalues --   -0.85887  -0.85887  -0.80094  -0.79832  -0.79832
 Alpha  occ. eigenvalues --   -0.78906  -0.78906  -0.78748  -0.69847  -0.59177
 Alpha  occ. eigenvalues --   -0.59177  -0.55961  -0.55122  -0.55122  -0.54707
 Alpha  occ. eigenvalues --   -0.51687  -0.51687  -0.50702  -0.49580  -0.49580
 Alpha virt. eigenvalues --   -0.01080  -0.01079  -0.00919   0.03790   0.06035
 Alpha virt. eigenvalues --    0.06035   0.06461   0.07739   0.10051   0.10052
 Alpha virt. eigenvalues --    0.10906   0.13085   0.13086   0.13876   0.13877

 Mulliken charges:
               1
     1  Si   1.767286
     2  N    1.870390
     3  N    1.870359
     4  N    1.870318
     5  Cl  -0.316100
     6  O   -1.138059
     7  O   -1.215958
     8  O   -1.138152
     9  O   -1.138125
    10  O   -1.215961
    11  O   -1.215997
 Sum of Mulliken charges =  -0.00000

 Dipole moment (field-independent basis, Debye):
    X=             -0.0000    Y=             -0.0000    Z=              3.3215  Tot=              3.3215

 Test job not archived.
 1\1\GINC-SE103\SP\RHF\Aug-CC-pVDZ\Cl1N3O6Si1\OHZDE\09-Apr-2025\0\\#t h
 f aug-cc-pvdz iop(5/13=1,5/36=2,99/5=2) pseudo=read geom=check guess=(
 read,tcheck) scf=(maxcycle=1)\\title\\0,1\Si,0,0.000018,0.000005,0.251
 65\N,0,1.67426,0.335472,-0.460386\N,0,-0.546552,-1.617684,-0.460393\N,
 0,-1.127615,1.282214,-0.460409\Cl,0,-0.000007,0.000022,2.250505\O,0,-1
 .838971,0.962145,-1.397547\O,0,-1.544817,-2.095525,0.059697\O,0,1.7526
 37,1.111145,-1.397877\O,0,0.08604,-2.073406,-1.397869\O,0,2.587222,-0.
 29008,0.059755\O,0,-1.042209,2.385663,0.059669\\Version=ES64L-G16RevC.

 Normal termination of Gaussian 16 at Wed Apr  9 00:03:18 2025.
