 Gaussian 16, Revision C.01,

 ----------------------------------------------------------------------
 #t hf aug-cc-pvdz symm=none int=(grid=ultrafine) guess=(read,tcheck) s
 table=opt
 ----------------------------------------------------------------------
 -----
 title
 -----
 Symbolic Z-matrix:
 Charge =  0 Multiplicity = 2

 SCF Done:  E(UHF) =  -234.764517677     A.U. after   16 cycles
 Normal termination of Gaussian 16 at Tue Apr  8 22:49:42 2025.
 Gaussian 16:  ES64L-G16RevC.01  3-Jul-2019

 ----------------------------------------------------------------------
 #t hf aug-cc-pvdz iop(5/13=1,5/36=2,99/5=2) pseudo=read geom=check gue
 ss=(read,tcheck) scf=(maxcycle=1)
 ----------------------------------------------------------------------
 -----
 title
 -----
 Structure from the checkpoint file:  "BDE49_expt_16_mol2.chk"
 Charge =  0 Multiplicity = 2

                         Standard orientation:
 ---------------------------------------------------------------------
 Center     Atomic      Atomic             Coordinates (Angstroms)
 Number     Number       Type             X           Y           Z
 ---------------------------------------------------------------------
      1          6           0       -2.354737    1.045994    0.247758
      2          6           0       -2.067559   -0.345551   -0.323819
      3          1           0       -1.569954    1.756423   -0.025831
      4          1           0       -2.406652    1.017234    1.340957
      5          1           0       -3.306930    1.438161   -0.120111
      6          6           0       -0.733000   -0.943176    0.154320
      7          1           0       -2.063671   -0.299914   -1.419564
      8          1           0       -2.880455   -1.026959   -0.050420
      9          6           0        0.477435   -0.212387   -0.325632
     10          1           0       -0.686260   -1.997509   -0.175307
     11          1           0       -0.725379   -0.990983    1.252857
     12          6           0        1.814754   -0.389866    0.313543
     13          1           0        0.437687    0.251384   -1.309467
     14          6           0        2.852496    0.654436   -0.116059
     15          1           0        2.210167   -1.396927    0.085984
     16          1           0        1.703296   -0.375555    1.406651
     17          1           0        3.009777    0.627553   -1.198506
     18          1           0        3.817935    0.476764    0.364944
     19          1           0        2.524103    1.663627    0.147151
 ---------------------------------------------------------------------

 SCF Done:  E(UHF) =  -235.028157845     A.U. after    2 cycles

 The electronic state is 2-A.
 Alpha  occ. eigenvalues --  -11.22806 -11.22746 -11.22620 -11.22512 -11.22231
 Alpha  occ. eigenvalues --  -11.21833  -1.09409  -1.03836  -0.96199  -0.88182
 Alpha  occ. eigenvalues --   -0.80954  -0.77348  -0.63607  -0.62817  -0.60657
 Alpha  occ. eigenvalues --   -0.58578  -0.57702  -0.53896  -0.51755  -0.50895
 Alpha  occ. eigenvalues --   -0.49484  -0.48128  -0.47132  -0.46436  -0.32841
 Alpha virt. eigenvalues --    0.03591   0.03657   0.03843   0.04162   0.05423
 Alpha virt. eigenvalues --    0.05745   0.06182   0.06577   0.07826   0.08775
 Alpha virt. eigenvalues --    0.08869   0.09509   0.10193   0.12552   0.14393

  Beta  occ. eigenvalues --  -11.23080 -11.22843 -11.22562 -11.22182 -11.21827
  Beta  occ. eigenvalues --  -11.20318  -1.07324  -1.03417  -0.94900  -0.86911
  Beta  occ. eigenvalues --   -0.80429  -0.74255  -0.62478  -0.61123  -0.60195
  Beta  occ. eigenvalues --   -0.57816  -0.57276  -0.53294  -0.51416  -0.49561
  Beta  occ. eigenvalues --   -0.49028  -0.47592  -0.46770  -0.46037
  Beta virt. eigenvalues --    0.03601   0.03678   0.03863   0.04135   0.05440
  Beta virt. eigenvalues --    0.05757   0.06183   0.06444   0.07824   0.08740
  Beta virt. eigenvalues --    0.08881   0.09478   0.10177   0.11898   0.12837

 Mulliken charges and spin densities:
               1          2
     1  C   -0.332052   0.007308
     2  C   -0.306222   0.022215
     3  H    0.183442  -0.012898
     4  H    0.161844   0.001709
     5  H    0.106350  -0.000239
     6  C   -0.534700  -0.319273
     7  H    0.144916  -0.003137
     8  H    0.135604  -0.002799
     9  C    0.449402   1.580030
    10  H    0.186980   0.042718
    11  H    0.146668   0.009675
    12  C   -0.609235  -0.306815
    13  H   -0.231310  -0.084426
    14  C   -0.342281   0.016360
    15  H    0.200070   0.042118
    16  H    0.184560   0.013044
    17  H    0.167573  -0.002856
    18  H    0.113802  -0.001466
    19  H    0.174592  -0.001267
 Sum of Mulliken charges =  -0.00000   1.00000

 Dipole moment (field-independent basis, Debye):
    X=              0.0189    Y=             -0.2502    Z=             -0.0126  Tot=              0.2512
                          Isotropic Fermi Contact Couplings
        Atom                 a.u.       MegaHertz       Gauss      10(-4) cm-1
     1  C(13)             -0.00060      -0.67690      -0.24153      -0.22579
     2  C(13)              0.01233      13.86517       4.94744       4.62492
     3  H(1)               0.00015       0.68581       0.24471       0.22876
     4  H(1)               0.00004       0.16960       0.06052       0.05657
     5  H(1)              -0.00018      -0.81534      -0.29093      -0.27197
     6  C(13)             -0.06007     -67.53239     -24.09724     -22.52638
     7  H(1)              -0.00073      -3.28124      -1.17083      -1.09450
     8  H(1)              -0.00104      -4.66356      -1.66408      -1.55560

 Normal termination of Gaussian 16 at Tue Apr  8 22:49:50 2025.
