 Gaussian 16, Revision C.01,

 ----------------------------------------------------------------------
 #t hf aug-cc-pvdz symm=none int=(grid=ultrafine) guess=(read,tcheck) s
 table=(opt,rrhf)
 ----------------------------------------------------------------------
 -----
 title
 -----
 Symbolic Z-matrix:
 Charge =  0 Multiplicity = 1

 SCF Done:  E(RHF) =  -745.112017201     A.U. after   14 cycles
 Normal termination of Gaussian 16 at Wed Apr  9 00:42:40 2025.
 Gaussian 16:  ES64L-G16RevC.01  3-Jul-2019

 ----------------------------------------------------------------------
 #t hf aug-cc-pvdz iop(5/13=1,5/36=2,99/5=2) pseudo=read geom=check gue
 ss=(read,tcheck) scf=(maxcycle=1)
 ----------------------------------------------------------------------
 -----
 title
 -----
 Structure from the checkpoint file:  "BDE49_nonexpt_694_mol1.chk"
 Charge =  0 Multiplicity = 1

                         Standard orientation:
 ---------------------------------------------------------------------
 Center     Atomic      Atomic             Coordinates (Angstroms)
 Number     Number       Type             X           Y           Z
 ---------------------------------------------------------------------
      1          8           0       -1.083178    0.807478    0.455940
      2          6           0       -2.399760    1.068005    0.205431
      3          6           0       -0.836870   -0.500357    0.065410
      4          6           0       -3.004030   -0.021740   -0.329027
      5          6           0       -1.993425   -1.031668   -0.424098
      6          1           0       -4.039192   -0.100847   -0.620114
      7          1           0       -2.740074    2.057119    0.462291
      8          1           0       -2.108145   -2.033773   -0.805587
      9          5           0        2.008537    0.326312   -0.112055
     10          8           0        1.573182    1.597734   -0.253888
     11          8           0        3.349502    0.107258   -0.216714
     12          1           0        3.595547   -0.820439   -0.195777
     13          1           0        0.630202    1.687976   -0.072087
     14         15           0        0.823193   -1.228954    0.211798
     15          1           0        0.959555   -1.172490    1.625584
 ---------------------------------------------------------------------

 SCF Done:  E(RHF) =  -745.558645222     A.U. after    2 cycles

 The electronic state is 1-A.
 Alpha  occ. eigenvalues --  -84.27397 -20.62802 -20.56234 -20.55287 -11.31613
 Alpha  occ. eigenvalues --  -11.31039 -11.25762 -11.25421  -7.65970  -6.74657
 Alpha  occ. eigenvalues --   -4.27676  -4.26996  -4.26514  -1.55673  -1.48205
 Alpha  occ. eigenvalues --   -1.44437  -1.11018  -1.03234  -0.88666  -0.82751
 Alpha  occ. eigenvalues --   -0.79713  -0.78717  -0.72469  -0.67722  -0.65469
 Alpha  occ. eigenvalues --   -0.62975  -0.60761  -0.59527  -0.59022  -0.57299
 Alpha  occ. eigenvalues --   -0.56750  -0.51845  -0.49185  -0.45157  -0.41697
 Alpha  occ. eigenvalues --   -0.34947  -0.34023
 Alpha virt. eigenvalues --    0.03024   0.03707   0.03950   0.04856   0.05511
 Alpha virt. eigenvalues --    0.06323   0.06786   0.08376   0.08692   0.09312
 Alpha virt. eigenvalues --    0.09857   0.11037   0.11249   0.11724   0.13152

 Mulliken charges:
               1
     1  O   -1.441468
     2  C    0.739184
     3  C    0.416155
     4  C    0.345093
     5  C    0.122850
     6  H   -0.116589
     7  H   -0.161384
     8  H   -0.146555
     9  B    1.999052
    10  O   -1.304485
    11  O   -1.267213
    12  H    0.492842
    13  H    0.765683
    14  P   -0.864805
    15  H    0.421641
 Sum of Mulliken charges =  -0.00000

 Dipole moment (field-independent basis, Debye):
    X=             -2.7222    Y=             -1.4771    Z=              0.2663  Tot=              3.1085

 Test job not archived.
 1\1\GINC-SE404\SP\RHF\Aug-CC-pVDZ\C4H6B1O3P1\OHZDE\09-Apr-2025\0\\#t h
 f aug-cc-pvdz iop(5/13=1,5/36=2,99/5=2) pseudo=read geom=check guess=(
 read,tcheck) scf=(maxcycle=1)\\title\\0,1\O,0,-1.083178,0.807478,0.455
 94\C,0,-2.39976,1.068005,0.205431\C,0,-0.83687,-0.500357,0.06541\C,0,-
 3.00403,-0.02174,-0.329027\C,0,-1.993425,-1.031668,-0.424098\H,0,-4.03
 9192,-0.100847,-0.620114\H,0,-2.740074,2.057119,0.462291\H,0,-2.108145
 ,-2.033773,-0.805587\B,0,2.008537,0.326312,-0.112055\O,0,1.573182,1.59
 7734,-0.253888\O,0,3.349502,0.107258,-0.216714\H,0,3.595547,-0.820439,

 Normal termination of Gaussian 16 at Wed Apr  9 00:42:47 2025.
