 Gaussian 16, Revision C.01,

 ----------------------------------------------------------------------
 #t hf aug-cc-pvdz symm=none int=(grid=ultrafine) guess=(read,tcheck) s
 table=(opt,rrhf)
 ----------------------------------------------------------------------
 -----
 title
 -----
 Symbolic Z-matrix:
 Charge =  0 Multiplicity = 1

 SCF Done:  E(RHF) =  -404.064447303     A.U. after   13 cycles
 Normal termination of Gaussian 16 at Wed Apr  9 00:40:10 2025.
 Gaussian 16:  ES64L-G16RevC.01  3-Jul-2019

 ----------------------------------------------------------------------
 #t hf aug-cc-pvdz iop(5/13=1,5/36=2,99/5=2) pseudo=read geom=check gue
 ss=(read,tcheck) scf=(maxcycle=1)
 ----------------------------------------------------------------------
 -----
 title
 -----
 Structure from the checkpoint file:  "BDE49_nonexpt_639_mol1.chk"
 Charge =  0 Multiplicity = 1

                         Standard orientation:
 ---------------------------------------------------------------------
 Center     Atomic      Atomic             Coordinates (Angstroms)
 Number     Number       Type             X           Y           Z
 ---------------------------------------------------------------------
      1          8           0       -0.206346   -0.439656   -0.634474
      2          5           0       -1.384683   -0.037673   -0.007722
      3          8           0       -2.368473   -0.976938   -0.005611
      4          8           0       -1.546848    1.186024    0.562429
      5          8           0        0.745993    0.665451   -0.614545
      6          6           0        2.041539    0.082594   -0.456647
      7          6           0        2.276951   -0.518289    0.919857
      8          1           0        2.702192    0.934554   -0.643741
      9          1           0        2.191979   -0.653524   -1.252211
     10          1           0        2.119054    0.228763    1.701913
     11          1           0        3.304703   -0.884256    0.996779
     12          1           0        1.602421   -1.357564    1.094604
     13          1           0       -0.743529    1.710390    0.463172
     14          1           0       -3.158946   -0.654876    0.436440
 ---------------------------------------------------------------------

 SCF Done:  E(RHF) =  -404.470866122     A.U. after    2 cycles

 The electronic state is 1-A.
 Alpha  occ. eigenvalues --  -20.62587 -20.60506 -20.55909 -20.55671 -11.30300
 Alpha  occ. eigenvalues --  -11.23798  -7.67163  -1.59223  -1.48182  -1.44745
 Alpha  occ. eigenvalues --   -1.30590  -1.02501  -0.85845  -0.77730  -0.74998
 Alpha  occ. eigenvalues --   -0.70738  -0.68345  -0.65401  -0.61118  -0.59144
 Alpha  occ. eigenvalues --   -0.57175  -0.56257  -0.54854  -0.53142  -0.52249
 Alpha  occ. eigenvalues --   -0.49823  -0.49294  -0.43963
 Alpha virt. eigenvalues --    0.03507   0.04191   0.04380   0.04614   0.06223
 Alpha virt. eigenvalues --    0.06617   0.07194   0.07769   0.08886   0.09938
 Alpha virt. eigenvalues --    0.11127   0.13002   0.14158   0.14634   0.16117

 Mulliken charges:
               1
     1  O   -0.651266
     2  B    2.040351
     3  O   -1.151115
     4  O   -1.112989
     5  O   -0.999503
     6  C    0.598651
     7  C   -0.456421
     8  H    0.038548
     9  H    0.150235
    10  H    0.190151
    11  H    0.154908
    12  H    0.193571
    13  H    0.616059
    14  H    0.388818
 Sum of Mulliken charges =   0.00000

 Dipole moment (field-independent basis, Debye):
    X=              1.8001    Y=              0.8861    Z=              1.0234  Tot=              2.2523

 Test job not archived.
 1\1\GINC-SE462\SP\RHF\Aug-CC-pVDZ\C2H7B1O4\OHZDE\09-Apr-2025\0\\#t hf
 aug-cc-pvdz iop(5/13=1,5/36=2,99/5=2) pseudo=read geom=check guess=(re
 ad,tcheck) scf=(maxcycle=1)\\title\\0,1\O,0,-0.206346,-0.439656,-0.634
 474\B,0,-1.384683,-0.037673,-0.007722\O,0,-2.368473,-0.976938,-0.00561
 1\O,0,-1.546848,1.186024,0.562429\O,0,0.745993,0.665451,-0.614545\C,0,
 2.041539,0.082594,-0.456647\C,0,2.276951,-0.518289,0.919857\H,0,2.7021
 92,0.934554,-0.643741\H,0,2.191979,-0.653524,-1.252211\H,0,2.119054,0.
 228763,1.701913\H,0,3.304703,-0.884256,0.996779\H,0,1.602421,-1.357564

 Normal termination of Gaussian 16 at Wed Apr  9 00:40:14 2025.
