 Gaussian 16, Revision C.01,

 ----------------------------------------------------------------------
 #t hf aug-cc-pvdz symm=none int=(grid=ultrafine) guess=(read,tcheck) s
 table=(opt,rrhf)
 ----------------------------------------------------------------------
 -----
 title
 -----
 Symbolic Z-matrix:
 Charge =  0 Multiplicity = 1

 SCF Done:  E(RHF) =  -834.758803095     A.U. after   13 cycles
 Normal termination of Gaussian 16 at Tue Apr  8 22:39:27 2025.
 Gaussian 16:  ES64L-G16RevC.01  3-Jul-2019

 ----------------------------------------------------------------------
 #t hf aug-cc-pvdz iop(5/13=1,5/36=2,99/5=2) pseudo=read geom=check gue
 ss=(read,tcheck) scf=(maxcycle=1)
 ----------------------------------------------------------------------
 -----
 title
 -----
 Structure from the checkpoint file:  "BDE49_expt_130_mol1.chk"
 Charge =  0 Multiplicity = 1

                         Standard orientation:
 ---------------------------------------------------------------------
 Center     Atomic      Atomic             Coordinates (Angstroms)
 Number     Number       Type             X           Y           Z
 ---------------------------------------------------------------------
      1          6           0       -0.045300    0.231269    0.000001
      2          6           0        0.966163   -0.904074   -0.000006
      3          9           0        0.097505    1.011839    1.085593
      4         17           0       -1.710683   -0.461850   -0.000001
      5          9           0        0.097503    1.011851   -1.085581
      6          1           0        0.827273   -1.507560   -0.898187
      7          1           0        0.827275   -1.507571    0.898168
      8          9           0        2.238534   -0.367756   -0.000004
 ---------------------------------------------------------------------

 SCF Done:  E(RHF) =  -835.183291718     A.U. after    2 cycles

 The electronic state is 1-A.
 Alpha  occ. eigenvalues -- -105.60324 -26.51849 -26.51846 -26.48383 -11.51183
 Alpha  occ. eigenvalues --  -11.37003 -10.65195  -7.82133  -7.81725  -7.81715
 Alpha  occ. eigenvalues --   -1.69648  -1.62257  -1.60635  -1.14405  -1.03470
 Alpha  occ. eigenvalues --   -0.90322  -0.80406  -0.79258  -0.77102  -0.72638
 Alpha  occ. eigenvalues --   -0.70678  -0.67287  -0.66786  -0.64115  -0.60141
 Alpha  occ. eigenvalues --   -0.56563  -0.53947  -0.50241  -0.50125
 Alpha virt. eigenvalues --    0.03603   0.05001   0.07315   0.08791   0.10472
 Alpha virt. eigenvalues --    0.11608   0.12096   0.12399   0.14298   0.16042
 Alpha virt. eigenvalues --    0.16791   0.17267   0.20171   0.21085   0.23506

 Mulliken charges:
               1
     1  C    1.375880
     2  C    0.573181
     3  F   -0.711262
     4  Cl  -0.144662
     5  F   -0.711262
     6  H    0.148334
     7  H    0.148334
     8  F   -0.678542
 Sum of Mulliken charges =  -0.00000

 Dipole moment (field-independent basis, Debye):
    X=             -0.2952    Y=             -2.0154    Z=             -0.0000  Tot=              2.0369

 Test job not archived.
 1\1\GINC-SE457\SP\RHF\Aug-CC-pVDZ\C2H2Cl1F3\OHZDE\08-Apr-2025\0\\#t hf
  aug-cc-pvdz iop(5/13=1,5/36=2,99/5=2) pseudo=read geom=check guess=(r
 ead,tcheck) scf=(maxcycle=1)\\title\\0,1\C,0,-0.0453,0.231269,0.000001
 \C,0,0.966163,-0.904074,-0.000006\F,0,0.097505,1.011839,1.085593\Cl,0,
 -1.710683,-0.46185,-0.000001\F,0,0.097503,1.011851,-1.085581\H,0,0.827
 273,-1.50756,-0.898187\H,0,0.827275,-1.507571,0.898168\F,0,2.238534,-0
 .367756,-0.000004\\Version=ES64L-G16RevC.01\State=1-A\HF=-835.1832917\
 RMSD=5.637e-03\Dipole=-0.1161442,-0.792917,-0.0000065\Quadrupole=-2.13

 Normal termination of Gaussian 16 at Tue Apr  8 22:39:30 2025.
