 Gaussian 16, Revision C.01,

 ----------------------------------------------------------------------
 #t hf aug-cc-pvdz symm=none int=(grid=ultrafine) guess=(read,tcheck) s
 table=(opt,rrhf)
 ----------------------------------------------------------------------
 -----
 title
 -----
 Symbolic Z-matrix:
 Charge =  0 Multiplicity = 1

 SCF Done:  E(RHF) =  -634.718121337     A.U. after   16 cycles
 Normal termination of Gaussian 16 at Wed Apr  9 00:00:41 2025.
 Gaussian 16:  ES64L-G16RevC.01  3-Jul-2019

 ----------------------------------------------------------------------
 #t hf aug-cc-pvdz iop(5/13=1,5/36=2,99/5=2) pseudo=read geom=check gue
 ss=(read,tcheck) scf=(maxcycle=1)
 ----------------------------------------------------------------------
 -----
 title
 -----
 Structure from the checkpoint file:  "BDE49_nonexpt_2080_mol1.chk"
 Charge =  0 Multiplicity = 1

                         Standard orientation:
 ---------------------------------------------------------------------
 Center     Atomic      Atomic             Coordinates (Angstroms)
 Number     Number       Type             X           Y           Z
 ---------------------------------------------------------------------
      1         14           0        1.980774   -1.360745    0.000000
      2          6           0        0.194608   -0.787154    0.000000
      3          6           0       -0.104516    0.589426    0.000000
      4          6           0       -1.424884    1.041255    0.000000
      5          1           0       -1.653941    2.098516    0.000000
      6          6           0       -2.465420    0.110635    0.000000
      7          6           0       -0.873005   -1.688950    0.000000
      8          1           0       -0.665026   -2.753984    0.000000
      9          6           0       -2.199125   -1.252946    0.000000
     10          1           0       -3.010633   -1.970983   -0.000001
     11          1           0       -3.490226    0.465413   -0.000001
     12          8           0        0.986238    1.412469    0.000000
     13          6           0        0.792160    2.819997    0.000000
     14          1           0        1.788832    3.257722    0.000000
     15          1           0        0.252013    3.148946    0.894394
     16          1           0        0.252013    3.148946   -0.894394
     17          1           0        2.711454   -0.896661    1.201866
     18          1           0        2.711455   -0.896662   -1.201865
     19          1           0        1.964406   -2.844148    0.000001
 ---------------------------------------------------------------------

 SCF Done:  E(RHF) =  -635.106264510     A.U. after    2 cycles

 The electronic state is 1-A.
 Alpha  occ. eigenvalues --  -69.52085 -20.57821 -11.31358 -11.30056 -11.25361
 Alpha  occ. eigenvalues --  -11.25206 -11.24172 -11.23578 -11.22546  -6.19107
 Alpha  occ. eigenvalues --   -3.94504  -3.94479  -3.94469  -1.50240  -1.15214
 Alpha  occ. eigenvalues --   -1.02881  -1.01955  -0.94991  -0.84755  -0.82065
 Alpha  occ. eigenvalues --   -0.74858  -0.71362  -0.68076  -0.66183  -0.65656
 Alpha  occ. eigenvalues --   -0.62899  -0.59396  -0.56876  -0.54083  -0.52493
 Alpha  occ. eigenvalues --   -0.51523  -0.47893  -0.47416  -0.47256  -0.45998
 Alpha  occ. eigenvalues --   -0.35181  -0.32215
 Alpha virt. eigenvalues --    0.03172   0.03534   0.03838   0.04845   0.04893
 Alpha virt. eigenvalues --    0.05263   0.06304   0.06756   0.07405   0.08359
 Alpha virt. eigenvalues --    0.09207   0.09781   0.10032   0.11038   0.11623

 Mulliken charges:
               1
     1  Si   0.502816
     2  C   -2.051898
     3  C    3.229038
     4  C   -0.240718
     5  H   -0.431126
     6  C    0.585650
     7  C    1.103917
     8  H   -0.296994
     9  C   -0.022524
    10  H   -0.226100
    11  H   -0.221791
    12  O   -1.946325
    13  C    0.129047
    14  H   -0.032460
    15  H    0.185839
    16  H    0.185839
    17  H   -0.109050
    18  H   -0.109049
    19  H   -0.234111
 Sum of Mulliken charges =  -0.00000

 Dipole moment (field-independent basis, Debye):
    X=             -1.2509    Y=              1.8514    Z=             -0.0000  Tot=              2.2343

 Test job not archived.
 1\1\GINC-SE396\SP\RHF\Aug-CC-pVDZ\C7H10O1Si1\OHZDE\09-Apr-2025\0\\#t h
 f aug-cc-pvdz iop(5/13=1,5/36=2,99/5=2) pseudo=read geom=check guess=(
 read,tcheck) scf=(maxcycle=1)\\title\\0,1\Si,0,1.980775,-1.360744,0.\C
 ,0,0.194608,-0.787154,0.\C,0,-0.104516,0.589426,0.\C,0,-1.424885,1.041
 254,0.\H,0,-1.653942,2.098515,0.\C,0,-2.46542,0.110633,0.\C,0,-0.87300
 4,-1.688951,0.\H,0,-0.665024,-2.753984,0.\C,0,-2.199124,-1.252948,0.\H
 ,0,-3.010632,-1.970985,-0.000001\H,0,-3.490226,0.465411,-0.000001\O,0,
 0.986237,1.41247,0.\C,0,0.792158,2.819998,0.\H,0,1.78883,3.257723,0.\H

 Normal termination of Gaussian 16 at Wed Apr  9 00:00:52 2025.
