 Gaussian 16, Revision C.01,

 ----------------------------------------------------------------------
 #t hf aug-cc-pvdz symm=none int=(grid=ultrafine) guess=(read,tcheck) s
 table=(opt,rrhf)
 ----------------------------------------------------------------------
 -----
 title
 -----
 Symbolic Z-matrix:
 Charge =  0 Multiplicity = 1

 SCF Done:  E(RHF) =  -461.888832181     A.U. after   12 cycles
 Normal termination of Gaussian 16 at Wed Apr  9 00:41:52 2025.
 Gaussian 16:  ES64L-G16RevC.01  3-Jul-2019

 ----------------------------------------------------------------------
 #t hf aug-cc-pvdz iop(5/13=1,5/36=2,99/5=2) pseudo=read geom=check gue
 ss=(read,tcheck) scf=(maxcycle=1)
 ----------------------------------------------------------------------
 -----
 title
 -----
 Structure from the checkpoint file:  "BDE49_nonexpt_703_mol1.chk"
 Charge =  0 Multiplicity = 1

                         Standard orientation:
 ---------------------------------------------------------------------
 Center     Atomic      Atomic             Coordinates (Angstroms)
 Number     Number       Type             X           Y           Z
 ---------------------------------------------------------------------
      1          5           0        0.477116    0.083703    0.014407
      2          7           0        1.026734    1.367411    0.009680
      3         15           0       -1.461234   -0.126665   -0.118569
      4          6           0        1.404177   -1.194768    0.001988
      5          1           0        2.468301   -0.955397   -0.100331
      6          1           0        1.137362   -1.878910   -0.810809
      7          1           0        1.283144   -1.767106    0.929047
      8          1           0        0.483181    2.215955    0.035181
      9          1           0        2.023405    1.527697   -0.015637
     10          1           0       -1.858023    0.996367    0.653463
     11          1           0       -1.616646   -1.060409    0.935902
 ---------------------------------------------------------------------

 SCF Done:  E(RHF) =  -462.066880967     A.U. after    2 cycles

 The electronic state is 1-A.
 Alpha  occ. eigenvalues --  -84.24343 -15.49887 -11.20574  -7.59653  -6.71694
 Alpha  occ. eigenvalues --   -4.24197  -4.24083  -4.23387  -1.17196  -0.95212
 Alpha  occ. eigenvalues --   -0.85130  -0.73087  -0.71392  -0.56992  -0.55738
 Alpha  occ. eigenvalues --   -0.52297  -0.48791  -0.47982  -0.42372  -0.32923
 Alpha virt. eigenvalues --    0.03010   0.04822   0.04909   0.05230   0.06429
 Alpha virt. eigenvalues --    0.06658   0.08004   0.08281   0.09457   0.10188
 Alpha virt. eigenvalues --    0.10895   0.11982   0.13573   0.14140   0.15071

 Mulliken charges:
               1
     1  B    0.609829
     2  N    0.186488
     3  P   -1.194247
     4  C   -0.354170
     5  H   -0.067736
     6  H    0.085158
     7  H    0.093216
     8  H   -0.033098
     9  H   -0.045557
    10  H    0.345553
    11  H    0.374565
 Sum of Mulliken charges =   0.00000

 Dipole moment (field-independent basis, Debye):
    X=              1.4377    Y=              1.0343    Z=              0.4215  Tot=              1.8205

 Test job not archived.
 1\1\GINC-SE073\SP\RHF\Aug-CC-pVDZ\C1H7B1N1P1\OHZDE\09-Apr-2025\0\\#t h
 f aug-cc-pvdz iop(5/13=1,5/36=2,99/5=2) pseudo=read geom=check guess=(
 read,tcheck) scf=(maxcycle=1)\\title\\0,1\B,0,0.477116,0.083703,0.0144
 07\N,0,1.026734,1.367411,0.00968\P,0,-1.461234,-0.126665,-0.118569\C,0
 ,1.404177,-1.194768,0.001988\H,0,2.468301,-0.955397,-0.100331\H,0,1.13
 7362,-1.87891,-0.810809\H,0,1.283144,-1.767106,0.929047\H,0,0.483181,2
 .215955,0.035181\H,0,2.023405,1.527697,-0.015637\H,0,-1.858023,0.99636
 8,0.653463\H,0,-1.616646,-1.060409,0.935902\\Version=ES64L-G16RevC.01\

 Normal termination of Gaussian 16 at Wed Apr  9 00:41:56 2025.
