 Gaussian 16, Revision C.01,

 ----------------------------------------------------------------------
 #t hf aug-cc-pvdz symm=none int=(grid=ultrafine) guess=(read,tcheck) s
 table=(opt,rrhf)
 ----------------------------------------------------------------------
 -----
 title
 -----
 Symbolic Z-matrix:
 Charge =  0 Multiplicity = 1

 SCF Done:  E(RHF) =  -558.536281350     A.U. after   17 cycles
 Normal termination of Gaussian 16 at Wed Apr  9 00:26:16 2025.
 Gaussian 16:  ES64L-G16RevC.01  3-Jul-2019

 ----------------------------------------------------------------------
 #t hf aug-cc-pvdz iop(5/13=1,5/36=2,99/5=2) pseudo=read geom=check gue
 ss=(read,tcheck) scf=(maxcycle=1)
 ----------------------------------------------------------------------
 -----
 title
 -----
 Structure from the checkpoint file:  "BDE49_nonexpt_266_mol1.chk"
 Charge =  0 Multiplicity = 1

                         Standard orientation:
 ---------------------------------------------------------------------
 Center     Atomic      Atomic             Coordinates (Angstroms)
 Number     Number       Type             X           Y           Z
 ---------------------------------------------------------------------
      1          6           0        1.166028    2.146184    0.000300
      2          6           0       -0.128048    2.599840    0.000216
      3          6           0        1.446187    0.756274    0.000117
      4          6           0        0.362193   -0.185521   -0.000039
      5          6           0       -0.992891    0.304365   -0.000080
      6          6           0       -1.193715    1.677699   -0.000025
      7          1           0       -0.337531    3.663801    0.000338
      8          5           0       -2.289906   -0.579557   -0.000002
      9          8           0       -2.228655   -1.953048    0.001075
     10          8           0       -3.493825    0.086082   -0.000837
     11          1           0        1.997059    2.844596    0.000489
     12          6           0        2.786706    0.288929    0.000052
     13          6           0        3.067190   -1.053909   -0.000196
     14          6           0        2.007857   -1.987160   -0.000367
     15          6           0        0.698096   -1.568381   -0.000283
     16          1           0        2.230434   -3.048779   -0.000576
     17          1           0       -0.098310   -2.297124   -0.000361
     18          1           0        3.589392    1.019446    0.000178
     19          1           0        4.094841   -1.399907   -0.000270
     20          1           0       -2.209648    2.053669   -0.000163
     21          1           0       -4.273215   -0.475076   -0.001649
     22          1           0       -3.081265   -2.397033    0.001937
 ---------------------------------------------------------------------

 SCF Done:  E(RHF) =  -559.099252105     A.U. after    2 cycles

 The electronic state is 1-A.
 Alpha  occ. eigenvalues --  -20.56606 -20.56222 -11.24796 -11.24563 -11.24234
 Alpha  occ. eigenvalues --  -11.24114 -11.23820 -11.23619 -11.23612 -11.23549
 Alpha  occ. eigenvalues --  -11.22866 -11.21946  -7.64972  -1.48861  -1.44500
 Alpha  occ. eigenvalues --   -1.16930  -1.10465  -1.04384  -1.00273  -0.97806
 Alpha  occ. eigenvalues --   -0.85796  -0.84058  -0.82667  -0.76752  -0.74385
 Alpha  occ. eigenvalues --   -0.70595  -0.69548  -0.68388  -0.65264  -0.61994
 Alpha  occ. eigenvalues --   -0.60378  -0.59123  -0.57847  -0.57617  -0.56129
 Alpha  occ. eigenvalues --   -0.53079  -0.52978  -0.52025  -0.50151  -0.49078
 Alpha  occ. eigenvalues --   -0.46607  -0.44969  -0.38679  -0.32186  -0.29291
 Alpha virt. eigenvalues --    0.02217   0.03582   0.03665   0.04476   0.04631
 Alpha virt. eigenvalues --    0.04801   0.06473   0.06629   0.06764   0.07466
 Alpha virt. eigenvalues --    0.09147   0.09417   0.09948   0.09970   0.10966

 Mulliken charges:
               1
     1  C   -0.072787
     2  C   -0.511242
     3  C    1.751057
     4  C    1.671069
     5  C   -0.059573
     6  C   -0.381935
     7  H   -0.228554
     8  B    1.306640
     9  O   -1.358232
    10  O   -1.408152
    11  H   -0.312241
    12  C    0.334674
    13  C   -0.147480
    14  C   -0.417048
    15  C    0.397205
    16  H   -0.270165
    17  H   -0.298886
    18  H   -0.304597
    19  H   -0.230823
    20  H   -0.391967
    21  H    0.424128
    22  H    0.508907
 Sum of Mulliken charges =   0.00000

 Dipole moment (field-independent basis, Debye):
    X=             -2.0570    Y=             -0.9929    Z=             -0.0000  Tot=              2.2841

 Test job not archived.
 1\1\GINC-SE362\SP\RHF\Aug-CC-pVDZ\C10H9B1O2\OHZDE\09-Apr-2025\0\\#t hf
  aug-cc-pvdz iop(5/13=1,5/36=2,99/5=2) pseudo=read geom=check guess=(r
 ead,tcheck) scf=(maxcycle=1)\\title\\0,1\C,0,-1.166028,2.146184,-0.000
 3\C,0,0.128048,2.59984,-0.000216\C,0,-1.446187,0.756274,-0.000117\C,0,
 -0.362193,-0.185521,0.000039\C,0,0.992891,0.304365,0.00008\C,0,1.19371
 5,1.677699,0.000025\H,0,0.337531,3.663801,-0.000338\B,0,2.289906,-0.57
 9557,0.000002\O,0,2.228655,-1.953048,-0.001075\O,0,3.493825,0.086083,0
 .000837\H,0,-1.997059,2.844596,-0.000489\C,0,-2.786706,0.288929,-0.000

 Normal termination of Gaussian 16 at Wed Apr  9 00:26:31 2025.
