 Gaussian 16, Revision C.01,

 ----------------------------------------------------------------------
 #t hf aug-cc-pvdz symm=none int=(grid=ultrafine) guess=(read,tcheck) s
 table=(opt,rrhf)
 ----------------------------------------------------------------------
 -----
 title
 -----
 Symbolic Z-matrix:
 Charge =  0 Multiplicity = 1

 SCF Done:  E(RHF) =  -175.574134638     A.U. after   12 cycles
 Normal termination of Gaussian 16 at Wed Apr  9 00:37:59 2025.
 Gaussian 16:  ES64L-G16RevC.01  3-Jul-2019

 ----------------------------------------------------------------------
 #t hf aug-cc-pvdz iop(5/13=1,5/36=2,99/5=2) pseudo=read geom=check gue
 ss=(read,tcheck) scf=(maxcycle=1)
 ----------------------------------------------------------------------
 -----
 title
 -----
 Structure from the checkpoint file:  "BDE49_nonexpt_582_mol1.chk"
 Charge =  0 Multiplicity = 1

                         Standard orientation:
 ---------------------------------------------------------------------
 Center     Atomic      Atomic             Coordinates (Angstroms)
 Number     Number       Type             X           Y           Z
 ---------------------------------------------------------------------
      1          7           0       -0.693384   -0.259212   -0.320471
      2          6           0        0.536897    0.511571   -0.237236
      3          5           0       -1.908186    0.026227    0.285950
      4          7           0        1.626209   -0.343788    0.222165
      5          1           0        0.323395    1.379609    0.399267
      6          1           0        0.815487    0.886305   -1.229074
      7          1           0        1.532181   -0.536680    1.214670
      8          1           0        2.523332    0.107251    0.077705
      9          1           0       -2.006493    1.012028    0.952936
     10          1           0       -2.824043   -0.720693    0.126740
     11          1           0       -0.574082   -1.107377   -0.860441
 ---------------------------------------------------------------------

 SCF Done:  E(RHF) =  -175.763911088     A.U. after    2 cycles

 The electronic state is 1-A.
 Alpha  occ. eigenvalues --  -15.49347 -15.49333 -11.29648  -7.57427  -1.22763
 Alpha  occ. eigenvalues --   -1.14219  -0.90086  -0.76659  -0.72067  -0.66170
 Alpha  occ. eigenvalues --   -0.62754  -0.59271  -0.55487  -0.46844  -0.45908
 Alpha  occ. eigenvalues --   -0.43638
 Alpha virt. eigenvalues --    0.03309   0.04504   0.04823   0.05202   0.05848
 Alpha virt. eigenvalues --    0.06105   0.06640   0.07640   0.11134   0.11818
 Alpha virt. eigenvalues --    0.12570   0.13674   0.14204   0.15528   0.16428

 Mulliken charges:
               1
     1  N    0.463507
     2  C   -0.834238
     3  B   -0.546492
     4  N    0.110585
     5  H    0.031513
     6  H    0.052368
     7  H    0.149412
     8  H    0.126312
     9  H    0.077041
    10  H    0.249838
    11  H    0.120155
 Sum of Mulliken charges =  -0.00000

 Dipole moment (field-independent basis, Debye):
    X=              1.5862    Y=              0.8421    Z=              0.1038  Tot=              1.7988

 Test job not archived.
 1\1\GINC-SE016\SP\RHF\Aug-CC-pVDZ\C1H7B1N2\OHZDE\09-Apr-2025\0\\#t hf
 aug-cc-pvdz iop(5/13=1,5/36=2,99/5=2) pseudo=read geom=check guess=(re
 ad,tcheck) scf=(maxcycle=1)\\title\\0,1\N,0,-0.693384,-0.259212,-0.320
 471\C,0,0.536897,0.511571,-0.237236\B,0,-1.908186,0.026227,0.28595\N,0
 ,1.626209,-0.343788,0.222165\H,0,0.323395,1.379609,0.399267\H,0,0.8154
 87,0.886305,-1.229074\H,0,1.532181,-0.53668,1.21467\H,0,2.523332,0.107
 251,0.077705\H,0,-2.006493,1.012028,0.952936\H,0,-2.824043,-0.720693,0
 .12674\H,0,-0.574082,-1.107377,-0.860441\\Version=ES64L-G16RevC.01\Sta

 Normal termination of Gaussian 16 at Wed Apr  9 00:38:02 2025.
