 Gaussian 16, Revision C.01,

 ----------------------------------------------------------------------
 #t hf aug-cc-pvdz symm=none int=(grid=ultrafine) guess=(read,tcheck) s
 table=opt
 ----------------------------------------------------------------------
 -----
 title
 -----
 Symbolic Z-matrix:
 Charge =  0 Multiplicity = 2

 SCF Done:  E(UHF) =  -563.921239611     A.U. after   16 cycles
 Normal termination of Gaussian 16 at Tue Apr  8 23:08:57 2025.
 Gaussian 16:  ES64L-G16RevC.01  3-Jul-2019

 ----------------------------------------------------------------------
 #t hf aug-cc-pvdz iop(5/13=1,5/36=2,99/5=2) pseudo=read geom=check gue
 ss=(read,tcheck) scf=(maxcycle=1)
 ----------------------------------------------------------------------
 -----
 title
 -----
 Structure from the checkpoint file:  "BDE49_expt_397_mol2.chk"
 Charge =  0 Multiplicity = 2

                         Standard orientation:
 ---------------------------------------------------------------------
 Center     Atomic      Atomic             Coordinates (Angstroms)
 Number     Number       Type             X           Y           Z
 ---------------------------------------------------------------------
      1          6           0       -1.161714   -0.000000   -0.080179
      2         14           0        0.783228   -0.000000    0.014080
      3          6           0        1.467562    1.536963   -0.837343
      4          1           0        1.172834    1.577724   -1.889422
      5          1           0        2.561679    1.535177   -0.799291
      6          1           0        1.125875    2.457875   -0.356015
      7          6           0        1.357493   -0.000001    1.815143
      8          1           0        1.008899    0.884150    2.356386
      9          1           0        2.451838    0.000000    1.859016
     10          1           0        1.008901   -0.884152    2.356385
     11          6           0        1.467562   -1.536962   -0.837344
     12          1           0        1.172835   -1.577722   -1.889424
     13          1           0        1.125874   -2.457874   -0.356018
     14          1           0        2.561680   -1.535177   -0.799291
     15          6           0       -1.710514    1.263345    0.621209
     16          1           0       -1.413877    1.303402    1.673286
     17          1           0       -2.805750    1.268260    0.584671
     18          1           0       -1.362347    2.180537    0.138122
     19          6           0       -1.514577   -0.000000   -1.521607
     20          1           0       -1.581726    0.927120   -2.079065
     21          1           0       -1.581726   -0.927120   -2.079065
     22          6           0       -1.710514   -1.263345    0.621209
     23          1           0       -1.413877   -1.303402    1.673286
     24          1           0       -1.362347   -2.180537    0.138122
     25          1           0       -2.805750   -1.268260    0.584671
 ---------------------------------------------------------------------

 SCF Done:  E(UHF) =  -564.261681212     A.U. after    2 cycles

 The electronic state is 2-A.
 Alpha  occ. eigenvalues --  -69.50553 -11.23280 -11.22444 -11.22437 -11.22343
 Alpha  occ. eigenvalues --  -11.20586 -11.20530 -11.20527  -6.17557  -3.92917
 Alpha  occ. eigenvalues --   -3.92856  -3.92846  -1.08821  -0.97053  -0.93520
 Alpha  occ. eigenvalues --   -0.93510  -0.91921  -0.91905  -0.76169  -0.65767
 Alpha  occ. eigenvalues --   -0.61702  -0.60537  -0.59643  -0.56958  -0.56677
 Alpha  occ. eigenvalues --   -0.55216  -0.54597  -0.54064  -0.53889  -0.53225
 Alpha  occ. eigenvalues --   -0.52232  -0.50258  -0.47858  -0.44403  -0.43391
 Alpha  occ. eigenvalues --   -0.43286  -0.31689
 Alpha virt. eigenvalues --    0.03147   0.03587   0.03603   0.03696   0.05748
 Alpha virt. eigenvalues --    0.05770   0.05906   0.06007   0.06043   0.08216
 Alpha virt. eigenvalues --    0.08568   0.08908   0.08924   0.09229   0.09646

  Beta  occ. eigenvalues --  -69.50488 -11.22626 -11.22351 -11.22337 -11.20944
  Beta  occ. eigenvalues --  -11.20538 -11.20534 -11.20532  -6.17451  -3.92819
  Beta  occ. eigenvalues --   -3.92803  -3.92696  -1.07327  -0.96916  -0.93394
  Beta  occ. eigenvalues --   -0.92396  -0.91868  -0.87608  -0.74120  -0.64806
  Beta  occ. eigenvalues --   -0.60779  -0.60189  -0.59395  -0.56902  -0.56507
  Beta  occ. eigenvalues --   -0.55157  -0.54486  -0.53931  -0.53782  -0.53223
  Beta  occ. eigenvalues --   -0.51945  -0.49158  -0.47611  -0.43378  -0.43251
  Beta  occ. eigenvalues --   -0.39959
  Beta virt. eigenvalues --    0.03134   0.03503   0.03611   0.03691   0.05703
  Beta virt. eigenvalues --    0.05782   0.05887   0.05911   0.06054   0.08223
  Beta virt. eigenvalues --    0.08508   0.08901   0.08935   0.09232   0.09395

 Mulliken charges and spin densities:
               1          2
     1  C   -1.335111  -0.327329
     2  Si   2.459612   0.005953
     3  C   -0.499379   0.000212
     4  H    0.024823  -0.000465
     5  H   -0.076683  -0.003094
     6  H   -0.013574   0.002199
     7  C   -0.497106   0.015620
     8  H    0.000854  -0.001032
     9  H   -0.064687   0.001960
    10  H    0.000849  -0.001032
    11  C   -0.499382   0.000212
    12  H    0.024825  -0.000465
    13  H   -0.013576   0.002199
    14  H   -0.076680  -0.003094
    15  C   -0.160238   0.025684
    16  H    0.142422   0.000565
    17  H    0.209592   0.000076
    18  H    0.115740  -0.007696
    19  C    0.292320   1.478259
    20  H   -0.171069  -0.103682
    21  H   -0.171069  -0.103682
    22  C   -0.160239   0.025684
    23  H    0.142422   0.000565
    24  H    0.115740  -0.007696
    25  H    0.209592   0.000076
 Sum of Mulliken charges =  -0.00000   1.00000

 Dipole moment (field-independent basis, Debye):
    X=              0.2687    Y=             -0.0000    Z=              0.1031  Tot=              0.2878
                          Isotropic Fermi Contact Couplings
        Atom                 a.u.       MegaHertz       Gauss      10(-4) cm-1
     1  C(13)             -0.05331     -59.92686     -21.38340     -19.98945
     2  Si(29)             0.10050     -89.31599     -31.87017     -29.79261
     3  C(13)             -0.00189      -2.12780      -0.75925      -0.70976
     4  H(1)              -0.00001      -0.03732      -0.01332      -0.01245
     5  H(1)              -0.00024      -1.07673      -0.38420      -0.35916
     6  H(1)               0.00016       0.70956       0.25319       0.23668
     7  C(13)              0.01018      11.43929       4.08182       3.81574
     8  H(1)              -0.00026      -1.16097      -0.41426      -0.38726

 Normal termination of Gaussian 16 at Tue Apr  8 23:09:16 2025.
