 Gaussian 16, Revision C.01,

 ----------------------------------------------------------------------
 #t hf aug-cc-pvdz symm=none int=(grid=ultrafine) guess=(read,tcheck) s
 table=(opt,rrhf)
 ----------------------------------------------------------------------
 -----
 title
 -----
 Symbolic Z-matrix:
 Charge =  0 Multiplicity = 1

 SCF Done:  E(RHF) =  -698.749679542     A.U. after   17 cycles
 Normal termination of Gaussian 16 at Tue Apr  8 23:35:21 2025.
 Gaussian 16:  ES64L-G16RevC.01  3-Jul-2019

 ----------------------------------------------------------------------
 #t hf aug-cc-pvdz iop(5/13=1,5/36=2,99/5=2) pseudo=read geom=check gue
 ss=(read,tcheck) scf=(maxcycle=1)
 ----------------------------------------------------------------------
 -----
 title
 -----
 Structure from the checkpoint file:  "BDE49_nonexpt_1491_mol1.chk"
 Charge =  0 Multiplicity = 1

                         Standard orientation:
 ---------------------------------------------------------------------
 Center     Atomic      Atomic             Coordinates (Angstroms)
 Number     Number       Type             X           Y           Z
 ---------------------------------------------------------------------
      1          6           0        1.212744    1.302203   -0.031985
      2          6           0       -0.027621    1.835825   -0.071592
      3          6           0        1.487326   -0.127996    0.059103
      4         15           0        0.050992   -1.285719   -0.341118
      5          6           0       -1.425212   -0.215970    0.056930
      6          7           0       -1.232671    1.163058   -0.060287
      7          1           0       -2.082571    1.704847    0.040270
      8          8           0       -2.518812   -0.672797    0.295201
      9          8           0        2.581152   -0.601944    0.286062
     10          1           0        2.068944    1.964988   -0.001008
     11          1           0       -0.144186    2.912892   -0.097087
     12          1           0        0.039499   -2.004783    0.871757
 ---------------------------------------------------------------------

 SCF Done:  E(RHF) =  -699.142882299     A.U. after    2 cycles

 The electronic state is 1-A.
 Alpha  occ. eigenvalues --  -84.30934 -20.55645 -20.55240 -15.58150 -11.39958
 Alpha  occ. eigenvalues --  -11.36468 -11.34978 -11.26277  -6.78223  -4.30805
 Alpha  occ. eigenvalues --   -4.30692  -4.29880  -1.50371  -1.48440  -1.30194
 Alpha  occ. eigenvalues --   -1.09389  -0.99899  -0.90627  -0.86125  -0.79517
 Alpha  occ. eigenvalues --   -0.71993  -0.70148  -0.67049  -0.65408  -0.62941
 Alpha  occ. eigenvalues --   -0.60104  -0.57547  -0.55570  -0.52357  -0.46481
 Alpha  occ. eigenvalues --   -0.40802  -0.38182  -0.36621
 Alpha virt. eigenvalues --    0.02008   0.04034   0.04256   0.05031   0.05983
 Alpha virt. eigenvalues --    0.07736   0.08047   0.08712   0.09400   0.11293
 Alpha virt. eigenvalues --    0.11622   0.11908   0.12841   0.13443   0.13921

 Mulliken charges:
               1
     1  C    0.931381
     2  C   -0.669872
     3  C    0.366237
     4  P    0.709204
     5  C    0.173189
     6  N    0.733229
     7  H    0.125609
     8  O   -1.172682
     9  O   -1.267915
    10  H   -0.216402
    11  H   -0.227676
    12  H    0.515698
 Sum of Mulliken charges =  -0.00000

 Dipole moment (field-independent basis, Debye):
    X=             -1.1393    Y=              3.6271    Z=             -0.4771  Tot=              3.8316

 Test job not archived.
 1\1\GINC-SE328\SP\RHF\Aug-CC-pVDZ\C4H4N1O2P1\OHZDE\08-Apr-2025\0\\#t h
 f aug-cc-pvdz iop(5/13=1,5/36=2,99/5=2) pseudo=read geom=check guess=(
 read,tcheck) scf=(maxcycle=1)\\title\\0,1\C,0,1.212744,1.302203,-0.031
 985\C,0,-0.027621,1.835825,-0.071592\C,0,1.487326,-0.127996,0.059103\P
 ,0,0.050992,-1.285719,-0.341118\C,0,-1.425212,-0.21597,0.05693\N,0,-1.
 232671,1.163058,-0.060287\H,0,-2.082571,1.704847,0.04027\O,0,-2.518812
 ,-0.672797,0.295201\O,0,2.581152,-0.601944,0.286062\H,0,2.068944,1.964
 988,-0.001008\H,0,-0.144186,2.912892,-0.097087\H,0,0.039499,-2.004783,

 Normal termination of Gaussian 16 at Tue Apr  8 23:35:27 2025.
