 Gaussian 16, Revision C.01,

 ----------------------------------------------------------------------
 #t hf aug-cc-pvdz symm=none int=(grid=ultrafine) guess=(read,tcheck) s
 table=(opt,rrhf)
 ----------------------------------------------------------------------
 -----
 title
 -----
 Symbolic Z-matrix:
 Charge =  0 Multiplicity = 1

 SCF Done:  E(RHF) =  -835.800251854     A.U. after   15 cycles
 Normal termination of Gaussian 16 at Tue Apr  8 23:31:14 2025.
 Gaussian 16:  ES64L-G16RevC.01  3-Jul-2019

 ----------------------------------------------------------------------
 #t hf aug-cc-pvdz iop(5/13=1,5/36=2,99/5=2) pseudo=read geom=check gue
 ss=(read,tcheck) scf=(maxcycle=1)
 ----------------------------------------------------------------------
 -----
 title
 -----
 Structure from the checkpoint file:  "BDE49_nonexpt_1341_mol1.chk"
 Charge =  0 Multiplicity = 1

                         Standard orientation:
 ---------------------------------------------------------------------
 Center     Atomic      Atomic             Coordinates (Angstroms)
 Number     Number       Type             X           Y           Z
 ---------------------------------------------------------------------
      1          6           0        2.844626   -1.166480   -0.176945
      2          6           0        1.548010   -1.231884    0.328094
      3          6           0        3.446210    0.069877   -0.399709
      4          6           0        2.742441    1.239190   -0.117345
      5          6           0        1.446921    1.172948    0.387597
      6          6           0        0.837895   -0.064259    0.622662
      7          1           0        1.083315   -2.197226    0.498746
      8         15           0       -1.812242    0.117330   -0.133889
      9          8           0       -1.806324    1.409008   -0.835322
     10          8           0       -3.147565   -0.246170    0.680230
     11          1           0        3.384668   -2.081549   -0.393193
     12          1           0        3.202020    2.205644   -0.291251
     13          1           0        4.456268    0.122307   -0.790004
     14          1           0        0.898090    2.085411    0.591836
     15          6           0       -0.572836   -0.137846    1.161689
     16          1           0       -0.753204    0.630595    1.917976
     17          1           0       -0.775600   -1.108510    1.619908
     18          1           0       -3.945770    0.048777    0.224585
     19          8           0       -1.651347   -1.147789   -1.124077
     20          1           0       -1.283861   -0.875069   -1.973187
 ---------------------------------------------------------------------

 SCF Done:  E(RHF) =  -836.347907823     A.U. after    2 cycles

 The electronic state is 1-A.
 Alpha  occ. eigenvalues --  -84.42506 -20.59227 -20.58766 -20.50054 -11.26254
 Alpha  occ. eigenvalues --  -11.26153 -11.24901 -11.24830 -11.24769 -11.24672
 Alpha  occ. eigenvalues --  -11.24594  -6.87806  -4.41912  -4.41283  -4.40595
 Alpha  occ. eigenvalues --   -1.52986  -1.47153  -1.38426  -1.16612  -1.06880
 Alpha  occ. eigenvalues --   -1.02224  -0.97206  -0.84957  -0.84319  -0.80718
 Alpha  occ. eigenvalues --   -0.73272  -0.71120  -0.67953  -0.66095  -0.64796
 Alpha  occ. eigenvalues --   -0.64458  -0.61271  -0.60502  -0.59542  -0.58046
 Alpha  occ. eigenvalues --   -0.55162  -0.54094  -0.52092  -0.51202  -0.50777
 Alpha  occ. eigenvalues --   -0.49603  -0.45368  -0.44704  -0.35113  -0.34314
 Alpha virt. eigenvalues --    0.03290   0.03507   0.03876   0.04508   0.04908
 Alpha virt. eigenvalues --    0.05537   0.05923   0.07939   0.08596   0.09906
 Alpha virt. eigenvalues --    0.09950   0.10195   0.10400   0.10644   0.12699

 Mulliken charges:
               1
     1  C    0.081590
     2  C    0.111161
     3  C    0.088513
     4  C    0.105811
     5  C    0.138132
     6  C    1.526249
     7  H   -0.319356
     8  P    4.373905
     9  O   -1.528423
    10  O   -1.391005
    11  H   -0.232421
    12  H   -0.229717
    13  H   -0.214546
    14  H   -0.324994
    15  C   -1.457587
    16  H    0.036596
    17  H   -0.035740
    18  H    0.375506
    19  O   -1.440873
    20  H    0.337199
 Sum of Mulliken charges =  -0.00000

 Dipole moment (field-independent basis, Debye):
    X=              0.4631    Y=             -1.6909    Z=              0.4044  Tot=              1.7992

 Test job not archived.
 1\1\GINC-SE045\SP\RHF\Aug-CC-pVDZ\C7H9O3P1\OHZDE\08-Apr-2025\0\\#t hf
 aug-cc-pvdz iop(5/13=1,5/36=2,99/5=2) pseudo=read geom=check guess=(re
 ad,tcheck) scf=(maxcycle=1)\\title\\0,1\C,0,-2.844626,-1.16648,0.17694
 5\C,0,-1.54801,-1.231884,-0.328094\C,0,-3.44621,0.069877,0.399709\C,0,
 -2.742441,1.23919,0.117345\C,0,-1.446921,1.172948,-0.387597\C,0,-0.837
 895,-0.064259,-0.622662\H,0,-1.083315,-2.197226,-0.498746\P,0,1.812242
 ,0.11733,0.133889\O,0,1.806324,1.409008,0.835322\O,0,3.147565,-0.24617
 ,-0.68023\H,0,-3.384668,-2.081549,0.393193\H,0,-3.20202,2.205644,0.291

 Normal termination of Gaussian 16 at Tue Apr  8 23:31:28 2025.
