 Gaussian 16, Revision C.01,

 ----------------------------------------------------------------------
 #t hf aug-cc-pvdz symm=none int=(grid=ultrafine) guess=(read,tcheck) s
 table=(opt,rrhf)
 ----------------------------------------------------------------------
 -----
 title
 -----
 Symbolic Z-matrix:
 Charge =  0 Multiplicity = 1

 SCF Done:  E(RHF) =  -719.310306150     A.U. after   14 cycles
 Normal termination of Gaussian 16 at Wed Apr  9 00:47:02 2025.
 Gaussian 16:  ES64L-G16RevC.01  3-Jul-2019

 ----------------------------------------------------------------------
 #t hf aug-cc-pvdz iop(5/13=1,5/36=2,99/5=2) pseudo=read geom=check gue
 ss=(read,tcheck) scf=(maxcycle=1)
 ----------------------------------------------------------------------
 -----
 title
 -----
 Structure from the checkpoint file:  "BDE49_nonexpt_825_mol1.chk"
 Charge =  0 Multiplicity = 1

                         Standard orientation:
 ---------------------------------------------------------------------
 Center     Atomic      Atomic             Coordinates (Angstroms)
 Number     Number       Type             X           Y           Z
 ---------------------------------------------------------------------
      1          6           0       -0.005357    1.629058    0.542390
      2          5           0        0.001245    0.115446    0.243444
      3         14           0       -1.759162   -0.842773   -0.031038
      4          8           0       -0.032662    2.157368   -0.565697
      5         14           0        1.773248   -0.817881   -0.037192
      6          1           0        0.007268    2.233503    1.469280
      7          1           0       -1.820688   -1.943203    0.967221
      8          1           0       -1.821415   -1.448563   -1.383123
      9          1           0       -2.942815    0.029483    0.158911
     10          1           0        1.719895   -1.815601   -1.132107
     11          1           0        2.064256   -1.545625    1.228065
     12          1           0        2.883500    0.128647   -0.299012
 ---------------------------------------------------------------------

 SCF Done:  E(RHF) =  -719.515039953     A.U. after    2 cycles

 The electronic state is 1-A.
 Alpha  occ. eigenvalues --  -69.52958 -69.52951 -20.56392 -11.34276  -7.62305
 Alpha  occ. eigenvalues --   -6.20205  -6.20184  -3.95576  -3.95562  -3.95554
 Alpha  occ. eigenvalues --   -3.95549  -3.95539  -3.95529  -1.48454  -0.88958
 Alpha  occ. eigenvalues --   -0.79071  -0.74772  -0.71223  -0.64059  -0.55552
 Alpha  occ. eigenvalues --   -0.53087  -0.50365  -0.49063  -0.48936  -0.48840
 Alpha  occ. eigenvalues --   -0.41000  -0.40482
 Alpha virt. eigenvalues --    0.02595   0.03632   0.03684   0.03932   0.05981
 Alpha virt. eigenvalues --    0.06227   0.06624   0.06824   0.07563   0.07991
 Alpha virt. eigenvalues --    0.08812   0.09097   0.09856   0.09913   0.10442

 Mulliken charges:
               1
     1  C    0.646732
     2  B   -0.312887
     3  Si   0.640963
     4  O   -0.964594
     5  Si   0.646068
     6  H    0.073973
     7  H   -0.110356
     8  H   -0.132814
     9  H   -0.119058
    10  H   -0.139138
    11  H   -0.118469
    12  H   -0.110421
 Sum of Mulliken charges =  -0.00000

 Dipole moment (field-independent basis, Debye):
    X=              0.0473    Y=             -0.7304    Z=              2.1679  Tot=              2.2881

 Test job not archived.
 1\1\GINC-SE026\SP\RHF\Aug-CC-pVDZ\C1H7B1O1Si2\OHZDE\09-Apr-2025\0\\#t
 hf aug-cc-pvdz iop(5/13=1,5/36=2,99/5=2) pseudo=read geom=check guess=
 (read,tcheck) scf=(maxcycle=1)\\title\\0,1\C,0,-0.005356,1.629058,0.54
 239\B,0,0.001245,0.115446,0.243444\Si,0,-1.759162,-0.842772,-0.031038\
 O,0,-0.032661,2.157368,-0.565697\Si,0,1.773248,-0.817882,-0.037192\H,0
 ,0.007269,2.233503,1.46928\H,0,-1.820689,-1.943202,0.967221\H,0,-1.821
 415,-1.448562,-1.383123\H,0,-2.942815,0.029484,0.158911\H,0,1.719894,-
 1.815602,-1.132107\H,0,2.064256,-1.545626,1.228065\H,0,2.8835,0.128646

 Normal termination of Gaussian 16 at Wed Apr  9 00:47:06 2025.
