 Gaussian 16, Revision C.01,

 ----------------------------------------------------------------------
 #t hf aug-cc-pvdz symm=none int=(grid=ultrafine) guess=(read,tcheck) s
 table=(opt,rrhf)
 ----------------------------------------------------------------------
 -----
 title
 -----
 Symbolic Z-matrix:
 Charge =  0 Multiplicity = 1

 SCF Done:  E(RHF) =  -1189.94594359     A.U. after   14 cycles
 Normal termination of Gaussian 16 at Wed Apr  9 00:12:16 2025.
 Gaussian 16:  ES64L-G16RevC.01  3-Jul-2019

 ----------------------------------------------------------------------
 #t hf aug-cc-pvdz iop(5/13=1,5/36=2,99/5=2) pseudo=read geom=check gue
 ss=(read,tcheck) scf=(maxcycle=1)
 ----------------------------------------------------------------------
 -----
 title
 -----
 Structure from the checkpoint file:  "BDE49_nonexpt_237_mol1.chk"
 Charge =  0 Multiplicity = 1

                         Standard orientation:
 ---------------------------------------------------------------------
 Center     Atomic      Atomic             Coordinates (Angstroms)
 Number     Number       Type             X           Y           Z
 ---------------------------------------------------------------------
      1         17           0        2.074017    1.508458   -0.000052
      2          5           0        1.142763    0.002359    0.000108
      3         17           0        2.066230   -1.505034   -0.000044
      4          6           0       -0.400384    0.013444    0.000065
      5          6           0       -1.139227    1.210667    0.000043
      6          6           0       -1.147006   -1.182068    0.000047
      7          7           0       -2.478306   -1.245079    0.000013
      8          6           0       -2.525133    1.162639    0.000007
      9          6           0       -3.145238   -0.085998   -0.000007
     10          1           0       -0.625631    2.164800    0.000055
     11          1           0       -3.119410    2.068385   -0.000010
     12          1           0       -0.633651   -2.138256    0.000063
     13          1           0       -4.229253   -0.161483   -0.000035
 ---------------------------------------------------------------------

 SCF Done:  E(RHF) =  -1190.36999552     A.U. after    2 cycles

 The electronic state is 1-A.
 Alpha  occ. eigenvalues -- -105.57819-105.57739 -15.51939 -11.30695 -11.30527
 Alpha  occ. eigenvalues --  -11.28947 -11.26303 -11.25157 -10.62837 -10.62753
 Alpha  occ. eigenvalues --   -7.79732  -7.79651  -7.79447  -7.79415  -7.79367
 Alpha  occ. eigenvalues --   -7.79335  -7.72039  -1.27704  -1.12486  -1.09940
 Alpha  occ. eigenvalues --   -1.06047  -1.05187  -0.89872  -0.88631  -0.76038
 Alpha  occ. eigenvalues --   -0.71492  -0.70719  -0.65107  -0.62076  -0.60958
 Alpha  occ. eigenvalues --   -0.58144  -0.58035  -0.55007  -0.53119  -0.49084
 Alpha  occ. eigenvalues --   -0.48029  -0.46783  -0.45976  -0.42192  -0.37741
 Alpha virt. eigenvalues --    0.02889   0.02898   0.03938   0.04400   0.05015
 Alpha virt. eigenvalues --    0.05443   0.05978   0.07360   0.07557   0.08533
 Alpha virt. eigenvalues --    0.11216   0.11640   0.11882   0.12910   0.13366

 Mulliken charges:
               1
     1  Cl  -0.354228
     2  B    0.593513
     3  Cl  -0.360583
     4  C    1.027835
     5  C    0.081375
     6  C   -1.090307
     7  N    1.093081
     8  C    0.690938
     9  C   -0.774691
    10  H   -0.311041
    11  H   -0.183869
    12  H   -0.250553
    13  H   -0.161470
 Sum of Mulliken charges =  -0.00000

 Dipole moment (field-independent basis, Debye):
    X=             -1.3530    Y=              2.2681    Z=              0.0002  Tot=              2.6410

 Test job not archived.
 1\1\GINC-SE128\SP\RHF\Aug-CC-pVDZ\C5H4B1Cl2N1\OHZDE\09-Apr-2025\0\\#t
 hf aug-cc-pvdz iop(5/13=1,5/36=2,99/5=2) pseudo=read geom=check guess=
 (read,tcheck) scf=(maxcycle=1)\\title\\0,1\Cl,0,-2.074017,1.508458,0.0
 00052\B,0,-1.142763,0.002359,-0.000108\Cl,0,-2.06623,-1.505034,0.00004
 4\C,0,0.400384,0.013444,-0.000065\C,0,1.139227,1.210667,-0.000043\C,0,
 1.147006,-1.182068,-0.000047\N,0,2.478306,-1.245079,-0.000013\C,0,2.52
 5133,1.162639,-0.000007\C,0,3.145238,-0.085998,0.000007\H,0,0.625631,2
 .1648,-0.000055\H,0,3.11941,2.068385,0.00001\H,0,0.633651,-2.138256,-0

 Normal termination of Gaussian 16 at Wed Apr  9 00:12:23 2025.
