 Gaussian 16, Revision C.01,

 ----------------------------------------------------------------------
 #t hf aug-cc-pvdz symm=none int=(grid=ultrafine) guess=(read,tcheck) s
 table=(opt,rrhf)
 ----------------------------------------------------------------------
 -----
 title
 -----
 Symbolic Z-matrix:
 Charge =  0 Multiplicity = 1

 SCF Done:  E(RHF) =  -1216.65286016     A.U. after   16 cycles
 Normal termination of Gaussian 16 at Tue Apr  8 23:31:49 2025.
 Gaussian 16:  ES64L-G16RevC.01  3-Jul-2019

 ----------------------------------------------------------------------
 #t hf aug-cc-pvdz iop(5/13=1,5/36=2,99/5=2) pseudo=read geom=check gue
 ss=(read,tcheck) scf=(maxcycle=1)
 ----------------------------------------------------------------------
 -----
 title
 -----
 Structure from the checkpoint file:  "BDE49_nonexpt_1346_mol1.chk"
 Charge =  0 Multiplicity = 1

                         Standard orientation:
 ---------------------------------------------------------------------
 Center     Atomic      Atomic             Coordinates (Angstroms)
 Number     Number       Type             X           Y           Z
 ---------------------------------------------------------------------
      1          6           0       -0.363135   -0.002750   -0.017829
      2         15           0        1.536061    0.028832   -0.177198
      3          7           0       -1.028064    1.283532   -0.521518
      4          7           0       -0.839177   -0.156163    1.447431
      5          8           0       -0.675935    0.844541    2.111079
      6          8           0       -0.286670    2.089448   -1.059729
      7          8           0        1.963070    1.350571    0.561715
      8          8           0       -2.215379    1.386151   -0.336292
      9          8           0        1.877615   -0.197355   -1.574160
     10          8           0       -1.293569   -1.219719    1.790951
     11          7           0       -0.859760   -1.199416   -0.842630
     12          8           0       -0.268183   -2.234059   -0.590239
     13          8           0       -1.736973   -1.025996   -1.649638
     14          1           0        1.778259    2.141676    0.035270
     15          8           0        1.964770   -1.009598    0.932913
     16          1           0        1.818674   -1.925193    0.653902
 ---------------------------------------------------------------------

 SCF Done:  E(RHF) =  -1217.52318387     A.U. after    2 cycles

 The electronic state is 1-A.
 Alpha  occ. eigenvalues --  -84.50896 -20.66959 -20.66956 -20.66487 -20.66388
 Alpha  occ. eigenvalues --  -20.65998 -20.65836 -20.65224 -20.65098 -20.56464
 Alpha  occ. eigenvalues --  -15.87249 -15.87188 -15.87092 -11.49316  -6.95984
 Alpha  occ. eigenvalues --   -4.50275  -4.49576  -4.48973  -1.75963  -1.74609
 Alpha  occ. eigenvalues --   -1.74541  -1.60321  -1.59501  -1.59039  -1.58837
 Alpha  occ. eigenvalues --   -1.53498  -1.45300  -1.27036  -1.07784  -1.07051
 Alpha  occ. eigenvalues --   -0.95185  -0.91643  -0.89307  -0.88715  -0.85341
 Alpha  occ. eigenvalues --   -0.81958  -0.81807  -0.81160  -0.80854  -0.79644
 Alpha  occ. eigenvalues --   -0.76812  -0.75473  -0.70342  -0.68232  -0.63962
 Alpha  occ. eigenvalues --   -0.61218  -0.60844  -0.58431  -0.57005  -0.56177
 Alpha  occ. eigenvalues --   -0.55412  -0.55044  -0.54578  -0.52498  -0.51858
 Alpha  occ. eigenvalues --   -0.51261  -0.50532  -0.50134
 Alpha virt. eigenvalues --   -0.01753  -0.00565   0.00217   0.03603   0.04197
 Alpha virt. eigenvalues --    0.07501   0.08085   0.09523   0.10306   0.11285
 Alpha virt. eigenvalues --    0.11845   0.11996   0.13383   0.14083   0.14385

 Mulliken charges:
               1
     1  C   -2.474584
     2  P    4.870944
     3  N    3.342196
     4  N    3.210495
     5  O   -1.506072
     6  O   -1.445309
     7  O   -1.298198
     8  O   -1.484446
     9  O   -1.447674
    10  O   -1.453030
    11  N    3.126881
    12  O   -1.472987
    13  O   -1.342912
    14  H    0.360798
    15  O   -1.344749
    16  H    0.358648
 Sum of Mulliken charges =  -0.00000

 Dipole moment (field-independent basis, Debye):
    X=              1.4768    Y=              0.3264    Z=              1.2380  Tot=              1.9545

 Test job not archived.
 1\1\GINC-SE227\SP\RHF\Aug-CC-pVDZ\C1H2N3O9P1\OHZDE\08-Apr-2025\0\\#t h
 f aug-cc-pvdz iop(5/13=1,5/36=2,99/5=2) pseudo=read geom=check guess=(
 read,tcheck) scf=(maxcycle=1)\\title\\0,1\C,0,-0.363135,-0.00275,-0.01
 7829\P,0,1.536061,0.028832,-0.177198\N,0,-1.028064,1.283532,-0.521518\
 N,0,-0.839177,-0.156163,1.447431\O,0,-0.675935,0.844541,2.111079\O,0,-
 0.28667,2.089448,-1.059729\O,0,1.96307,1.350571,0.561715\O,0,-2.215379
 ,1.386151,-0.336292\O,0,1.877615,-0.197355,-1.57416\O,0,-1.293569,-1.2
 19719,1.790951\N,0,-0.85976,-1.199416,-0.84263\O,0,-0.268183,-2.234059

 Normal termination of Gaussian 16 at Tue Apr  8 23:32:02 2025.
