 Gaussian 16, Revision C.01,

 ----------------------------------------------------------------------
 #t hf aug-cc-pvdz symm=none int=(grid=ultrafine) guess=(read,tcheck) s
 table=(opt,rrhf)
 ----------------------------------------------------------------------
 -----
 title
 -----
 Symbolic Z-matrix:
 Charge =  0 Multiplicity = 1

 SCF Done:  E(RHF) =  -855.522639016     A.U. after   16 cycles
 Normal termination of Gaussian 16 at Tue Apr  8 23:19:24 2025.
 Gaussian 16:  ES64L-G16RevC.01  3-Jul-2019

 ----------------------------------------------------------------------
 #t hf aug-cc-pvdz iop(5/13=1,5/36=2,99/5=2) pseudo=read geom=check gue
 ss=(read,tcheck) scf=(maxcycle=1)
 ----------------------------------------------------------------------
 -----
 title
 -----
 Structure from the checkpoint file:  "BDE49_nonexpt_1083_mol1.chk"
 Charge =  0 Multiplicity = 1

                         Standard orientation:
 ---------------------------------------------------------------------
 Center     Atomic      Atomic             Coordinates (Angstroms)
 Number     Number       Type             X           Y           Z
 ---------------------------------------------------------------------
      1         17           0       -2.666796   -0.010775   -0.549304
      2          8           0       -1.633063    0.255759    0.868087
      3          8           0       -0.375186    0.712088    0.471440
      4          6           0        0.505489   -0.385896    0.229770
      5          8           0        0.157747   -1.527376    0.331085
      6          7           0        1.721303    0.098231   -0.119330
      7          6           0        2.074269    1.514297   -0.171551
      8          1           0        1.182359    2.132308   -0.197558
      9          1           0        2.658208    1.702178   -1.076680
     10          1           0        2.678552    1.798742    0.697325
     11          6           0        2.807393   -0.856121   -0.312442
     12          1           0        3.270495   -0.699612   -1.291145
     13          1           0        2.405969   -1.864623   -0.260075
     14          1           0        3.571934   -0.730881    0.462058
 ---------------------------------------------------------------------

 SCF Done:  E(RHF) =  -855.989403432     A.U. after    2 cycles

 The electronic state is 1-A.
 Alpha  occ. eigenvalues -- -105.63038 -20.70204 -20.66572 -20.53433 -15.55029
 Alpha  occ. eigenvalues --  -11.42904 -11.29006 -11.28281 -10.67242  -7.84211
 Alpha  occ. eigenvalues --   -7.83672  -7.83633  -1.65887  -1.49388  -1.33685
 Alpha  occ. eigenvalues --   -1.26175  -1.03277  -1.00179  -0.97664  -0.80645
 Alpha  occ. eigenvalues --   -0.76832  -0.71794  -0.71371  -0.66904  -0.65423
 Alpha  occ. eigenvalues --   -0.64847  -0.59736  -0.58562  -0.57471  -0.57071
 Alpha  occ. eigenvalues --   -0.55880  -0.49132  -0.48958  -0.47431  -0.45192
 Alpha  occ. eigenvalues --   -0.42363
 Alpha virt. eigenvalues --    0.03050   0.04342   0.04412   0.04635   0.05676
 Alpha virt. eigenvalues --    0.06631   0.07446   0.08158   0.10169   0.10979
 Alpha virt. eigenvalues --    0.13105   0.13719   0.14468   0.15160   0.15391

 Mulliken charges:
               1
     1  Cl   0.344381
     2  O   -0.484763
     3  O   -0.746851
     4  C    1.013179
     5  O   -0.996907
     6  N    0.621131
     7  C   -0.275627
     8  H    0.060251
     9  H    0.153356
    10  H    0.179489
    11  C   -0.285305
    12  H    0.173620
    13  H    0.016207
    14  H    0.227839
 Sum of Mulliken charges =  -0.00000

 Dipole moment (field-independent basis, Debye):
    X=              3.4082    Y=              2.0741    Z=             -1.0356  Tot=              4.1219

 Test job not archived.
 1\1\GINC-SE333\SP\RHF\Aug-CC-pVDZ\C3H6Cl1N1O3\OHZDE\08-Apr-2025\0\\#t
 hf aug-cc-pvdz iop(5/13=1,5/36=2,99/5=2) pseudo=read geom=check guess=
 (read,tcheck) scf=(maxcycle=1)\\title\\0,1\Cl,0,-2.666796,-0.010775,-0
 .549304\O,0,-1.633063,0.255759,0.868087\O,0,-0.375186,0.712088,0.47144
 \C,0,0.505489,-0.385896,0.22977\O,0,0.157747,-1.527376,0.331085\N,0,1.
 721303,0.098231,-0.11933\C,0,2.074269,1.514297,-0.171551\H,0,1.182359,
 2.132308,-0.197558\H,0,2.658208,1.702178,-1.07668\H,0,2.678552,1.79874
 2,0.697325\C,0,2.807393,-0.856121,-0.312442\H,0,3.270495,-0.699612,-1.

 Normal termination of Gaussian 16 at Tue Apr  8 23:19:29 2025.
