 Gaussian 16, Revision C.01,

 ----------------------------------------------------------------------
 #t hf aug-cc-pvdz symm=none int=(grid=ultrafine) guess=(read,tcheck) s
 table=(opt,rrhf)
 ----------------------------------------------------------------------
 -----
 title
 -----
 Symbolic Z-matrix:
 Charge =  0 Multiplicity = 1

 SCF Done:  E(RHF) =  -1205.05004472     A.U. after   17 cycles
 Normal termination of Gaussian 16 at Wed Apr  9 00:52:04 2025.
 Gaussian 16:  ES64L-G16RevC.01  3-Jul-2019

 ----------------------------------------------------------------------
 #t hf aug-cc-pvdz iop(5/13=1,5/36=2,99/5=2) pseudo=read geom=check gue
 ss=(read,tcheck) scf=(maxcycle=1)
 ----------------------------------------------------------------------
 -----
 title
 -----
 Structure from the checkpoint file:  "BDE49_nonexpt_906_mol1.chk"
 Charge =  0 Multiplicity = 1

                         Standard orientation:
 ---------------------------------------------------------------------
 Center     Atomic      Atomic             Coordinates (Angstroms)
 Number     Number       Type             X           Y           Z
 ---------------------------------------------------------------------
      1          9           0        2.784575    1.779818    0.448556
      2          7           0        3.919089   -0.603855   -0.173679
      3          1           0        4.314170   -1.523693   -0.060786
      4          1           0        4.445106    0.136927    0.263106
      5          5           0       -1.830224    0.023849   -0.015980
      6         16           0       -2.706711    1.589346   -0.340102
      7          6           0        1.947954    0.738820    0.176127
      8         16           0       -2.855357   -1.425182    0.414787
      9          6           0        2.546754   -0.498294   -0.107311
     10          6           0        1.677988   -1.570147   -0.362782
     11          1           0        2.097879   -2.543199   -0.595336
     12          6           0        0.302322   -1.395691   -0.326210
     13          1           0       -0.330211   -2.250200   -0.537596
     14          6           0       -0.291302   -0.147699   -0.052059
     15          6           0        0.587590    0.926528    0.201328
     16          1           0        0.220704    1.914747    0.452271
     17          1           0       -1.660981    2.307861   -0.783797
     18          1           0       -4.065093   -0.900799    0.151272
 ---------------------------------------------------------------------

 SCF Done:  E(RHF) =  -1205.57445520     A.U. after    2 cycles

 The electronic state is 1-A.
 Alpha  occ. eigenvalues --  -93.95357 -93.95082 -26.48221 -15.53086 -11.33171
 Alpha  occ. eigenvalues --  -11.31360 -11.26749 -11.26308 -11.25238 -11.23577
 Alpha  occ. eigenvalues --   -8.23657  -8.23379  -7.65442  -6.21494  -6.21342
 Alpha  occ. eigenvalues --   -6.21221  -6.21185  -6.21069  -6.20914  -1.60784
 Alpha  occ. eigenvalues --   -1.24939  -1.15423  -1.05463  -1.03512  -1.00832
 Alpha  occ. eigenvalues --   -0.99701  -0.87866  -0.85558  -0.76903  -0.75043
 Alpha  occ. eigenvalues --   -0.73111  -0.68509  -0.68044  -0.67126  -0.63235
 Alpha  occ. eigenvalues --   -0.62659  -0.60191  -0.57739  -0.57094  -0.53847
 Alpha  occ. eigenvalues --   -0.52815  -0.49538  -0.47040  -0.45598  -0.43165
 Alpha  occ. eigenvalues --   -0.37485  -0.36314  -0.32569
 Alpha virt. eigenvalues --    0.02580   0.03903   0.04081   0.04812   0.04995
 Alpha virt. eigenvalues --    0.05652   0.06244   0.07170   0.07796   0.08092
 Alpha virt. eigenvalues --    0.08216   0.09746   0.10587   0.11139   0.11397

 Mulliken charges:
               1
     1  F   -1.110043
     2  N    0.847867
     3  H    0.015992
     4  H    0.043935
     5  B    0.864693
     6  S   -0.761287
     7  C    2.095088
     8  S   -0.745730
     9  C   -2.227506
    10  C    1.123296
    11  H   -0.271553
    12  C   -0.089013
    13  H   -0.393231
    14  C    0.537095
    15  C   -0.085042
    16  H   -0.340861
    17  H    0.251156
    18  H    0.245143
 Sum of Mulliken charges =  -0.00000

 Dipole moment (field-independent basis, Debye):
    X=              2.2803    Y=             -1.0282    Z=             -0.0155  Tot=              2.5014

 Test job not archived.
 1\1\GINC-SE127\SP\RHF\Aug-CC-pVDZ\C6H7B1F1N1S2\OHZDE\09-Apr-2025\0\\#t
  hf aug-cc-pvdz iop(5/13=1,5/36=2,99/5=2) pseudo=read geom=check guess
 =(read,tcheck) scf=(maxcycle=1)\\title\\0,1\F,0,2.784575,1.779818,0.44
 8556\N,0,3.919089,-0.603855,-0.173679\H,0,4.31417,-1.523693,-0.060786\
 H,0,4.445106,0.136927,0.263106\B,0,-1.830224,0.023849,-0.01598\S,0,-2.
 706711,1.589346,-0.340102\C,0,1.947954,0.73882,0.176127\S,0,-2.855357,
 -1.425182,0.414787\C,0,2.546754,-0.498294,-0.107311\C,0,1.677988,-1.57
 0147,-0.362782\H,0,2.097879,-2.543199,-0.595336\C,0,0.302322,-1.395691

 Normal termination of Gaussian 16 at Wed Apr  9 00:52:16 2025.
