 Gaussian 16, Revision C.01,

 ----------------------------------------------------------------------
 #t hf aug-cc-pvdz symm=none int=(grid=ultrafine) guess=(read,tcheck) s
 table=opt
 ----------------------------------------------------------------------
 -----
 title
 -----
 Symbolic Z-matrix:
 Charge =  0 Multiplicity = 2

 SCF Done:  E(UHF) =  -627.955789327     A.U. after   26 cycles
 Normal termination of Gaussian 16 at Tue Apr  8 23:16:26 2025.
 Gaussian 16:  ES64L-G16RevC.01  3-Jul-2019

 ----------------------------------------------------------------------
 #t hf aug-cc-pvdz iop(5/13=1,5/36=2,99/5=2) pseudo=read geom=check gue
 ss=(read,tcheck) scf=(maxcycle=1)
 ----------------------------------------------------------------------
 -----
 title
 -----
 Structure from the checkpoint file:  "BDE49_nonexpt_1006_mol2.chk"
 Charge =  0 Multiplicity = 2

                         Standard orientation:
 ---------------------------------------------------------------------
 Center     Atomic      Atomic             Coordinates (Angstroms)
 Number     Number       Type             X           Y           Z
 ---------------------------------------------------------------------
      1          6           0       -0.947402    0.221798   -0.375886
      2          6           0        0.347638   -0.495877   -0.033560
      3         16           0        1.904308    0.341777   -0.047958
      4          8           0        0.443192   -1.675421    0.233449
      5          6           0       -1.009218    1.623632    0.247444
      6          1           0       -1.030184    1.566213    1.338786
      7          1           0       -1.913940    2.137781   -0.085213
      8          1           0       -0.154235    2.239255   -0.043266
      9          6           0       -2.159313   -0.644458   -0.016567
     10          1           0       -0.907501    0.340705   -1.468084
     11          1           0       -2.240471   -0.770266    1.066188
     12          1           0       -2.081579   -1.637031   -0.461812
     13          1           0       -3.076786   -0.172295   -0.375445
 ---------------------------------------------------------------------

 SCF Done:  E(UHF) =  -628.247975365     A.U. after    2 cycles

 The electronic state is 2-A.
 Alpha  occ. eigenvalues --  -93.99250 -20.55372 -11.37812 -11.27392 -11.25197
 Alpha  occ. eigenvalues --  -11.23939  -8.27454  -6.26633  -6.24825  -6.24537
 Alpha  occ. eigenvalues --   -1.49448  -1.11800  -1.05786  -0.95430  -0.88202
 Alpha  occ. eigenvalues --   -0.74134  -0.68282  -0.65039  -0.63760  -0.58140
 Alpha  occ. eigenvalues --   -0.56593  -0.55880  -0.55274  -0.51225  -0.50205
 Alpha  occ. eigenvalues --   -0.47035  -0.41725  -0.40806
 Alpha virt. eigenvalues --    0.03190   0.04020   0.04138   0.05126   0.06560
 Alpha virt. eigenvalues --    0.07249   0.07385   0.08312   0.11128   0.11610
 Alpha virt. eigenvalues --    0.11934   0.13344   0.14406   0.14982   0.15258

  Beta  occ. eigenvalues --  -93.98322 -20.55135 -11.37930 -11.27396 -11.25167
  Beta  occ. eigenvalues --  -11.23937  -8.26387  -6.24311  -6.23953  -6.22529
  Beta  occ. eigenvalues --   -1.48833  -1.11132  -0.99585  -0.95169  -0.86969
  Beta  occ. eigenvalues --   -0.73229  -0.67055  -0.64717  -0.62462  -0.57662
  Beta  occ. eigenvalues --   -0.56442  -0.55519  -0.54700  -0.51127  -0.50101
  Beta  occ. eigenvalues --   -0.40938  -0.38564
  Beta virt. eigenvalues --   -0.00711   0.03268   0.04041   0.04297   0.05170
  Beta virt. eigenvalues --    0.06604   0.07277   0.07401   0.08645   0.11215
  Beta virt. eigenvalues --    0.11641   0.12039   0.13806   0.14540   0.15159

 Mulliken charges and spin densities:
               1          2
     1  C   -1.048757  -0.007687
     2  C    0.799016  -0.117516
     3  S    0.307331   1.097566
     4  O   -1.230341   0.020767
     5  C   -0.117146   0.006409
     6  H    0.229663   0.001173
     7  H    0.162098  -0.000761
     8  H    0.140998   0.006116
     9  C   -0.072808  -0.005366
    10  H    0.312761  -0.000444
    11  H    0.202773  -0.000416
    12  H    0.151431  -0.001056
    13  H    0.162980   0.001216
 Sum of Mulliken charges =  -0.00000   1.00000

 Dipole moment (field-independent basis, Debye):
    X=             -1.8350    Y=              2.4595    Z=             -0.6822  Tot=              3.1436
                          Isotropic Fermi Contact Couplings
        Atom                 a.u.       MegaHertz       Gauss      10(-4) cm-1
     1  C(13)             -0.00060      -0.66936      -0.23884      -0.22328
     2  C(13)             -0.01866     -20.97766      -7.48535      -6.99739
     3  S(33)              0.20800      71.44353      25.49283      23.83100
     4  O(17)              0.03090     -18.73227      -6.68414      -6.24841
     5  C(13)              0.00595       6.69090       2.38748       2.23184
     6  H(1)              -0.00016      -0.69905      -0.24944      -0.23318
     7  H(1)               0.00044       1.95564       0.69782       0.65233
     8  H(1)               0.00044       1.97378       0.70429       0.65838

 Normal termination of Gaussian 16 at Tue Apr  8 23:16:30 2025.
