 Gaussian 16, Revision C.01,

 ----------------------------------------------------------------------
 #t hf aug-cc-pvdz symm=none int=(grid=ultrafine) guess=(read,tcheck) s
 table=(opt,rrhf)
 ----------------------------------------------------------------------
 -----
 title
 -----
 Symbolic Z-matrix:
 Charge =  0 Multiplicity = 1

 SCF Done:  E(RHF) =  -445.244163508     A.U. after   12 cycles
 Normal termination of Gaussian 16 at Wed Apr  9 00:42:03 2025.
 Gaussian 16:  ES64L-G16RevC.01  3-Jul-2019

 ----------------------------------------------------------------------
 #t hf aug-cc-pvdz iop(5/13=1,5/36=2,99/5=2) pseudo=read geom=check gue
 ss=(read,tcheck) scf=(maxcycle=1)
 ----------------------------------------------------------------------
 -----
 title
 -----
 Structure from the checkpoint file:  "BDE49_nonexpt_667_mol1.chk"
 Charge =  0 Multiplicity = 1

                         Standard orientation:
 ---------------------------------------------------------------------
 Center     Atomic      Atomic             Coordinates (Angstroms)
 Number     Number       Type             X           Y           Z
 ---------------------------------------------------------------------
      1          8           0        1.595928    0.937509   -0.021173
      2          8           0        2.493574   -1.216954    0.014301
      3          8           0        0.144538   -0.996962   -0.004965
      4          6           0        0.474738    1.820328   -0.017730
      5          6           0       -0.757857    1.168732   -0.635421
      6          6           0       -1.066408   -0.201590   -0.004851
      7          6           0       -1.549697   -0.082287    1.445181
      8          6           0       -2.081274   -0.972429   -0.848320
      9          5           0        1.389204   -0.412340   -0.001460
     10          1           0        2.239660   -2.143931    0.022451
     11          1           0        0.762309    2.708144   -0.585553
     12          1           0        0.280006    2.139092    1.012452
     13          1           0       -0.585049    1.026885   -1.707718
     14          1           0       -1.620870    1.833381   -0.529370
     15          1           0       -2.499927    0.456553    1.497080
     16          1           0       -0.822372    0.441867    2.069088
     17          1           0       -1.693588   -1.079106    1.867198
     18          1           0       -1.707138   -1.101998   -1.866317
     19          1           0       -2.251779   -1.962095   -0.418527
     20          1           0       -3.036601   -0.442357   -0.891938
 ---------------------------------------------------------------------

 SCF Done:  E(RHF) =  -445.703897567     A.U. after    2 cycles

 The electronic state is 1-A.
 Alpha  occ. eigenvalues --  -20.54170 -20.54034 -20.53899 -11.30854 -11.29570
 Alpha  occ. eigenvalues --  -11.24409 -11.23411 -11.23180  -7.65294  -1.49202
 Alpha  occ. eigenvalues --   -1.44076  -1.43266  -1.09611  -1.00701  -0.95222
 Alpha  occ. eigenvalues --   -0.88495  -0.80657  -0.73131  -0.70634  -0.68009
 Alpha  occ. eigenvalues --   -0.65797  -0.63495  -0.61493  -0.59734  -0.58265
 Alpha  occ. eigenvalues --   -0.57434  -0.54613  -0.54306  -0.53474  -0.52149
 Alpha  occ. eigenvalues --   -0.50321  -0.50210  -0.44856  -0.44638  -0.44267
 Alpha virt. eigenvalues --    0.03203   0.03477   0.03636   0.04154   0.05805
 Alpha virt. eigenvalues --    0.05871   0.05925   0.06309   0.06478   0.08818
 Alpha virt. eigenvalues --    0.09269   0.09548   0.09703   0.10805   0.11398

 Mulliken charges:
               1
     1  O   -1.459613
     2  O   -1.532428
     3  O   -1.739413
     4  C    0.811854
     5  C   -0.254352
     6  C   -0.150285
     7  C   -0.081141
     8  C    0.061307
     9  B    2.091031
    10  H    0.507473
    11  H    0.026414
    12  H    0.173084
    13  H    0.115609
    14  H    0.145826
    15  H    0.219904
    16  H    0.125654
    17  H    0.233851
    18  H    0.211126
    19  H    0.221790
    20  H    0.272308
 Sum of Mulliken charges =  -0.00000

 Dipole moment (field-independent basis, Debye):
    X=             -3.4627    Y=              0.4869    Z=             -0.0285  Tot=              3.4968

 Test job not archived.
 1\1\GINC-SE250\SP\RHF\Aug-CC-pVDZ\C5H11B1O3\OHZDE\09-Apr-2025\0\\#t hf
  aug-cc-pvdz iop(5/13=1,5/36=2,99/5=2) pseudo=read geom=check guess=(r
 ead,tcheck) scf=(maxcycle=1)\\title\\0,1\O,0,1.595928,0.937509,-0.0211
 73\O,0,2.493574,-1.216954,0.014301\O,0,0.144538,-0.996962,-0.004965\C,
 0,0.474738,1.820328,-0.01773\C,0,-0.757857,1.168732,-0.635421\C,0,-1.0
 66408,-0.20159,-0.004851\C,0,-1.549697,-0.082287,1.445181\C,0,-2.08127
 4,-0.972429,-0.84832\B,0,1.389204,-0.41234,-0.00146\H,0,2.23966,-2.143
 931,0.022451\H,0,0.762309,2.708144,-0.585553\H,0,0.280006,2.139092,1.0

 Normal termination of Gaussian 16 at Wed Apr  9 00:42:13 2025.
