 Gaussian 16, Revision C.01,

 ----------------------------------------------------------------------
 #t hf aug-cc-pvdz symm=none int=(grid=ultrafine) guess=(read,tcheck) s
 table=opt
 ----------------------------------------------------------------------
 -----
 title
 -----
 Symbolic Z-matrix:
 Charge =  0 Multiplicity = 2

 SCF Done:  E(UHF) =  -696.369260501     A.U. after   22 cycles
 Normal termination of Gaussian 16 at Tue Apr  8 23:52:56 2025.
 Gaussian 16:  ES64L-G16RevC.01  3-Jul-2019

 ----------------------------------------------------------------------
 #t hf aug-cc-pvdz iop(5/13=1,5/36=2,99/5=2) pseudo=read geom=check gue
 ss=(read,tcheck) scf=(maxcycle=1)
 ----------------------------------------------------------------------
 -----
 title
 -----
 Structure from the checkpoint file:  "BDE49_nonexpt_192_mol2.chk"
 Charge =  0 Multiplicity = 2

                         Standard orientation:
 ---------------------------------------------------------------------
 Center     Atomic      Atomic             Coordinates (Angstroms)
 Number     Number       Type             X           Y           Z
 ---------------------------------------------------------------------
      1         17           0       -1.911285   -0.008808   -0.111544
      2          5           0       -0.381499   -0.008100    0.637018
      3          6           0        1.053095    0.132176    0.078230
      4          8           0        1.643912    1.146093   -0.109882
      5          9           0        1.658832   -1.085730   -0.097685
 ---------------------------------------------------------------------

 SCF Done:  E(UHF) =  -696.659178811     A.U. after    2 cycles

 The electronic state is 2-A.
 Alpha  occ. eigenvalues -- -105.62388 -26.50611 -20.59980 -11.43830 -10.67398
 Alpha  occ. eigenvalues --   -7.84296  -7.84024  -7.83936  -7.73193  -1.64268
 Alpha  occ. eigenvalues --   -1.53305  -1.13689  -0.92556  -0.79687  -0.73089
 Alpha  occ. eigenvalues --   -0.70958  -0.68396  -0.61888  -0.58623  -0.55813
 Alpha  occ. eigenvalues --   -0.54405  -0.50595  -0.38911
 Alpha virt. eigenvalues --    0.02287   0.04129   0.04860   0.05596   0.05812
 Alpha virt. eigenvalues --    0.10883   0.11554   0.12423   0.13262   0.14781
 Alpha virt. eigenvalues --    0.16098   0.16521   0.17661   0.22009   0.22960

  Beta  occ. eigenvalues -- -105.62328 -26.50659 -20.59201 -11.44044 -10.67329
  Beta  occ. eigenvalues --   -7.84262  -7.83982  -7.83723  -7.71179  -1.64298
  Beta  occ. eigenvalues --   -1.51729  -1.12809  -0.91122  -0.78722  -0.72461
  Beta  occ. eigenvalues --   -0.70816  -0.66542  -0.61323  -0.54753  -0.54522
  Beta  occ. eigenvalues --   -0.52413  -0.48931
  Beta virt. eigenvalues --    0.01942   0.04140   0.04608   0.05360   0.06314
  Beta virt. eigenvalues --    0.07101   0.11505   0.12027   0.13557   0.14767
  Beta virt. eigenvalues --    0.15549   0.16215   0.16746   0.17965   0.22788

 Mulliken charges and spin densities:
               1          2
     1  Cl  -0.111178   0.010732
     2  B    0.235981   0.933073
     3  C    1.487270  -0.133194
     4  O   -0.943293   0.188313
     5  F   -0.668780   0.001077
 Sum of Mulliken charges =  -0.00000   1.00000

 Dipole moment (field-independent basis, Debye):
    X=             -2.1762    Y=             -0.7086    Z=              0.4333  Tot=              2.3293
                          Isotropic Fermi Contact Couplings
        Atom                 a.u.       MegaHertz       Gauss      10(-4) cm-1
     1  Cl(35)             0.05479      24.02528       8.57282       8.01397
     2  B(11)              0.30889     443.06669     158.09721     147.79114
     3  C(13)              0.00541       6.08275       2.17048       2.02899
     4  O(17)              0.05704     -34.57835     -12.33842     -11.53410
     5  F(19)             -0.01092     -45.95337     -16.39731     -15.32840
 --------------------------------------------------------
       Center         ----  Spin Dipole Couplings  ----
                      3XX-RR        3YY-RR        3ZZ-RR

 1\1\GINC-SE102\SP\UHF\Aug-CC-pVDZ\C1B1Cl1F1O1(2)\OHZDE\08-Apr-2025\0\\
 #t hf aug-cc-pvdz iop(5/13=1,5/36=2,99/5=2) pseudo=read geom=check gue
 ss=(read,tcheck) scf=(maxcycle=1)\\title\\0,2\Cl,0,-1.911285,-0.008807
 ,-0.111544\B,0,-0.381499,-0.0081,0.637018\C,0,1.053095,0.132176,0.0782
 3\O,0,1.643912,1.146093,-0.109882\F,0,1.658832,-1.08573,-0.097685\\Ver
 sion=ES64L-G16RevC.01\State=2-A\HF=-696.6591788\S2=0.776336\S2-1=0.\S2
 A=0.75024\RMSD=5.560e-03\Dipole=-0.856185,-0.2787735,0.1704584\Quadrup
 ole=-1.2422969,-0.2392436,1.4815405,-1.0486121,0.8752963,0.2379488\PG=

 Normal termination of Gaussian 16 at Tue Apr  8 23:52:58 2025.
