 Gaussian 16, Revision C.01,

 ----------------------------------------------------------------------
 #t hf aug-cc-pvdz symm=none int=(grid=ultrafine) guess=(read,tcheck) s
 table=opt
 ----------------------------------------------------------------------
 -----
 title
 -----
 Symbolic Z-matrix:
 Charge =  0 Multiplicity = 2

 SCF Done:  E(UHF) =  -989.624694159     A.U. after   19 cycles
 Normal termination of Gaussian 16 at Tue Apr  8 23:06:02 2025.
 Gaussian 16:  ES64L-G16RevC.01  3-Jul-2019

 ----------------------------------------------------------------------
 #t hf aug-cc-pvdz iop(5/13=1,5/36=2,99/5=2) pseudo=read geom=check gue
 ss=(read,tcheck) scf=(maxcycle=1)
 ----------------------------------------------------------------------
 -----
 title
 -----
 Structure from the checkpoint file:  "BDE49_expt_379_mol2.chk"
 Charge =  0 Multiplicity = 2

                         Standard orientation:
 ---------------------------------------------------------------------
 Center     Atomic      Atomic             Coordinates (Angstroms)
 Number     Number       Type             X           Y           Z
 ---------------------------------------------------------------------
      1         16           0        0.275285   -1.442329   -0.392413
      2          6           0        1.801099   -0.663731    0.288814
      3          6           0        1.744681    0.792359   -0.015253
      4          1           0        2.656632   -1.148489   -0.188070
      5          1           0        1.853412   -0.876761    1.363803
      6         16           0        0.192049    1.517050   -0.195469
      7          1           0        2.609941    1.379789   -0.288571
      8          6           0       -0.825297   -0.034040    0.072223
      9          6           0       -2.031549   -0.004964   -0.869864
     10          1           0       -1.718518    0.056161   -1.912210
     11          1           0       -2.670606    0.853078   -0.643019
     12          1           0       -2.632493   -0.908899   -0.735616
     13          6           0       -1.262659   -0.114055    1.539335
     14          1           0       -0.405833   -0.141730    2.213801
     15          1           0       -1.856608   -1.017864    1.700390
     16          1           0       -1.870928    0.755763    1.804065
 ---------------------------------------------------------------------

 SCF Done:  E(UHF) =  -989.951692184     A.U. after    2 cycles

 The electronic state is 2-A.
 Alpha  occ. eigenvalues --  -93.95561 -93.94770 -11.31560 -11.28126 -11.27018
 Alpha  occ. eigenvalues --  -11.24310 -11.24011  -8.23689  -8.22834  -6.21432
 Alpha  occ. eigenvalues --   -6.21372  -6.21256  -6.20683  -6.20509  -6.20260
 Alpha  occ. eigenvalues --   -1.16974  -1.07153  -1.01967  -0.95368  -0.92289
 Alpha  occ. eigenvalues --   -0.80338  -0.74707  -0.65830  -0.63946  -0.61449
 Alpha  occ. eigenvalues --   -0.60799  -0.58734  -0.56227  -0.52392  -0.51639
 Alpha  occ. eigenvalues --   -0.49726  -0.48273  -0.45055  -0.41963  -0.35583
 Alpha  occ. eigenvalues --   -0.29815
 Alpha virt. eigenvalues --    0.03534   0.03848   0.04298   0.04662   0.05660
 Alpha virt. eigenvalues --    0.05934   0.06701   0.07574   0.08530   0.09565
 Alpha virt. eigenvalues --    0.11020   0.11424   0.12680   0.13143   0.13832

  Beta  occ. eigenvalues --  -93.95490 -93.94728 -11.31574 -11.28479 -11.24515
  Beta  occ. eigenvalues --  -11.24310 -11.24002  -8.23608  -8.22785  -6.21529
  Beta  occ. eigenvalues --   -6.21322  -6.20823  -6.20548  -6.20440  -6.20236
  Beta  occ. eigenvalues --   -1.15827  -1.05412  -1.00936  -0.95329  -0.91064
  Beta  occ. eigenvalues --   -0.77055  -0.73858  -0.64944  -0.62649  -0.61203
  Beta  occ. eigenvalues --   -0.60037  -0.58037  -0.56082  -0.52026  -0.50210
  Beta  occ. eigenvalues --   -0.48230  -0.48082  -0.42849  -0.37572  -0.35212
  Beta virt. eigenvalues --    0.03569   0.03856   0.04315   0.04670   0.05695
  Beta virt. eigenvalues --    0.05921   0.06646   0.07563   0.08539   0.09055
  Beta virt. eigenvalues --    0.09574   0.11082   0.12128   0.12733   0.13692

 Mulliken charges and spin densities:
               1          2
     1  S    0.430639   0.041994
     2  C   -0.849087  -0.256666
     3  C   -0.168417   1.300909
     4  H    0.146459   0.007748
     5  H    0.252860   0.026726
     6  S    0.471944   0.016041
     7  H   -0.108231  -0.084971
     8  C   -1.116057  -0.065463
     9  C    0.112494  -0.001350
    10  H    0.181342   0.000868
    11  H    0.213259  -0.002605
    12  H    0.213482   0.000538
    13  C   -0.322528   0.019259
    14  H    0.123170  -0.002482
    15  H    0.200766  -0.000243
    16  H    0.217902  -0.000304
 Sum of Mulliken charges =  -0.00000   1.00000

 Dipole moment (field-independent basis, Debye):
    X=              0.2185    Y=             -0.1536    Z=              0.9177  Tot=              0.9558
                          Isotropic Fermi Contact Couplings
        Atom                 a.u.       MegaHertz       Gauss      10(-4) cm-1
     1  S(33)              0.01175       4.03494       1.43977       1.34591
     2  C(13)             -0.06156     -69.20618     -24.69449     -23.08470
     3  C(13)              0.22744     255.68181      91.23363      85.28627
     4  H(1)               0.00675      30.19267      10.77349      10.07119
     5  H(1)               0.02016      90.10895      32.15312      30.05711
     6  S(33)              0.03476      11.94031       4.26060       3.98286
     7  H(1)              -0.02324    -103.88697     -37.06945     -34.65296
     8  C(13)             -0.00060      -0.66944      -0.23887      -0.22330

 Normal termination of Gaussian 16 at Tue Apr  8 23:06:10 2025.
