 Gaussian 16, Revision C.01,

 ----------------------------------------------------------------------
 #t hf aug-cc-pvdz symm=none int=(grid=ultrafine) guess=(read,tcheck) s
 table=(opt,rrhf)
 ----------------------------------------------------------------------
 -----
 title
 -----
 Symbolic Z-matrix:
 Charge =  0 Multiplicity = 1

 SCF Done:  E(RHF) =  -1081.84164829     A.U. after   13 cycles
 Normal termination of Gaussian 16 at Tue Apr  8 23:43:59 2025.
 Gaussian 16:  ES64L-G16RevC.01  3-Jul-2019

 ----------------------------------------------------------------------
 #t hf aug-cc-pvdz iop(5/13=1,5/36=2,99/5=2) pseudo=read geom=check gue
 ss=(read,tcheck) scf=(maxcycle=1)
 ----------------------------------------------------------------------
 -----
 title
 -----
 Structure from the checkpoint file:  "BDE49_nonexpt_1709_mol1.chk"
 Charge =  0 Multiplicity = 1

                         Standard orientation:
 ---------------------------------------------------------------------
 Center     Atomic      Atomic             Coordinates (Angstroms)
 Number     Number       Type             X           Y           Z
 ---------------------------------------------------------------------
      1          6           0       -1.765928    0.085508    0.309065
      2         16           0       -0.436409   -0.818834   -0.650647
      3         15           0        1.279949    0.050958    0.204513
      4          8           0        1.174950    0.342410    1.633928
      5          8           0        2.425113   -0.974024   -0.270483
      6          6           0       -2.016081    1.481254   -0.257118
      7          1           0       -2.363130    1.427897   -1.292668
      8          1           0       -1.114956    2.095612   -0.227354
      9          6           0       -3.015862   -0.794707    0.290326
     10          1           0       -1.370275    0.154196    1.322895
     11          1           0       -3.810414   -0.308382    0.863917
     12          1           0       -2.824205   -1.773445    0.733717
     13          1           0       -3.384488   -0.943864   -0.728815
     14          1           0       -2.786459    1.985451    0.335729
     15          1           0        2.428953   -1.785719    0.252253
     16          8           0        1.669029    1.339616   -0.658383
     17          1           0        1.642767    1.188886   -1.611163
 ---------------------------------------------------------------------

 SCF Done:  E(RHF) =  -1082.30089240     A.U. after    2 cycles

 The electronic state is 1-A.
 Alpha  occ. eigenvalues --  -93.96162 -84.44963 -20.60276 -20.59937 -20.50975
 Alpha  occ. eigenvalues --  -11.29163 -11.24581 -11.24133  -8.24463  -6.90052
 Alpha  occ. eigenvalues --   -6.22242  -6.22084  -6.21889  -4.44161  -4.43409
 Alpha  occ. eigenvalues --   -4.42402  -1.54296  -1.48003  -1.39609  -1.11786
 Alpha  occ. eigenvalues --   -0.99730  -0.95399  -0.85089  -0.79698  -0.75146
 Alpha  occ. eigenvalues --   -0.69204  -0.65019  -0.63533  -0.61417  -0.59379
 Alpha  occ. eigenvalues --   -0.58537  -0.57320  -0.56188  -0.54998  -0.52814
 Alpha  occ. eigenvalues --   -0.51835  -0.48905  -0.46934  -0.46504  -0.43198
 Alpha  occ. eigenvalues --   -0.38780
 Alpha virt. eigenvalues --    0.03343   0.03812   0.03947   0.04665   0.05484
 Alpha virt. eigenvalues --    0.06470   0.07278   0.07678   0.08228   0.09699
 Alpha virt. eigenvalues --    0.11423   0.11960   0.12233   0.13465   0.14095

 Mulliken charges:
               1
     1  C   -1.028100
     2  S   -0.295242
     3  P    3.863391
     4  O   -1.535715
     5  O   -1.291704
     6  C   -0.223923
     7  H    0.204949
     8  H    0.081249
     9  C   -0.101397
    10  H    0.179375
    11  H    0.196509
    12  H    0.153872
    13  H    0.217071
    14  H    0.189735
    15  H    0.360779
    16  O   -1.360737
    17  H    0.389888
 Sum of Mulliken charges =  -0.00000

 Dipole moment (field-independent basis, Debye):
    X=             -1.7631    Y=             -1.1523    Z=             -2.4154  Tot=              3.2048

 Test job not archived.
 1\1\GINC-SE453\SP\RHF\Aug-CC-pVDZ\C3H9O3P1S1\OHZDE\08-Apr-2025\0\\#t h
 f aug-cc-pvdz iop(5/13=1,5/36=2,99/5=2) pseudo=read geom=check guess=(
 read,tcheck) scf=(maxcycle=1)\\title\\0,1\C,0,-1.765928,0.085508,0.309
 065\S,0,-0.436409,-0.818834,-0.650647\P,0,1.279949,0.050958,0.204513\O
 ,0,1.17495,0.34241,1.633928\O,0,2.425113,-0.974024,-0.270483\C,0,-2.01
 6081,1.481254,-0.257118\H,0,-2.36313,1.427897,-1.292668\H,0,-1.114956,
 2.095612,-0.227354\C,0,-3.015862,-0.794707,0.290326\H,0,-1.370275,0.15
 4196,1.322895\H,0,-3.810414,-0.308382,0.863917\H,0,-2.824205,-1.773445

 Normal termination of Gaussian 16 at Tue Apr  8 23:44:06 2025.
