 Gaussian 16, Revision C.01,

 ----------------------------------------------------------------------
 #t hf aug-cc-pvdz symm=none int=(grid=ultrafine) guess=(read,tcheck) s
 table=(opt,rrhf)
 ----------------------------------------------------------------------
 -----
 title
 -----
 Symbolic Z-matrix:
 Charge =  0 Multiplicity = 1

 SCF Done:  E(RHF) =  -609.649661306     A.U. after   15 cycles

 1\1\GINC-SE368\Stability\RHF\Aug-CC-pVDZ\Cl1H1O2\OHZDE\08-Apr-2025\0\\
 #t hf aug-cc-pvdz symm=none int=(grid=ultrafine) guess=(read,tcheck) s
 table=(opt,rrhf)\\title\\0,1\O,0,-1.539502,-0.31872,-0.123923\O,0,-0.5
 42198,0.646129,0.031523\H,0,-1.693656,-0.61456,0.788804\Cl,0,1.079251,
 -0.117924,-0.002918\\Version=ES64L-G16RevC.01\HF=-609.6496613\RMSD=6.6
 81e-09\Dipole=-0.1419494,-0.3844984,0.6110589\Quadrupole=1.1023211,-0.
 8537583,-0.2485628,0.7179839,-2.2824827,-0.9018216\PG=Unknown\\@
 The archive entry for this job was punched.

 Normal termination of Gaussian 16 at Tue Apr  8 22:54:33 2025.
 Gaussian 16:  ES64L-G16RevC.01  3-Jul-2019

 ----------------------------------------------------------------------
 #t hf aug-cc-pvdz iop(5/13=1,5/36=2,99/5=2) pseudo=read geom=check gue
 ss=(read,tcheck) scf=(maxcycle=1)
 ----------------------------------------------------------------------
 -----
 title
 -----
 Structure from the checkpoint file:  "BDE49_expt_1842_mol1.chk"
 Charge =  0 Multiplicity = 1

                         Standard orientation:
 ---------------------------------------------------------------------
 Center     Atomic      Atomic             Coordinates (Angstroms)
 Number     Number       Type             X           Y           Z
 ---------------------------------------------------------------------
      1          8           0       -1.539502   -0.318720   -0.123923
      2          8           0       -0.542198    0.646129    0.031523
      3          1           0       -1.693656   -0.614560    0.788804
      4         17           0        1.079251   -0.117924   -0.002918
 ---------------------------------------------------------------------

 SCF Done:  E(RHF) =  -609.866231889     A.U. after    2 cycles

 The electronic state is 1-A.
 Alpha  occ. eigenvalues -- -105.63234 -20.70400 -20.65818 -10.67470  -7.84416
 Alpha  occ. eigenvalues --   -7.83895  -7.83868  -1.64363  -1.30137  -1.02790
 Alpha  occ. eigenvalues --   -0.76101  -0.67640  -0.66512  -0.56806  -0.49938
 Alpha  occ. eigenvalues --   -0.49395  -0.46526
 Alpha virt. eigenvalues --    0.03764   0.04050   0.11678   0.13546   0.13782
 Alpha virt. eigenvalues --    0.16187   0.17420   0.19342   0.21571   0.23113
 Alpha virt. eigenvalues --    0.24950   0.27407   0.29738   0.32841   0.37246

 Mulliken charges:
               1
     1  O   -0.386937
     2  O   -0.351151
     3  H    0.441807
     4  Cl   0.296281
 Sum of Mulliken charges =  -0.00000

 Dipole moment (field-independent basis, Debye):
    X=             -0.5855    Y=             -0.8691    Z=              1.5192  Tot=              1.8456

 Test job not archived.
 1\1\GINC-SE368\SP\RHF\Aug-CC-pVDZ\Cl1H1O2\OHZDE\08-Apr-2025\0\\#t hf a
 ug-cc-pvdz iop(5/13=1,5/36=2,99/5=2) pseudo=read geom=check guess=(rea
 d,tcheck) scf=(maxcycle=1)\\title\\0,1\O,0,-1.539502,-0.31872,-0.12392
 3\O,0,-0.542198,0.646129,0.031523\H,0,-1.693656,-0.61456,0.788804\Cl,0
 ,1.079251,-0.117924,-0.002918\\Version=ES64L-G16RevC.01\State=1-A\HF=-
 609.8662319\RMSD=8.764e-03\Dipole=-0.2303648,-0.3419196,0.5977054\Quad
 rupole=1.0301993,-0.7839327,-0.2462666,0.731185,-2.2347773,-0.8844309\
 PG=C01 [X(Cl1H1O2)]\\@

 Normal termination of Gaussian 16 at Tue Apr  8 22:54:34 2025.
