 Gaussian 16, Revision C.01,

 ----------------------------------------------------------------------
 #t hf aug-cc-pvdz symm=none int=(grid=ultrafine) guess=(read,tcheck) s
 table=(opt,rrhf)
 ----------------------------------------------------------------------
 -----
 title
 -----
 Symbolic Z-matrix:
 Charge =  0 Multiplicity = 1

 SCF Done:  E(RHF) =  -266.879942072     A.U. after   13 cycles
 Normal termination of Gaussian 16 at Tue Apr  8 22:36:26 2025.
 Gaussian 16:  ES64L-G16RevC.01  3-Jul-2019

 ----------------------------------------------------------------------
 #t hf aug-cc-pvdz iop(5/13=1,5/36=2,99/5=2) pseudo=read geom=check gue
 ss=(read,tcheck) scf=(maxcycle=1)
 ----------------------------------------------------------------------
 -----
 title
 -----
 Structure from the checkpoint file:  "BDE49_expt_1113_mol1.chk"
 Charge =  0 Multiplicity = 1

                         Standard orientation:
 ---------------------------------------------------------------------
 Center     Atomic      Atomic             Coordinates (Angstroms)
 Number     Number       Type             X           Y           Z
 ---------------------------------------------------------------------
      1          6           0       -0.653807   -0.740079    0.000008
      2          6           0        0.579841    0.153484    0.000030
      3          8           0        0.558938    1.350524   -0.000005
      4          8           0        1.771709   -0.507563   -0.000020
      5          1           0        1.623674   -1.460584   -0.000027
      6          6           0       -1.960951    0.047267   -0.000001
      7          1           0       -0.594924   -1.397871    0.876217
      8          1           0       -0.594906   -1.397861   -0.876207
      9          1           0       -2.026023    0.689567    0.879561
     10          1           0       -2.817481   -0.630543   -0.000015
     11          1           0       -2.026004    0.689579   -0.879556
 ---------------------------------------------------------------------

 SCF Done:  E(RHF) =  -267.152695214     A.U. after    2 cycles

 The electronic state is 1-A.
 Alpha  occ. eigenvalues --  -20.60189 -20.53533 -11.39421 -11.27151 -11.24136
 Alpha  occ. eigenvalues --   -1.54246  -1.45553  -1.07418  -0.91288  -0.82373
 Alpha  occ. eigenvalues --   -0.72598  -0.66896  -0.66310  -0.61271  -0.59655
 Alpha  occ. eigenvalues --   -0.54142  -0.53725  -0.51904  -0.47462  -0.44237
 Alpha virt. eigenvalues --    0.02517   0.03722   0.04118   0.05337   0.06834
 Alpha virt. eigenvalues --    0.07543   0.09942   0.11796   0.11827   0.12973
 Alpha virt. eigenvalues --    0.13897   0.14895   0.16017   0.16749   0.17000

 Mulliken charges:
               1
     1  C   -0.485667
     2  C    1.984129
     3  O   -1.165262
     4  O   -1.284277
     5  H    0.421141
     6  C   -0.321236
     7  H    0.183420
     8  H    0.183405
     9  H    0.172336
    10  H    0.139669
    11  H    0.172341
 Sum of Mulliken charges =  -0.00000

 Dipole moment (field-independent basis, Debye):
    X=             -1.7592    Y=             -4.1592    Z=              0.0001  Tot=              4.5159

 Test job not archived.
 1\1\GINC-SE016\SP\RHF\Aug-CC-pVDZ\C3H6O2\OHZDE\08-Apr-2025\0\\#t hf au
 g-cc-pvdz iop(5/13=1,5/36=2,99/5=2) pseudo=read geom=check guess=(read
 ,tcheck) scf=(maxcycle=1)\\title\\0,1\C,0,0.653807,-0.740079,-0.000008
 \C,0,-0.579841,0.153484,-0.00003\O,0,-0.558938,1.350524,0.000005\O,0,-
 1.771709,-0.507562,0.00002\H,0,-1.623674,-1.460583,0.000027\C,0,1.9609
 51,0.047267,0.000001\H,0,0.594924,-1.397871,-0.876217\H,0,0.594906,-1.
 397861,0.876207\H,0,2.026023,0.689567,-0.879561\H,0,2.817481,-0.630543
 ,0.000015\H,0,2.026004,0.689579,0.879556\\Version=ES64L-G16RevC.01\Sta

 Normal termination of Gaussian 16 at Tue Apr  8 22:36:29 2025.
