 Gaussian 16, Revision C.01,

 ----------------------------------------------------------------------
 #t hf aug-cc-pvdz symm=none int=(grid=ultrafine) guess=(read,tcheck) s
 table=(opt,rrhf)
 ----------------------------------------------------------------------
 -----
 title
 -----
 Symbolic Z-matrix:
 Charge =  0 Multiplicity = 1

 SCF Done:  E(RHF) =  -140.361063383     A.U. after   11 cycles
 Normal termination of Gaussian 16 at Wed Apr  9 00:36:48 2025.
 Gaussian 16:  ES64L-G16RevC.01  3-Jul-2019

 ----------------------------------------------------------------------
 #t hf aug-cc-pvdz iop(5/13=1,5/36=2,99/5=2) pseudo=read geom=check gue
 ss=(read,tcheck) scf=(maxcycle=1)
 ----------------------------------------------------------------------
 -----
 title
 -----
 Structure from the checkpoint file:  "BDE49_nonexpt_536_mol1.chk"
 Charge =  0 Multiplicity = 1

                         Standard orientation:
 ---------------------------------------------------------------------
 Center     Atomic      Atomic             Coordinates (Angstroms)
 Number     Number       Type             X           Y           Z
 ---------------------------------------------------------------------
      1          5           0       -1.293799    0.216098   -0.000021
      2          1           0       -2.305468   -0.415003    0.000034
      3          1           0       -1.280230    1.414915    0.000034
      4          8           0       -0.146861   -0.479612   -0.000005
      5          6           0        1.136646    0.146253    0.000008
      6          1           0        1.682033   -0.178662    0.888099
      7          1           0        1.045619    1.236304    0.000004
      8          1           0        1.682051   -0.178667   -0.888071
 ---------------------------------------------------------------------

 SCF Done:  E(RHF) =  -140.508412812     A.U. after    2 cycles

 The electronic state is 1-A.
 Alpha  occ. eigenvalues --  -20.55927 -11.29607  -7.61308  -1.47122  -0.95450
 Alpha  occ. eigenvalues --   -0.73821  -0.64905  -0.63973  -0.59956  -0.52282
 Alpha  occ. eigenvalues --   -0.47661  -0.45178
 Alpha virt. eigenvalues --    0.03686   0.04102   0.04558   0.05126   0.07221
 Alpha virt. eigenvalues --    0.07503   0.08406   0.11364   0.13050   0.13678
 Alpha virt. eigenvalues --    0.14233   0.15999   0.17011   0.17276   0.23095

 Mulliken charges:
               1
     1  B    0.293601
     2  H    0.097856
     3  H   -0.077239
     4  O   -1.013621
     5  C    0.449414
     6  H    0.087887
     7  H    0.074212
     8  H    0.087889
 Sum of Mulliken charges =  -0.00000

 Dipole moment (field-independent basis, Debye):
    X=              1.3698    Y=              0.8733    Z=             -0.0001  Tot=              1.6245

 Test job not archived.
 1\1\GINC-SE150\SP\RHF\Aug-CC-pVDZ\C1H5B1O1\OHZDE\09-Apr-2025\0\\#t hf
 aug-cc-pvdz iop(5/13=1,5/36=2,99/5=2) pseudo=read geom=check guess=(re
 ad,tcheck) scf=(maxcycle=1)\\title\\0,1\B,0,1.293799,0.216098,0.000021
 \H,0,2.305468,-0.415003,-0.000034\H,0,1.28023,1.414915,-0.000034\O,0,0
 .146861,-0.479612,0.000005\C,0,-1.136646,0.146253,-0.000008\H,0,-1.682
 033,-0.178662,-0.888099\H,0,-1.045619,1.236304,-0.000004\H,0,-1.682051
 ,-0.178667,0.888071\\Version=ES64L-G16RevC.01\State=1-A\HF=-140.508412
 8\RMSD=7.942e-03\Dipole=-0.5389034,0.343585,0.0000275\Quadrupole=0.382

 Normal termination of Gaussian 16 at Wed Apr  9 00:36:50 2025.
