 Gaussian 16, Revision C.01,

 ----------------------------------------------------------------------
 #t hf aug-cc-pvdz symm=none int=(grid=ultrafine) guess=(read,tcheck) s
 table=(opt,rrhf)
 ----------------------------------------------------------------------
 -----
 title
 -----
 Symbolic Z-matrix:
 Charge =  0 Multiplicity = 1

 SCF Done:  E(RHF) =  -383.664027240     A.U. after   15 cycles

 1\1\GINC-SE080\Stability\RHF\Aug-CC-pVDZ\C8H10O1\OHZDE\08-Apr-2025\0\\
 #t hf aug-cc-pvdz symm=none int=(grid=ultrafine) guess=(read,tcheck) s
 table=(opt,rrhf)\\title\\0,1\C,0,-2.286609,-0.675232,0.\C,0,-1.844579,
 0.649638,0.\C,0,-0.490714,0.971134,0.\C,0,-1.353918,-1.702806,0.\C,0,0
 .012465,-1.414438,0.\C,0,0.440909,-0.086606,0.\H,0,-1.677618,-2.737638
 ,0.\H,0,0.727451,-2.226203,0.\O,0,1.753685,0.296325,0.\C,0,2.755899,-0
 .70763,0.000001\H,0,3.707951,-0.178829,0.000001\H,0,2.693877,-1.339219
 ,-0.8936\H,0,2.693876,-1.339219,0.893601\H,0,-3.347758,-0.895003,-0.00

 Normal termination of Gaussian 16 at Tue Apr  8 22:42:43 2025.
 Gaussian 16:  ES64L-G16RevC.01  3-Jul-2019

 ----------------------------------------------------------------------
 #t hf aug-cc-pvdz iop(5/13=1,5/36=2,99/5=2) pseudo=read geom=check gue
 ss=(read,tcheck) scf=(maxcycle=1)
 ----------------------------------------------------------------------
 -----
 title
 -----
 Structure from the checkpoint file:  "BDE49_expt_1409_mol1.chk"
 Charge =  0 Multiplicity = 1

                         Standard orientation:
 ---------------------------------------------------------------------
 Center     Atomic      Atomic             Coordinates (Angstroms)
 Number     Number       Type             X           Y           Z
 ---------------------------------------------------------------------
      1          6           0       -2.286609   -0.675232   -0.000000
      2          6           0       -1.844579    0.649638   -0.000000
      3          6           0       -0.490714    0.971134   -0.000000
      4          6           0       -1.353918   -1.702806   -0.000000
      5          6           0        0.012465   -1.414438   -0.000000
      6          6           0        0.440909   -0.086606   -0.000000
      7          1           0       -1.677618   -2.737638   -0.000000
      8          1           0        0.727451   -2.226203   -0.000000
      9          8           0        1.753685    0.296325   -0.000000
     10          6           0        2.755899   -0.707630    0.000001
     11          1           0        3.707951   -0.178829    0.000001
     12          1           0        2.693877   -1.339219   -0.893600
     13          1           0        2.693876   -1.339219    0.893601
     14          1           0       -3.347758   -0.895003   -0.000001
     15          6           0       -0.006538    2.397151   -0.000000
     16          1           0       -0.848042    3.092373   -0.000001
     17          1           0        0.614571    2.604358   -0.876455
     18          1           0        0.614570    2.604358    0.876455
     19          1           0       -2.569845    1.457158   -0.000001
 ---------------------------------------------------------------------

 SCF Done:  E(RHF) =  -384.063134937     A.U. after    2 cycles

 The electronic state is 1-A.
 Alpha  occ. eigenvalues --  -20.56991 -11.30026 -11.29496 -11.24041 -11.23890
 Alpha  occ. eigenvalues --  -11.23739 -11.23537 -11.23018 -11.22619  -1.49382
 Alpha  occ. eigenvalues --   -1.14967  -1.04731  -1.01280  -0.95294  -0.92703
 Alpha  occ. eigenvalues --   -0.82255  -0.80681  -0.72055  -0.67925  -0.65761
 Alpha  occ. eigenvalues --   -0.65624  -0.62330  -0.59246  -0.57635  -0.57434
 Alpha  occ. eigenvalues --   -0.54869  -0.52758  -0.51469  -0.50648  -0.48120
 Alpha  occ. eigenvalues --   -0.46621  -0.33974  -0.31118
 Alpha virt. eigenvalues --    0.03369   0.03501   0.03947   0.04805   0.04867
 Alpha virt. eigenvalues --    0.05150   0.07098   0.07146   0.07990   0.08847
 Alpha virt. eigenvalues --    0.11000   0.11180   0.12198   0.12290   0.12918

 Mulliken charges:
               1
     1  C   -0.050192
     2  C    0.867726
     3  C    0.148177
     4  C    0.033619
     5  C   -0.130994
     6  C    2.206255
     7  H   -0.230983
     8  H   -0.445905
     9  O   -2.057889
    10  C    0.121008
    11  H   -0.045200
    12  H    0.177381
    13  H    0.177379
    14  H   -0.239947
    15  C   -0.772887
    16  H    0.007750
    17  H    0.257507
    18  H    0.257506
    19  H   -0.280312
 Sum of Mulliken charges =   0.00000

 Dipole moment (field-independent basis, Debye):
    X=              0.9167    Y=             -0.7698    Z=             -0.0000  Tot=              1.1971

 Test job not archived.
 1\1\GINC-SE080\SP\RHF\Aug-CC-pVDZ\C8H10O1\OHZDE\08-Apr-2025\0\\#t hf a
 ug-cc-pvdz iop(5/13=1,5/36=2,99/5=2) pseudo=read geom=check guess=(rea
 d,tcheck) scf=(maxcycle=1)\\title\\0,1\C,0,-2.286609,-0.675232,0.\C,0,
 -1.844579,0.649638,0.\C,0,-0.490714,0.971134,0.\C,0,-1.353918,-1.70280
 6,0.\C,0,0.012465,-1.414438,0.\C,0,0.440909,-0.086606,0.\H,0,-1.677618
 ,-2.737638,0.\H,0,0.727451,-2.226203,0.\O,0,1.753685,0.296325,0.\C,0,2
 .755899,-0.70763,0.000001\H,0,3.707951,-0.178829,0.000001\H,0,2.693877
 ,-1.339219,-0.8936\H,0,2.693876,-1.339219,0.893601\H,0,-3.347758,-0.89

 Normal termination of Gaussian 16 at Tue Apr  8 22:42:52 2025.
