 Gaussian 16, Revision C.01,

 ----------------------------------------------------------------------
 #t hf aug-cc-pvdz symm=none int=(grid=ultrafine) guess=(read,tcheck) s
 table=(opt,rrhf)
 ----------------------------------------------------------------------
 -----
 title
 -----
 Symbolic Z-matrix:
 Charge =  0 Multiplicity = 1

 SCF Done:  E(RHF) =  -1070.63867293     A.U. after   13 cycles
 Normal termination of Gaussian 16 at Wed Apr  9 00:12:39 2025.
 Gaussian 16:  ES64L-G16RevC.01  3-Jul-2019

 ----------------------------------------------------------------------
 #t hf aug-cc-pvdz iop(5/13=1,5/36=2,99/5=2) pseudo=read geom=check gue
 ss=(read,tcheck) scf=(maxcycle=1)
 ----------------------------------------------------------------------
 -----
 title
 -----
 Structure from the checkpoint file:  "BDE49_nonexpt_2426_mol1.chk"
 Charge =  0 Multiplicity = 1

                         Standard orientation:
 ---------------------------------------------------------------------
 Center     Atomic      Atomic             Coordinates (Angstroms)
 Number     Number       Type             X           Y           Z
 ---------------------------------------------------------------------
      1         14           0        2.088929    0.721082   -0.231751
      2         14           0        0.628484   -0.987289    0.481934
      3          1           0        3.413644    0.468291    0.383913
      4          1           0        1.577445    2.038359    0.200309
      5          1           0        2.206526    0.669325   -1.705828
      6         16           0       -1.361847   -0.824780   -0.469515
      7          1           0        0.434702   -1.013705    1.948171
      8          1           0        1.046534   -2.326961    0.009694
      9          6           0       -1.759544    0.739941    0.059057
     10          7           0       -2.053687    1.806917    0.402725
 ---------------------------------------------------------------------

 SCF Done:  E(RHF) =  -1070.85440170     A.U. after    2 cycles

 The electronic state is 1-A.
 Alpha  occ. eigenvalues --  -94.00414 -69.58481 -69.55092 -15.52484 -11.30995
 Alpha  occ. eigenvalues --   -8.28594  -6.26431  -6.26205  -6.26003  -6.25422
 Alpha  occ. eigenvalues --   -6.22295  -4.00803  -4.00683  -4.00641  -3.97664
 Alpha  occ. eigenvalues --   -3.97644  -3.97635  -1.24351  -1.08350  -0.80788
 Alpha  occ. eigenvalues --   -0.73648  -0.66610  -0.60112  -0.56817  -0.55977
 Alpha  occ. eigenvalues --   -0.53099  -0.51241  -0.50411  -0.47038  -0.44811
 Alpha  occ. eigenvalues --   -0.40006
 Alpha virt. eigenvalues --    0.03061   0.03337   0.04352   0.05265   0.06443
 Alpha virt. eigenvalues --    0.06707   0.07148   0.08144   0.08745   0.09039
 Alpha virt. eigenvalues --    0.09375   0.09929   0.10549   0.11585   0.12234

 Mulliken charges:
               1
     1  Si   0.359766
     2  Si   0.883750
     3  H   -0.106128
     4  H   -0.058759
     5  H   -0.113612
     6  S   -0.035289
     7  H   -0.108700
     8  H   -0.124876
     9  C   -1.356581
    10  N    0.660429
 Sum of Mulliken charges =   0.00000

 Dipole moment (field-independent basis, Debye):
    X=              3.4377    Y=             -3.4322    Z=             -0.4490  Tot=              4.8784

 Test job not archived.
 1\1\GINC-SE336\SP\RHF\Aug-CC-pVDZ\C1H5N1S1Si2\OHZDE\09-Apr-2025\0\\#t
 hf aug-cc-pvdz iop(5/13=1,5/36=2,99/5=2) pseudo=read geom=check guess=
 (read,tcheck) scf=(maxcycle=1)\\title\\0,1\Si,0,2.088929,0.721082,-0.2
 31751\Si,0,0.628484,-0.987289,0.481934\H,0,3.413644,0.468291,0.383913\
 H,0,1.577445,2.038359,0.200309\H,0,2.206526,0.669325,-1.705828\S,0,-1.
 361847,-0.82478,-0.469515\H,0,0.434702,-1.013705,1.948171\H,0,1.046534
 ,-2.326961,0.009694\C,0,-1.759544,0.739941,0.059057\N,0,-2.053687,1.80
 6917,0.402725\\Version=ES64L-G16RevC.01\State=1-A\HF=-1070.8544017\RMS

 Normal termination of Gaussian 16 at Wed Apr  9 00:12:44 2025.
