 Gaussian 16, Revision C.01,

 ----------------------------------------------------------------------
 #t hf aug-cc-pvdz symm=none int=(grid=ultrafine) guess=(read,tcheck) s
 table=opt
 ----------------------------------------------------------------------
 -----
 title
 -----
 Symbolic Z-matrix:
 Charge =  0 Multiplicity = 2

 SCF Done:  E(UHF) =  -1309.07134696     A.U. after   18 cycles
 Normal termination of Gaussian 16 at Tue Apr  8 23:05:11 2025.
 Gaussian 16:  ES64L-G16RevC.01  3-Jul-2019

 ----------------------------------------------------------------------
 #t hf aug-cc-pvdz iop(5/13=1,5/36=2,99/5=2) pseudo=read geom=check gue
 ss=(read,tcheck) scf=(maxcycle=1)
 ----------------------------------------------------------------------
 -----
 title
 -----
 Structure from the checkpoint file:  "BDE49_expt_381_mol2.chk"
 Charge =  0 Multiplicity = 2

                         Standard orientation:
 ---------------------------------------------------------------------
 Center     Atomic      Atomic             Coordinates (Angstroms)
 Number     Number       Type             X           Y           Z
 ---------------------------------------------------------------------
      1          6           0        0.144708    0.895346    1.373181
      2         16           0       -0.849568    1.560001    0.000000
      3          6           0        0.144708    0.895346   -1.373181
      4         16           0        0.144708   -0.925357   -1.556202
      5          1           0        1.173448    1.248669   -1.288230
      6          1           0       -0.291270    1.285197   -2.292667
      7         16           0        0.144708   -0.925357    1.556202
      8          1           0       -0.291270    1.285197    2.292667
      9          1           0        1.173448    1.248669    1.288230
     10          6           0        0.726245   -1.449342   -0.000000
     11          1           0        1.104093   -2.464420   -0.000000
 ---------------------------------------------------------------------

 SCF Done:  E(UHF) =  -1309.37060851     A.U. after    2 cycles

 The electronic state is 2-A'.
 Alpha  occ. eigenvalues --  -93.97036 -93.97030 -93.96562 -11.31414 -11.31385
 Alpha  occ. eigenvalues --  -11.30364  -8.25137  -8.25105  -8.24628  -6.22953
 Alpha  occ. eigenvalues --   -6.22940  -6.22755  -6.22754  -6.22629  -6.22629
 Alpha  occ. eigenvalues --   -6.22434  -6.22293  -6.22057  -1.16683  -1.07557
 Alpha  occ. eigenvalues --   -1.07356  -0.90362  -0.88721  -0.77314  -0.67065
 Alpha  occ. eigenvalues --   -0.63098  -0.59094  -0.58511  -0.56096  -0.54552
 Alpha  occ. eigenvalues --   -0.53382  -0.46189  -0.44359  -0.37211  -0.35975
 Alpha  occ. eigenvalues --   -0.30872
 Alpha virt. eigenvalues --    0.03681   0.03838   0.04193   0.04696   0.07018
 Alpha virt. eigenvalues --    0.07665   0.07829   0.10091   0.11770   0.12383
 Alpha virt. eigenvalues --    0.12394   0.13486   0.13699   0.15565   0.15588

  Beta  occ. eigenvalues --  -93.97005 -93.96998 -93.96566 -11.31350 -11.31320
  Beta  occ. eigenvalues --  -11.27935  -8.25103  -8.25071  -8.24631  -6.22991
  Beta  occ. eigenvalues --   -6.22982  -6.22792  -6.22792  -6.22450  -6.22369
  Beta  occ. eigenvalues --   -6.22366  -6.22302  -6.22063  -1.15337  -1.06878
  Beta  occ. eigenvalues --   -1.05363  -0.90109  -0.86504  -0.74700  -0.66565
  Beta  occ. eigenvalues --   -0.62758  -0.58128  -0.57115  -0.54949  -0.54437
  Beta  occ. eigenvalues --   -0.48073  -0.44746  -0.40665  -0.35718  -0.35678
  Beta virt. eigenvalues --    0.03323   0.03856   0.04238   0.04732   0.07033
  Beta virt. eigenvalues --    0.07043   0.07860   0.07874   0.10237   0.11914
  Beta virt. eigenvalues --    0.12555   0.13048   0.13758   0.13921   0.15587

 Mulliken charges and spin densities:
               1          2
     1  C   -1.046479  -0.002949
     2  S    0.539034  -0.008395
     3  C   -1.046479  -0.002949
     4  S    0.572391  -0.020533
     5  H    0.298190   0.004967
     6  H    0.248165  -0.003438
     7  S    0.572391  -0.020533
     8  H    0.248165  -0.003438
     9  H    0.298190   0.004967
    10  C   -0.699178   1.145254
    11  H    0.015609  -0.092953
 Sum of Mulliken charges =  -0.00000   1.00000

 Dipole moment (field-independent basis, Debye):
    X=              1.4238    Y=              1.1033    Z=              0.0000  Tot=              1.8013
                          Isotropic Fermi Contact Couplings
        Atom                 a.u.       MegaHertz       Gauss      10(-4) cm-1
     1  C(13)              0.01349      15.16140       5.40997       5.05730
     2  S(33)              0.00791       2.71756       0.96969       0.90648
     3  C(13)              0.01349      15.16140       5.40997       5.05730
     4  S(33)              0.00524       1.80108       0.64267       0.60077
     5  H(1)               0.00121       5.39676       1.92570       1.80016
     6  H(1)              -0.00103      -4.58463      -1.63591      -1.52927
     7  S(33)              0.00524       1.80108       0.64267       0.60077
     8  H(1)              -0.00103      -4.58463      -1.63591      -1.52927

 Normal termination of Gaussian 16 at Tue Apr  8 23:05:16 2025.
