 Gaussian 16, Revision C.01,

 ----------------------------------------------------------------------
 #t hf aug-cc-pvdz symm=none int=(grid=ultrafine) guess=(read,tcheck) s
 table=opt
 ----------------------------------------------------------------------
 -----
 title
 -----
 Symbolic Z-matrix:
 Charge =  0 Multiplicity = 2

 SCF Done:  E(UHF) =  -273.804190363     A.U. after   16 cycles
 Normal termination of Gaussian 16 at Tue Apr  8 22:49:26 2025.
 Gaussian 16:  ES64L-G16RevC.01  3-Jul-2019

 ----------------------------------------------------------------------
 #t hf aug-cc-pvdz iop(5/13=1,5/36=2,99/5=2) pseudo=read geom=check gue
 ss=(read,tcheck) scf=(maxcycle=1)
 ----------------------------------------------------------------------
 -----
 title
 -----
 Structure from the checkpoint file:  "BDE49_expt_1667_mol2.chk"
 Charge =  0 Multiplicity = 2

                         Standard orientation:
 ---------------------------------------------------------------------
 Center     Atomic      Atomic             Coordinates (Angstroms)
 Number     Number       Type             X           Y           Z
 ---------------------------------------------------------------------
      1          6           0        2.586916    0.427994    0.061343
      2          6           0        1.322313   -0.363612    0.104323
      3          6           0        0.046878    0.482484   -0.015725
      4          1           0        1.272517   -0.945293    1.044146
      5          1           0        1.336729   -1.123506   -0.691285
      6          6           0        3.911903   -0.231247   -0.115668
      7          1           0        4.223228   -0.785183    0.786638
      8          1           0        4.702690    0.491398   -0.332300
      9          1           0        3.891599   -0.966635   -0.929690
     10          1           0        2.557280    1.464240    0.385467
     11          6           0       -1.243471   -0.341181    0.044059
     12          1           0        0.078946    1.044974   -0.956532
     13          1           0        0.037612    1.230419    0.787191
     14          6           0       -2.517520    0.503247   -0.072268
     15          1           0       -1.270228   -0.906422    0.984939
     16          1           0       -1.233426   -1.090058   -0.758731
     17          6           0       -3.802622   -0.327445   -0.013457
     18          1           0       -2.490595    1.068211   -1.011908
     19          1           0       -2.528870    1.250561    0.730436
     20          1           0       -3.837089   -1.060602   -0.825454
     21          1           0       -4.691441    0.303735   -0.098743
     22          1           0       -3.875328   -0.877280    0.930184
 ---------------------------------------------------------------------

 SCF Done:  E(UHF) =  -274.111373207     A.U. after    2 cycles

 The electronic state is 2-A.
 Alpha  occ. eigenvalues --  -11.23063 -11.22489 -11.22419 -11.22411 -11.22326
 Alpha  occ. eigenvalues --  -11.22200 -11.22035  -1.09514  -1.05583  -0.99437
 Alpha  occ. eigenvalues --   -0.92187  -0.84091  -0.78992  -0.78284  -0.65608
 Alpha  occ. eigenvalues --   -0.61981  -0.60629  -0.59878  -0.57456  -0.56735
 Alpha  occ. eigenvalues --   -0.53992  -0.53095  -0.51502  -0.49099  -0.48399
 Alpha  occ. eigenvalues --   -0.46946  -0.46462  -0.45493  -0.32866
 Alpha virt. eigenvalues --    0.03404   0.03452   0.03786   0.04185   0.05046
 Alpha virt. eigenvalues --    0.05291   0.05730   0.06708   0.07618   0.07777
 Alpha virt. eigenvalues --    0.08398   0.09456   0.10562   0.10921   0.11277

  Beta  occ. eigenvalues --  -11.22818 -11.22746 -11.22420 -11.22280 -11.22205
  Beta  occ. eigenvalues --  -11.22034 -11.20576  -1.08643  -1.03630  -0.98467
  Beta  occ. eigenvalues --   -0.92130  -0.83243  -0.78944  -0.74275  -0.65170
  Beta  occ. eigenvalues --   -0.61007  -0.59730  -0.59313  -0.56340  -0.55165
  Beta  occ. eigenvalues --   -0.53510  -0.52568  -0.51307  -0.48595  -0.47999
  Beta  occ. eigenvalues --   -0.46763  -0.46353  -0.45261
  Beta virt. eigenvalues --    0.03421   0.03470   0.03803   0.04200   0.05054
  Beta virt. eigenvalues --    0.05303   0.05744   0.06588   0.07637   0.07777
  Beta virt. eigenvalues --    0.08347   0.09268   0.10304   0.10813   0.11290

 Mulliken charges and spin densities:
               1          2
     1  C    0.547364   1.516471
     2  C   -0.614784  -0.318748
     3  C   -0.204486   0.033337
     4  H    0.193482   0.044522
     5  H    0.174223   0.014319
     6  C   -0.652931  -0.271395
     7  H    0.227288   0.044063
     8  H    0.139341   0.002158
     9  H    0.174869   0.016028
    10  H   -0.200572  -0.078366
    11  C   -0.296940   0.002056
    12  H    0.133263  -0.001353
    13  H    0.118633  -0.004441
    14  C   -0.229034   0.001018
    15  H    0.114235  -0.001025
    16  H    0.103050   0.000585
    17  C   -0.396607   0.000491
    18  H    0.116825   0.000145
    19  H    0.117147   0.000055
    20  H    0.160568   0.000038
    21  H    0.113131  -0.000001
    22  H    0.161933   0.000045
 Sum of Mulliken charges =  -0.00000   1.00000

 Dipole moment (field-independent basis, Debye):
    X=              0.0047    Y=             -0.0491    Z=              0.1236  Tot=              0.1330
                          Isotropic Fermi Contact Couplings
        Atom                 a.u.       MegaHertz       Gauss      10(-4) cm-1
     1  C(13)              0.22700     255.18715      91.05712      85.12127
     2  C(13)             -0.05974     -67.15908     -23.96403     -22.40186
     3  C(13)              0.01010      11.35033       4.05008       3.78606
     4  H(1)               0.02296     102.64801      36.62736      34.23969
     5  H(1)               0.01017      45.47664      16.22720      15.16937
     6  C(13)             -0.06106     -68.63914     -24.49215     -22.89555
     7  H(1)               0.02468     110.30275      39.35877      36.79304
     8  H(1)               0.00425      18.98230       6.77336       6.33181

 Normal termination of Gaussian 16 at Tue Apr  8 22:49:39 2025.
