 Gaussian 16, Revision C.01,

 ----------------------------------------------------------------------
 #t hf aug-cc-pvdz symm=none int=(grid=ultrafine) guess=(read,tcheck) s
 table=(opt,rrhf)
 ----------------------------------------------------------------------
 -----
 title
 -----
 Symbolic Z-matrix:
 Charge =  0 Multiplicity = 1

 SCF Done:  E(RHF) =  -634.764539547     A.U. after   15 cycles
 Normal termination of Gaussian 16 at Wed Apr  9 00:04:46 2025.
 Gaussian 16:  ES64L-G16RevC.01  3-Jul-2019

 ----------------------------------------------------------------------
 #t hf aug-cc-pvdz iop(5/13=1,5/36=2,99/5=2) pseudo=read geom=check gue
 ss=(read,tcheck) scf=(maxcycle=1)
 ----------------------------------------------------------------------
 -----
 title
 -----
 Structure from the checkpoint file:  "BDE49_nonexpt_2194_mol1.chk"
 Charge =  0 Multiplicity = 1

                         Standard orientation:
 ---------------------------------------------------------------------
 Center     Atomic      Atomic             Coordinates (Angstroms)
 Number     Number       Type             X           Y           Z
 ---------------------------------------------------------------------
      1          6           0       -2.592794   -0.893654    0.000029
      2          6           0       -2.302787    0.470507    0.000050
      3          6           0       -0.990506    0.942932    0.000009
      4          6           0       -1.552099   -1.815211   -0.000010
      5          6           0       -0.230728   -1.372059   -0.000053
      6          6           0        0.045959   -0.005531   -0.000057
      7          1           0       -1.759385   -2.879211   -0.000013
      8          1           0        0.581269   -2.091419   -0.000083
      9          8           0        1.328264    0.483422   -0.000084
     10         14           0        2.792885   -0.298417    0.000049
     11          1           0       -3.622906   -1.230205    0.000066
     12          6           0       -0.669449    2.414029   -0.000008
     13          1           0       -1.583355    3.010672    0.000251
     14          1           0       -0.076683    2.689728   -0.876973
     15          1           0       -0.076219    2.689663    0.876659
     16          1           0       -3.114250    1.191154    0.000102
     17          1           0        3.797281    0.779551    0.000038
     18          1           0        2.941137   -1.147826   -1.203967
     19          1           0        2.941037   -1.147716    1.204148
 ---------------------------------------------------------------------

 SCF Done:  E(RHF) =  -635.152536572     A.U. after    2 cycles

 The electronic state is 1-A.
 Alpha  occ. eigenvalues --  -69.56827 -20.56033 -11.30844 -11.24461 -11.24365
 Alpha  occ. eigenvalues --  -11.24170 -11.24130 -11.23542 -11.23046  -6.23417
 Alpha  occ. eigenvalues --   -3.98921  -3.98772  -3.98748  -1.47525  -1.15308
 Alpha  occ. eigenvalues --   -1.04881  -1.01000  -0.93653  -0.85783  -0.81542
 Alpha  occ. eigenvalues --   -0.76343  -0.69801  -0.67494  -0.64697  -0.61596
 Alpha  occ. eigenvalues --   -0.61237  -0.58617  -0.56362  -0.55435  -0.55025
 Alpha  occ. eigenvalues --   -0.51437  -0.50507  -0.49928  -0.46966  -0.46804
 Alpha  occ. eigenvalues --   -0.34358  -0.31942
 Alpha virt. eigenvalues --    0.03300   0.03557   0.03804   0.04716   0.05133
 Alpha virt. eigenvalues --    0.05149   0.06490   0.07552   0.07606   0.09042
 Alpha virt. eigenvalues --    0.09423   0.09530   0.11051   0.11582   0.11781

 Mulliken charges:
               1
     1  C    0.015488
     2  C    0.984799
     3  C    0.128414
     4  C    0.060505
     5  C    0.059092
     6  C    1.709599
     7  H   -0.221756
     8  H   -0.353798
     9  O   -2.471821
    10  Si   1.188058
    11  H   -0.238065
    12  C   -0.733194
    13  H    0.011166
    14  H    0.252256
    15  H    0.252187
    16  H   -0.280603
    17  H   -0.156859
    18  H   -0.102732
    19  H   -0.102736
 Sum of Mulliken charges =  -0.00000

 Dipole moment (field-independent basis, Debye):
    X=              0.2463    Y=             -0.2745    Z=              0.0001  Tot=              0.3688

 Test job not archived.
 1\1\GINC-SE460\SP\RHF\Aug-CC-pVDZ\C7H10O1Si1\OHZDE\09-Apr-2025\0\\#t h
 f aug-cc-pvdz iop(5/13=1,5/36=2,99/5=2) pseudo=read geom=check guess=(
 read,tcheck) scf=(maxcycle=1)\\title\\0,1\C,0,2.592794,-0.893654,-0.00
 0029\C,0,2.302787,0.470507,-0.00005\C,0,0.990506,0.942932,-0.000009\C,
 0,1.552099,-1.815211,0.00001\C,0,0.230728,-1.372059,0.000053\C,0,-0.04
 5959,-0.005531,0.000057\H,0,1.759385,-2.879211,0.000013\H,0,-0.581269,
 -2.091419,0.000083\O,0,-1.328264,0.483422,0.000084\Si,0,-2.792885,-0.2
 98417,-0.000049\H,0,3.622906,-1.230205,-0.000066\C,0,0.669449,2.414029

 Normal termination of Gaussian 16 at Wed Apr  9 00:04:56 2025.
