 Gaussian 16, Revision C.01,

 ----------------------------------------------------------------------
 #t hf aug-cc-pvdz symm=none int=(grid=ultrafine) guess=(read,tcheck) s
 table=(opt,rrhf)
 ----------------------------------------------------------------------
 -----
 title
 -----
 Symbolic Z-matrix:
 Charge =  0 Multiplicity = 1

 SCF Done:  E(RHF) =  -1018.85973173     A.U. after   15 cycles
 Normal termination of Gaussian 16 at Tue Apr  8 23:12:54 2025.
 Gaussian 16:  ES64L-G16RevC.01  3-Jul-2019

 ----------------------------------------------------------------------
 #t hf aug-cc-pvdz iop(5/13=1,5/36=2,99/5=2) pseudo=read geom=check gue
 ss=(read,tcheck) scf=(maxcycle=1)
 ----------------------------------------------------------------------
 -----
 title
 -----
 Structure from the checkpoint file:  "BDE49_expt_807_mol1.chk"
 Charge =  0 Multiplicity = 1

                         Standard orientation:
 ---------------------------------------------------------------------
 Center     Atomic      Atomic             Coordinates (Angstroms)
 Number     Number       Type             X           Y           Z
 ---------------------------------------------------------------------
      1         14           0       -1.328592    0.468412   -0.414893
      2          1           0       -1.549039    0.814066   -1.834823
      3         17           0       -2.398341   -1.306969   -0.071789
      4          6           0       -2.029385    1.771084    0.723824
      5          6           0        0.494471    0.165378   -0.151496
      6          1           0       -3.100563    1.900503    0.550643
      7          1           0       -1.531047    2.729331    0.548005
      8          1           0       -1.885159    1.499462    1.772684
      9          6           0        1.388159    0.276871   -1.227664
     10          6           0        2.756232    0.079603   -1.048342
     11          6           0        3.253414   -0.236024    0.213296
     12          6           0        2.380907   -0.354496    1.294881
     13          6           0        1.016090   -0.154876    1.112977
     14          1           0        0.351363   -0.258950    1.964919
     15          1           0        1.013630    0.517752   -2.217506
     16          1           0        3.431151    0.169221   -1.892287
     17          1           0        4.317124   -0.392060    0.354755
     18          1           0        2.765300   -0.603865    2.277666
 ---------------------------------------------------------------------

 SCF Done:  E(RHF) =  -1019.25298110     A.U. after    2 cycles

 The electronic state is 1-A.
 Alpha  occ. eigenvalues -- -105.54455 -69.57023 -11.25675 -11.25644 -11.25532
 Alpha  occ. eigenvalues --  -11.25078 -11.25047 -11.23949 -11.22846 -10.59418
 Alpha  occ. eigenvalues --   -7.76304  -7.76017  -7.76014  -6.23672  -3.99090
 Alpha  occ. eigenvalues --   -3.98952  -3.98929  -1.16102  -1.04647  -1.02522
 Alpha  occ. eigenvalues --   -1.01993  -0.96043  -0.84238  -0.83991  -0.74064
 Alpha  occ. eigenvalues --   -0.68925  -0.65015  -0.64181  -0.60868  -0.58795
 Alpha  occ. eigenvalues --   -0.58119  -0.56064  -0.52842  -0.51556  -0.50760
 Alpha  occ. eigenvalues --   -0.50159  -0.48837  -0.44467  -0.43975  -0.35575
 Alpha  occ. eigenvalues --   -0.35402
 Alpha virt. eigenvalues --    0.03125   0.03462   0.03579   0.04717   0.04992
 Alpha virt. eigenvalues --    0.05074   0.06974   0.07410   0.07679   0.07986
 Alpha virt. eigenvalues --    0.08458   0.09617   0.09935   0.11245   0.11724

 Mulliken charges:
               1
     1  Si   1.634019
     2  H   -0.187617
     3  Cl  -0.708262
     4  C   -0.646992
     5  C   -0.831664
     6  H    0.019862
     7  H    0.021124
     8  H    0.079448
     9  C    0.146743
    10  C    0.419433
    11  C    0.352936
    12  C    0.384365
    13  C    0.669433
    14  H   -0.367747
    15  H   -0.336933
    16  H   -0.216860
    17  H   -0.213185
    18  H   -0.218101
 Sum of Mulliken charges =  -0.00000

 Dipole moment (field-independent basis, Debye):
    X=              1.8116    Y=              1.8497    Z=              0.3127  Tot=              2.6079

 Test job not archived.
 1\1\GINC-SE365\SP\RHF\Aug-CC-pVDZ\C7H9Cl1Si1\OHZDE\08-Apr-2025\0\\#t h
 f aug-cc-pvdz iop(5/13=1,5/36=2,99/5=2) pseudo=read geom=check guess=(
 read,tcheck) scf=(maxcycle=1)\\title\\0,1\Si,0,-1.328592,0.468412,-0.4
 14893\H,0,-1.549039,0.814066,-1.834823\Cl,0,-2.398341,-1.306969,-0.071
 789\C,0,-2.029385,1.771084,0.723824\C,0,0.494471,0.165378,-0.151496\H,
 0,-3.100563,1.900503,0.550643\H,0,-1.531047,2.729331,0.548005\H,0,-1.8
 85159,1.499462,1.772684\C,0,1.388159,0.276871,-1.227664\C,0,2.756232,0
 .079603,-1.048342\C,0,3.253414,-0.236024,0.213296\C,0,2.380907,-0.3544

 Normal termination of Gaussian 16 at Tue Apr  8 23:13:02 2025.
