 Gaussian 16, Revision C.01,

 ----------------------------------------------------------------------
 #t hf aug-cc-pvdz symm=none int=(grid=ultrafine) guess=(read,tcheck) s
 table=(opt,rrhf)
 ----------------------------------------------------------------------
 -----
 title
 -----
 Symbolic Z-matrix:
 Charge =  0 Multiplicity = 1

 SCF Done:  E(RHF) =  -1913.29727019     A.U. after   13 cycles
 Normal termination of Gaussian 16 at Wed Apr  9 00:21:41 2025.
 Gaussian 16:  ES64L-G16RevC.01  3-Jul-2019

 ----------------------------------------------------------------------
 #t hf aug-cc-pvdz iop(5/13=1,5/36=2,99/5=2) pseudo=read geom=check gue
 ss=(read,tcheck) scf=(maxcycle=1)
 ----------------------------------------------------------------------
 -----
 title
 -----
 Structure from the checkpoint file:  "BDE49_nonexpt_2631_mol1.chk"
 Charge =  0 Multiplicity = 1

                         Standard orientation:
 ---------------------------------------------------------------------
 Center     Atomic      Atomic             Coordinates (Angstroms)
 Number     Number       Type             X           Y           Z
 ---------------------------------------------------------------------
      1          9           0       -2.387247   -0.045825   -0.000016
      2         16           0       -1.165334    1.073441    0.000003
      3          6           0        0.251167   -0.036471    0.000002
      4         17           0        1.583012    1.177113   -0.000000
      5         17           0        0.344481   -1.075140   -1.454571
      6         17           0        0.344483   -1.075138    1.454576
 ---------------------------------------------------------------------

 SCF Done:  E(RHF) =  -1913.70659052     A.U. after    2 cycles

 The electronic state is 1-A.
 Alpha  occ. eigenvalues -- -105.62378-105.61147-105.61147 -94.08063 -26.49936
 Alpha  occ. eigenvalues --  -11.48912 -10.67168 -10.65960 -10.65959  -8.35307
 Alpha  occ. eigenvalues --   -7.84110  -7.83684  -7.83655  -7.82912  -7.82907
 Alpha  occ. eigenvalues --   -7.82457  -7.82456  -7.82455  -7.82452  -6.33061
 Alpha  occ. eigenvalues --   -6.32774  -6.32439  -1.60283  -1.24528  -1.09528
 Alpha  occ. eigenvalues --   -1.08351  -1.04022  -0.83113  -0.71153  -0.69222
 Alpha  occ. eigenvalues --   -0.68949  -0.65352  -0.63782  -0.58467  -0.53246
 Alpha  occ. eigenvalues --   -0.53011  -0.49567  -0.49283  -0.48155  -0.47522
 Alpha  occ. eigenvalues --   -0.41603
 Alpha virt. eigenvalues --    0.04795   0.05720   0.07493   0.08395   0.08433
 Alpha virt. eigenvalues --    0.09442   0.10363   0.11828   0.13094   0.14121
 Alpha virt. eigenvalues --    0.14894   0.17610   0.17875   0.18135   0.18453

 Mulliken charges:
               1
     1  F   -0.627532
     2  S    1.225660
     3  C   -1.302867
     4  Cl   0.302827
     5  Cl   0.200956
     6  Cl   0.200956
 Sum of Mulliken charges =  -0.00000

 Dipole moment (field-independent basis, Debye):
    X=              0.6748    Y=              0.7267    Z=              0.0000  Tot=              0.9917

 Test job not archived.
 1\1\GINC-SE103\SP\RHF\Aug-CC-pVDZ\C1Cl3F1S1\OHZDE\09-Apr-2025\0\\#t hf
  aug-cc-pvdz iop(5/13=1,5/36=2,99/5=2) pseudo=read geom=check guess=(r
 ead,tcheck) scf=(maxcycle=1)\\title\\0,1\F,0,-2.387247,-0.045826,-0.00
 0016\S,0,-1.165335,1.073441,0.000003\C,0,0.251167,-0.036471,0.000002\C
 l,0,1.583011,1.177114,0.\Cl,0,0.344481,-1.07514,-1.454571\Cl,0,0.34448
 3,-1.075138,1.454576\\Version=ES64L-G16RevC.01\State=1-A\HF=-1913.7065
 905\RMSD=3.610e-03\Dipole=0.2654979,0.2859223,0.0000038\Quadrupole=-1.
 153325,1.2858664,-0.1325413,-0.4572553,-0.0000196,0.0000125\PG=C01 [X(

 Normal termination of Gaussian 16 at Wed Apr  9 00:21:44 2025.
