 Gaussian 16, Revision C.01,

 ----------------------------------------------------------------------
 #t hf aug-cc-pvdz symm=none int=(grid=ultrafine) guess=(read,tcheck) s
 table=(opt,rrhf)
 ----------------------------------------------------------------------
 -----
 title
 -----
 Symbolic Z-matrix:
 Charge =  0 Multiplicity = 1

 SCF Done:  E(RHF) =  -322.599611995     A.U. after   16 cycles
 Normal termination of Gaussian 16 at Tue Apr  8 23:20:53 2025.
 Gaussian 16:  ES64L-G16RevC.01  3-Jul-2019

 ----------------------------------------------------------------------
 #t hf aug-cc-pvdz iop(5/13=1,5/36=2,99/5=2) pseudo=read geom=check gue
 ss=(read,tcheck) scf=(maxcycle=1)
 ----------------------------------------------------------------------
 -----
 title
 -----
 Structure from the checkpoint file:  "BDE49_nonexpt_1172_mol1.chk"
 Charge =  0 Multiplicity = 1

                         Standard orientation:
 ---------------------------------------------------------------------
 Center     Atomic      Atomic             Coordinates (Angstroms)
 Number     Number       Type             X           Y           Z
 ---------------------------------------------------------------------
      1          9           0       -1.925634   -0.686352    0.000041
      2          8           0       -1.162043    0.730050   -0.000015
      3          7           0        0.084076    0.641159   -0.000020
      4          7           0        0.743596   -0.386528   -0.000024
      5          6           0        2.193955   -0.168166    0.000005
      6          1           0        2.602739   -0.663256    0.882761
      7          1           0        2.464112    0.889820    0.000032
      8          1           0        2.602766   -0.663217   -0.882760
 ---------------------------------------------------------------------

 SCF Done:  E(RHF) =  -322.913221845     A.U. after    2 cycles

 The electronic state is 1-A.
 Alpha  occ. eigenvalues --  -26.47951 -20.75771 -15.69184 -15.60525 -11.30106
 Alpha  occ. eigenvalues --   -1.68180  -1.48699  -1.37802  -1.05724  -0.89785
 Alpha  occ. eigenvalues --   -0.78796  -0.76814  -0.76408  -0.64643  -0.62508
 Alpha  occ. eigenvalues --   -0.59583  -0.59315  -0.57660  -0.49997  -0.47859
 Alpha virt. eigenvalues --    0.02967   0.04787   0.05064   0.05354   0.06600
 Alpha virt. eigenvalues --    0.07487   0.12622   0.12943   0.13582   0.15507
 Alpha virt. eigenvalues --    0.16480   0.18366   0.19519   0.20346   0.21589

 Mulliken charges:
               1
     1  F   -0.307013
     2  O   -0.669242
     3  N    0.931280
     4  N   -0.117796
     5  C   -0.311025
     6  H    0.184088
     7  H    0.105619
     8  H    0.184088
 Sum of Mulliken charges =  -0.00000

 Dipole moment (field-independent basis, Debye):
    X=              3.4801    Y=              0.8097    Z=             -0.0000  Tot=              3.5731

 Test job not archived.
 1\1\GINC-SE082\SP\RHF\Aug-CC-pVDZ\C1H3F1N2O1\OHZDE\08-Apr-2025\0\\#t h
 f aug-cc-pvdz iop(5/13=1,5/36=2,99/5=2) pseudo=read geom=check guess=(
 read,tcheck) scf=(maxcycle=1)\\title\\0,1\F,0,1.925634,-0.686352,-0.00
 0041\O,0,1.162043,0.73005,0.000015\N,0,-0.084076,0.641159,0.00002\N,0,
 -0.743596,-0.386528,0.000024\C,0,-2.193955,-0.168166,-0.000005\H,0,-2.
 602739,-0.663256,-0.882761\H,0,-2.464112,0.88982,-0.000032\H,0,-2.6027
 66,-0.663217,0.88276\\Version=ES64L-G16RevC.01\State=1-A\HF=-322.91322
 18\RMSD=4.310e-02\Dipole=-1.3691865,0.318563,0.0000036\Quadrupole=2.06

 Normal termination of Gaussian 16 at Tue Apr  8 23:20:55 2025.
