 Gaussian 16, Revision C.01,

 ----------------------------------------------------------------------
 #t hf aug-cc-pvdz symm=none int=(grid=ultrafine) guess=(read,tcheck) s
 table=(opt,rrhf)
 ----------------------------------------------------------------------
 -----
 title
 -----
 Symbolic Z-matrix:
 Charge =  0 Multiplicity = 1

 SCF Done:  E(RHF) =  -989.528237750     A.U. after   15 cycles
 Normal termination of Gaussian 16 at Wed Apr  9 00:20:09 2025.
 Gaussian 16:  ES64L-G16RevC.01  3-Jul-2019

 ----------------------------------------------------------------------
 #t hf aug-cc-pvdz iop(5/13=1,5/36=2,99/5=2) pseudo=read geom=check gue
 ss=(read,tcheck) scf=(maxcycle=1)
 ----------------------------------------------------------------------
 -----
 title
 -----
 Structure from the checkpoint file:  "BDE49_nonexpt_2610_mol1.chk"
 Charge =  0 Multiplicity = 1

                         Standard orientation:
 ---------------------------------------------------------------------
 Center     Atomic      Atomic             Coordinates (Angstroms)
 Number     Number       Type             X           Y           Z
 ---------------------------------------------------------------------
      1         16           0        0.745214    1.026608   -0.000001
      2         17           0        1.861656   -0.796989    0.000001
      3          7           0       -0.828630    0.687017   -0.000002
      4          6           0       -1.480856   -0.404796    0.000004
      5          6           0       -2.976585   -0.426533   -0.000001
      6          1           0       -3.379909    0.585921   -0.000012
      7          1           0       -3.349118   -0.962011    0.879823
      8          1           0       -3.349111   -0.962027   -0.879818
      9          1           0       -0.948382   -1.359930    0.000014
 ---------------------------------------------------------------------

 SCF Done:  E(RHF) =  -989.802523553     A.U. after    2 cycles

 The electronic state is 1-A.
 Alpha  occ. eigenvalues -- -105.57346 -94.04485 -15.55686 -11.32263 -11.25996
 Alpha  occ. eigenvalues --  -10.62040  -8.31844  -7.78954  -7.78568  -7.78524
 Alpha  occ. eigenvalues --   -6.29640  -6.29349  -6.29037  -1.29241  -1.10402
 Alpha  occ. eigenvalues --   -1.03290  -0.95698  -0.78870  -0.70326  -0.65349
 Alpha  occ. eigenvalues --   -0.62214  -0.57500  -0.56420  -0.52443  -0.48426
 Alpha  occ. eigenvalues --   -0.46978  -0.46453  -0.35805
 Alpha virt. eigenvalues --    0.03248   0.04433   0.04929   0.05333   0.06011
 Alpha virt. eigenvalues --    0.08330   0.08690   0.09636   0.11556   0.12911
 Alpha virt. eigenvalues --    0.13086   0.14256   0.14436   0.15413   0.15963

 Mulliken charges:
               1
     1  S    0.513635
     2  Cl  -0.326902
     3  N    0.351002
     4  C   -0.711475
     5  C   -0.446568
     6  H    0.160649
     7  H    0.231910
     8  H    0.231909
     9  H   -0.004159
 Sum of Mulliken charges =  -0.00000

 Dipole moment (field-independent basis, Debye):
    X=             -2.7757    Y=             -1.2636    Z=              0.0000  Tot=              3.0498

 Test job not archived.
 1\1\GINC-SE016\SP\RHF\Aug-CC-pVDZ\C2H4Cl1N1S1\OHZDE\09-Apr-2025\0\\#t
 hf aug-cc-pvdz iop(5/13=1,5/36=2,99/5=2) pseudo=read geom=check guess=
 (read,tcheck) scf=(maxcycle=1)\\title\\0,1\S,0,0.745214,1.026608,-0.00
 0001\Cl,0,1.861656,-0.796989,0.000001\N,0,-0.82863,0.687017,-0.000002\
 C,0,-1.480856,-0.404796,0.000004\C,0,-2.976585,-0.426533,-0.000001\H,0
 ,-3.379909,0.585921,-0.000012\H,0,-3.349118,-0.962011,0.879823\H,0,-3.
 349111,-0.962027,-0.879818\H,0,-0.948382,-1.35993,0.000014\\Version=ES
 64L-G16RevC.01\State=1-A\HF=-989.8025236\RMSD=1.480e-02\Dipole=-1.0920

 Normal termination of Gaussian 16 at Wed Apr  9 00:20:12 2025.
