 Gaussian 16, Revision C.01,

 ----------------------------------------------------------------------
 #t hf aug-cc-pvdz symm=none int=(grid=ultrafine) guess=(read,tcheck) s
 table=(opt,rrhf)
 ----------------------------------------------------------------------
 -----
 title
 -----
 Symbolic Z-matrix:
 Charge =  0 Multiplicity = 1

 SCF Done:  E(RHF) =  -634.730997022     A.U. after   13 cycles
 Normal termination of Gaussian 16 at Wed Apr  9 00:42:30 2025.
 Gaussian 16:  ES64L-G16RevC.01  3-Jul-2019

 ----------------------------------------------------------------------
 #t hf aug-cc-pvdz iop(5/13=1,5/36=2,99/5=2) pseudo=read geom=check gue
 ss=(read,tcheck) scf=(maxcycle=1)
 ----------------------------------------------------------------------
 -----
 title
 -----
 Structure from the checkpoint file:  "BDE49_nonexpt_693_mol1.chk"
 Charge =  0 Multiplicity = 1

                         Standard orientation:
 ---------------------------------------------------------------------
 Center     Atomic      Atomic             Coordinates (Angstroms)
 Number     Number       Type             X           Y           Z
 ---------------------------------------------------------------------
      1         15           0        0.289350    0.621720   -0.821904
      2          5           0       -1.267988   -0.257116   -0.068233
      3          8           0       -1.544007   -1.592149   -0.233513
      4          8           0       -2.191548    0.507343    0.579648
      5          6           0        1.653862   -0.614539   -0.452112
      6          6           0        1.800286   -1.140758    0.980044
      7          1           0        2.585443   -0.139860   -0.777408
      8          1           0        1.504874   -1.447331   -1.150201
      9          1           0        0.899187   -1.667496    1.305498
     10          1           0        1.983942   -0.330274    1.688942
     11          6           0        0.582792    1.976510    0.421141
     12          1           0        1.472627    2.543483    0.138536
     13          1           0        0.691955    1.621933    1.447447
     14          1           0       -0.275439    2.649695    0.384590
     15          1           0        2.640603   -1.838410    1.057762
     16          1           0       -0.869578   -2.075847   -0.716683
     17          1           0       -2.971119   -0.004933    0.827721
 ---------------------------------------------------------------------

 SCF Done:  E(RHF) =  -635.083983035     A.U. after    2 cycles

 The electronic state is 1-A.
 Alpha  occ. eigenvalues --  -84.24414 -20.56546 -20.55738 -11.24530 -11.23482
 Alpha  occ. eigenvalues --  -11.23081  -7.64745  -6.71700  -4.24278  -4.24216
 Alpha  occ. eigenvalues --   -4.23532  -1.48565  -1.44197  -1.04669  -0.96779
 Alpha  occ. eigenvalues --   -0.87037  -0.79106  -0.75239  -0.71138  -0.63210
 Alpha  occ. eigenvalues --   -0.60009  -0.59812  -0.57312  -0.56729  -0.55820
 Alpha  occ. eigenvalues --   -0.55157  -0.53707  -0.51026  -0.49524  -0.43917
 Alpha  occ. eigenvalues --   -0.41798  -0.30434
 Alpha virt. eigenvalues --    0.03273   0.03770   0.03977   0.04573   0.05889
 Alpha virt. eigenvalues --    0.06264   0.06508   0.07003   0.07914   0.08936
 Alpha virt. eigenvalues --    0.09346   0.09910   0.10542   0.11577   0.12485

 Mulliken charges:
               1
     1  P    0.379525
     2  B    2.351549
     3  O   -1.356667
     4  O   -1.311345
     5  C   -0.779080
     6  C   -0.324115
     7  H    0.114898
     8  H    0.068767
     9  H    0.072529
    10  H    0.152665
    11  C   -0.780068
    12  H    0.090407
    13  H    0.055385
    14  H    0.062358
    15  H    0.103553
    16  H    0.570674
    17  H    0.528964
 Sum of Mulliken charges =   0.00000

 Dipole moment (field-independent basis, Debye):
    X=              0.8654    Y=             -1.3105    Z=              0.5427  Tot=              1.6616

 Test job not archived.
 1\1\GINC-SE284\SP\RHF\Aug-CC-pVDZ\C3H10B1O2P1\OHZDE\09-Apr-2025\0\\#t
 hf aug-cc-pvdz iop(5/13=1,5/36=2,99/5=2) pseudo=read geom=check guess=
 (read,tcheck) scf=(maxcycle=1)\\title\\0,1\P,0,0.28935,0.62172,-0.8219
 04\B,0,-1.267988,-0.257116,-0.068233\O,0,-1.544007,-1.59215,-0.233513\
 O,0,-2.191548,0.507342,0.579648\C,0,1.653862,-0.614539,-0.452112\C,0,1
 .800286,-1.140758,0.980044\H,0,2.585443,-0.139859,-0.777408\H,0,1.5048
 74,-1.447331,-1.150201\H,0,0.899187,-1.667496,1.305498\H,0,1.983942,-0
 .330274,1.688942\C,0,0.582791,1.97651,0.421141\H,0,1.472626,2.543483,0

 Normal termination of Gaussian 16 at Wed Apr  9 00:42:37 2025.
