 Gaussian 16, Revision C.01,

 ----------------------------------------------------------------------
 #t hf aug-cc-pvdz symm=none int=(grid=ultrafine) guess=(read,tcheck) s
 table=(opt,rrhf)
 ----------------------------------------------------------------------
 -----
 title
 -----
 Symbolic Z-matrix:
 Charge =  0 Multiplicity = 1

 SCF Done:  E(RHF) =  -1025.30252511     A.U. after   15 cycles
 Normal termination of Gaussian 16 at Tue Apr  8 22:49:50 2025.
 Gaussian 16:  ES64L-G16RevC.01  3-Jul-2019

 ----------------------------------------------------------------------
 #t hf aug-cc-pvdz iop(5/13=1,5/36=2,99/5=2) pseudo=read geom=check gue
 ss=(read,tcheck) scf=(maxcycle=1)
 ----------------------------------------------------------------------
 -----
 title
 -----
 Structure from the checkpoint file:  "BDE49_expt_1676_mol1.chk"
 Charge =  0 Multiplicity = 1

                         Standard orientation:
 ---------------------------------------------------------------------
 Center     Atomic      Atomic             Coordinates (Angstroms)
 Number     Number       Type             X           Y           Z
 ---------------------------------------------------------------------
      1          6           0        0.776972    0.724333   -0.000000
      2          6           0        2.168354    0.712994   -0.000000
      3          6           0        2.852987   -0.498157   -0.000000
      4          6           0        2.148901   -1.697839   -0.000001
      5          6           0        0.758499   -1.681307   -0.000000
      6          6           0        0.053478   -0.476008   -0.000000
      7         17           0       -0.023552    2.280729    0.000001
      8          1           0        3.936669   -0.497425   -0.000000
      9          1           0        2.675979   -2.643978   -0.000001
     10          1           0        2.703198    1.653636   -0.000000
     11          1           0        0.203533   -2.609341   -0.000001
     12          6           0       -1.457666   -0.505798   -0.000000
     13          9           0       -1.926282   -1.773549   -0.000000
     14          9           0       -1.977313    0.100964   -1.086254
     15          9           0       -1.977312    0.100963    1.086255
 ---------------------------------------------------------------------

 SCF Done:  E(RHF) =  -1025.91700595     A.U. after    2 cycles

 The electronic state is 1-A.
 Alpha  occ. eigenvalues -- -105.58548 -26.50785 -26.50224 -26.50221 -11.52828
 Alpha  occ. eigenvalues --  -11.33902 -11.29291 -11.28116 -11.27930 -11.27588
 Alpha  occ. eigenvalues --  -11.27145 -10.63373  -7.80337  -7.79930  -7.79908
 Alpha  occ. eigenvalues --   -1.71264  -1.61190  -1.60873  -1.21085  -1.11725
 Alpha  occ. eigenvalues --   -1.08226  -1.01555  -0.96003  -0.87927  -0.86411
 Alpha  occ. eigenvalues --   -0.80656  -0.80517  -0.79668  -0.71608  -0.69869
 Alpha  occ. eigenvalues --   -0.68617  -0.67451  -0.66258  -0.63436  -0.63309
 Alpha  occ. eigenvalues --   -0.61957  -0.61733  -0.59907  -0.57031  -0.55051
 Alpha  occ. eigenvalues --   -0.54196  -0.49504  -0.47727  -0.38664  -0.36585
 Alpha virt. eigenvalues --    0.02703   0.03435   0.04502   0.05930   0.06957
 Alpha virt. eigenvalues --    0.07625   0.07911   0.09417   0.09479   0.11131
 Alpha virt. eigenvalues --    0.11788   0.12902   0.12982   0.13581   0.13638

 Mulliken charges:
               1
     1  C   -0.938017
     2  C    0.351363
     3  C   -0.002924
     4  C    0.120917
     5  C   -0.039680
     6  C    1.268365
     7  Cl  -0.380184
     8  H   -0.201998
     9  H   -0.204592
    10  H   -0.174891
    11  H   -0.243368
    12  C    2.820404
    13  F   -0.864351
    14  F   -0.755522
    15  F   -0.755522
 Sum of Mulliken charges =  -0.00000

 Dipole moment (field-independent basis, Debye):
    X=              3.6162    Y=             -1.4153    Z=             -0.0000  Tot=              3.8833

 Test job not archived.
 1\1\GINC-SE212\SP\RHF\Aug-CC-pVDZ\C7H4Cl1F3\OHZDE\08-Apr-2025\0\\#t hf
  aug-cc-pvdz iop(5/13=1,5/36=2,99/5=2) pseudo=read geom=check guess=(r
 ead,tcheck) scf=(maxcycle=1)\\title\\0,1\C,0,-0.776972,0.724333,0.\C,0
 ,-2.168354,0.712993,0.\C,0,-2.852987,-0.498158,0.\C,0,-2.148901,-1.697
 84,0.000001\C,0,-0.758499,-1.681307,0.\C,0,-0.053478,-0.476008,0.\Cl,0
 ,0.023551,2.280729,-0.000001\H,0,-3.936669,-0.497426,0.\H,0,-2.675978,
 -2.643979,0.000001\H,0,-2.703198,1.653635,0.\H,0,-0.203532,-2.609341,0
 .000001\C,0,1.457666,-0.505798,0.\F,0,1.926282,-1.773548,0.\F,0,1.9773

 Normal termination of Gaussian 16 at Tue Apr  8 22:50:00 2025.
