 Gaussian 16, Revision C.01,

 ----------------------------------------------------------------------
 #t hf aug-cc-pvdz symm=none int=(grid=ultrafine) guess=(read,tcheck) s
 table=(opt,rrhf)
 ----------------------------------------------------------------------
 -----
 title
 -----
 Symbolic Z-matrix:
 Charge =  0 Multiplicity = 1

 SCF Done:  E(RHF) =  -2249.62089200     A.U. after   13 cycles
 Normal termination of Gaussian 16 at Wed Apr  9 00:13:45 2025.
 Gaussian 16:  ES64L-G16RevC.01  3-Jul-2019

 ----------------------------------------------------------------------
 #t hf aug-cc-pvdz iop(5/13=1,5/36=2,99/5=2) pseudo=read geom=check gue
 ss=(read,tcheck) scf=(maxcycle=1)
 ----------------------------------------------------------------------
 -----
 title
 -----
 Structure from the checkpoint file:  "BDE49_nonexpt_2420_mol1.chk"
 Charge =  0 Multiplicity = 1

                         Standard orientation:
 ---------------------------------------------------------------------
 Center     Atomic      Atomic             Coordinates (Angstroms)
 Number     Number       Type             X           Y           Z
 ---------------------------------------------------------------------
      1         14           0       -0.833211   -1.096598    0.834417
      2         14           0        0.833208   -1.096610   -0.834404
      3         16           0        2.833541   -0.995907    0.029496
      4          1           0        0.655956    0.003192   -1.808757
      5          1           0        0.801918   -2.397121   -1.549408
      6         16           0        2.806017    0.981099    0.758879
      7         16           0       -2.833536   -0.995907   -0.029505
      8          1           0       -0.655972    0.003216    1.808759
      9          1           0       -0.801930   -2.397099    1.549442
     10         16           0       -2.806023    0.981100   -0.758886
     11          6           0        3.447370    1.928484   -0.664562
     12          1           0        3.504881    2.964994   -0.322607
     13          1           0        2.770886    1.866071   -1.516093
     14          1           0        4.442632    1.581320   -0.938305
     15          6           0       -3.447360    1.928482    0.664565
     16          1           0       -3.504888    2.964989    0.322607
     17          1           0       -2.770859    1.866079    1.516084
     18          1           0       -4.442613    1.581308    0.938327
 ---------------------------------------------------------------------

 SCF Done:  E(RHF) =  -2250.02347807     A.U. after    2 cycles

 The electronic state is 1-A.
 Alpha  occ. eigenvalues --  -93.98030 -93.98028 -93.96668 -93.96665 -69.56015
 Alpha  occ. eigenvalues --  -69.56014 -11.27734 -11.27734  -8.25879  -8.25878
 Alpha  occ. eigenvalues --   -8.24756  -8.24755  -6.23690  -6.23690  -6.23488
 Alpha  occ. eigenvalues --   -6.23488  -6.23250  -6.23250  -6.22922  -6.22910
 Alpha  occ. eigenvalues --   -6.22532  -6.22532  -6.22349  -6.22349  -6.22149
 Alpha  occ. eigenvalues --   -6.22149  -3.98288  -3.98288  -3.98215  -3.98195
 Alpha  occ. eigenvalues --   -3.98194  -3.98130  -1.10127  -1.10116  -0.98700
 Alpha  occ. eigenvalues --   -0.98382  -0.85346  -0.84804  -0.75749  -0.68519
 Alpha  occ. eigenvalues --   -0.61141  -0.61079  -0.60847  -0.60836  -0.54395
 Alpha  occ. eigenvalues --   -0.53386  -0.52439  -0.50884  -0.50009  -0.48771
 Alpha  occ. eigenvalues --   -0.45745  -0.45217  -0.44617  -0.38792  -0.36620
 Alpha  occ. eigenvalues --   -0.36003  -0.35325
 Alpha virt. eigenvalues --    0.03133   0.03484   0.04214   0.04519   0.05296
 Alpha virt. eigenvalues --    0.05442   0.06022   0.06378   0.06678   0.07175
 Alpha virt. eigenvalues --    0.08283   0.08437   0.09135   0.09652   0.09878

 Mulliken charges:
               1
     1  Si   0.969433
     2  Si   0.969434
     3  S   -0.636292
     4  H   -0.066031
     5  H   -0.181001
     6  S    0.090884
     7  S   -0.636289
     8  H   -0.066035
     9  H   -0.181003
    10  S    0.090881
    11  C   -0.731851
    12  H    0.196045
    13  H    0.141710
    14  H    0.217105
    15  C   -0.731849
    16  H    0.196044
    17  H    0.141712
    18  H    0.217106
 Sum of Mulliken charges =  -0.00000

 Dipole moment (field-independent basis, Debye):
    X=              0.0000    Y=              2.3304    Z=              0.0000  Tot=              2.3304

 Test job not archived.
 1\1\GINC-SE252\SP\RHF\Aug-CC-pVDZ\C2H10S4Si2\OHZDE\09-Apr-2025\0\\#t h
 f aug-cc-pvdz iop(5/13=1,5/36=2,99/5=2) pseudo=read geom=check guess=(
 read,tcheck) scf=(maxcycle=1)\\title\\0,1\Si,0,0.833211,-1.096598,-0.8
 34417\Si,0,-0.833208,-1.09661,0.834404\S,0,-2.833541,-0.995907,-0.0294
 96\H,0,-0.655956,0.003192,1.808757\H,0,-0.801918,-2.397121,1.549408\S,
 0,-2.806017,0.981099,-0.758879\S,0,2.833536,-0.995907,0.029505\H,0,0.6
 55972,0.003216,-1.808759\H,0,0.80193,-2.397099,-1.549442\S,0,2.806023,
 0.9811,0.758886\C,0,-3.44737,1.928484,0.664562\H,0,-3.504881,2.964994,

 Normal termination of Gaussian 16 at Wed Apr  9 00:13:54 2025.
