 Gaussian 16, Revision C.01,

 ----------------------------------------------------------------------
 #t hf aug-cc-pvdz symm=none int=(grid=ultrafine) guess=(read,tcheck) s
 table=(opt,rrhf)
 ----------------------------------------------------------------------
 -----
 title
 -----
 Symbolic Z-matrix:
 Charge =  0 Multiplicity = 1

 SCF Done:  E(RHF) =  -855.210517372     A.U. after   15 cycles
 Normal termination of Gaussian 16 at Tue Apr  8 23:24:29 2025.
 Gaussian 16:  ES64L-G16RevC.01  3-Jul-2019

 ----------------------------------------------------------------------
 #t hf aug-cc-pvdz iop(5/13=1,5/36=2,99/5=2) pseudo=read geom=check gue
 ss=(read,tcheck) scf=(maxcycle=1)
 ----------------------------------------------------------------------
 -----
 title
 -----
 Structure from the checkpoint file:  "BDE49_nonexpt_1227_mol1.chk"
 Charge =  0 Multiplicity = 1

                         Standard orientation:
 ---------------------------------------------------------------------
 Center     Atomic      Atomic             Coordinates (Angstroms)
 Number     Number       Type             X           Y           Z
 ---------------------------------------------------------------------
      1         16           0       -0.666102    1.370384   -0.063896
      2          8           0        0.807506    0.847784   -0.707902
      3          6           0        1.697409    0.197670    0.136770
      4          6           0       -1.542711   -0.204925   -0.014306
      5          8           0       -1.034474   -1.233319   -0.365059
      6          8           0        1.520903    0.054369    1.308318
      7          6           0        3.976396   -0.898763    0.182315
      8          6           0       -3.963332   -0.915766   -0.216491
      9          1           0       -4.942232   -0.861035    0.263887
     10          1           0       -3.638747   -1.956809   -0.230410
     11          1           0       -4.071034   -0.580955   -1.250824
     12          1           0        4.795379   -1.251812   -0.448155
     13          1           0        3.592420   -1.743898    0.755740
     14          1           0        4.377948   -0.173303    0.892509
     15          6           0       -2.947252   -0.053505    0.539143
     16          6           0        2.878127   -0.278643   -0.677658
     17          1           0       -2.890985   -0.360682    1.589938
     18          1           0       -3.239137    1.002542    0.537819
     19          1           0        3.246791    0.568134   -1.264209
     20          1           0        2.483931   -0.995402   -1.405452
 ---------------------------------------------------------------------

 SCF Done:  E(RHF) =  -855.731750295     A.U. after    2 cycles

 The electronic state is 1-A.
 Alpha  occ. eigenvalues --  -94.02720 -20.61507 -20.55874 -20.54623 -11.39783
 Alpha  occ. eigenvalues --  -11.38210 -11.27132 -11.25823 -11.24655 -11.23399
 Alpha  occ. eigenvalues --   -8.30248  -6.28073  -6.27814  -6.27586  -1.54645
 Alpha  occ. eigenvalues --   -1.49974  -1.46388  -1.10117  -1.07322  -1.02603
 Alpha  occ. eigenvalues --   -0.92084  -0.88510  -0.79314  -0.74773  -0.70956
 Alpha  occ. eigenvalues --   -0.69548  -0.67814  -0.65826  -0.65148  -0.62218
 Alpha  occ. eigenvalues --   -0.59552  -0.58385  -0.56693  -0.55167  -0.53509
 Alpha  occ. eigenvalues --   -0.53411  -0.52252  -0.51412  -0.50885  -0.48837
 Alpha  occ. eigenvalues --   -0.44887  -0.41151  -0.39563
 Alpha virt. eigenvalues --    0.03315   0.03816   0.04330   0.04535   0.05091
 Alpha virt. eigenvalues --    0.05310   0.05570   0.07173   0.07484   0.07841
 Alpha virt. eigenvalues --    0.09028   0.10492   0.10931   0.11979   0.12116

 Mulliken charges:
               1
     1  S    0.962650
     2  O   -1.413696
     3  C    1.852134
     4  C    0.874377
     5  O   -1.324250
     6  O   -1.184840
     7  C   -0.296617
     8  C   -0.334227
     9  H    0.135444
    10  H    0.193038
    11  H    0.160625
    12  H    0.131475
    13  H    0.178416
    14  H    0.167878
    15  C   -0.552186
    16  C   -0.542109
    17  H    0.298109
    18  H    0.247234
    19  H    0.205643
    20  H    0.240901
 Sum of Mulliken charges =  -0.00000

 Dipole moment (field-independent basis, Debye):
    X=             -1.1683    Y=              0.6921    Z=             -0.8319  Tot=              1.5925

 Test job not archived.
 1\1\GINC-SE173\SP\RHF\Aug-CC-pVDZ\C6H10O3S1\OHZDE\08-Apr-2025\0\\#t hf
  aug-cc-pvdz iop(5/13=1,5/36=2,99/5=2) pseudo=read geom=check guess=(r
 ead,tcheck) scf=(maxcycle=1)\\title\\0,1\S,0,-0.666102,1.370384,-0.063
 896\O,0,0.807506,0.847784,-0.707902\C,0,1.697409,0.19767,0.13677\C,0,-
 1.542711,-0.204925,-0.014306\O,0,-1.034474,-1.233319,-0.365059\O,0,1.5
 20903,0.054369,1.308318\C,0,3.976396,-0.898763,0.182315\C,0,-3.963332,
 -0.915766,-0.216491\H,0,-4.942232,-0.861035,0.263887\H,0,-3.638747,-1.
 956809,-0.23041\H,0,-4.071034,-0.580955,-1.250824\H,0,4.795379,-1.2518

 Normal termination of Gaussian 16 at Tue Apr  8 23:24:39 2025.
