 Gaussian 16, Revision C.01,

 ----------------------------------------------------------------------
 #t hf aug-cc-pvdz symm=none int=(grid=ultrafine) guess=(read,tcheck) s
 table=opt
 ----------------------------------------------------------------------
 -----
 title
 -----
 Symbolic Z-matrix:
 Charge =  0 Multiplicity = 2

 SCF Done:  E(UHF) =  -604.927571370     A.U. after   19 cycles
 Normal termination of Gaussian 16 at Wed Apr  9 00:18:04 2025.
 Gaussian 16:  ES64L-G16RevC.01  3-Jul-2019

 ----------------------------------------------------------------------
 #t hf aug-cc-pvdz iop(5/13=1,5/36=2,99/5=2) pseudo=read geom=check gue
 ss=(read,tcheck) scf=(maxcycle=1)
 ----------------------------------------------------------------------
 -----
 title
 -----
 Structure from the checkpoint file:  "BDE49_nonexpt_2565_mol2.chk"
 Charge =  0 Multiplicity = 2

                         Standard orientation:
 ---------------------------------------------------------------------
 Center     Atomic      Atomic             Coordinates (Angstroms)
 Number     Number       Type             X           Y           Z
 ---------------------------------------------------------------------
      1         16           0       -1.773124   -0.340858   -0.000028
      2          6           0       -0.104609    0.233176    0.000045
      3          8           0       -0.013680    1.455366   -0.000016
      4          7           0        0.924424   -0.634830    0.000026
      5          6           0        2.319561   -0.209351    0.000011
      6          1           0        0.705990   -1.618823    0.000027
      7          1           0        2.340344    0.878517   -0.000006
      8          1           0        2.836204   -0.574036   -0.891308
      9          1           0        2.836213   -0.574006    0.891338
 ---------------------------------------------------------------------

 SCF Done:  E(UHF) =  -605.189951023     A.U. after    2 cycles

 The electronic state is 2-A.
 Alpha  occ. eigenvalues --  -93.99452 -20.52710 -15.55147 -11.39812 -11.28707
 Alpha  occ. eigenvalues --   -8.27643  -6.26806  -6.25020  -6.24705  -1.47851
 Alpha  occ. eigenvalues --   -1.26610  -1.07327  -0.97619  -0.84351  -0.71461
 Alpha  occ. eigenvalues --   -0.68555  -0.66326  -0.59118  -0.57702  -0.57495
 Alpha  occ. eigenvalues --   -0.49091  -0.43963  -0.42593  -0.40963
 Alpha virt. eigenvalues --    0.02763   0.04660   0.04994   0.06369   0.07522
 Alpha virt. eigenvalues --    0.09700   0.11255   0.11646   0.12967   0.13375
 Alpha virt. eigenvalues --    0.14073   0.14914   0.16576   0.16939   0.18100

  Beta  occ. eigenvalues --  -93.98541 -20.52378 -15.55163 -11.39926 -11.28700
  Beta  occ. eigenvalues --   -8.26596  -6.24533  -6.24144  -6.22745  -1.47087
  Beta  occ. eigenvalues --   -1.26496  -1.02408  -0.94698  -0.84065  -0.70228
  Beta  occ. eigenvalues --   -0.67000  -0.66350  -0.57864  -0.57526  -0.57300
  Beta  occ. eigenvalues --   -0.43787  -0.42360  -0.38761
  Beta virt. eigenvalues --   -0.01187   0.02878   0.04947   0.04996   0.06447
  Beta virt. eigenvalues --    0.07670   0.09980   0.11685   0.11882   0.12998
  Beta virt. eigenvalues --    0.13613   0.14268   0.15593   0.16605   0.17278

 Mulliken charges and spin densities:
               1          2
     1  S    0.448541   1.066240
     2  C    0.027806  -0.082197
     3  O   -1.078541   0.044041
     4  N    0.559344  -0.025465
     5  C   -0.408815  -0.009015
     6  H    0.106615   0.007827
     7  H    0.075073  -0.000768
     8  H    0.134981  -0.000331
     9  H    0.134996  -0.000331
 Sum of Mulliken charges =   0.00000   1.00000

 Dipole moment (field-independent basis, Debye):
    X=              2.0126    Y=             -3.3839    Z=              0.0001  Tot=              3.9372
                          Isotropic Fermi Contact Couplings
        Atom                 a.u.       MegaHertz       Gauss      10(-4) cm-1
     1  S(33)              0.20567      70.64115      25.20652      23.56335
     2  C(13)             -0.02111     -23.72825      -8.46683      -7.91489
     3  O(17)              0.03778     -22.90186      -8.17195      -7.63924
     4  N(14)             -0.00539      -1.74241      -0.62173      -0.58120
     5  C(13)              0.00136       1.52793       0.54521       0.50966
     6  H(1)               0.00025       1.13151       0.40375       0.37743
     7  H(1)              -0.00001      -0.06686      -0.02386      -0.02230
     8  H(1)              -0.00005      -0.22287      -0.07952      -0.07434

 Normal termination of Gaussian 16 at Wed Apr  9 00:18:08 2025.
