 Gaussian 16, Revision C.01,

 ----------------------------------------------------------------------
 #t hf aug-cc-pvdz symm=none int=(grid=ultrafine) guess=(read,tcheck) s
 table=(opt,rrhf)
 ----------------------------------------------------------------------
 -----
 title
 -----
 Symbolic Z-matrix:
 Charge =  0 Multiplicity = 1

 SCF Done:  E(RHF) =  -840.579065713     A.U. after   14 cycles
 Normal termination of Gaussian 16 at Tue Apr  8 23:53:25 2025.
 Gaussian 16:  ES64L-G16RevC.01  3-Jul-2019

 ----------------------------------------------------------------------
 #t hf aug-cc-pvdz iop(5/13=1,5/36=2,99/5=2) pseudo=read geom=check gue
 ss=(read,tcheck) scf=(maxcycle=1)
 ----------------------------------------------------------------------
 -----
 title
 -----
 Structure from the checkpoint file:  "BDE49_nonexpt_1940_mol1.chk"
 Charge =  0 Multiplicity = 1

                         Standard orientation:
 ---------------------------------------------------------------------
 Center     Atomic      Atomic             Coordinates (Angstroms)
 Number     Number       Type             X           Y           Z
 ---------------------------------------------------------------------
      1         14           0        2.104031   -0.270149   -0.276489
      2          6           0        0.617618   -0.040414    0.895090
      3          6           0       -0.583192    0.527400    0.183871
      4          8           0       -0.678589    1.663992   -0.190697
      5          1           0        3.196707   -0.902760    0.496447
      6          1           0        2.547107    1.041439   -0.790916
      7         16           0       -1.896188   -0.704059   -0.101690
      8          1           0        1.723125   -1.151483   -1.401462
      9          1           0       -2.672496    0.145617   -0.794851
     10          1           0        0.919466    0.675633    1.665251
     11          1           0        0.390821   -0.995273    1.375236
 ---------------------------------------------------------------------

 SCF Done:  E(RHF) =  -840.825461849     A.U. after    2 cycles

 The electronic state is 1-A.
 Alpha  occ. eigenvalues --  -93.97601 -69.54693 -20.55560 -11.38912 -11.25831
 Alpha  occ. eigenvalues --   -8.25802  -6.23636  -6.23484  -6.23280  -6.21735
 Alpha  occ. eigenvalues --   -3.97121  -3.97103  -3.97091  -1.49933  -1.07941
 Alpha  occ. eigenvalues --   -1.00542  -0.78209  -0.73376  -0.67091  -0.65576
 Alpha  occ. eigenvalues --   -0.59488  -0.57103  -0.54008  -0.50038  -0.49483
 Alpha  occ. eigenvalues --   -0.47591  -0.41282  -0.40029
 Alpha virt. eigenvalues --    0.03346   0.04100   0.04422   0.04682   0.06794
 Alpha virt. eigenvalues --    0.07707   0.08042   0.08339   0.09221   0.10014
 Alpha virt. eigenvalues --    0.11079   0.11226   0.14252   0.14318   0.14914

 Mulliken charges:
               1
     1  Si   1.040591
     2  C   -0.744339
     3  C    0.962372
     4  O   -1.265588
     5  H   -0.194162
     6  H   -0.148026
     7  S   -0.119508
     8  H   -0.179885
     9  H    0.373179
    10  H    0.163133
    11  H    0.112233
 Sum of Mulliken charges =  -0.00000

 Dipole moment (field-independent basis, Debye):
    X=              0.7487    Y=             -1.4563    Z=              0.8159  Tot=              1.8295

 Test job not archived.
 1\1\GINC-SE344\SP\RHF\Aug-CC-pVDZ\C2H6O1S1Si1\OHZDE\08-Apr-2025\0\\#t
 hf aug-cc-pvdz iop(5/13=1,5/36=2,99/5=2) pseudo=read geom=check guess=
 (read,tcheck) scf=(maxcycle=1)\\title\\0,1\Si,0,2.104031,-0.270149,-0.
 276489\C,0,0.617618,-0.040414,0.89509\C,0,-0.583192,0.5274,0.183871\O,
 0,-0.678589,1.663992,-0.190697\H,0,3.196707,-0.90276,0.496447\H,0,2.54
 7107,1.041439,-0.790916\S,0,-1.896188,-0.704058,-0.10169\H,0,1.723125,
 -1.151483,-1.401462\H,0,-2.672496,0.145618,-0.794851\H,0,0.919466,0.67
 5633,1.665251\H,0,0.390821,-0.995273,1.375236\\Version=ES64L-G16RevC.0

 Normal termination of Gaussian 16 at Tue Apr  8 23:53:29 2025.
