 Gaussian 16, Revision C.01,

 ----------------------------------------------------------------------
 #t hf aug-cc-pvdz symm=none int=(grid=ultrafine) guess=(read,tcheck) s
 table=(opt,rrhf)
 ----------------------------------------------------------------------
 -----
 title
 -----
 Symbolic Z-matrix:
 Charge =  0 Multiplicity = 1

 SCF Done:  E(RHF) =  -517.249682519     A.U. after   15 cycles
 Normal termination of Gaussian 16 at Wed Apr  9 00:00:50 2025.
 Gaussian 16:  ES64L-G16RevC.01  3-Jul-2019

 ----------------------------------------------------------------------
 #t hf aug-cc-pvdz iop(5/13=1,5/36=2,99/5=2) pseudo=read geom=check gue
 ss=(read,tcheck) scf=(maxcycle=1)
 ----------------------------------------------------------------------
 -----
 title
 -----
 Structure from the checkpoint file:  "BDE49_nonexpt_2121_mol1.chk"
 Charge =  0 Multiplicity = 1

                         Standard orientation:
 ---------------------------------------------------------------------
 Center     Atomic      Atomic             Coordinates (Angstroms)
 Number     Number       Type             X           Y           Z
 ---------------------------------------------------------------------
      1         14           0        1.767827   -0.501105    0.196740
      2          7           0        0.020208   -0.877899    0.010728
      3          7           0       -0.712051    0.063461   -0.340990
      4          6           0       -2.137327   -0.303721   -0.467120
      5          6           0       -2.971600    0.569607    0.470027
      6          1           0       -2.263603   -1.372310   -0.263537
      7          1           0       -2.408386   -0.094905   -1.508220
      8          1           0       -2.730141    0.354802    1.514001
      9          1           0       -4.036876    0.379905    0.320110
     10          1           0       -2.778924    1.628695    0.284617
     11          6           0        2.237144    1.272639   -0.162440
     12          1           0        1.981241    1.544260   -1.189240
     13          1           0        3.313696    1.411919   -0.025622
     14          1           0        1.712158    1.958809    0.506250
     15          1           0        2.451284   -1.445593   -0.717364
     16          1           0        2.083565   -0.880199    1.593685
 ---------------------------------------------------------------------

 SCF Done:  E(RHF) =  -517.524310319     A.U. after    2 cycles

 The electronic state is 1-A.
 Alpha  occ. eigenvalues --  -69.53957 -15.56907 -15.53101 -11.25946 -11.23323
 Alpha  occ. eigenvalues --  -11.22038  -6.20905  -3.96279  -3.96216  -3.96209
 Alpha  occ. eigenvalues --   -1.34488  -1.06686  -0.96231  -0.92713  -0.82063
 Alpha  occ. eigenvalues --   -0.73671  -0.66791  -0.63771  -0.61687  -0.58539
 Alpha  occ. eigenvalues --   -0.56830  -0.55658  -0.54626  -0.51144  -0.50079
 Alpha  occ. eigenvalues --   -0.46855  -0.46462  -0.39778
 Alpha virt. eigenvalues --    0.03576   0.04401   0.04520   0.04890   0.05144
 Alpha virt. eigenvalues --    0.05488   0.05594   0.06172   0.07430   0.08113
 Alpha virt. eigenvalues --    0.08683   0.09246   0.09914   0.11904   0.13092

 Mulliken charges:
               1
     1  Si   1.249427
     2  N   -0.313000
     3  N   -0.091547
     4  C   -0.382276
     5  C   -0.350294
     6  H    0.097646
     7  H    0.121462
     8  H    0.150409
     9  H    0.150462
    10  H    0.187897
    11  C   -0.692541
    12  H    0.124472
    13  H    0.003054
    14  H    0.122759
    15  H   -0.192504
    16  H   -0.185427
 Sum of Mulliken charges =   0.00000

 Dipole moment (field-independent basis, Debye):
    X=             -0.2864    Y=              0.9133    Z=             -0.1552  Tot=              0.9696

 Test job not archived.
 1\1\GINC-SE457\SP\RHF\Aug-CC-pVDZ\C3H10N2Si1\OHZDE\09-Apr-2025\0\\#t h
 f aug-cc-pvdz iop(5/13=1,5/36=2,99/5=2) pseudo=read geom=check guess=(
 read,tcheck) scf=(maxcycle=1)\\title\\0,1\Si,0,1.767827,-0.501105,0.19
 674\N,0,0.020208,-0.877899,0.010728\N,0,-0.712051,0.063461,-0.34099\C,
 0,-2.137327,-0.303721,-0.46712\C,0,-2.9716,0.569607,0.470027\H,0,-2.26
 3603,-1.37231,-0.263537\H,0,-2.408386,-0.094905,-1.50822\H,0,-2.730141
 ,0.354802,1.514001\H,0,-4.036876,0.379905,0.32011\H,0,-2.778924,1.6286
 95,0.284617\C,0,2.237144,1.272639,-0.16244\H,0,1.981241,1.54426,-1.189

 Normal termination of Gaussian 16 at Wed Apr  9 00:00:55 2025.
