 Gaussian 16, Revision C.01,

 ----------------------------------------------------------------------
 #t hf aug-cc-pvdz symm=none int=(grid=ultrafine) guess=(read,tcheck) s
 table=(opt,rrhf)
 ----------------------------------------------------------------------
 -----
 title
 -----
 Symbolic Z-matrix:
 Charge =  0 Multiplicity = 1

 SCF Done:  E(RHF) =  -593.886716228     A.U. after   12 cycles

 1\1\GINC-SE366\Stability\RHF\Aug-CC-pVDZ\C5H12S1\OHZDE\08-Apr-2025\0\\
 #t hf aug-cc-pvdz symm=none int=(grid=ultrafine) guess=(read,tcheck) s
 table=(opt,rrhf)\\title\\0,1\C,0,1.504029,0.079888,0.\C,0,0.,0.356335,
 0.\C,0,-0.832519,-0.93229,0.\H,0,-0.257636,0.958762,-0.878486\H,0,-0.2
 57636,0.958762,0.878486\C,0,-2.344126,-0.675212,0.\H,0,-0.569129,-1.53
 6305,0.877636\H,0,-0.569129,-1.536305,-0.877636\C,0,-3.173793,-1.96215
 1,0.\H,0,-2.606609,-0.070771,-0.876391\H,0,-2.606609,-0.070771,0.87639
 1\H,0,-2.958727,-2.571942,-0.883069\H,0,-4.245286,-1.744884,0.\H,0,-2.

 Normal termination of Gaussian 16 at Tue Apr  8 22:45:55 2025.
 Gaussian 16:  ES64L-G16RevC.01  3-Jul-2019

 ----------------------------------------------------------------------
 #t hf aug-cc-pvdz iop(5/13=1,5/36=2,99/5=2) pseudo=read geom=check gue
 ss=(read,tcheck) scf=(maxcycle=1)
 ----------------------------------------------------------------------
 -----
 title
 -----
 Structure from the checkpoint file:  "BDE49_expt_1553_mol1.chk"
 Charge =  0 Multiplicity = 1

                         Standard orientation:
 ---------------------------------------------------------------------
 Center     Atomic      Atomic             Coordinates (Angstroms)
 Number     Number       Type             X           Y           Z
 ---------------------------------------------------------------------
      1          6           0       -1.504029    0.079888    0.000000
      2          6           0        0.000000    0.356335    0.000000
      3          6           0        0.832519   -0.932290    0.000000
      4          1           0        0.257636    0.958762    0.878486
      5          1           0        0.257636    0.958762   -0.878486
      6          6           0        2.344126   -0.675212    0.000000
      7          1           0        0.569129   -1.536305   -0.877636
      8          1           0        0.569129   -1.536305    0.877636
      9          6           0        3.173793   -1.962151    0.000000
     10          1           0        2.606609   -0.070771    0.876391
     11          1           0        2.606609   -0.070771   -0.876391
     12          1           0        2.958726   -2.571942    0.883069
     13          1           0        4.245286   -1.744885    0.000000
     14          1           0        2.958726   -2.571942   -0.883069
     15         16           0       -2.429432    1.676043    0.000000
     16          1           0       -1.785586   -0.490082    0.887511
     17          1           0       -1.785586   -0.490082   -0.887511
     18          1           0       -3.665854    1.149462    0.000000
 ---------------------------------------------------------------------

 SCF Done:  E(RHF) =  -594.168487416     A.U. after    2 cycles

 The electronic state is 1-A'.
 Alpha  occ. eigenvalues --  -93.94370 -11.26963 -11.23842 -11.23307 -11.23134
 Alpha  occ. eigenvalues --  -11.22575  -8.22432  -6.20287  -6.20143  -6.19915
 Alpha  occ. eigenvalues --   -1.10465  -1.05404  -0.98304  -0.89737  -0.81773
 Alpha  occ. eigenvalues --   -0.79996  -0.66752  -0.61910  -0.61517  -0.58786
 Alpha  occ. eigenvalues --   -0.55404  -0.55210  -0.52726  -0.49862  -0.48330
 Alpha  occ. eigenvalues --   -0.47479  -0.47055  -0.45020  -0.36043
 Alpha virt. eigenvalues --    0.03327   0.03647   0.03771   0.04221   0.05315
 Alpha virt. eigenvalues --    0.06283   0.06354   0.06827   0.08256   0.09304
 Alpha virt. eigenvalues --    0.09565   0.10506   0.10604   0.11514   0.13339

 Mulliken charges:
               1
     1  C   -0.578424
     2  C   -0.143372
     3  C   -0.419270
     4  H    0.141545
     5  H    0.141545
     6  C   -0.232493
     7  H    0.096523
     8  H    0.096523
     9  C   -0.405398
    10  H    0.114698
    11  H    0.114698
    12  H    0.163817
    13  H    0.118597
    14  H    0.163817
    15  S    0.109099
    16  H    0.108658
    17  H    0.108658
    18  H    0.300778
 Sum of Mulliken charges =  -0.00000

 Dipole moment (field-independent basis, Debye):
    X=              0.4328    Y=             -1.8289    Z=             -0.0000  Tot=              1.8794

 Test job not archived.
 1\1\GINC-SE366\SP\RHF\Aug-CC-pVDZ\C5H12S1\OHZDE\08-Apr-2025\0\\#t hf a
 ug-cc-pvdz iop(5/13=1,5/36=2,99/5=2) pseudo=read geom=check guess=(rea
 d,tcheck) scf=(maxcycle=1)\\title\\0,1\C,0,1.504029,0.079888,0.\C,0,0.
 ,0.356335,0.\C,0,-0.832519,-0.93229,0.\H,0,-0.257636,0.958762,-0.87848
 6\H,0,-0.257636,0.958762,0.878486\C,0,-2.344126,-0.675212,0.\H,0,-0.56
 9129,-1.536305,0.877636\H,0,-0.569129,-1.536305,-0.877636\C,0,-3.17379
 3,-1.962151,0.\H,0,-2.606609,-0.070771,-0.876391\H,0,-2.606609,-0.0707
 71,0.876391\H,0,-2.958727,-2.571942,-0.883069\H,0,-4.245286,-1.744884,

 Normal termination of Gaussian 16 at Tue Apr  8 22:45:59 2025.
