 Gaussian 16, Revision C.01,

 ----------------------------------------------------------------------
 #t hf aug-cc-pvdz symm=none int=(grid=ultrafine) guess=(read,tcheck) s
 table=opt
 ----------------------------------------------------------------------
 -----
 title
 -----
 Symbolic Z-matrix:
 Charge =  0 Multiplicity = 2

 SCF Done:  E(UHF) =  -238.662463657     A.U. after   15 cycles
 Normal termination of Gaussian 16 at Wed Apr  9 00:34:18 2025.
 Gaussian 16:  ES64L-G16RevC.01  3-Jul-2019

 ----------------------------------------------------------------------
 #t hf aug-cc-pvdz iop(5/13=1,5/36=2,99/5=2) pseudo=read geom=check gue
 ss=(read,tcheck) scf=(maxcycle=1)
 ----------------------------------------------------------------------
 -----
 title
 -----
 Structure from the checkpoint file:  "BDE49_nonexpt_439_mol2.chk"
 Charge =  0 Multiplicity = 2

                         Standard orientation:
 ---------------------------------------------------------------------
 Center     Atomic      Atomic             Coordinates (Angstroms)
 Number     Number       Type             X           Y           Z
 ---------------------------------------------------------------------
      1          5           0       -0.785001    0.674099    0.000001
      2          9           0       -1.493934   -0.456182   -0.000009
      3          8           0        0.543289    0.719235    0.000006
      4          6           0        1.374908   -0.463598    0.000003
      5          1           0        2.003687   -0.433809   -0.889936
      6          1           0        0.767304   -1.369498   -0.000022
      7          1           0        2.003656   -0.433837    0.889965
 ---------------------------------------------------------------------

 SCF Done:  E(UHF) =  -238.888857645     A.U. after    2 cycles

 The electronic state is 2-A.
 Alpha  occ. eigenvalues --  -26.47397 -20.57518 -11.31001  -7.70336  -1.60713
 Alpha  occ. eigenvalues --   -1.48792  -0.97241  -0.78096  -0.72599  -0.68526
 Alpha  occ. eigenvalues --   -0.67555  -0.63577  -0.62056  -0.52329  -0.49049
 Alpha  occ. eigenvalues --   -0.37533
 Alpha virt. eigenvalues --    0.03426   0.04305   0.05350   0.05948   0.07338
 Alpha virt. eigenvalues --    0.07846   0.09383   0.13460   0.14821   0.14899
 Alpha virt. eigenvalues --    0.16261   0.16579   0.22945   0.23441   0.24132

  Beta  occ. eigenvalues --  -26.47028 -20.57429 -11.30867  -7.68107  -1.59636
  Beta  occ. eigenvalues --   -1.48372  -0.96383  -0.76856  -0.71108  -0.67326
  Beta  occ. eigenvalues --   -0.65773  -0.63682  -0.61480  -0.51962  -0.49376
  Beta virt. eigenvalues --    0.03411   0.04353   0.04462   0.05426   0.07541
  Beta virt. eigenvalues --    0.07674   0.08443   0.12399   0.14518   0.15230
  Beta virt. eigenvalues --    0.15722   0.16780   0.20145   0.23821   0.23836

 Mulliken charges and spin densities:
               1          2
     1  B    0.605951   1.076564
     2  F   -0.427739  -0.005419
     3  O   -0.900104  -0.104846
     4  C    0.446712   0.051019
     5  H    0.096406  -0.002546
     6  H    0.082368  -0.012226
     7  H    0.096407  -0.002545
 Sum of Mulliken charges =  -0.00000   1.00000

 Dipole moment (field-independent basis, Debye):
    X=              1.6636    Y=             -1.2180    Z=              0.0000  Tot=              2.0618
                          Isotropic Fermi Contact Couplings
        Atom                 a.u.       MegaHertz       Gauss      10(-4) cm-1
     1  B(11)              0.46457     666.36813     237.77672     222.27648
     2  F(19)              0.10786     453.81111     161.93109     151.37509
     3  O(17)              0.14987     -90.85071     -32.41779     -30.30453
     4  C(13)              0.02330      26.19193       9.34593       8.73669
     5  H(1)              -0.00102      -4.57546      -1.63264      -1.52621
     6  H(1)              -0.00076      -3.39686      -1.21208      -1.13307
     7  H(1)              -0.00102      -4.57552      -1.63266      -1.52623
 --------------------------------------------------------

 Normal termination of Gaussian 16 at Wed Apr  9 00:34:20 2025.
