 Gaussian 16, Revision C.01,

 ----------------------------------------------------------------------
 #t hf aug-cc-pvdz symm=none int=(grid=ultrafine) guess=(read,tcheck) s
 table=opt
 ----------------------------------------------------------------------
 -----
 title
 -----
 Symbolic Z-matrix:
 Charge =  0 Multiplicity = 2

 SCF Done:  E(UHF) =  -834.123243743     A.U. after   18 cycles
 Normal termination of Gaussian 16 at Tue Apr  8 22:39:46 2025.
 Gaussian 16:  ES64L-G16RevC.01  3-Jul-2019

 ----------------------------------------------------------------------
 #t hf aug-cc-pvdz iop(5/13=1,5/36=2,99/5=2) pseudo=read geom=check gue
 ss=(read,tcheck) scf=(maxcycle=1)
 ----------------------------------------------------------------------
 -----
 title
 -----
 Structure from the checkpoint file:  "BDE49_expt_130_mol2.chk"
 Charge =  0 Multiplicity = 2

                         Standard orientation:
 ---------------------------------------------------------------------
 Center     Atomic      Atomic             Coordinates (Angstroms)
 Number     Number       Type             X           Y           Z
 ---------------------------------------------------------------------
      1          6           0       -0.076291    0.433133    0.000891
      2          6           0        1.229225    0.100999   -0.604870
      3          9           0        0.043100    0.802557    1.287988
      4         17           0       -1.226999   -0.989792   -0.043835
      5          9           0       -0.644022    1.438956   -0.691466
      6          1           0        1.378813    0.130856   -1.676061
      7          9           0        1.996764   -0.742533    0.075159
 ---------------------------------------------------------------------

 SCF Done:  E(UHF) =  -834.540724234     A.U. after    2 cycles

 The electronic state is 2-A.
 Alpha  occ. eigenvalues -- -105.59639 -26.52779 -26.52340 -26.52021 -11.52028
 Alpha  occ. eigenvalues --  -11.38521 -10.64486  -7.81568  -7.81000  -7.80972
 Alpha  occ. eigenvalues --   -1.70202  -1.65727  -1.63000  -1.13961  -1.05073
 Alpha  occ. eigenvalues --   -0.90480  -0.81897  -0.80926  -0.77931  -0.74894
 Alpha  occ. eigenvalues --   -0.73251  -0.68428  -0.67568  -0.64852  -0.62096
 Alpha  occ. eigenvalues --   -0.55984  -0.50583  -0.49669  -0.42751
 Alpha virt. eigenvalues --    0.03590   0.07700   0.08334   0.09141   0.10321
 Alpha virt. eigenvalues --    0.12227   0.12354   0.13015   0.15337   0.16099
 Alpha virt. eigenvalues --    0.17407   0.19532   0.20783   0.24867   0.26693

  Beta  occ. eigenvalues -- -105.59519 -26.52780 -26.52287 -26.51563 -11.52355
  Beta  occ. eigenvalues --  -11.35870 -10.64359  -7.81166  -7.80901  -7.80851
  Beta  occ. eigenvalues --   -1.70117  -1.64382  -1.62871  -1.12494  -1.00944
  Beta  occ. eigenvalues --   -0.88784  -0.81272  -0.80450  -0.76685  -0.73914
  Beta  occ. eigenvalues --   -0.68647  -0.67946  -0.66125  -0.64731  -0.61174
  Beta  occ. eigenvalues --   -0.54692  -0.49495  -0.49453
  Beta virt. eigenvalues --    0.03582   0.04718   0.08042   0.08637   0.10244
  Beta virt. eigenvalues --    0.10565   0.12248   0.12612   0.13557   0.15392
  Beta virt. eigenvalues --    0.16912   0.17807   0.20300   0.21379   0.25429

 Mulliken charges and spin densities:
               1          2
     1  C    1.487361  -0.143420
     2  C    0.554042   1.142063
     3  F   -0.674657  -0.006607
     4  Cl  -0.139626   0.066735
     5  F   -0.689164  -0.004007
     6  H    0.120783  -0.087533
     7  F   -0.658737   0.032769
 Sum of Mulliken charges =  -0.00000   1.00000

 Dipole moment (field-independent basis, Debye):
    X=              0.8874    Y=              0.2198    Z=             -1.5400  Tot=              1.7910
                          Isotropic Fermi Contact Couplings
        Atom                 a.u.       MegaHertz       Gauss      10(-4) cm-1
     1  C(13)             -0.05835     -65.59988     -23.40767     -21.88176
     2  C(13)              0.26911     302.53629     107.95247     100.91524
     3  F(19)              0.01009      42.44170      15.14425      14.15703
     4  Cl(35)             0.04268      18.71397       6.67761       6.24231
     5  F(19)             -0.00061      -2.55127      -0.91036      -0.85101
     6  H(1)              -0.02119     -94.70080     -33.79160     -31.58879
     7  F(19)              0.06165     259.38143      92.55375      86.52033
 --------------------------------------------------------

 Normal termination of Gaussian 16 at Tue Apr  8 22:39:48 2025.
