 Gaussian 16, Revision C.01,

 ----------------------------------------------------------------------
 #t hf aug-cc-pvdz symm=none int=(grid=ultrafine) guess=(read,tcheck) s
 table=(opt,rrhf)
 ----------------------------------------------------------------------
 -----
 title
 -----
 Symbolic Z-matrix:
 Charge =  0 Multiplicity = 1

 SCF Done:  E(RHF) =  -483.282813298     A.U. after   11 cycles
 Normal termination of Gaussian 16 at Wed Apr  9 00:05:44 2025.
 Gaussian 16:  ES64L-G16RevC.01  3-Jul-2019

 ----------------------------------------------------------------------
 #t hf aug-cc-pvdz iop(5/13=1,5/36=2,99/5=2) pseudo=read geom=check gue
 ss=(read,tcheck) scf=(maxcycle=1)
 ----------------------------------------------------------------------
 -----
 title
 -----
 Structure from the checkpoint file:  "BDE49_nonexpt_2225_mol1.chk"
 Charge =  0 Multiplicity = 1

                         Standard orientation:
 ---------------------------------------------------------------------
 Center     Atomic      Atomic             Coordinates (Angstroms)
 Number     Number       Type             X           Y           Z
 ---------------------------------------------------------------------
      1          6           0        2.720021    0.551079    0.000004
      2          6           0        1.603534   -0.478523   -0.000002
      3          1           0        2.651005    1.187405   -0.885178
      4          1           0        3.696513    0.057981    0.000003
      5          1           0        2.651003    1.187398    0.885191
      6         14           0       -1.134175   -0.535908   -0.000001
      7          6           0       -2.425545    0.808813    0.000000
      8          1           0       -2.329618    1.442385    0.885471
      9          1           0       -3.429293    0.372876   -0.000003
     10          1           0       -2.329614    1.442390   -0.885467
     11          8           0        0.346387    0.197753   -0.000001
     12          1           0        1.679776   -1.122980    0.885958
     13          1           0        1.679779   -1.122973   -0.885967
     14          1           0       -1.275129   -1.406001   -1.198558
     15          1           0       -1.275127   -1.406001    1.198557
 ---------------------------------------------------------------------

 SCF Done:  E(RHF) =  -483.526031606     A.U. after    2 cycles

 The electronic state is 1-A.
 Alpha  occ. eigenvalues --  -69.54461 -20.52894 -11.29076 -11.22566 -11.21476
 Alpha  occ. eigenvalues --   -6.21107  -3.96594  -3.96448  -3.96423  -1.43212
 Alpha  occ. eigenvalues --   -1.01987  -0.95098  -0.84370  -0.72932  -0.65567
 Alpha  occ. eigenvalues --   -0.62402  -0.58493  -0.57109  -0.55646  -0.53600
 Alpha  occ. eigenvalues --   -0.53232  -0.48094  -0.47788  -0.44648  -0.42361
 Alpha virt. eigenvalues --    0.03816   0.03983   0.04248   0.04498   0.05857
 Alpha virt. eigenvalues --    0.06373   0.06742   0.07763   0.08037   0.08528
 Alpha virt. eigenvalues --    0.10257   0.10935   0.11839   0.13552   0.14226

 Mulliken charges:
               1
     1  C   -0.503869
     2  C    0.600463
     3  H    0.163208
     4  H    0.158585
     5  H    0.163208
     6  Si   2.002271
     7  C   -0.655722
     8  H    0.091104
     9  H   -0.017220
    10  H    0.091103
    11  O   -1.744947
    12  H    0.094278
    13  H    0.094278
    14  H   -0.268369
    15  H   -0.268369
 Sum of Mulliken charges =  -0.00000

 Dipole moment (field-independent basis, Debye):
    X=              0.3072    Y=             -0.3229    Z=             -0.0000  Tot=              0.4457

 Test job not archived.
 1\1\GINC-SE363\SP\RHF\Aug-CC-pVDZ\C3H10O1Si1\OHZDE\09-Apr-2025\0\\#t h
 f aug-cc-pvdz iop(5/13=1,5/36=2,99/5=2) pseudo=read geom=check guess=(
 read,tcheck) scf=(maxcycle=1)\\title\\0,1\C,0,2.720021,0.551079,0.0000
 04\C,0,1.603534,-0.478523,-0.000002\H,0,2.651005,1.187405,-0.885178\H,
 0,3.696513,0.057981,0.000003\H,0,2.651003,1.187398,0.885191\Si,0,-1.13
 4175,-0.535908,-0.000001\C,0,-2.425545,0.808813,0.\H,0,-2.329618,1.442
 385,0.885471\H,0,-3.429293,0.372876,-0.000003\H,0,-2.329614,1.44239,-0
 .885467\O,0,0.346387,0.197753,-0.000001\H,0,1.679776,-1.12298,0.885958

 Normal termination of Gaussian 16 at Wed Apr  9 00:05:48 2025.
