 Gaussian 16, Revision C.01,

 ----------------------------------------------------------------------
 #t hf aug-cc-pvdz symm=none int=(grid=ultrafine) guess=(read,tcheck) s
 table=opt
 ----------------------------------------------------------------------
 -----
 title
 -----
 Symbolic Z-matrix:
 Charge =  0 Multiplicity = 2

 SCF Done:  E(UHF) =  -697.442751912     a.u. after    9 cycles
 Normal termination of Gaussian 16 at Tue Apr  8 23:17:12 2025.
 Gaussian 16:  ES64L-G16RevC.01  3-Jul-2019

 ----------------------------------------------------------------------
 #t hf aug-cc-pvdz iop(5/13=1,5/36=2,99/5=2) pseudo=read geom=check gue
 ss=(read,tcheck) scf=(maxcycle=1)
 ----------------------------------------------------------------------
 -----
 title
 -----
 Structure from the checkpoint file:  "BDE49_nonexpt_1041_mol2.chk"
 Charge =  0 Multiplicity = 2

                         Standard orientation:
 ---------------------------------------------------------------------
 Center     Atomic      Atomic             Coordinates (Angstroms)
 Number     Number       Type             X           Y           Z
 ---------------------------------------------------------------------
      1          8           0        0.704337   -0.609975    1.147306
      2         16           0        0.077543    0.082222   -0.000002
      3          8           0        0.109043    1.507119   -0.000014
      4          8           0        0.704329   -0.609998   -1.147298
      5          8           0       -1.475844   -0.294232    0.000008
      6          1           0       -1.575600   -1.258863    0.000014
 ---------------------------------------------------------------------

 SCF Done:  E(UHF) =  -697.791792615     A.U. after    2 cycles

 The electronic state is 2-A.
 Alpha  occ. eigenvalues --  -94.31019 -20.73790 -20.66309 -20.60836 -20.59154
 Alpha  occ. eigenvalues --   -8.55419  -6.53551  -6.53427  -6.53352  -1.73451
 Alpha  occ. eigenvalues --   -1.58534  -1.52809  -1.49737  -0.95865  -0.85367
 Alpha  occ. eigenvalues --   -0.80370  -0.77526  -0.73969  -0.66593  -0.64632
 Alpha  occ. eigenvalues --   -0.61411  -0.58585  -0.55000  -0.53800  -0.51134
 Alpha virt. eigenvalues --    0.02648   0.08340   0.09115   0.09646   0.12529
 Alpha virt. eigenvalues --    0.16363   0.17939   0.19105   0.19618   0.19955
 Alpha virt. eigenvalues --    0.24722   0.25768   0.26302   0.27439   0.27778

  Beta  occ. eigenvalues --  -94.31127 -20.70123 -20.66349 -20.59511 -20.59008
  Beta  occ. eigenvalues --   -8.55570  -6.53775  -6.53594  -6.53494  -1.69229
  Beta  occ. eigenvalues --   -1.53965  -1.50276  -1.45632  -0.93998  -0.82333
  Beta  occ. eigenvalues --   -0.76274  -0.74733  -0.67203  -0.63605  -0.59582
  Beta  occ. eigenvalues --   -0.55437  -0.53810  -0.50602  -0.49608
  Beta virt. eigenvalues --   -0.04449   0.02670   0.08662   0.09474   0.09729
  Beta virt. eigenvalues --    0.12575   0.16353   0.17934   0.19187   0.19867
  Beta virt. eigenvalues --    0.20219   0.24769   0.25931   0.27069   0.27691

 Mulliken charges and spin densities:
               1          2
     1  O   -0.911260   0.930370
     2  S    4.224866  -0.235867
     3  O   -1.264597   0.031444
     4  O   -1.219019   0.277933
     5  O   -1.193713  -0.004473
     6  H    0.363723   0.000593
 Sum of Mulliken charges =  -0.00000   1.00000

 Dipole moment (field-independent basis, Debye):
    X=             -1.7151    Y=             -2.6720    Z=              1.6982  Tot=              3.6007
                          Isotropic Fermi Contact Couplings
        Atom                 a.u.       MegaHertz       Gauss      10(-4) cm-1
     1  O(17)              0.20102    -121.85459     -43.48075     -40.64632
     2  S(33)             -0.12827     -44.05689     -15.72059     -14.69580
     3  O(17)              0.00467      -2.83160      -1.01039      -0.94452
     4  O(17)              0.06410     -38.85986     -13.86616     -12.96225
     5  O(17)             -0.00556       3.36828       1.20189       1.12354
     6  H(1)               0.00006       0.25104       0.08958       0.08374
 --------------------------------------------------------
       Center         ----  Spin Dipole Couplings  ----

 Normal termination of Gaussian 16 at Tue Apr  8 23:17:15 2025.
