 Gaussian 16, Revision C.01,

 ----------------------------------------------------------------------
 #t hf aug-cc-pvdz symm=none int=(grid=ultrafine) guess=(read,tcheck) s
 table=(opt,rrhf)
 ----------------------------------------------------------------------
 -----
 title
 -----
 Symbolic Z-matrix:
 Charge =  0 Multiplicity = 1

 SCF Done:  E(RHF) =  -442.076496282     A.U. after   13 cycles
 Normal termination of Gaussian 16 at Wed Apr  9 00:41:21 2025.
 Gaussian 16:  ES64L-G16RevC.01  3-Jul-2019

 ----------------------------------------------------------------------
 #t hf aug-cc-pvdz iop(5/13=1,5/36=2,99/5=2) pseudo=read geom=check gue
 ss=(read,tcheck) scf=(maxcycle=1)
 ----------------------------------------------------------------------
 -----
 title
 -----
 Structure from the checkpoint file:  "BDE49_nonexpt_663_mol1.chk"
 Charge =  0 Multiplicity = 1

                         Standard orientation:
 ---------------------------------------------------------------------
 Center     Atomic      Atomic             Coordinates (Angstroms)
 Number     Number       Type             X           Y           Z
 ---------------------------------------------------------------------
      1          6           0        1.914189   -0.808960    0.000007
      2          6           0        0.684906    0.065618    0.000020
      3          8           0       -0.448558   -0.668577    0.000004
      4          8           0        0.702449    1.277584    0.000003
      5          5           0       -1.746337   -0.106580   -0.000009
      6          8           0       -2.744484   -1.025051   -0.000024
      7          6           0        3.223999   -0.027022   -0.000001
      8          1           0        1.835620   -1.470143   -0.869714
      9          1           0        1.835633   -1.470147    0.869727
     10          1           0        3.299390    0.614115   -0.880132
     11          1           0        4.074542   -0.712070   -0.000009
     12          1           0        3.299403    0.614112    0.880130
     13          1           0       -3.608408   -0.602027   -0.000028
     14          8           0       -1.984115    1.224218    0.000004
     15          1           0       -1.145392    1.715853    0.000021
 ---------------------------------------------------------------------

 SCF Done:  E(RHF) =  -442.519567262     A.U. after    2 cycles

 The electronic state is 1-A.
 Alpha  occ. eigenvalues --  -20.59121 -20.56239 -20.55630 -20.55560 -11.41237
 Alpha  occ. eigenvalues --  -11.26477 -11.24054  -7.68559  -1.56030  -1.48839
 Alpha  occ. eigenvalues --   -1.46214  -1.44768  -1.07748  -0.93385  -0.83742
 Alpha  occ. eigenvalues --   -0.77038  -0.72619  -0.71241  -0.69656  -0.67902
 Alpha  occ. eigenvalues --   -0.62516  -0.61772  -0.57088  -0.56327  -0.56160
 Alpha  occ. eigenvalues --   -0.54079  -0.52473  -0.51479  -0.49944  -0.48730
 Alpha  occ. eigenvalues --   -0.45930
 Alpha virt. eigenvalues --    0.03304   0.04192   0.04258   0.04591   0.05320
 Alpha virt. eigenvalues --    0.06513   0.06581   0.07624   0.08416   0.09430
 Alpha virt. eigenvalues --    0.10196   0.12827   0.13502   0.14084   0.14743

 Mulliken charges:
               1
     1  C   -0.470832
     2  C    2.184935
     3  O   -1.848048
     4  O   -1.212505
     5  B    1.816920
     6  O   -1.002425
     7  C   -0.277546
     8  H    0.222945
     9  H    0.222948
    10  H    0.173162
    11  H    0.132943
    12  H    0.173158
    13  H    0.464043
    14  O   -1.391630
    15  H    0.811932
 Sum of Mulliken charges =  -0.00000

 Dipole moment (field-independent basis, Debye):
    X=              1.1876    Y=             -0.9368    Z=              0.0000  Tot=              1.5126

 Test job not archived.
 1\1\GINC-SE179\SP\RHF\Aug-CC-pVDZ\C3H7B1O4\OHZDE\09-Apr-2025\0\\#t hf
 aug-cc-pvdz iop(5/13=1,5/36=2,99/5=2) pseudo=read geom=check guess=(re
 ad,tcheck) scf=(maxcycle=1)\\title\\0,1\C,0,1.914189,-0.80896,0.000007
 \C,0,0.684906,0.065618,0.00002\O,0,-0.448558,-0.668577,0.000004\O,0,0.
 702449,1.277584,0.000003\B,0,-1.746337,-0.10658,-0.000009\O,0,-2.74448
 4,-1.025051,-0.000024\C,0,3.223999,-0.027022,-0.000001\H,0,1.83562,-1.
 470143,-0.869714\H,0,1.835633,-1.470147,0.869727\H,0,3.29939,0.614115,
 -0.880132\H,0,4.074542,-0.71207,-0.000009\H,0,3.299403,0.614112,0.8801

 Normal termination of Gaussian 16 at Wed Apr  9 00:41:27 2025.
