 Gaussian 16, Revision C.01,

 ----------------------------------------------------------------------
 #t hf aug-cc-pvdz symm=none int=(grid=ultrafine) guess=(read,tcheck) s
 table=(opt,rrhf)
 ----------------------------------------------------------------------
 -----
 title
 -----
 Symbolic Z-matrix:
 Charge =  0 Multiplicity = 1

 SCF Done:  E(RHF) =  -1119.20496139     A.U. after   18 cycles
 Normal termination of Gaussian 16 at Tue Apr  8 23:01:28 2025.
 Gaussian 16:  ES64L-G16RevC.01  3-Jul-2019

 ----------------------------------------------------------------------
 #t hf aug-cc-pvdz iop(5/13=1,5/36=2,99/5=2) pseudo=read geom=check gue
 ss=(read,tcheck) scf=(maxcycle=1)
 ----------------------------------------------------------------------
 -----
 title
 -----
 Structure from the checkpoint file:  "BDE49_expt_1758_mol1.chk"
 Charge =  0 Multiplicity = 1

                         Standard orientation:
 ---------------------------------------------------------------------
 Center     Atomic      Atomic             Coordinates (Angstroms)
 Number     Number       Type             X           Y           Z
 ---------------------------------------------------------------------
      1          7           0        0.489639   -0.114524    0.479087
      2          7           0        0.833560    0.521630    1.665301
      3          8           0       -0.095351    0.922341    2.311197
      4          6           0        1.553566   -0.836881   -0.185204
      5          8           0        1.355011   -1.970057   -0.576801
      6          7           0        2.728624   -0.168121   -0.302377
      7          6           0       -0.880132   -0.397380    0.166202
      8          6           0       -1.697312    0.594565   -0.383939
      9          6           0       -3.035724    0.339602   -0.663415
     10          6           0       -3.563014   -0.920003   -0.397417
     11          6           0       -2.758185   -1.917828    0.146936
     12          6           0       -1.423415   -1.654815    0.431939
     13          1           0       -3.649613    1.123826   -1.086428
     14          1           0       -4.605444   -1.117656   -0.618172
     15          1           0       -3.167506   -2.899706    0.351219
     16          1           0       -0.778577   -2.418380    0.843118
     17          6           0        3.896452   -0.922902   -0.746985
     18          1           0        4.744428   -0.704754   -0.091509
     19          1           0        4.166668   -0.650636   -1.773120
     20          1           0        3.669293   -1.984857   -0.714530
     21          6           0        2.923056    1.271681   -0.148904
     22          1           0        3.553995    1.622509   -0.970607
     23          1           0        3.410538    1.510999    0.800047
     24          1           0        1.974133    1.797463   -0.198902
     25         17           0       -1.049983    2.181988   -0.742685
 ---------------------------------------------------------------------

 SCF Done:  E(RHF) =  -1119.93436208     A.U. after    2 cycles

 The electronic state is 1-A.
 Alpha  occ. eigenvalues -- -105.58220 -20.61044 -20.52404 -15.69550 -15.58585
 Alpha  occ. eigenvalues --  -15.54396 -11.40920 -11.32408 -11.30453 -11.28277
 Alpha  occ. eigenvalues --  -11.27570 -11.26555 -11.26398 -11.26347 -11.25789
 Alpha  occ. eigenvalues --  -10.63006  -7.79977  -7.79589  -7.79558  -1.61731
 Alpha  occ. eigenvalues --   -1.48611  -1.31569  -1.26280  -1.19006  -1.10845
 Alpha  occ. eigenvalues --   -1.06274  -1.00968  -1.00250  -0.99368  -0.95299
 Alpha  occ. eigenvalues --   -0.87971  -0.84610  -0.81222  -0.77623  -0.75716
 Alpha  occ. eigenvalues --   -0.72038  -0.70718  -0.68246  -0.67937  -0.67437
 Alpha  occ. eigenvalues --   -0.65381  -0.64225  -0.62370  -0.61240  -0.58618
 Alpha  occ. eigenvalues --   -0.57958  -0.57364  -0.56137  -0.55817  -0.55106
 Alpha  occ. eigenvalues --   -0.53697  -0.48962  -0.48146  -0.47352  -0.45568
 Alpha  occ. eigenvalues --   -0.44508  -0.41368  -0.36936  -0.35419
 Alpha virt. eigenvalues --    0.03193   0.03572   0.03754   0.04506   0.04717
 Alpha virt. eigenvalues --    0.04851   0.06363   0.06417   0.06685   0.07110
 Alpha virt. eigenvalues --    0.08451   0.08553   0.08867   0.09338   0.10502

 Mulliken charges:
               1
     1  N    1.498883
     2  N    1.130897
     3  O   -1.185314
     4  C   -0.414807
     5  O   -1.253646
     6  N    0.928885
     7  C   -1.807380
     8  C    0.007235
     9  C    0.568859
    10  C    0.372243
    11  C    0.378661
    12  C    0.692641
    13  H   -0.185047
    14  H   -0.211838
    15  H   -0.221528
    16  H   -0.348012
    17  C   -0.235386
    18  H    0.247205
    19  H    0.183851
    20  H    0.014738
    21  C   -0.201594
    22  H    0.106854
    23  H    0.189923
    24  H    0.084303
    25  Cl  -0.340625
 Sum of Mulliken charges =   0.00000

 Dipole moment (field-independent basis, Debye):
    X=              0.2246    Y=              0.0767    Z=             -0.9198  Tot=              0.9499

 Test job not archived.
 1\1\GINC-SE126\SP\RHF\Aug-CC-pVDZ\C9H10Cl1N3O2\OHZDE\08-Apr-2025\0\\#t
  hf aug-cc-pvdz iop(5/13=1,5/36=2,99/5=2) pseudo=read geom=check guess
 =(read,tcheck) scf=(maxcycle=1)\\title\\0,1\N,0,0.489639,-0.114524,0.4
 79087\N,0,0.83356,0.52163,1.665301\O,0,-0.095351,0.922341,2.311197\C,0
 ,1.553566,-0.836881,-0.185204\O,0,1.355011,-1.970057,-0.576801\N,0,2.7
 28624,-0.168121,-0.302377\C,0,-0.880132,-0.39738,0.166202\C,0,-1.69731
 2,0.594565,-0.383939\C,0,-3.035724,0.339602,-0.663415\C,0,-3.563014,-0
 .920003,-0.397417\C,0,-2.758185,-1.917828,0.146936\C,0,-1.423415,-1.65

 Normal termination of Gaussian 16 at Tue Apr  8 23:01:57 2025.
