 Gaussian 16, Revision C.01,

 ----------------------------------------------------------------------
 #t hf aug-cc-pvdz symm=none int=(grid=ultrafine) guess=(read,tcheck) s
 table=(opt,rrhf)
 ----------------------------------------------------------------------
 -----
 title
 -----
 Symbolic Z-matrix:
 Charge =  0 Multiplicity = 1

 SCF Done:  E(RHF) =  -644.869602916     A.U. after   15 cycles
 Normal termination of Gaussian 16 at Tue Apr  8 23:35:19 2025.
 Gaussian 16:  ES64L-G16RevC.01  3-Jul-2019

 ----------------------------------------------------------------------
 #t hf aug-cc-pvdz iop(5/13=1,5/36=2,99/5=2) pseudo=read geom=check gue
 ss=(read,tcheck) scf=(maxcycle=1)
 ----------------------------------------------------------------------
 -----
 title
 -----
 Structure from the checkpoint file:  "BDE49_nonexpt_1488_mol1.chk"
 Charge =  0 Multiplicity = 1

                         Standard orientation:
 ---------------------------------------------------------------------
 Center     Atomic      Atomic             Coordinates (Angstroms)
 Number     Number       Type             X           Y           Z
 ---------------------------------------------------------------------
      1          6           0       -1.329759   -0.002501   -0.031204
      2         15           0        0.011983   -1.288479    0.311220
      3          6           0        1.324070    0.027716   -0.059677
      4          6           0        0.708443    1.435357   -0.073122
      5          6           0       -0.772823    1.379982    0.325721
      6          8           0        2.487490   -0.196011   -0.252866
      7          1           0       -1.387689    2.145506   -0.149682
      8          1           0       -0.884857    1.494104    1.410956
      9          1           0        0.824275    1.798194   -1.100327
     10          1           0        1.308117    2.091316    0.562320
     11          8           0       -2.443130   -0.221064   -0.422582
     12          1           0        0.025935   -1.908662   -0.958283
 ---------------------------------------------------------------------

 SCF Done:  E(RHF) =  -645.213264380     A.U. after    2 cycles

 The electronic state is 1-A.
 Alpha  occ. eigenvalues --  -84.30395 -20.56779 -20.56600 -11.36990 -11.36895
 Alpha  occ. eigenvalues --  -11.27818 -11.27710  -6.77707  -4.30249  -4.30049
 Alpha  occ. eigenvalues --   -4.29454  -1.50212  -1.50147  -1.12580  -0.95550
 Alpha  occ. eigenvalues --   -0.94762  -0.76377  -0.75372  -0.68796  -0.68295
 Alpha  occ. eigenvalues --   -0.63323  -0.62243  -0.61366  -0.58907  -0.56208
 Alpha  occ. eigenvalues --   -0.53183  -0.51102  -0.45285  -0.37993  -0.36527
 Alpha virt. eigenvalues --    0.02994   0.03859   0.04778   0.04916   0.06186
 Alpha virt. eigenvalues --    0.06924   0.07313   0.08606   0.09471   0.10871
 Alpha virt. eigenvalues --    0.11554   0.12850   0.13477   0.14197   0.14512

 Mulliken charges:
               1
     1  C    0.770942
     2  P    0.365645
     3  C    0.714273
     4  C   -0.497778
     5  C   -0.321320
     6  O   -1.251511
     7  H    0.134174
     8  H    0.307104
     9  H    0.270275
    10  H    0.211348
    11  O   -1.256853
    12  H    0.553700
 Sum of Mulliken charges =  -0.00000

 Dipole moment (field-independent basis, Debye):
    X=             -0.1131    Y=              1.6107    Z=              0.8811  Tot=              1.8394

 Test job not archived.
 1\1\GINC-SE220\SP\RHF\Aug-CC-pVDZ\C4H5O2P1\OHZDE\08-Apr-2025\0\\#t hf
 aug-cc-pvdz iop(5/13=1,5/36=2,99/5=2) pseudo=read geom=check guess=(re
 ad,tcheck) scf=(maxcycle=1)\\title\\0,1\C,0,-1.329759,-0.002501,-0.031
 204\P,0,0.011983,-1.288479,0.31122\C,0,1.32407,0.027716,-0.059677\C,0,
 0.708443,1.435357,-0.073122\C,0,-0.772823,1.379982,0.325721\O,0,2.4874
 9,-0.196011,-0.252866\H,0,-1.387689,2.145506,-0.149682\H,0,-0.884857,1
 .494104,1.410956\H,0,0.824275,1.798194,-1.100327\H,0,1.308117,2.091316
 ,0.56232\O,0,-2.44313,-0.221064,-0.422582\H,0,0.025935,-1.908662,-0.95

 Normal termination of Gaussian 16 at Tue Apr  8 23:35:25 2025.
