 Gaussian 16, Revision C.01,

 ----------------------------------------------------------------------
 #t hf aug-cc-pvdz symm=none int=(grid=ultrafine) guess=(read,tcheck) s
 table=opt
 ----------------------------------------------------------------------
 -----
 title
 -----
 Symbolic Z-matrix:
 Charge =  0 Multiplicity = 2

 SCF Done:  E(UHF) =  -827.636777275     A.U. after   16 cycles
 Normal termination of Gaussian 16 at Tue Apr  8 23:45:21 2025.
 Gaussian 16:  ES64L-G16RevC.01  3-Jul-2019

 ----------------------------------------------------------------------
 #t hf aug-cc-pvdz iop(5/13=1,5/36=2,99/5=2) pseudo=read geom=check gue
 ss=(read,tcheck) scf=(maxcycle=1)
 ----------------------------------------------------------------------
 -----
 title
 -----
 Structure from the checkpoint file:  "BDE49_nonexpt_1759_mol2.chk"
 Charge =  0 Multiplicity = 2

                         Standard orientation:
 ---------------------------------------------------------------------
 Center     Atomic      Atomic             Coordinates (Angstroms)
 Number     Number       Type             X           Y           Z
 ---------------------------------------------------------------------
      1         14           0        2.316623    0.019103   -0.000000
      2          6           0        0.508054    0.606250   -0.000001
      3          6           0       -0.483284   -0.546260    0.000001
      4          1           0       -0.396195   -1.169130    0.888292
      5          1           0       -0.396195   -1.169134   -0.888287
      6         17           0       -2.220243    0.046503   -0.000000
      7          1           0        0.348719    1.237240   -0.879029
      8          1           0        0.348719    1.237244    0.879024
      9          1           0        2.628868   -0.777083   -1.215291
     10          1           0        2.628868   -0.777077    1.215295
 ---------------------------------------------------------------------

 SCF Done:  E(UHF) =  -827.829655319     A.U. after    2 cycles

 The electronic state is 2-A.
 Alpha  occ. eigenvalues -- -105.55151 -69.54867 -11.31678 -11.24936 -10.59941
 Alpha  occ. eigenvalues --   -7.76903  -7.76507  -7.76500  -6.22010  -3.97975
 Alpha  occ. eigenvalues --   -3.97053  -3.97049  -1.11184  -0.99142  -0.85392
 Alpha  occ. eigenvalues --   -0.73631  -0.66848  -0.58766  -0.57162  -0.55412
 Alpha  occ. eigenvalues --   -0.49559  -0.47118  -0.44256  -0.44142  -0.34467
 Alpha virt. eigenvalues --    0.03293   0.04283   0.04358   0.04632   0.06537
 Alpha virt. eigenvalues --    0.07492   0.08080   0.08411   0.09439   0.10475
 Alpha virt. eigenvalues --    0.12148   0.14007   0.14317   0.15697   0.16271

  Beta  occ. eigenvalues -- -105.55128 -69.54295 -11.31586 -11.24925 -10.59916
  Beta  occ. eigenvalues --   -7.76812  -7.76492  -7.76486  -6.21143  -3.96654
  Beta  occ. eigenvalues --   -3.96653  -3.95790  -1.10930  -0.98751  -0.85031
  Beta  occ. eigenvalues --   -0.69593  -0.66736  -0.58263  -0.56535  -0.55220
  Beta  occ. eigenvalues --   -0.48812  -0.46731  -0.44210  -0.43654
  Beta virt. eigenvalues --    0.01417   0.03512   0.04401   0.04600   0.05768
  Beta virt. eigenvalues --    0.06682   0.07648   0.08432   0.08866   0.09828
  Beta virt. eigenvalues --    0.10777   0.12562   0.14530   0.14990   0.16349

 Mulliken charges and spin densities:
               1          2
     1  Si   0.745906   0.996954
     2  C   -0.576520  -0.024257
     3  C   -0.520175  -0.001901
     4  H    0.222421  -0.004620
     5  H    0.222420  -0.004620
     6  Cl  -0.141003   0.015690
     7  H    0.177850   0.000700
     8  H    0.177850   0.000700
     9  H   -0.154374   0.010677
    10  H   -0.154374   0.010677
 Sum of Mulliken charges =  -0.00000   1.00000

 Dipole moment (field-independent basis, Debye):
    X=              1.9392    Y=             -0.3659    Z=              0.0000  Tot=              1.9734
                          Isotropic Fermi Contact Couplings
        Atom                 a.u.       MegaHertz       Gauss      10(-4) cm-1
     1  Si(29)             0.59576    -529.47053    -188.92825    -176.61236
     2  C(13)              0.00995      11.18484       3.99103       3.73086
     3  C(13)              0.03642      40.94844      14.61142      13.65893
     4  H(1)              -0.00028      -1.27083      -0.45347      -0.42390
     5  H(1)              -0.00028      -1.27083      -0.45346      -0.42390
     6  Cl(35)             0.00848       3.71756       1.32652       1.24004
     7  H(1)               0.00056       2.49271       0.88946       0.83148
     8  H(1)               0.00056       2.49268       0.88945       0.83147

 Normal termination of Gaussian 16 at Tue Apr  8 23:45:25 2025.
