 Gaussian 16, Revision C.01,

 ----------------------------------------------------------------------
 #t hf aug-cc-pvdz symm=none int=(grid=ultrafine) guess=(read,tcheck) s
 table=(opt,rrhf)
 ----------------------------------------------------------------------
 -----
 title
 -----
 Symbolic Z-matrix:
 Charge =  0 Multiplicity = 1

 SCF Done:  E(RHF) =  -1146.98674581     A.U. after   16 cycles
 Normal termination of Gaussian 16 at Wed Apr  9 00:22:57 2025.
 Gaussian 16:  ES64L-G16RevC.01  3-Jul-2019

 ----------------------------------------------------------------------
 #t hf aug-cc-pvdz iop(5/13=1,5/36=2,99/5=2) pseudo=read geom=check gue
 ss=(read,tcheck) scf=(maxcycle=1)
 ----------------------------------------------------------------------
 -----
 title
 -----
 Structure from the checkpoint file:  "BDE49_nonexpt_2634_mol1.chk"
 Charge =  0 Multiplicity = 1

                         Standard orientation:
 ---------------------------------------------------------------------
 Center     Atomic      Atomic             Coordinates (Angstroms)
 Number     Number       Type             X           Y           Z
 ---------------------------------------------------------------------
      1          9           0        2.500059   -0.231018   -0.209858
      2         16           0        1.215859   -1.252384   -0.431857
      3          6           0       -0.068265   -0.068017   -0.026841
      4          7           0       -1.322611   -0.916228    0.162258
      5          8           0       -2.237822   -0.463658    0.794795
      6          8           0       -1.241638   -2.009972   -0.381148
      7          7           0        0.153535    0.735263    1.306022
      8          8           0        0.657043    0.105187    2.203356
      9          8           0       -0.250313    1.872659    1.304964
     10          7           0       -0.331138    0.972145   -1.150593
     11          8           0       -1.425610    0.948262   -1.666481
     12          8           0        0.617940    1.670916   -1.413525
 ---------------------------------------------------------------------

 SCF Done:  E(RHF) =  -1147.73724115     A.U. after    2 cycles

 The electronic state is 1-A.
 Alpha  occ. eigenvalues --  -94.12966 -26.53451 -20.68261 -20.67254 -20.66487
 Alpha  occ. eigenvalues --  -20.66324 -20.66233 -20.65889 -15.88209 -15.87170
 Alpha  occ. eigenvalues --  -15.86880 -11.52314  -8.40067  -6.37779  -6.37534
 Alpha  occ. eigenvalues --   -6.37168  -1.76543  -1.75071  -1.74421  -1.63842
 Alpha  occ. eigenvalues --   -1.60404  -1.59512  -1.58931  -1.28766  -1.08297
 Alpha  occ. eigenvalues --   -1.08004  -1.06680  -0.91627  -0.89612  -0.89144
 Alpha  occ. eigenvalues --   -0.84090  -0.82257  -0.81782  -0.81035  -0.80586
 Alpha  occ. eigenvalues --   -0.80498  -0.74920  -0.71470  -0.70512  -0.64612
 Alpha  occ. eigenvalues --   -0.58075  -0.57708  -0.57426  -0.55711  -0.54966
 Alpha  occ. eigenvalues --   -0.54630  -0.52938  -0.51438  -0.50423  -0.46259
 Alpha virt. eigenvalues --   -0.02474  -0.00759  -0.00073   0.03571   0.05654
 Alpha virt. eigenvalues --    0.07929   0.09272   0.10600   0.11576   0.11814
 Alpha virt. eigenvalues --    0.11911   0.13021   0.13642   0.14899   0.15756

 Mulliken charges:
               1
     1  F   -0.699158
     2  S    1.456532
     3  C   -1.523381
     4  N    3.144317
     5  O   -1.422904
     6  O   -1.409699
     7  N    3.001124
     8  O   -1.431584
     9  O   -1.414519
    10  N    3.138236
    11  O   -1.385963
    12  O   -1.453000
 Sum of Mulliken charges =  -0.00000

 Dipole moment (field-independent basis, Debye):
    X=              0.9256    Y=             -1.8768    Z=             -0.4296  Tot=              2.1363

 Test job not archived.
 1\1\GINC-SE212\SP\RHF\Aug-CC-pVDZ\C1F1N3O6S1\OHZDE\09-Apr-2025\0\\#t h
 f aug-cc-pvdz iop(5/13=1,5/36=2,99/5=2) pseudo=read geom=check guess=(
 read,tcheck) scf=(maxcycle=1)\\title\\0,1\F,0,2.500059,-0.231018,-0.20
 9858\S,0,1.215859,-1.252384,-0.431857\C,0,-0.068265,-0.068017,-0.02684
 1\N,0,-1.322611,-0.916228,0.162258\O,0,-2.237822,-0.463658,0.794795\O,
 0,-1.241638,-2.009972,-0.381148\N,0,0.153535,0.735263,1.306022\O,0,0.6
 57043,0.105187,2.203356\O,0,-0.250313,1.872659,1.304964\N,0,-0.331138,
 0.972145,-1.150593\O,0,-1.42561,0.948262,-1.666481\O,0,0.61794,1.67091

 Normal termination of Gaussian 16 at Wed Apr  9 00:23:08 2025.
