 Gaussian 16, Revision C.01,

 ----------------------------------------------------------------------
 #t hf aug-cc-pvdz symm=none int=(grid=ultrafine) guess=(read,tcheck) s
 table=(opt,rrhf)
 ----------------------------------------------------------------------
 -----
 title
 -----
 Symbolic Z-matrix:
 Charge =  0 Multiplicity = 1

 SCF Done:  E(RHF) =  -573.191146768     A.U. after   14 cycles
 Normal termination of Gaussian 16 at Wed Apr  9 00:21:55 2025.
 Gaussian 16:  ES64L-G16RevC.01  3-Jul-2019

 ----------------------------------------------------------------------
 #t hf aug-cc-pvdz iop(5/13=1,5/36=2,99/5=2) pseudo=read geom=check gue
 ss=(read,tcheck) scf=(maxcycle=1)
 ----------------------------------------------------------------------
 -----
 title
 -----
 Structure from the checkpoint file:  "BDE49_nonexpt_2653_mol1.chk"
 Charge =  0 Multiplicity = 1

                         Standard orientation:
 ---------------------------------------------------------------------
 Center     Atomic      Atomic             Coordinates (Angstroms)
 Number     Number       Type             X           Y           Z
 ---------------------------------------------------------------------
      1          9           0        1.444759    0.831754   -0.000001
      2         16           0        0.570429   -0.597950   -0.000004
      3          6           0       -0.995752   -0.038371    0.000003
      4          6           0       -2.161662    0.289200    0.000007
      5          1           0       -3.185217    0.576439    0.000011
 ---------------------------------------------------------------------

 SCF Done:  E(RHF) =  -573.413640870     A.U. after    2 cycles

 The electronic state is 1-A.
 Alpha  occ. eigenvalues --  -94.07654 -26.48343 -11.29360 -11.28801  -8.34776
 Alpha  occ. eigenvalues --   -6.32562  -6.32315  -6.31988  -1.58167  -1.11918
 Alpha  occ. eigenvalues --   -1.01075  -0.77135  -0.71572  -0.66531  -0.66076
 Alpha  occ. eigenvalues --   -0.56011  -0.50640  -0.45074  -0.37351
 Alpha virt. eigenvalues --    0.03214   0.03782   0.06673   0.09180   0.09198
 Alpha virt. eigenvalues --    0.09446   0.12874   0.15021   0.15599   0.15851
 Alpha virt. eigenvalues --    0.15979   0.17794   0.21528   0.23490   0.23682

 Mulliken charges:
               1
     1  F   -0.646954
     2  S    0.853149
     3  C   -0.069752
     4  C    0.074278
     5  H   -0.210721
 Sum of Mulliken charges =  -0.00000

 Dipole moment (field-independent basis, Debye):
    X=             -2.0216    Y=             -0.6283    Z=              0.0000  Tot=              2.1170

 Test job not archived.
 1\1\GINC-SE099\SP\RHF\Aug-CC-pVDZ\C2H1F1S1\OHZDE\09-Apr-2025\0\\#t hf
 aug-cc-pvdz iop(5/13=1,5/36=2,99/5=2) pseudo=read geom=check guess=(re
 ad,tcheck) scf=(maxcycle=1)\\title\\0,1\F,0,1.444759,0.831754,-0.00000
 1\S,0,0.570429,-0.59795,-0.000004\C,0,-0.995752,-0.038371,0.000003\C,0
 ,-2.161662,0.2892,0.000007\H,0,-3.185217,0.576439,0.000011\\Version=ES
 64L-G16RevC.01\State=1-A\HF=-573.4136409\RMSD=2.018e-02\Dipole=-0.7953
 523,-0.2472111,0.0000012\Quadrupole=3.8450956,-1.2402926,-2.604803,-2.
 2332829,-0.0000265,0.0000117\PG=C01 [X(C2H1F1S1)]\\@

 Normal termination of Gaussian 16 at Wed Apr  9 00:21:57 2025.
