 Gaussian 16, Revision C.01,

 ----------------------------------------------------------------------
 #t hf aug-cc-pvdz symm=none int=(grid=ultrafine) guess=(read,tcheck) s
 table=(opt,rrhf)
 ----------------------------------------------------------------------
 -----
 title
 -----
 Symbolic Z-matrix:
 Charge =  0 Multiplicity = 1

 SCF Done:  E(RHF) =  -383.394027030     A.U. after   13 cycles
 Normal termination of Gaussian 16 at Tue Apr  8 22:33:53 2025.
 Gaussian 16:  ES64L-G16RevC.01  3-Jul-2019

 ----------------------------------------------------------------------
 #t hf aug-cc-pvdz iop(5/13=1,5/36=2,99/5=2) pseudo=read geom=check gue
 ss=(read,tcheck) scf=(maxcycle=1)
 ----------------------------------------------------------------------
 -----
 title
 -----
 Structure from the checkpoint file:  "BDE49_expt_106_mol1.chk"
 Charge =  0 Multiplicity = 1

                         Standard orientation:
 ---------------------------------------------------------------------
 Center     Atomic      Atomic             Coordinates (Angstroms)
 Number     Number       Type             X           Y           Z
 ---------------------------------------------------------------------
      1          6           0        0.000000    1.243675    1.400396
      2          6           0        0.000000    2.429330    0.707675
      3          6           0        0.000000    2.429330   -0.707675
      4          6           0        0.000000    1.243675   -1.400396
      5          6           0        0.000000    0.000000   -0.715236
      6          6           0       -0.000000    0.000000    0.715236
      7          6           0       -0.000000   -1.243675    1.400396
      8          6           0       -0.000000   -2.429330    0.707675
      9          6           0       -0.000000   -2.429330   -0.707675
     10          6           0       -0.000000   -1.243675   -1.400396
     11          1           0        0.000000   -1.241383   -2.485579
     12          1           0        0.000000   -3.372433   -1.242578
     13          1           0       -0.000000   -1.241383    2.485579
     14          1           0       -0.000000   -3.372433    1.242578
     15          1           0        0.000000    1.241383    2.485579
     16          1           0        0.000000    3.372433    1.242578
     17          1           0        0.000000    3.372433   -1.242578
     18          1           0        0.000000    1.241383   -2.485579
 ---------------------------------------------------------------------

 SCF Done:  E(RHF) =  -383.788099324     A.U. after    2 cycles

 The electronic state is 1-AG.
 Alpha  occ. eigenvalues --  -11.25047 -11.24992 -11.24564 -11.24548 -11.24546
 Alpha  occ. eigenvalues --  -11.24539 -11.24452 -11.24443 -11.24433 -11.24433
 Alpha  occ. eigenvalues --   -1.17872  -1.11217  -1.05217  -1.01040  -0.98434
 Alpha  occ. eigenvalues --   -0.86268  -0.84678  -0.82223  -0.71676  -0.71374
 Alpha  occ. eigenvalues --   -0.69445  -0.63373  -0.62764  -0.60164  -0.59604
 Alpha  occ. eigenvalues --   -0.57725  -0.54223  -0.53688  -0.50267  -0.48857
 Alpha  occ. eigenvalues --   -0.45768  -0.39532  -0.32941  -0.29905
 Alpha virt. eigenvalues --    0.03309   0.03368   0.03624   0.04486   0.04695
 Alpha virt. eigenvalues --    0.06802   0.06965   0.07404   0.09314   0.09515
 Alpha virt. eigenvalues --    0.09713   0.10661   0.11427   0.12272   0.13065

 Mulliken charges:
               1
     1  C    0.109334
     2  C   -0.102606
     3  C   -0.102606
     4  C    0.109334
     5  C    1.066254
     6  C    1.066254
     7  C    0.109334
     8  C   -0.102606
     9  C   -0.102606
    10  C    0.109334
    11  H   -0.303078
    12  H   -0.236777
    13  H   -0.303078
    14  H   -0.236777
    15  H   -0.303078
    16  H   -0.236777
    17  H   -0.236777
    18  H   -0.303078
 Sum of Mulliken charges =  -0.00000

 Dipole moment (field-independent basis, Debye):
    X=             -0.0000    Y=              0.0000    Z=              0.0000  Tot=              0.0000

 Test job not archived.
 1\1\GINC-SE097\SP\RHF\Aug-CC-pVDZ\C10H8\OHZDE\08-Apr-2025\0\\#t hf aug
 -cc-pvdz iop(5/13=1,5/36=2,99/5=2) pseudo=read geom=check guess=(read,
 tcheck) scf=(maxcycle=1)\\title\\0,1\C,0,0.,1.243675,1.400396\C,0,0.,2
 .42933,0.707675\C,0,0.,2.42933,-0.707675\C,0,0.,1.243675,-1.400396\C,0
 ,0.,0.,-0.715236\C,0,0.,0.,0.715236\C,0,0.,-1.243675,1.400396\C,0,0.,-
 2.42933,0.707675\C,0,0.,-2.42933,-0.707675\C,0,0.,-1.243675,-1.400396\
 H,0,0.,-1.241383,-2.485579\H,0,0.,-3.372433,-1.242578\H,0,0.,-1.241383
 ,2.485579\H,0,0.,-3.372433,1.242578\H,0,0.,1.241383,2.485579\H,0,0.,3.

 Normal termination of Gaussian 16 at Tue Apr  8 22:34:00 2025.
