 Gaussian 16, Revision C.01,

 ----------------------------------------------------------------------
 #t hf aug-cc-pvdz symm=none int=(grid=ultrafine) guess=(read,tcheck) s
 table=opt
 ----------------------------------------------------------------------
 -----
 title
 -----
 Symbolic Z-matrix:
 Charge =  0 Multiplicity = 2

 SCF Done:  E(UHF) =  -2165.47102581     A.U. after   16 cycles
 Normal termination of Gaussian 16 at Tue Apr  8 23:48:28 2025.
 Gaussian 16:  ES64L-G16RevC.01  3-Jul-2019

 ----------------------------------------------------------------------
 #t hf aug-cc-pvdz iop(5/13=1,5/36=2,99/5=2) pseudo=read geom=check gue
 ss=(read,tcheck) scf=(maxcycle=1)
 ----------------------------------------------------------------------
 -----
 title
 -----
 Structure from the checkpoint file:  "BDE49_nonexpt_1818_mol2.chk"
 Charge =  0 Multiplicity = 2

                         Standard orientation:
 ---------------------------------------------------------------------
 Center     Atomic      Atomic             Coordinates (Angstroms)
 Number     Number       Type             X           Y           Z
 ---------------------------------------------------------------------
      1          6           0       -0.926202   -0.576302   -0.431884
      2         14           0        0.733839    0.366839   -0.634393
      3          1           0       -0.985737   -1.387446   -1.153656
      4         17           0       -2.279554    0.549765   -0.807357
      5         17           0       -1.109069   -1.322690    1.192487
      6         17           0        2.259942   -1.030185   -0.494321
      7         17           0        0.909222    1.786022    0.851924
 ---------------------------------------------------------------------

 SCF Done:  E(UHF) =  -2165.84211618     A.U. after    2 cycles

 The electronic state is 2-A.
 Alpha  occ. eigenvalues -- -105.59671-105.59418-105.58941-105.58809 -69.66128
 Alpha  occ. eigenvalues --  -11.38900 -10.64448 -10.64190 -10.63919 -10.63797
 Alpha  occ. eigenvalues --   -7.81380  -7.81190  -7.80992  -7.80978  -7.80904
 Alpha  occ. eigenvalues --   -7.80784  -7.80729  -7.80707  -7.80497  -7.80445
 Alpha  occ. eigenvalues --   -7.80372  -7.80317  -6.32354  -4.07973  -4.07349
 Alpha  occ. eigenvalues --   -4.07212  -1.17498  -1.10162  -1.07028  -1.06367
 Alpha  occ. eigenvalues --   -0.90013  -0.74425  -0.66284  -0.61570  -0.61258
 Alpha  occ. eigenvalues --   -0.58229  -0.54683  -0.51653  -0.50568  -0.49640
 Alpha  occ. eigenvalues --   -0.48793  -0.48537  -0.46989  -0.45683  -0.38348
 Alpha virt. eigenvalues --    0.03617   0.04916   0.05490   0.05610   0.07810
 Alpha virt. eigenvalues --    0.08959   0.09497   0.10764   0.12050   0.12665
 Alpha virt. eigenvalues --    0.13173   0.13540   0.14288   0.15514   0.16119

  Beta  occ. eigenvalues -- -105.59679-105.59375-105.58828-105.58699 -69.65520
  Beta  occ. eigenvalues --  -11.38618 -10.64456 -10.64145 -10.63796 -10.63677
  Beta  occ. eigenvalues --   -7.81412  -7.81049  -7.80997  -7.80981  -7.80686
  Beta  occ. eigenvalues --   -7.80666  -7.80626  -7.80513  -7.80384  -7.80268
  Beta  occ. eigenvalues --   -7.80258  -7.80147  -6.31352  -4.06958  -4.06845
  Beta  occ. eigenvalues --   -4.05979  -1.17065  -1.09140  -1.06367  -1.05955
  Beta  occ. eigenvalues --   -0.89156  -0.71716  -0.65329  -0.61052  -0.60030
  Beta  occ. eigenvalues --   -0.56921  -0.52660  -0.51326  -0.49770  -0.49330
  Beta  occ. eigenvalues --   -0.48553  -0.48310  -0.46869  -0.44641
  Beta virt. eigenvalues --   -0.00994   0.04035   0.05370   0.05710   0.05897
  Beta virt. eigenvalues --    0.08007   0.09211   0.10572   0.11576   0.12201
  Beta virt. eigenvalues --    0.13202   0.13594   0.14469   0.15416   0.15990

 Mulliken charges and spin densities:
               1          2
     1  C   -0.822670   0.057459
     2  Si   1.601095   0.836967
     3  H    0.303667  -0.001242
     4  Cl  -0.031498  -0.009911
     5  Cl  -0.035067   0.023685
     6  Cl  -0.518200   0.046493
     7  Cl  -0.497327   0.046548
 Sum of Mulliken charges =   0.00000   1.00000

 Dipole moment (field-independent basis, Debye):
    X=              0.1086    Y=             -0.4255    Z=             -1.6743  Tot=              1.7310
                          Isotropic Fermi Contact Couplings
        Atom                 a.u.       MegaHertz       Gauss      10(-4) cm-1
     1  C(13)              0.07532      84.66857      30.21185      28.24239
     2  Si(29)             0.99789    -886.85360    -316.45142    -295.82252
     3  H(1)              -0.00147      -6.58105      -2.34828      -2.19520
     4  Cl(35)            -0.00214      -0.93683      -0.33428      -0.31249
     5  Cl(35)             0.01255       5.50142       1.96304       1.83508
     6  Cl(35)             0.06660      29.20024      10.41937       9.74015
     7  Cl(35)             0.06425      28.17132      10.05223       9.39694
 --------------------------------------------------------

 Normal termination of Gaussian 16 at Tue Apr  8 23:48:32 2025.
