 Gaussian 16, Revision C.01,

 ----------------------------------------------------------------------
 #t hf aug-cc-pvdz symm=none int=(grid=ultrafine) guess=(read,tcheck) s
 table=(opt,rrhf)
 ----------------------------------------------------------------------
 -----
 title
 -----
 Symbolic Z-matrix:
 Charge =  0 Multiplicity = 1

 SCF Done:  E(RHF) =  -805.937508549     A.U. after   12 cycles
 Normal termination of Gaussian 16 at Wed Apr  9 00:14:50 2025.
 Gaussian 16:  ES64L-G16RevC.01  3-Jul-2019

 ----------------------------------------------------------------------
 #t hf aug-cc-pvdz iop(5/13=1,5/36=2,99/5=2) pseudo=read geom=check gue
 ss=(read,tcheck) scf=(maxcycle=1)
 ----------------------------------------------------------------------
 -----
 title
 -----
 Structure from the checkpoint file:  "BDE49_nonexpt_2485_mol1.chk"
 Charge =  0 Multiplicity = 1

                         Standard orientation:
 ---------------------------------------------------------------------
 Center     Atomic      Atomic             Coordinates (Angstroms)
 Number     Number       Type             X           Y           Z
 ---------------------------------------------------------------------
      1          6           0        1.870749   -0.212958    0.529998
      2          6           0        2.569599    0.732386   -0.441674
      3          1           0        1.950657    1.602116   -0.672185
      4          1           0        2.799842    0.226535   -1.381626
      5         16           0        0.312362   -0.969360   -0.130778
      6          1           0        1.640843    0.280421    1.476343
      7         14           0       -1.125326    0.606510    0.198056
      8          1           0        2.505979   -1.070380    0.760209
      9          6           0       -2.817497   -0.072754   -0.234041
     10          1           0       -2.857315   -0.390679   -1.278850
     11          1           0       -3.579059    0.698377   -0.085824
     12          1           0       -3.070028   -0.928869    0.395853
     13          1           0        3.508297    1.092117   -0.006845
     14          1           0       -0.822339    1.798573   -0.632526
     15          1           0       -1.057201    1.030364    1.619417
 ---------------------------------------------------------------------

 SCF Done:  E(RHF) =  -806.168645331     A.U. after    2 cycles

 The electronic state is 1-A.
 Alpha  occ. eigenvalues --  -93.92610 -69.54602 -11.27433 -11.23526 -11.22384
 Alpha  occ. eigenvalues --   -8.20905  -6.21438  -6.18701  -6.18567  -6.18379
 Alpha  occ. eigenvalues --   -3.96833  -3.96751  -3.96725  -1.07547  -0.97148
 Alpha  occ. eigenvalues --   -0.94256  -0.82738  -0.70156  -0.63121  -0.59826
 Alpha  occ. eigenvalues --   -0.57566  -0.56998  -0.54836  -0.52246  -0.48897
 Alpha  occ. eigenvalues --   -0.48231  -0.45449  -0.41874  -0.35552
 Alpha virt. eigenvalues --    0.03621   0.03655   0.04359   0.04425   0.06010
 Alpha virt. eigenvalues --    0.06188   0.06318   0.07859   0.08376   0.08684
 Alpha virt. eigenvalues --    0.10127   0.10960   0.11697   0.11970   0.13707

 Mulliken charges:
               1
     1  C   -0.689629
     2  C   -0.355637
     3  H    0.135149
     4  H    0.171256
     5  S   -0.292324
     6  H    0.103868
     7  Si   1.493404
     8  H    0.224610
     9  C   -0.632794
    10  H    0.078566
    11  H   -0.049838
    12  H    0.083185
    13  H    0.147096
    14  H   -0.208853
    15  H   -0.208059
 Sum of Mulliken charges =  -0.00000

 Dipole moment (field-independent basis, Debye):
    X=              0.2272    Y=              1.1249    Z=              0.4915  Tot=              1.2484

 Test job not archived.
 1\1\GINC-SE362\SP\RHF\Aug-CC-pVDZ\C3H10S1Si1\OHZDE\09-Apr-2025\0\\#t h
 f aug-cc-pvdz iop(5/13=1,5/36=2,99/5=2) pseudo=read geom=check guess=(
 read,tcheck) scf=(maxcycle=1)\\title\\0,1\C,0,1.870749,-0.212958,0.529
 998\C,0,2.569599,0.732386,-0.441674\H,0,1.950657,1.602116,-0.672185\H,
 0,2.799842,0.226535,-1.381626\S,0,0.312362,-0.96936,-0.130778\H,0,1.64
 0843,0.280421,1.476343\Si,0,-1.125326,0.60651,0.198056\H,0,2.505979,-1
 .07038,0.760209\C,0,-2.817497,-0.072754,-0.234041\H,0,-2.857315,-0.390
 679,-1.27885\H,0,-3.579059,0.698377,-0.085824\H,0,-3.070028,-0.928869,

 Normal termination of Gaussian 16 at Wed Apr  9 00:14:54 2025.
