 Gaussian 16, Revision C.01,

 ----------------------------------------------------------------------
 #t hf aug-cc-pvdz symm=none int=(grid=ultrafine) guess=(read,tcheck) s
 table=(opt,rrhf)
 ----------------------------------------------------------------------
 -----
 title
 -----
 Symbolic Z-matrix:
 Charge =  0 Multiplicity = 1

 SCF Done:  E(RHF) =  -1682.64762117     A.U. after   13 cycles
 Normal termination of Gaussian 16 at Tue Apr  8 22:50:17 2025.
 Gaussian 16:  ES64L-G16RevC.01  3-Jul-2019

 ----------------------------------------------------------------------
 #t hf aug-cc-pvdz iop(5/13=1,5/36=2,99/5=2) pseudo=read geom=check gue
 ss=(read,tcheck) scf=(maxcycle=1)
 ----------------------------------------------------------------------
 -----
 title
 -----
 Structure from the checkpoint file:  "BDE49_expt_1719_mol1.chk"
 Charge =  0 Multiplicity = 1

                         Standard orientation:
 ---------------------------------------------------------------------
 Center     Atomic      Atomic             Coordinates (Angstroms)
 Number     Number       Type             X           Y           Z
 ---------------------------------------------------------------------
      1          6           0       -0.435068    0.765251    0.000003
      2          8           0       -0.459737    1.961443   -0.000019
      3          6           0        0.888369   -0.065814    0.000002
      4          8           0       -1.481219   -0.049722    0.000004
      5         17           0        0.929069   -1.099880   -1.470356
      6         17           0        0.929104   -1.099815    1.470405
      7         17           0        2.290850    1.022768   -0.000039
      8          6           0       -2.792022    0.587242   -0.000006
      9          6           0       -3.828054   -0.515088   -0.000003
     10          1           0       -2.860372    1.224187   -0.884239
     11          1           0       -2.860379    1.224199    0.884217
     12          1           0       -3.727887   -1.144383   -0.886369
     13          1           0       -4.828557   -0.075185   -0.000010
     14          1           0       -3.727894   -1.144370    0.886373
 ---------------------------------------------------------------------

 SCF Done:  E(RHF) =  -1683.17751377     A.U. after    2 cycles

 The electronic state is 1-A.
 Alpha  occ. eigenvalues -- -105.60280-105.60280-105.59683 -20.61582 -20.56995
 Alpha  occ. eigenvalues --  -11.46284 -11.43277 -11.31988 -11.25001 -10.65067
 Alpha  occ. eigenvalues --  -10.65063 -10.64499  -7.82020  -7.82015  -7.81583
 Alpha  occ. eigenvalues --   -7.81582  -7.81573  -7.81573  -7.81459  -7.81008
 Alpha  occ. eigenvalues --   -7.81003  -1.57740  -1.48885  -1.22136  -1.07597
 Alpha  occ. eigenvalues --   -1.07450  -1.06302  -0.94589  -0.86589  -0.80212
 Alpha  occ. eigenvalues --   -0.73133  -0.71324  -0.71302  -0.65142  -0.63526
 Alpha  occ. eigenvalues --   -0.60327  -0.60250  -0.57366  -0.54155  -0.53583
 Alpha  occ. eigenvalues --   -0.52732  -0.51682  -0.50764  -0.47868  -0.47522
 Alpha  occ. eigenvalues --   -0.47353  -0.46130  -0.45613
 Alpha virt. eigenvalues --    0.03290   0.04374   0.04390   0.05448   0.07287
 Alpha virt. eigenvalues --    0.07435   0.08520   0.08850   0.09482   0.10599
 Alpha virt. eigenvalues --    0.11341   0.12016   0.13022   0.14206   0.15018

 Mulliken charges:
               1
     1  C    2.091594
     2  O   -1.109469
     3  C   -0.982723
     4  O   -1.050964
     5  Cl   0.115524
     6  Cl   0.115525
     7  Cl   0.170100
     8  C    0.343309
     9  C   -0.486262
    10  H    0.130858
    11  H    0.130858
    12  H    0.181099
    13  H    0.169449
    14  H    0.181100
 Sum of Mulliken charges =  -0.00000

 Dipole moment (field-independent basis, Debye):
    X=             -2.8924    Y=             -0.9045    Z=              0.0000  Tot=              3.0306

 Test job not archived.
 1\1\GINC-SE393\SP\RHF\Aug-CC-pVDZ\C4H5Cl3O2\OHZDE\08-Apr-2025\0\\#t hf
  aug-cc-pvdz iop(5/13=1,5/36=2,99/5=2) pseudo=read geom=check guess=(r
 ead,tcheck) scf=(maxcycle=1)\\title\\0,1\C,0,-0.435068,0.765251,0.0000
 03\O,0,-0.459737,1.961443,-0.000019\C,0,0.888369,-0.065814,0.000002\O,
 0,-1.481219,-0.049722,0.000004\Cl,0,0.929069,-1.09988,-1.470356\Cl,0,0
 .929104,-1.099815,1.470405\Cl,0,2.29085,1.022768,-0.000039\C,0,-2.7920
 22,0.587242,-0.000006\C,0,-3.828054,-0.515088,-0.000003\H,0,-2.860372,
 1.224187,-0.884239\H,0,-2.860379,1.224199,0.884217\H,0,-3.727887,-1.14

 Normal termination of Gaussian 16 at Tue Apr  8 22:50:24 2025.
