 Gaussian 16, Revision C.01,

 ----------------------------------------------------------------------
 #t hf aug-cc-pvdz symm=none int=(grid=ultrafine) guess=(read,tcheck) s
 table=(opt,rrhf)
 ----------------------------------------------------------------------
 -----
 title
 -----
 Symbolic Z-matrix:
 Charge =  0 Multiplicity = 1

 SCF Done:  E(RHF) =  -518.211360509     A.U. after   16 cycles
 Normal termination of Gaussian 16 at Tue Apr  8 23:22:18 2025.
 Gaussian 16:  ES64L-G16RevC.01  3-Jul-2019

 ----------------------------------------------------------------------
 #t hf aug-cc-pvdz iop(5/13=1,5/36=2,99/5=2) pseudo=read geom=check gue
 ss=(read,tcheck) scf=(maxcycle=1)
 ----------------------------------------------------------------------
 -----
 title
 -----
 Structure from the checkpoint file:  "BDE49_nonexpt_1178_mol1.chk"
 Charge =  0 Multiplicity = 1

                         Standard orientation:
 ---------------------------------------------------------------------
 Center     Atomic      Atomic             Coordinates (Angstroms)
 Number     Number       Type             X           Y           Z
 ---------------------------------------------------------------------
      1          9           0        3.413374   -0.246314    0.844415
      2          8           0        2.727398   -0.167709   -0.552341
      3          6           0        1.414555   -0.021952   -0.317325
      4          6           0        0.859157    1.263247   -0.178017
      5          6           0       -0.503259    1.411972   -0.032453
      6          6           0       -1.336385    0.277407   -0.003366
      7          6           0        0.587505   -1.150071   -0.264008
      8          1           0        1.042835   -2.128958   -0.350737
      9          6           0       -0.785108   -1.008443   -0.121925
     10          1           0       -1.414290   -1.887328   -0.100083
     11          1           0        1.521810    2.119568   -0.199851
     12          8           0       -2.655422    0.531723    0.141817
     13          6           0       -3.572204   -0.559153    0.192061
     14          1           0       -3.549918   -1.139396   -0.735763
     15          1           0       -4.555474   -0.109807    0.314327
     16          1           0       -3.362834   -1.214568    1.043202
     17          1           0       -0.963868    2.387160    0.063552
 ---------------------------------------------------------------------

 SCF Done:  E(RHF) =  -518.724589585     A.U. after    2 cycles

 The electronic state is 1-A.
 Alpha  occ. eigenvalues --  -26.46394 -20.68055 -20.59626 -11.33992 -11.31394
 Alpha  occ. eigenvalues --  -11.30397 -11.27779 -11.27437 -11.26104 -11.25638
 Alpha  occ. eigenvalues --   -1.59214  -1.52270  -1.39443  -1.16764  -1.05275
 Alpha  occ. eigenvalues --   -1.02852  -0.96085  -0.87636  -0.83634  -0.75500
 Alpha  occ. eigenvalues --   -0.72519  -0.72202  -0.67721  -0.65339  -0.64292
 Alpha  occ. eigenvalues --   -0.64086  -0.62930  -0.60822  -0.60121  -0.56105
 Alpha  occ. eigenvalues --   -0.55770  -0.54921  -0.51847  -0.49008  -0.48482
 Alpha  occ. eigenvalues --   -0.37626  -0.33701
 Alpha virt. eigenvalues --    0.02708   0.03356   0.04059   0.04642   0.05285
 Alpha virt. eigenvalues --    0.05452   0.05893   0.08199   0.08924   0.08997
 Alpha virt. eigenvalues --    0.10953   0.12233   0.12404   0.13344   0.13543

 Mulliken charges:
               1
     1  F   -0.397183
     2  O   -1.177326
     3  C    1.057325
     4  C    0.423816
     5  C    0.327359
     6  C    1.831425
     7  C    0.257636
     8  H   -0.245805
     9  C    0.237296
    10  H   -0.406533
    11  H   -0.243354
    12  O   -1.855568
    13  C    0.113601
    14  H    0.181182
    15  H   -0.028163
    16  H    0.181199
    17  H   -0.256906
 Sum of Mulliken charges =  -0.00000

 Dipole moment (field-independent basis, Debye):
    X=             -4.7869    Y=             -0.8318    Z=             -0.5688  Tot=              4.8918

 Test job not archived.
 1\1\GINC-SE073\SP\RHF\Aug-CC-pVDZ\C7H7F1O2\OHZDE\08-Apr-2025\0\\#t hf
 aug-cc-pvdz iop(5/13=1,5/36=2,99/5=2) pseudo=read geom=check guess=(re
 ad,tcheck) scf=(maxcycle=1)\\title\\0,1\F,0,3.413374,-0.246314,0.84441
 5\O,0,2.727398,-0.167709,-0.552341\C,0,1.414555,-0.021952,-0.317325\C,
 0,0.859157,1.263247,-0.178017\C,0,-0.503259,1.411972,-0.032453\C,0,-1.
 336385,0.277407,-0.003366\C,0,0.587505,-1.150071,-0.264008\H,0,1.04283
 5,-2.128958,-0.350737\C,0,-0.785108,-1.008443,-0.121925\H,0,-1.41429,-
 1.887328,-0.100083\H,0,1.52181,2.119568,-0.199851\O,0,-2.655422,0.5317

 Normal termination of Gaussian 16 at Tue Apr  8 23:22:26 2025.
