 Gaussian 16, Revision C.01,

 ----------------------------------------------------------------------
 #t hf aug-cc-pvdz symm=none int=(grid=ultrafine) guess=(read,tcheck) s
 table=(opt,rrhf)
 ----------------------------------------------------------------------
 -----
 title
 -----
 Symbolic Z-matrix:
 Charge =  0 Multiplicity = 1

 SCF Done:  E(RHF) =  -616.248327108     A.U. after   12 cycles

 1\1\GINC-SE423\Stability\RHF\Aug-CC-pVDZ\C4H9Cl1\OHZDE\08-Apr-2025\0\\
 #t hf aug-cc-pvdz symm=none int=(grid=ultrafine) guess=(read,tcheck) s
 table=(opt,rrhf)\\title\\0,1\C,0,0.816605,-1.459295,0.061977\C,0,0.372
 996,-0.000019,0.000003\C,0,0.816746,0.675935,-1.294705\H,0,0.4503,-2.0
 17999,-0.800888\H,0,0.450198,-1.94292,0.96902\H,0,1.910888,-1.50492,0.
 063961\C,0,0.816717,0.783276,1.232742\Cl,0,-1.492557,0.000047,-0.00001
 1\H,0,0.450364,0.132293,-2.167107\H,0,1.911038,0.696972,-1.335114\H,0,
 0.450237,0.315552,2.148055\H,0,0.450538,1.810686,1.197899\H,0,1.911009

 Normal termination of Gaussian 16 at Tue Apr  8 22:47:44 2025.
 Gaussian 16:  ES64L-G16RevC.01  3-Jul-2019

 ----------------------------------------------------------------------
 #t hf aug-cc-pvdz iop(5/13=1,5/36=2,99/5=2) pseudo=read geom=check gue
 ss=(read,tcheck) scf=(maxcycle=1)
 ----------------------------------------------------------------------
 -----
 title
 -----
 Structure from the checkpoint file:  "BDE49_expt_1656_mol1.chk"
 Charge =  0 Multiplicity = 1

                         Standard orientation:
 ---------------------------------------------------------------------
 Center     Atomic      Atomic             Coordinates (Angstroms)
 Number     Number       Type             X           Y           Z
 ---------------------------------------------------------------------
      1          6           0        0.816605    1.459409   -0.059238
      2          6           0        0.372996    0.000019   -0.000003
      3          6           0        0.816746   -0.678364    1.293434
      4          1           0        0.450300    2.016492    0.804674
      5          1           0        0.450198    1.944735   -0.965372
      6          1           0        1.910888    1.505038   -0.061137
      7          6           0        0.816717   -0.780961   -1.234210
      8         17           0       -1.492557   -0.000047    0.000011
      9          1           0        0.450365   -0.136360    2.166855
     10          1           0        1.911038   -0.699476    1.333803
     11          1           0        0.450237   -0.311520   -2.148644
     12          1           0        0.450538   -1.808434   -1.201296
     13          1           0        1.911009   -0.805188   -1.272862
     14          1           0        0.450511   -1.705102    1.343890
 ---------------------------------------------------------------------

 SCF Done:  E(RHF) =  -616.501424093     A.U. after    2 cycles

 The electronic state is 1-A.
 Alpha  occ. eigenvalues -- -105.53827 -11.31686 -11.24047 -11.24047 -11.24013
 Alpha  occ. eigenvalues --  -10.58630  -7.75546  -7.75215  -7.75215  -1.13922
 Alpha  occ. eigenvalues --   -0.99196  -0.95603  -0.95602  -0.75796  -0.63901
 Alpha  occ. eigenvalues --   -0.63006  -0.63005  -0.56824  -0.56823  -0.53744
 Alpha  occ. eigenvalues --   -0.50917  -0.50917  -0.48192  -0.43299  -0.43299
 Alpha virt. eigenvalues --    0.03498   0.04181   0.04181   0.04951   0.06565
 Alpha virt. eigenvalues --    0.06565   0.07336   0.07337   0.09731   0.09944
 Alpha virt. eigenvalues --    0.12270   0.14617   0.14617   0.15059   0.16297

 Mulliken charges:
               1
     1  C    0.126126
     2  C   -1.978836
     3  C    0.126050
     4  H    0.175850
     5  H    0.175841
     6  H    0.241001
     7  C    0.126074
     8  Cl  -0.177505
     9  H    0.175800
    10  H    0.241056
    11  H    0.175820
    12  H    0.175854
    13  H    0.241022
    14  H    0.175848
 Sum of Mulliken charges =  -0.00000

 Dipole moment (field-independent basis, Debye):
    X=              2.6784    Y=              0.0001    Z=             -0.0000  Tot=              2.6784

 Test job not archived.
 1\1\GINC-SE423\SP\RHF\Aug-CC-pVDZ\C4H9Cl1\OHZDE\08-Apr-2025\0\\#t hf a
 ug-cc-pvdz iop(5/13=1,5/36=2,99/5=2) pseudo=read geom=check guess=(rea
 d,tcheck) scf=(maxcycle=1)\\title\\0,1\C,0,0.816605,-1.459295,0.061977
 \C,0,0.372996,-0.000019,0.000003\C,0,0.816746,0.675935,-1.294705\H,0,0
 .4503,-2.017999,-0.800888\H,0,0.450198,-1.94292,0.96902\H,0,1.910888,-
 1.50492,0.063961\C,0,0.816717,0.783276,1.232742\Cl,0,-1.492557,0.00004
 7,-0.000011\H,0,0.450364,0.132293,-2.167107\H,0,1.911038,0.696972,-1.3
 35114\H,0,0.450237,0.315552,2.148055\H,0,0.450538,1.810686,1.197899\H,

 Normal termination of Gaussian 16 at Tue Apr  8 22:47:47 2025.
