 Gaussian 16, Revision C.01,

 ----------------------------------------------------------------------
 #t hf aug-cc-pvdz symm=none int=(grid=ultrafine) guess=(read,tcheck) s
 table=(opt,rrhf)
 ----------------------------------------------------------------------
 -----
 title
 -----
 Symbolic Z-matrix:
 Charge =  0 Multiplicity = 1

 SCF Done:  E(RHF) =  -713.280319205     A.U. after   14 cycles
 Normal termination of Gaussian 16 at Wed Apr  9 00:11:51 2025.
 Gaussian 16:  ES64L-G16RevC.01  3-Jul-2019

 ----------------------------------------------------------------------
 #t hf aug-cc-pvdz iop(5/13=1,5/36=2,99/5=2) pseudo=read geom=check gue
 ss=(read,tcheck) scf=(maxcycle=1)
 ----------------------------------------------------------------------
 -----
 title
 -----
 Structure from the checkpoint file:  "BDE49_nonexpt_2381_mol1.chk"
 Charge =  0 Multiplicity = 1

                         Standard orientation:
 ---------------------------------------------------------------------
 Center     Atomic      Atomic             Coordinates (Angstroms)
 Number     Number       Type             X           Y           Z
 ---------------------------------------------------------------------
      1         14           0       -2.139972    0.339753   -0.333015
      2         14           0       -0.255790   -0.728054    0.610010
      3          6           0        1.391060   -0.041052   -0.084872
      4          1           0       -0.285345   -2.178281    0.293197
      5          1           0       -0.295624   -0.555345    2.084996
      6          1           0       -2.109109    1.792797   -0.036485
      7          1           0       -3.387845   -0.230750    0.229783
      8          7           0        2.156683   -0.713506   -0.854986
      9          1           0       -2.152623    0.156643   -1.804151
     10          1           0        1.783473   -1.649445   -1.034319
     11          6           0        1.805065    1.363890    0.287597
     12          1           0        1.049245    2.091970   -0.026296
     13          1           0        2.756456    1.604365   -0.189558
     14          1           0        1.908504    1.461769    1.373462
 ---------------------------------------------------------------------

 SCF Done:  E(RHF) =  -713.489399087     A.U. after    2 cycles

 The electronic state is 1-A.
 Alpha  occ. eigenvalues --  -69.53916 -69.53548 -15.50091 -11.28531 -11.23937
 Alpha  occ. eigenvalues --   -6.21130  -6.20744  -3.96459  -3.96447  -3.96440
 Alpha  occ. eigenvalues --   -3.96098  -3.96095  -3.96087  -1.21394  -0.99591
 Alpha  occ. eigenvalues --   -0.81402  -0.77226  -0.72660  -0.62835  -0.59394
 Alpha  occ. eigenvalues --   -0.58985  -0.54847  -0.51170  -0.50050  -0.48493
 Alpha  occ. eigenvalues --   -0.46911  -0.43070  -0.40451
 Alpha virt. eigenvalues --    0.03433   0.03534   0.04543   0.04664   0.06159
 Alpha virt. eigenvalues --    0.06516   0.06828   0.07178   0.07854   0.08854
 Alpha virt. eigenvalues --    0.09051   0.09364   0.09685   0.10090   0.10336

 Mulliken charges:
               1
     1  Si   0.315805
     2  Si   0.589395
     3  C   -1.000638
     4  H   -0.198279
     5  H   -0.113342
     6  H   -0.080759
     7  H   -0.137833
     8  N    0.560098
     9  H   -0.080692
    10  H    0.105891
    11  C   -0.549916
    12  H    0.222383
    13  H    0.160432
    14  H    0.207455
 Sum of Mulliken charges =  -0.00000

 Dipole moment (field-independent basis, Debye):
    X=             -1.9361    Y=              0.4055    Z=              1.3097  Tot=              2.3724

 Test job not archived.
 1\1\GINC-SE186\SP\RHF\Aug-CC-pVDZ\C2H9N1Si2\OHZDE\09-Apr-2025\0\\#t hf
  aug-cc-pvdz iop(5/13=1,5/36=2,99/5=2) pseudo=read geom=check guess=(r
 ead,tcheck) scf=(maxcycle=1)\\title\\0,1\Si,0,-2.139972,0.339753,-0.33
 3015\Si,0,-0.25579,-0.728054,0.61001\C,0,1.39106,-0.041052,-0.084872\H
 ,0,-0.285345,-2.178281,0.293197\H,0,-0.295624,-0.555345,2.084996\H,0,-
 2.109109,1.792797,-0.036485\H,0,-3.387845,-0.23075,0.229783\N,0,2.1566
 83,-0.713506,-0.854986\H,0,-2.152623,0.156643,-1.804151\H,0,1.783473,-
 1.649445,-1.034319\C,0,1.805065,1.36389,0.287597\H,0,1.049245,2.09197,

 Normal termination of Gaussian 16 at Wed Apr  9 00:11:56 2025.
