 Gaussian 16, Revision C.01,

 ----------------------------------------------------------------------
 #t hf aug-cc-pvdz symm=none int=(grid=ultrafine) guess=(read,tcheck) s
 table=(opt,rrhf)
 ----------------------------------------------------------------------
 -----
 title
 -----
 Symbolic Z-matrix:
 Charge =  0 Multiplicity = 1

 SCF Done:  E(RHF) =  -619.757956849     A.U. after   14 cycles
 Normal termination of Gaussian 16 at Tue Apr  8 23:55:58 2025.
 Gaussian 16:  ES64L-G16RevC.01  3-Jul-2019

 ----------------------------------------------------------------------
 #t hf aug-cc-pvdz iop(5/13=1,5/36=2,99/5=2) pseudo=read geom=check gue
 ss=(read,tcheck) scf=(maxcycle=1)
 ----------------------------------------------------------------------
 -----
 title
 -----
 Structure from the checkpoint file:  "BDE49_nonexpt_1991_mol1.chk"
 Charge =  0 Multiplicity = 1

                         Standard orientation:
 ---------------------------------------------------------------------
 Center     Atomic      Atomic             Coordinates (Angstroms)
 Number     Number       Type             X           Y           Z
 ---------------------------------------------------------------------
      1          6           0        0.092159    0.000001   -0.206025
      2          6           0       -0.622560   -1.205524   -0.109783
      3         14           0        1.934511    0.000002   -0.447551
      4          6           0       -0.622562    1.205524   -0.109781
      5          6           0       -2.001388   -1.207214    0.082805
      6          6           0       -2.691089   -0.000001    0.180122
      7          6           0       -2.001389    1.207213    0.082807
      8          1           0       -0.098028    2.152668   -0.189273
      9          1           0       -3.765285   -0.000002    0.328360
     10          1           0       -2.537758    2.146759    0.154870
     11          1           0       -0.098026   -2.152667   -0.189277
     12          1           0       -2.537756   -2.146761    0.154867
     13          9           0        2.700899   -0.000004    0.977664
     14          1           0        2.363287    1.223137   -1.156842
     15          1           0        2.363288   -1.223127   -1.156851
 ---------------------------------------------------------------------

 SCF Done:  E(RHF) =  -620.120250934     A.U. after    2 cycles

 The electronic state is 1-A.
 Alpha  occ. eigenvalues --  -69.57675 -26.43974 -11.25966 -11.25960 -11.25832
 Alpha  occ. eigenvalues --  -11.25253 -11.25236 -11.23978  -6.24261  -3.99696
 Alpha  occ. eigenvalues --   -3.99508  -3.99501  -1.54996  -1.16279  -1.02778
 Alpha  occ. eigenvalues --   -1.02714  -0.84758  -0.84404  -0.76806  -0.71660
 Alpha  occ. eigenvalues --   -0.65446  -0.65203  -0.63336  -0.63070  -0.62080
 Alpha  occ. eigenvalues --   -0.61036  -0.55971  -0.52056  -0.51541  -0.48630
 Alpha  occ. eigenvalues --   -0.46814  -0.36012  -0.35645
 Alpha virt. eigenvalues --    0.03230   0.03564   0.03779   0.05102   0.05301
 Alpha virt. eigenvalues --    0.05310   0.07171   0.07844   0.08769   0.09264
 Alpha virt. eigenvalues --    0.10079   0.10198   0.12112   0.12837   0.13324

 Mulliken charges:
               1
     1  C   -1.096080
     2  C    0.391266
     3  Si   1.466321
     4  C    0.391271
     5  C    0.569961
     6  C    0.225024
     7  C    0.569965
     8  H   -0.293323
     9  H   -0.204249
    10  H   -0.213036
    11  H   -0.293325
    12  H   -0.213036
    13  F   -0.886008
    14  H   -0.207375
    15  H   -0.207375
 Sum of Mulliken charges =  -0.00000

 Dipole moment (field-independent basis, Debye):
    X=             -1.9761    Y=              0.0000    Z=             -1.0350  Tot=              2.2307

 Test job not archived.
 1\1\GINC-SE455\SP\RHF\Aug-CC-pVDZ\C6H7F1Si1\OHZDE\08-Apr-2025\0\\#t hf
  aug-cc-pvdz iop(5/13=1,5/36=2,99/5=2) pseudo=read geom=check guess=(r
 ead,tcheck) scf=(maxcycle=1)\\title\\0,1\C,0,0.092159,0.000001,-0.2060
 25\C,0,-0.62256,-1.205524,-0.109783\Si,0,1.934511,0.000002,-0.447551\C
 ,0,-0.622562,1.205524,-0.109781\C,0,-2.001388,-1.207214,0.082805\C,0,-
 2.691089,-0.000001,0.180122\C,0,-2.001389,1.207213,0.082807\H,0,-0.098
 028,2.152668,-0.189273\H,0,-3.765285,-0.000002,0.32836\H,0,-2.537758,2
 .146759,0.15487\H,0,-0.098026,-2.152667,-0.189277\H,0,-2.537756,-2.146

 Normal termination of Gaussian 16 at Tue Apr  8 23:56:04 2025.
