 Gaussian 16, Revision C.01,

 ----------------------------------------------------------------------
 #t hf aug-cc-pvdz symm=none int=(grid=ultrafine) guess=(read,tcheck) s
 table=(opt,rrhf)
 ----------------------------------------------------------------------
 -----
 title
 -----
 Symbolic Z-matrix:
 Charge =  0 Multiplicity = 1

 SCF Done:  E(RHF) =  -1208.03402975     A.U. after   13 cycles
 Normal termination of Gaussian 16 at Wed Apr  9 00:06:35 2025.
 Gaussian 16:  ES64L-G16RevC.01  3-Jul-2019

 ----------------------------------------------------------------------
 #t hf aug-cc-pvdz iop(5/13=1,5/36=2,99/5=2) pseudo=read geom=check gue
 ss=(read,tcheck) scf=(maxcycle=1)
 ----------------------------------------------------------------------
 -----
 title
 -----
 Structure from the checkpoint file:  "BDE49_nonexpt_223_mol1.chk"
 Charge =  0 Multiplicity = 1

                         Standard orientation:
 ---------------------------------------------------------------------
 Center     Atomic      Atomic             Coordinates (Angstroms)
 Number     Number       Type             X           Y           Z
 ---------------------------------------------------------------------
      1         17           0       -1.391525    1.514229   -0.007958
      2          5           0       -0.505068    0.000000   -0.019594
      3         17           0       -1.391526   -1.514228   -0.007957
      4          6           0        1.106611    0.000000   -0.021543
      5          8           0        1.664444   -1.092831   -0.693110
      6          1           0        1.298410   -1.891592   -0.297368
      7          8           0        1.444636   -0.000007    1.348602
      8          1           0        2.412504   -0.000005    1.393371
      9          8           0        1.664447    1.092836   -0.693100
     10          1           0        1.298408    1.891593   -0.297357
 ---------------------------------------------------------------------

 SCF Done:  E(RHF) =  -1208.47066426     A.U. after    2 cycles

 The electronic state is 1-A.
 Alpha  occ. eigenvalues -- -105.59647-105.59647 -20.58283 -20.57803 -20.57800
 Alpha  occ. eigenvalues --  -11.41020 -10.64677 -10.64647  -7.81569  -7.81549
 Alpha  occ. eigenvalues --   -7.81270  -7.81265  -7.81237  -7.81228  -7.73467
 Alpha  occ. eigenvalues --   -1.55849  -1.45666  -1.45317  -1.13037  -1.07900
 Alpha  occ. eigenvalues --   -0.92312  -0.81710  -0.72639  -0.68997  -0.66751
 Alpha  occ. eigenvalues --   -0.64879  -0.62900  -0.59746  -0.54601  -0.54275
 Alpha  occ. eigenvalues --   -0.53937  -0.51491  -0.49480  -0.48944  -0.47728
 Alpha  occ. eigenvalues --   -0.45526
 Alpha virt. eigenvalues --    0.03606   0.04617   0.04704   0.05448   0.06313
 Alpha virt. eigenvalues --    0.07234   0.07383   0.09218   0.11622   0.13808
 Alpha virt. eigenvalues --    0.13861   0.14726   0.14830   0.16291   0.17710

 Mulliken charges:
               1
     1  Cl  -0.319866
     2  B    0.606744
     3  Cl  -0.319867
     4  C    3.130979
     5  O   -1.334164
     6  H    0.315448
     7  O   -1.185561
     8  H    0.125003
     9  O   -1.334164
    10  H    0.315448
 Sum of Mulliken charges =  -0.00000

 Dipole moment (field-independent basis, Debye):
    X=             -0.1348    Y=              0.0000    Z=              1.2088  Tot=              1.2163

 Test job not archived.
 1\1\GINC-SE412\SP\RHF\Aug-CC-pVDZ\C1H3B1Cl2O3\OHZDE\09-Apr-2025\0\\#t
 hf aug-cc-pvdz iop(5/13=1,5/36=2,99/5=2) pseudo=read geom=check guess=
 (read,tcheck) scf=(maxcycle=1)\\title\\0,1\Cl,0,-1.391526,1.514228,-0.
 007958\B,0,-0.505068,0.,-0.019594\Cl,0,-1.391525,-1.514229,-0.007957\C
 ,0,1.106611,0.000001,-0.021543\O,0,1.664445,-1.09283,-0.69311\H,0,1.29
 8411,-1.891591,-0.297368\O,0,1.444636,-0.000006,1.348602\H,0,2.412504,
 -0.000003,1.393371\O,0,1.664446,1.092837,-0.6931\H,0,1.298407,1.891594
 ,-0.297357\\Version=ES64L-G16RevC.01\State=1-A\HF=-1208.4706643\RMSD=6

 Normal termination of Gaussian 16 at Wed Apr  9 00:06:39 2025.
