 Gaussian 16, Revision C.01,

 ----------------------------------------------------------------------
 #t hf aug-cc-pvdz symm=none int=(grid=ultrafine) guess=(read,tcheck) s
 table=(opt,rrhf)
 ----------------------------------------------------------------------
 -----
 title
 -----
 Symbolic Z-matrix:
 Charge =  0 Multiplicity = 1

 SCF Done:  E(RHF) =  -289.270428762     A.U. after   12 cycles

 1\1\GINC-SE343\Stability\RHF\Aug-CC-pVDZ\C6H13N1\OHZDE\08-Apr-2025\0\\
 #t hf aug-cc-pvdz symm=none int=(grid=ultrafine) guess=(read,tcheck) s
 table=(opt,rrhf)\\title\\0,1\C,0,-1.031195,0.,0.317439\C,0,-0.311645,-
 1.260575,-0.180419\C,0,1.172362,-1.268052,0.212364\C,0,1.888091,0.,-0.
 275066\C,0,1.172362,1.268052,0.212364\C,0,-0.311646,1.260575,-0.180418
 \N,0,-2.415163,0.,-0.17444\H,0,-2.909985,-0.813893,0.180375\H,0,-2.909
 984,0.813893,0.180374\H,0,-0.414669,-1.299973,-1.271376\H,0,-0.812734,
 -2.152128,0.215707\H,0,1.661487,-2.159547,-0.192857\H,0,1.261002,-1.33

 Normal termination of Gaussian 16 at Tue Apr  8 22:40:12 2025.
 Gaussian 16:  ES64L-G16RevC.01  3-Jul-2019

 ----------------------------------------------------------------------
 #t hf aug-cc-pvdz iop(5/13=1,5/36=2,99/5=2) pseudo=read geom=check gue
 ss=(read,tcheck) scf=(maxcycle=1)
 ----------------------------------------------------------------------
 -----
 title
 -----
 Structure from the checkpoint file:  "BDE49_expt_1291_mol1.chk"
 Charge =  0 Multiplicity = 1

                         Standard orientation:
 ---------------------------------------------------------------------
 Center     Atomic      Atomic             Coordinates (Angstroms)
 Number     Number       Type             X           Y           Z
 ---------------------------------------------------------------------
      1          6           0       -1.031195   -0.000000    0.317439
      2          6           0       -0.311645   -1.260575   -0.180419
      3          6           0        1.172362   -1.268052    0.212364
      4          6           0        1.888091    0.000000   -0.275066
      5          6           0        1.172362    1.268052    0.212364
      6          6           0       -0.311646    1.260575   -0.180418
      7          7           0       -2.415163   -0.000000   -0.174440
      8          1           0       -2.909985   -0.813893    0.180375
      9          1           0       -2.909984    0.813893    0.180374
     10          1           0       -0.414669   -1.299973   -1.271376
     11          1           0       -0.812734   -2.152128    0.215707
     12          1           0        1.661487   -2.159547   -0.192857
     13          1           0        1.261002   -1.335130    1.304471
     14          1           0        1.912632    0.000000   -1.372300
     15          1           0        2.930085    0.000000    0.061192
     16          1           0        1.661486    2.159547   -0.192857
     17          1           0        1.261002    1.335130    1.304471
     18          1           0       -0.812734    2.152128    0.215707
     19          1           0       -0.414669    1.299973   -1.271376
     20          1           0       -0.976752   -0.000000    1.421966
 ---------------------------------------------------------------------

 SCF Done:  E(RHF) =  -289.589570162     A.U. after    2 cycles

 The electronic state is 1-A.
 Alpha  occ. eigenvalues --  -15.47954 -11.25262 -11.22321 -11.22307 -11.22199
 Alpha  occ. eigenvalues --  -11.21957 -11.21916  -1.18327  -1.09363  -1.00132
 Alpha  occ. eigenvalues --   -0.97492  -0.83713  -0.81883  -0.75460  -0.67238
 Alpha  occ. eigenvalues --   -0.66059  -0.64439  -0.61093  -0.59919  -0.54845
 Alpha  occ. eigenvalues --   -0.53229  -0.51436  -0.51032  -0.48778  -0.46195
 Alpha  occ. eigenvalues --   -0.45258  -0.43413  -0.41781
 Alpha virt. eigenvalues --    0.03377   0.03732   0.03770   0.04129   0.05596
 Alpha virt. eigenvalues --    0.05735   0.06198   0.06488   0.07129   0.08954
 Alpha virt. eigenvalues --    0.09134   0.09351   0.09693   0.13595   0.13847

 Mulliken charges:
               1
     1  C   -1.924058
     2  C    0.083463
     3  C   -0.210010
     4  C   -0.268316
     5  C   -0.210010
     6  C    0.083462
     7  N    0.666173
     8  H    0.157721
     9  H    0.157720
    10  H    0.249113
    11  H    0.098271
    12  H    0.092821
    13  H    0.149172
    14  H    0.140415
    15  H    0.119720
    16  H    0.092820
    17  H    0.149172
    18  H    0.098268
    19  H    0.249116
    20  H    0.024969
 Sum of Mulliken charges =  -0.00000

 Dipole moment (field-independent basis, Debye):
    X=              0.1734    Y=              0.0000    Z=              1.3448  Tot=              1.3560

 Test job not archived.
 1\1\GINC-SE343\SP\RHF\Aug-CC-pVDZ\C6H13N1\OHZDE\08-Apr-2025\0\\#t hf a
 ug-cc-pvdz iop(5/13=1,5/36=2,99/5=2) pseudo=read geom=check guess=(rea
 d,tcheck) scf=(maxcycle=1)\\title\\0,1\C,0,-1.031195,0.,0.317439\C,0,-
 0.311645,-1.260575,-0.180419\C,0,1.172362,-1.268052,0.212364\C,0,1.888
 091,0.,-0.275066\C,0,1.172362,1.268052,0.212364\C,0,-0.311646,1.260575
 ,-0.180418\N,0,-2.415163,0.,-0.17444\H,0,-2.909985,-0.813893,0.180375\
 H,0,-2.909984,0.813893,0.180374\H,0,-0.414669,-1.299973,-1.271376\H,0,
 -0.812734,-2.152128,0.215707\H,0,1.661487,-2.159547,-0.192857\H,0,1.26

 Normal termination of Gaussian 16 at Tue Apr  8 22:40:19 2025.
