 Gaussian 16, Revision C.01,

 ----------------------------------------------------------------------
 #t hf aug-cc-pvdz symm=none int=(grid=ultrafine) guess=(read,tcheck) s
 table=(opt,rrhf)
 ----------------------------------------------------------------------
 -----
 title
 -----
 Symbolic Z-matrix:
 Charge =  0 Multiplicity = 1

 SCF Done:  E(RHF) =  -650.123938882     A.U. after   15 cycles

 1\1\GINC-SE333\Stability\RHF\Aug-CC-pVDZ\C8H11P1\OHZDE\08-Apr-2025\0\\
 #t hf aug-cc-pvdz symm=none int=(grid=ultrafine) guess=(read,tcheck) s
 table=(opt,rrhf)\\title\\0,1\P,0,-1.640491,-0.652052,0.\C,0,0.162237,-
 0.220242,0.\C,0,1.083637,-1.274049,-0.000002\C,0,0.653568,1.092701,0.0
 00001\C,0,2.022487,1.342971,0.000001\C,0,2.928066,0.281782,0.\C,0,2.45
 6456,-1.027491,-0.000002\H,0,3.994628,0.477364,0.\H,0,3.154268,-1.8576
 06,-0.000003\H,0,0.718776,-2.295801,-0.000003\H,0,-0.033816,1.932096,0
 .000003\H,0,2.384817,2.365336,0.000003\C,0,-2.256608,0.379157,1.418485

 Normal termination of Gaussian 16 at Tue Apr  8 23:29:24 2025.
 Gaussian 16:  ES64L-G16RevC.01  3-Jul-2019

 ----------------------------------------------------------------------
 #t hf aug-cc-pvdz iop(5/13=1,5/36=2,99/5=2) pseudo=read geom=check gue
 ss=(read,tcheck) scf=(maxcycle=1)
 ----------------------------------------------------------------------
 -----
 title
 -----
 Structure from the checkpoint file:  "BDE49_nonexpt_1320_mol1.chk"
 Charge =  0 Multiplicity = 1

                         Standard orientation:
 ---------------------------------------------------------------------
 Center     Atomic      Atomic             Coordinates (Angstroms)
 Number     Number       Type             X           Y           Z
 ---------------------------------------------------------------------
      1         15           0       -1.640491   -0.652052    0.000000
      2          6           0        0.162237   -0.220242    0.000000
      3          6           0        1.083637   -1.274049   -0.000002
      4          6           0        0.653568    1.092701    0.000001
      5          6           0        2.022487    1.342971    0.000001
      6          6           0        2.928066    0.281782    0.000000
      7          6           0        2.456456   -1.027491   -0.000002
      8          1           0        3.994628    0.477364    0.000000
      9          1           0        3.154268   -1.857606   -0.000003
     10          1           0        0.718776   -2.295801   -0.000003
     11          1           0       -0.033816    1.932096    0.000003
     12          1           0        2.384817    2.365336    0.000003
     13          6           0       -2.256608    0.379157    1.418485
     14          1           0       -3.346219    0.298970    1.461548
     15          1           0       -1.852966   -0.016819    2.352772
     16          1           0       -1.986172    1.435578    1.336984
     17          6           0       -2.256608    0.379159   -1.418484
     18          1           0       -1.852966   -0.016814   -2.352772
     19          1           0       -1.986172    1.435580   -1.336981
     20          1           0       -3.346219    0.298973   -1.461547
 ---------------------------------------------------------------------

 SCF Done:  E(RHF) =  -650.497166426     A.U. after    2 cycles

 The electronic state is 1-A.
 Alpha  occ. eigenvalues --  -84.26501 -11.24754 -11.24710 -11.24535 -11.24506
 Alpha  occ. eigenvalues --  -11.24365 -11.24328 -11.23197 -11.23194  -6.73485
 Alpha  occ. eigenvalues --   -4.26348  -4.25866  -4.25501  -1.15597  -1.03882
 Alpha  occ. eigenvalues --   -1.01815  -0.98965  -0.93681  -0.84070  -0.83304
 Alpha  occ. eigenvalues --   -0.75115  -0.69788  -0.64403  -0.63406  -0.60408
 Alpha  occ. eigenvalues --   -0.59173  -0.58239  -0.56239  -0.55787  -0.54718
 Alpha  occ. eigenvalues --   -0.51371  -0.50679  -0.45385  -0.44870  -0.34746
 Alpha  occ. eigenvalues --   -0.34498  -0.31503
 Alpha virt. eigenvalues --    0.03344   0.03611   0.03986   0.04385   0.04746
 Alpha virt. eigenvalues --    0.05362   0.06469   0.07248   0.07518   0.07555
 Alpha virt. eigenvalues --    0.08671   0.09539   0.10455   0.10597   0.12543

 Mulliken charges:
               1
     1  P    1.059063
     2  C    0.469468
     3  C   -0.263259
     4  C   -0.003767
     5  C    0.344934
     6  C    0.155484
     7  C    0.517128
     8  H   -0.222003
     9  H   -0.217458
    10  H   -0.235297
    11  H   -0.347638
    12  H   -0.225271
    13  C   -0.820622
    14  H    0.100712
    15  H    0.097964
    16  H    0.106254
    17  C   -0.820621
    18  H    0.097963
    19  H    0.106255
    20  H    0.100712
 Sum of Mulliken charges =   0.00000

 Dipole moment (field-independent basis, Debye):
    X=              0.3052    Y=              1.0653    Z=              0.0000  Tot=              1.1081

 Test job not archived.
 1\1\GINC-SE333\SP\RHF\Aug-CC-pVDZ\C8H11P1\OHZDE\08-Apr-2025\0\\#t hf a
 ug-cc-pvdz iop(5/13=1,5/36=2,99/5=2) pseudo=read geom=check guess=(rea
 d,tcheck) scf=(maxcycle=1)\\title\\0,1\P,0,-1.640491,-0.652052,0.\C,0,
 0.162237,-0.220242,0.\C,0,1.083637,-1.274049,-0.000002\C,0,0.653568,1.
 092701,0.000001\C,0,2.022487,1.342971,0.000001\C,0,2.928066,0.281782,0
 .\C,0,2.456456,-1.027491,-0.000002\H,0,3.994628,0.477364,0.\H,0,3.1542
 68,-1.857606,-0.000003\H,0,0.718776,-2.295801,-0.000003\H,0,-0.033816,
 1.932096,0.000003\H,0,2.384817,2.365336,0.000003\C,0,-2.256608,0.37915

 Normal termination of Gaussian 16 at Tue Apr  8 23:29:35 2025.
