 Gaussian 16, Revision C.01,

 ----------------------------------------------------------------------
 #t hf aug-cc-pvdz symm=none int=(grid=ultrafine) guess=(read,tcheck) s
 table=(opt,rrhf)
 ----------------------------------------------------------------------
 -----
 title
 -----
 Symbolic Z-matrix:
 Charge =  0 Multiplicity = 1

 SCF Done:  E(RHF) =  -747.450964322     A.U. after   16 cycles
 Normal termination of Gaussian 16 at Wed Apr  9 00:06:46 2025.
 Gaussian 16:  ES64L-G16RevC.01  3-Jul-2019

 ----------------------------------------------------------------------
 #t hf aug-cc-pvdz iop(5/13=1,5/36=2,99/5=2) pseudo=read geom=check gue
 ss=(read,tcheck) scf=(maxcycle=1)
 ----------------------------------------------------------------------
 -----
 title
 -----
 Structure from the checkpoint file:  "BDE49_nonexpt_2200_mol1.chk"
 Charge =  0 Multiplicity = 1

                         Standard orientation:
 ---------------------------------------------------------------------
 Center     Atomic      Atomic             Coordinates (Angstroms)
 Number     Number       Type             X           Y           Z
 ---------------------------------------------------------------------
      1          6           0       -2.584131   -1.397755   -0.000030
      2          6           0       -1.233469   -1.714711    0.000077
      3          6           0       -0.249428   -0.719240    0.000130
      4          6           0       -2.967252   -0.057407   -0.000095
      5          6           0       -2.014422    0.957970   -0.000062
      6          6           0       -0.655101    0.631306    0.000043
      7          1           0       -4.018717    0.207811   -0.000183
      8          1           0       -2.334794    1.990639   -0.000130
      9          8           0        0.341071    1.557420    0.000041
     10          6           0        0.017825    2.944040   -0.000081
     11          1           0        0.971454    3.468221   -0.000062
     12          1           0       -0.548632    3.218262    0.895238
     13          1           0       -0.548525    3.218132   -0.895507
     14          1           0       -3.331923   -2.181533   -0.000062
     15          1           0       -0.893775   -2.743560    0.000138
     16          6           0        1.187758   -1.141930    0.000252
     17          8           0        1.469996   -2.331941   -0.000243
     18         14           0        2.702738    0.069986    0.000058
     19          1           0        2.741409    0.921300    1.210784
     20          1           0        2.740566    0.921982   -1.210220
     21          1           0        3.885398   -0.818536   -0.000599
 ---------------------------------------------------------------------

 SCF Done:  E(RHF) =  -747.944720823     A.U. after    2 cycles

 The electronic state is 1-A.
 Alpha  occ. eigenvalues --  -69.53061 -20.59525 -20.53651 -11.33288 -11.32702
 Alpha  occ. eigenvalues --  -11.31408 -11.26849 -11.25905 -11.25324 -11.24909
 Alpha  occ. eigenvalues --  -11.24534  -6.20072  -3.95443  -3.95428  -3.95421
 Alpha  occ. eigenvalues --   -1.52243  -1.46155  -1.16811  -1.05399  -1.03394
 Alpha  occ. eigenvalues --   -0.96736  -0.89698  -0.83637  -0.80492  -0.76330
 Alpha  occ. eigenvalues --   -0.72298  -0.69015  -0.67836  -0.67247  -0.63887
 Alpha  occ. eigenvalues --   -0.63404  -0.61149  -0.57453  -0.56669  -0.55699
 Alpha  occ. eigenvalues --   -0.53732  -0.52357  -0.51635  -0.49456  -0.47321
 Alpha  occ. eigenvalues --   -0.46845  -0.38538  -0.36082  -0.33592
 Alpha virt. eigenvalues --    0.02536   0.03134   0.03845   0.04378   0.04856
 Alpha virt. eigenvalues --    0.05212   0.05512   0.06546   0.06647   0.07423
 Alpha virt. eigenvalues --    0.07936   0.09627   0.09687   0.10746   0.11231

 Mulliken charges:
               1
     1  C    0.217766
     2  C    0.298518
     3  C    1.280578
     4  C    0.027577
     5  C    0.180182
     6  C    2.149073
     7  H   -0.234081
     8  H   -0.440885
     9  O   -2.037917
    10  C    0.130706
    11  H   -0.051903
    12  H    0.200518
    13  H    0.200542
    14  H   -0.228581
    15  H   -0.306431
    16  C   -0.318071
    17  O   -1.309607
    18  Si   0.654318
    19  H   -0.119889
    20  H   -0.119790
    21  H   -0.172625
 Sum of Mulliken charges =  -0.00000

 Dipole moment (field-independent basis, Debye):
    X=             -2.8461    Y=              4.2141    Z=              0.0004  Tot=              5.0852

 Test job not archived.
 1\1\GINC-SE249\SP\RHF\Aug-CC-pVDZ\C8H10O2Si1\OHZDE\09-Apr-2025\0\\#t h
 f aug-cc-pvdz iop(5/13=1,5/36=2,99/5=2) pseudo=read geom=check guess=(
 read,tcheck) scf=(maxcycle=1)\\title\\0,1\C,0,2.584131,-1.397755,0.000
 03\C,0,1.233469,-1.714711,-0.000077\C,0,0.249428,-0.71924,-0.00013\C,0
 ,2.967252,-0.057407,0.000095\C,0,2.014422,0.95797,0.000062\C,0,0.65510
 1,0.631306,-0.000043\H,0,4.018717,0.20781,0.000183\H,0,2.334794,1.9906
 39,0.00013\O,0,-0.341071,1.55742,-0.000041\C,0,-0.017824,2.94404,0.000
 081\H,0,-0.971453,3.468221,0.000062\H,0,0.548633,3.218262,-0.895238\H,

 Normal termination of Gaussian 16 at Wed Apr  9 00:07:01 2025.
