 Gaussian 16, Revision C.01,

 ----------------------------------------------------------------------
 #t hf aug-cc-pvdz symm=none int=(grid=ultrafine) guess=(read,tcheck) s
 table=(opt,rrhf)
 ----------------------------------------------------------------------
 -----
 title
 -----
 Symbolic Z-matrix:
 Charge =  0 Multiplicity = 1

 SCF Done:  E(RHF) =  -1520.11525421     A.U. after   14 cycles
 Normal termination of Gaussian 16 at Tue Apr  8 23:24:19 2025.
 Gaussian 16:  ES64L-G16RevC.01  3-Jul-2019

 ----------------------------------------------------------------------
 #t hf aug-cc-pvdz iop(5/13=1,5/36=2,99/5=2) pseudo=read geom=check gue
 ss=(read,tcheck) scf=(maxcycle=1)
 ----------------------------------------------------------------------
 -----
 title
 -----
 Structure from the checkpoint file:  "BDE49_nonexpt_1203_mol1.chk"
 Charge =  0 Multiplicity = 1

                         Standard orientation:
 ---------------------------------------------------------------------
 Center     Atomic      Atomic             Coordinates (Angstroms)
 Number     Number       Type             X           Y           Z
 ---------------------------------------------------------------------
      1         16           0       -0.629032    1.790331    0.043831
      2          8           0        0.847818    1.300249   -0.614633
      3          6           0        1.644870    0.519727    0.171421
      4          6           0       -1.526866    0.275452   -0.253925
      5          8           0       -1.101707   -0.732492   -0.707131
      6          8           0        1.425928    0.118342    1.263395
      7          6           0        3.776536   -0.468057   -0.057898
      8          6           0       -3.778176   -0.463747    0.065266
      9          9           0       -3.961233   -0.842216   -1.196924
     10          9           0       -4.903190    0.061617    0.531790
     11          9           0       -3.453263   -1.525842    0.795835
     12          9           0        4.280575    0.070363    1.050978
     13          9           0        4.722233   -0.514029   -0.986815
     14          9           0        3.363511   -1.703656    0.207994
     15          8           0       -2.814765    0.534122    0.160844
     16          8           0        2.758805    0.312069   -0.587002
 ---------------------------------------------------------------------

 SCF Done:  E(RHF) =  -1521.20444533     A.U. after    2 cycles

 The electronic state is 1-A.
 Alpha  occ. eigenvalues --  -94.08519 -26.54638 -26.54442 -26.54399 -26.53940
 Alpha  occ. eigenvalues --  -26.53807 -26.53754 -20.67732 -20.67333 -20.67035
 Alpha  occ. eigenvalues --  -20.60899 -20.59579 -11.61662 -11.60936 -11.50639
 Alpha  occ. eigenvalues --  -11.48355  -8.35960  -6.33766  -6.33523  -6.33244
 Alpha  occ. eigenvalues --   -1.77565  -1.76976  -1.66125  -1.65893  -1.65487
 Alpha  occ. eigenvalues --   -1.65245  -1.64707  -1.62004  -1.55687  -1.54013
 Alpha  occ. eigenvalues --   -1.52963  -1.12939  -1.03900  -0.99669  -0.93109
 Alpha  occ. eigenvalues --   -0.90822  -0.87052  -0.86810  -0.86230  -0.86097
 Alpha  occ. eigenvalues --   -0.82173  -0.79086  -0.77707  -0.76170  -0.74083
 Alpha  occ. eigenvalues --   -0.73892  -0.73100  -0.71815  -0.71389  -0.70605
 Alpha  occ. eigenvalues --   -0.69204  -0.68730  -0.67273  -0.66944  -0.66471
 Alpha  occ. eigenvalues --   -0.66243  -0.65638  -0.65028  -0.63204  -0.62620
 Alpha  occ. eigenvalues --   -0.61958  -0.57506  -0.55841  -0.53623  -0.52020
 Alpha  occ. eigenvalues --   -0.49197  -0.44815
 Alpha virt. eigenvalues --    0.04957   0.05361   0.07337   0.07753   0.08011
 Alpha virt. eigenvalues --    0.08738   0.09417   0.09598   0.09746   0.10271
 Alpha virt. eigenvalues --    0.11296   0.11972   0.13213   0.13925   0.14708

 Mulliken charges:
               1
     1  S    0.892105
     2  O   -1.282514
     3  C    2.137494
     4  C    0.929435
     5  O   -0.947378
     6  O   -0.860963
     7  C    2.846148
     8  C    2.926063
     9  F   -0.670721
    10  F   -0.671473
    11  F   -0.660366
    12  F   -0.683022
    13  F   -0.669846
    14  F   -0.679936
    15  O   -1.261537
    16  O   -1.343492
 Sum of Mulliken charges =  -0.00000

 Dipole moment (field-independent basis, Debye):
    X=             -0.8350    Y=              2.0505    Z=             -0.2630  Tot=              2.2296

 Test job not archived.
 1\1\GINC-SE334\SP\RHF\Aug-CC-pVDZ\C4F6O5S1\OHZDE\08-Apr-2025\0\\#t hf
 aug-cc-pvdz iop(5/13=1,5/36=2,99/5=2) pseudo=read geom=check guess=(re
 ad,tcheck) scf=(maxcycle=1)\\title\\0,1\S,0,-0.629032,1.790331,0.04383
 1\O,0,0.847818,1.300249,-0.614633\C,0,1.64487,0.519727,0.171421\C,0,-1
 .526866,0.275452,-0.253925\O,0,-1.101707,-0.732492,-0.707131\O,0,1.425
 928,0.118342,1.263395\C,0,3.776536,-0.468057,-0.057898\C,0,-3.778176,-
 0.463747,0.065266\F,0,-3.961233,-0.842216,-1.196924\F,0,-4.90319,0.061
 617,0.53179\F,0,-3.453263,-1.525842,0.795835\F,0,4.280575,0.070363,1.0

 Normal termination of Gaussian 16 at Tue Apr  8 23:24:30 2025.
