 Gaussian 16, Revision C.01,

 ----------------------------------------------------------------------
 #t hf aug-cc-pvdz symm=none int=(grid=ultrafine) guess=(read,tcheck) s
 table=(opt,rrhf)
 ----------------------------------------------------------------------
 -----
 title
 -----
 Symbolic Z-matrix:
 Charge =  0 Multiplicity = 1

 SCF Done:  E(RHF) =  -877.302800087     A.U. after   16 cycles
 Normal termination of Gaussian 16 at Tue Apr  8 23:09:50 2025.
 Gaussian 16:  ES64L-G16RevC.01  3-Jul-2019

 ----------------------------------------------------------------------
 #t hf aug-cc-pvdz iop(5/13=1,5/36=2,99/5=2) pseudo=read geom=check gue
 ss=(read,tcheck) scf=(maxcycle=1)
 ----------------------------------------------------------------------
 -----
 title
 -----
 Structure from the checkpoint file:  "BDE49_expt_605_mol1.chk"
 Charge =  0 Multiplicity = 1

                         Standard orientation:
 ---------------------------------------------------------------------
 Center     Atomic      Atomic             Coordinates (Angstroms)
 Number     Number       Type             X           Y           Z
 ---------------------------------------------------------------------
      1          6           0        0.986148   -1.208866    0.000007
      2          6           0        1.683034   -0.003445   -0.000006
      3          6           0        1.018157    1.220867   -0.000002
      4          6           0       -2.573911    0.109061    0.000054
      5          8           0       -3.212626    1.133886   -0.000010
      6          8           0       -3.163899   -1.111285   -0.000021
      7          1           0       -4.118634   -0.950512   -0.000064
      8          6           0       -0.403565   -1.186225    0.000025
      9          6           0       -0.369966    1.231980    0.000016
     10          6           0       -1.089337    0.032756    0.000031
     11          1           0        1.582451    2.144110   -0.000012
     12          1           0       -0.915667    2.167152    0.000021
     13          1           0        1.526212   -2.146494    0.000004
     14          1           0       -0.959473   -2.114245    0.000036
     15         17           0        3.434938   -0.026917   -0.000029
 ---------------------------------------------------------------------

 SCF Done:  E(RHF) =  -877.793412806     A.U. after    2 cycles

 The electronic state is 1-A.
 Alpha  occ. eigenvalues -- -105.58580 -20.61031 -20.54583 -11.40816 -11.33345
 Alpha  occ. eigenvalues --  -11.27899 -11.27608 -11.27348 -11.27125 -11.27054
 Alpha  occ. eigenvalues --  -10.63377  -7.80344  -7.79939  -7.79927  -1.55764
 Alpha  occ. eigenvalues --   -1.46068  -1.20336  -1.12046  -1.05213  -1.02539
 Alpha  occ. eigenvalues --   -0.90199  -0.87601  -0.81922  -0.74987  -0.72270
 Alpha  occ. eigenvalues --   -0.67867  -0.67316  -0.65428  -0.64291  -0.63307
 Alpha  occ. eigenvalues --   -0.59803  -0.56637  -0.55377  -0.54126  -0.49994
 Alpha  occ. eigenvalues --   -0.48073  -0.47840  -0.45891  -0.37604  -0.36450
 Alpha virt. eigenvalues --    0.03211   0.03800   0.03952   0.05206   0.05812
 Alpha virt. eigenvalues --    0.06081   0.08385   0.08909   0.08950   0.10241
 Alpha virt. eigenvalues --    0.10992   0.11709   0.12698   0.13155   0.13635

 Mulliken charges:
               1
     1  C    0.168404
     2  C   -0.474865
     3  C    0.399360
     4  C    1.778120
     5  O   -1.379618
     6  O   -1.623321
     7  H    0.570204
     8  C    0.229927
     9  C    0.072661
    10  C    1.538900
    11  H   -0.177164
    12  H   -0.337612
    13  H   -0.184985
    14  H   -0.275347
    15  Cl  -0.304665
 Sum of Mulliken charges =  -0.00000

 Dipole moment (field-independent basis, Debye):
    X=             -0.2496    Y=             -1.4515    Z=              0.0001  Tot=              1.4728

 Test job not archived.
 1\1\GINC-SE336\SP\RHF\Aug-CC-pVDZ\C7H5Cl1O2\OHZDE\08-Apr-2025\0\\#t hf
  aug-cc-pvdz iop(5/13=1,5/36=2,99/5=2) pseudo=read geom=check guess=(r
 ead,tcheck) scf=(maxcycle=1)\\title\\0,1\C,0,0.986148,-1.208866,0.0000
 07\C,0,1.683034,-0.003445,-0.000006\C,0,1.018157,1.220867,-0.000002\C,
 0,-2.573911,0.109061,0.000054\O,0,-3.212626,1.133886,-0.00001\O,0,-3.1
 63899,-1.111285,-0.000021\H,0,-4.118634,-0.950512,-0.000064\C,0,-0.403
 565,-1.186225,0.000025\C,0,-0.369966,1.23198,0.000016\C,0,-1.089337,0.
 032756,0.000031\H,0,1.582451,2.14411,-0.000012\H,0,-0.915667,2.167152,

 Normal termination of Gaussian 16 at Tue Apr  8 23:09:57 2025.
