 Gaussian 16, Revision C.01,

 ----------------------------------------------------------------------
 #t hf aug-cc-pvdz symm=none int=(grid=ultrafine) guess=(read,tcheck) s
 table=opt
 ----------------------------------------------------------------------
 -----
 title
 -----
 Symbolic Z-matrix:
 Charge =  0 Multiplicity = 2

 SCF Done:  E(UHF) =  -808.598110051     A.U. after   18 cycles
 Normal termination of Gaussian 16 at Tue Apr  8 23:15:52 2025.
 Gaussian 16:  ES64L-G16RevC.01  3-Jul-2019

 ----------------------------------------------------------------------
 #t hf aug-cc-pvdz iop(5/13=1,5/36=2,99/5=2) pseudo=read geom=check gue
 ss=(read,tcheck) scf=(maxcycle=1)
 ----------------------------------------------------------------------
 -----
 title
 -----
 Structure from the checkpoint file:  "BDE49_nonexpt_1014_mol2.chk"
 Charge =  0 Multiplicity = 2

                         Standard orientation:
 ---------------------------------------------------------------------
 Center     Atomic      Atomic             Coordinates (Angstroms)
 Number     Number       Type             X           Y           Z
 ---------------------------------------------------------------------
      1         16           0       -1.911796   -0.008335   -0.000005
      2          8           0       -0.439112    0.777450   -0.000042
      3          6           0        0.714593    0.006726    0.000002
      4          9           0        1.734033    0.856600   -0.000040
      5          9           0        0.789324   -0.768723   -1.082691
      6          9           0        0.789318   -0.768611    1.082775
 ---------------------------------------------------------------------

 SCF Done:  E(UHF) =  -809.024959286     A.U. after    2 cycles

 The electronic state is 2-A.
 Alpha  occ. eigenvalues --  -94.05864 -26.53069 -26.53065 -26.53006 -20.65535
 Alpha  occ. eigenvalues --  -11.59366  -8.33302  -6.32364  -6.30736  -6.30254
 Alpha  occ. eigenvalues --   -1.75774  -1.64565  -1.64387  -1.55715  -1.05978
 Alpha  occ. eigenvalues --   -0.94731  -0.85285  -0.84959  -0.82287  -0.72112
 Alpha  occ. eigenvalues --   -0.71743  -0.66836  -0.66603  -0.64975  -0.64372
 Alpha  occ. eigenvalues --   -0.62732  -0.60822  -0.46588  -0.42903
 Alpha virt. eigenvalues --    0.05282   0.08566   0.08907   0.09058   0.10319
 Alpha virt. eigenvalues --    0.12173   0.12297   0.15668   0.20324   0.21817
 Alpha virt. eigenvalues --    0.22129   0.25592   0.26411   0.28977   0.30236

  Beta  occ. eigenvalues --  -94.04971 -26.53065 -26.53062 -26.53013 -20.65028
  Beta  occ. eigenvalues --  -11.59391  -8.32278  -6.30337  -6.29727  -6.28298
  Beta  occ. eigenvalues --   -1.75707  -1.64573  -1.64373  -1.54363  -1.01501
  Beta  occ. eigenvalues --   -0.92493  -0.84967  -0.84897  -0.79994  -0.71600
  Beta  occ. eigenvalues --   -0.71543  -0.66455  -0.66393  -0.64383  -0.64347
  Beta  occ. eigenvalues --   -0.59605  -0.57399  -0.40844
  Beta virt. eigenvalues --   -0.01771   0.05946   0.08757   0.09078   0.09541
  Beta virt. eigenvalues --    0.10503   0.12426   0.13814   0.16743   0.20446
  Beta virt. eigenvalues --    0.22415   0.22603   0.25606   0.26733   0.30071

 Mulliken charges and spin densities:
               1          2
     1  S    0.536523   0.975053
     2  O   -1.267424   0.029366
     3  C    2.674338  -0.010297
     4  F   -0.644944   0.000589
     5  F   -0.649247   0.002644
     6  F   -0.649246   0.002644
 Sum of Mulliken charges =  -0.00000   1.00000

 Dipole moment (field-independent basis, Debye):
    X=             -1.0678    Y=             -0.3357    Z=              0.0000  Tot=              1.1194
                          Isotropic Fermi Contact Couplings
        Atom                 a.u.       MegaHertz       Gauss      10(-4) cm-1
     1  S(33)              0.20719      71.16513      25.39349      23.73813
     2  O(17)              0.04991     -30.25497     -10.79572     -10.09197
     3  C(13)             -0.00432      -4.86207      -1.73491      -1.62181
     4  F(19)             -0.00124      -5.23396      -1.86761      -1.74586
     5  F(19)             -0.00188      -7.89265      -2.81629      -2.63270
     6  F(19)             -0.00188      -7.89263      -2.81629      -2.63270
 --------------------------------------------------------
       Center         ----  Spin Dipole Couplings  ----

 Normal termination of Gaussian 16 at Tue Apr  8 23:15:54 2025.
