 Gaussian 16, Revision C.01,

 ----------------------------------------------------------------------
 #t hf aug-cc-pvdz symm=none int=(grid=ultrafine) guess=(read,tcheck) s
 table=(opt,rrhf)
 ----------------------------------------------------------------------
 -----
 title
 -----
 Symbolic Z-matrix:
 Charge =  0 Multiplicity = 1

 SCF Done:  E(RHF) =  -878.993560715     A.U. after   12 cycles

 1\1\GINC-SE195\Stability\RHF\Aug-CC-pVDZ\C5H14P2\OHZDE\08-Apr-2025\0\\
 #t hf aug-cc-pvdz symm=none int=(grid=ultrafine) guess=(read,tcheck) s
 table=(opt,rrhf)\\title\\0,1\C,0,0.,2.817821,1.019827\P,0,-0.024985,1.
 559547,-0.34728\H,0,0.797066,2.633002,1.74691\H,0,-0.961439,2.813571,1
 .538938\H,0,0.139842,3.812417,0.588449\C,0,1.754869,1.632427,-0.865862
 \H,0,1.939425,2.577496,-1.382719\H,0,1.962908,0.819971,-1.564812\H,0,2
 .441103,1.553501,-0.016422\C,0,0.,0.,0.682211\P,0,0.024985,-1.559547,-
 0.34728\H,0,-0.885764,0.008171,1.328431\H,0,0.885764,-0.008171,1.32843

 Normal termination of Gaussian 16 at Tue Apr  8 23:29:16 2025.
 Gaussian 16:  ES64L-G16RevC.01  3-Jul-2019

 ----------------------------------------------------------------------
 #t hf aug-cc-pvdz iop(5/13=1,5/36=2,99/5=2) pseudo=read geom=check gue
 ss=(read,tcheck) scf=(maxcycle=1)
 ----------------------------------------------------------------------
 -----
 title
 -----
 Structure from the checkpoint file:  "BDE49_nonexpt_1316_mol1.chk"
 Charge =  0 Multiplicity = 1

                         Standard orientation:
 ---------------------------------------------------------------------
 Center     Atomic      Atomic             Coordinates (Angstroms)
 Number     Number       Type             X           Y           Z
 ---------------------------------------------------------------------
      1          6           0        0.000000    2.817821    1.019827
      2         15           0       -0.024985    1.559547   -0.347280
      3          1           0        0.797066    2.633002    1.746910
      4          1           0       -0.961439    2.813571    1.538938
      5          1           0        0.139842    3.812417    0.588449
      6          6           0        1.754869    1.632427   -0.865862
      7          1           0        1.939425    2.577496   -1.382719
      8          1           0        1.962908    0.819971   -1.564812
      9          1           0        2.441103    1.553501   -0.016422
     10          6           0        0.000000    0.000000    0.682211
     11         15           0        0.024985   -1.559547   -0.347280
     12          1           0       -0.885764    0.008171    1.328431
     13          1           0        0.885764   -0.008171    1.328431
     14          6           0       -1.754869   -1.632427   -0.865862
     15          1           0       -2.441103   -1.553501   -0.016422
     16          1           0       -1.939425   -2.577496   -1.382719
     17          1           0       -1.962908   -0.819971   -1.564812
     18          6           0       -0.000000   -2.817821    1.019827
     19          1           0       -0.139842   -3.812417    0.588449
     20          1           0       -0.797066   -2.633002    1.746910
     21          1           0        0.961439   -2.813571    1.538938
 ---------------------------------------------------------------------

 SCF Done:  E(RHF) =  -879.308993500     A.U. after    2 cycles

 The electronic state is 1-A.
 Alpha  occ. eigenvalues --  -84.26211 -84.26201 -11.23624 -11.23195 -11.23194
 Alpha  occ. eigenvalues --  -11.22791 -11.22789  -6.73203  -6.73188  -4.25876
 Alpha  occ. eigenvalues --   -4.25636  -4.25633  -4.25594  -4.24950  -4.24949
 Alpha  occ. eigenvalues --   -1.04503  -1.00487  -0.93589  -0.93521  -0.92565
 Alpha  occ. eigenvalues --   -0.73988  -0.70418  -0.61151  -0.58947  -0.58594
 Alpha  occ. eigenvalues --   -0.57912  -0.57126  -0.55957  -0.55516  -0.55489
 Alpha  occ. eigenvalues --   -0.54225  -0.49586  -0.44957  -0.44232  -0.41313
 Alpha  occ. eigenvalues --   -0.31277  -0.30523
 Alpha virt. eigenvalues --    0.03675   0.03822   0.03962   0.04375   0.05530
 Alpha virt. eigenvalues --    0.05655   0.06162   0.06701   0.06769   0.08148
 Alpha virt. eigenvalues --    0.08463   0.08851   0.09231   0.09355   0.11281

 Mulliken charges:
               1
     1  C   -0.729624
     2  P    1.256325
     3  H    0.109561
     4  H    0.083936
     5  H    0.119161
     6  C   -0.919175
     7  H    0.085243
     8  H    0.153442
     9  H    0.117865
    10  C   -0.628386
    11  P    1.256325
    12  H    0.037457
    13  H    0.037457
    14  C   -0.919175
    15  H    0.117865
    16  H    0.085243
    17  H    0.153442
    18  C   -0.729624
    19  H    0.119161
    20  H    0.109561
    21  H    0.083936
 Sum of Mulliken charges =  -0.00000

 Dipole moment (field-independent basis, Debye):
    X=             -0.0000    Y=              0.0000    Z=              1.3903  Tot=              1.3903

 Test job not archived.
 1\1\GINC-SE195\SP\RHF\Aug-CC-pVDZ\C5H14P2\OHZDE\08-Apr-2025\0\\#t hf a
 ug-cc-pvdz iop(5/13=1,5/36=2,99/5=2) pseudo=read geom=check guess=(rea
 d,tcheck) scf=(maxcycle=1)\\title\\0,1\C,0,0.,2.817821,1.019827\P,0,-0
 .024985,1.559547,-0.34728\H,0,0.797066,2.633002,1.74691\H,0,-0.961439,
 2.813571,1.538938\H,0,0.139842,3.812417,0.588449\C,0,1.754869,1.632427
 ,-0.865862\H,0,1.939425,2.577496,-1.382719\H,0,1.962908,0.819971,-1.56
 4812\H,0,2.441103,1.553501,-0.016422\C,0,0.,0.,0.682211\P,0,0.024985,-
 1.559547,-0.34728\H,0,-0.885764,0.008171,1.328431\H,0,0.885764,-0.0081

 Normal termination of Gaussian 16 at Tue Apr  8 23:29:23 2025.
