 Gaussian 16, Revision C.01,

 ----------------------------------------------------------------------
 #t hf aug-cc-pvdz symm=none int=(grid=ultrafine) guess=(read,tcheck) s
 table=(opt,rrhf)
 ----------------------------------------------------------------------
 -----
 title
 -----
 Symbolic Z-matrix:
 Charge =  0 Multiplicity = 1

 SCF Done:  E(RHF) =  -554.949605875     A.U. after   12 cycles
 Normal termination of Gaussian 16 at Tue Apr  8 23:50:22 2025.
 Gaussian 16:  ES64L-G16RevC.01  3-Jul-2019

 ----------------------------------------------------------------------
 #t hf aug-cc-pvdz iop(5/13=1,5/36=2,99/5=2) pseudo=read geom=check gue
 ss=(read,tcheck) scf=(maxcycle=1)
 ----------------------------------------------------------------------
 -----
 title
 -----
 Structure from the checkpoint file:  "BDE49_nonexpt_1866_mol1.chk"
 Charge =  0 Multiplicity = 1

                         Standard orientation:
 ---------------------------------------------------------------------
 Center     Atomic      Atomic             Coordinates (Angstroms)
 Number     Number       Type             X           Y           Z
 ---------------------------------------------------------------------
      1          6           0        0.839727    0.082736    0.371294
      2         14           0       -0.856901   -0.653156   -0.090942
      3          8           0        0.859230    1.370075   -0.242643
      4          1           0        1.618115    1.872437    0.075214
      5          8           0       -2.008700    0.509459    0.131492
      6          1           0       -1.203749   -1.768179    0.812308
      7          1           0       -0.773143   -1.122785   -1.491573
      8          1           0       -1.753421    1.392033   -0.154013
      9          8           0        1.830013   -0.791486   -0.134447
     10          1           0        2.669094   -0.624867    0.308465
     11          1           0        0.957015    0.194739    1.459804
 ---------------------------------------------------------------------

 SCF Done:  E(RHF) =  -555.249658858     A.U. after    2 cycles

 The electronic state is 1-A.
 Alpha  occ. eigenvalues --  -69.55144 -20.57048 -20.56960 -20.54198 -11.33472
 Alpha  occ. eigenvalues --   -6.21877  -3.97355  -3.97216  -3.97169  -1.49940
 Alpha  occ. eigenvalues --   -1.43786  -1.42736  -0.92063  -0.75634  -0.73283
 Alpha  occ. eigenvalues --   -0.72008  -0.66008  -0.59897  -0.57378  -0.54729
 Alpha  occ. eigenvalues --   -0.53554  -0.48306  -0.47937  -0.46218  -0.43547
 Alpha virt. eigenvalues --    0.02527   0.04323   0.04585   0.05116   0.06841
 Alpha virt. eigenvalues --    0.07756   0.07929   0.08788   0.10300   0.12400
 Alpha virt. eigenvalues --    0.13585   0.15338   0.16072   0.17598   0.19249

 Mulliken charges:
               1
     1  C    1.304305
     2  Si   1.694917
     3  O   -1.126853
     4  H    0.292792
     5  O   -1.426311
     6  H   -0.178621
     7  H   -0.172876
     8  H    0.485396
     9  O   -1.150052
    10  H    0.315177
    11  H   -0.037874
 Sum of Mulliken charges =  -0.00000

 Dipole moment (field-independent basis, Debye):
    X=              2.7622    Y=              1.4594    Z=              1.6787  Tot=              3.5465

 Test job not archived.
 1\1\GINC-SE109\SP\RHF\Aug-CC-pVDZ\C1H6O3Si1\OHZDE\08-Apr-2025\0\\#t hf
  aug-cc-pvdz iop(5/13=1,5/36=2,99/5=2) pseudo=read geom=check guess=(r
 ead,tcheck) scf=(maxcycle=1)\\title\\0,1\C,0,0.839727,0.082736,0.37129
 4\Si,0,-0.856901,-0.653156,-0.090942\O,0,0.85923,1.370075,-0.242643\H,
 0,1.618115,1.872437,0.075214\O,0,-2.0087,0.509459,0.131492\H,0,-1.2037
 49,-1.768179,0.812308\H,0,-0.773143,-1.122785,-1.491573\H,0,-1.753421,
 1.392033,-0.154013\O,0,1.830013,-0.791486,-0.134447\H,0,2.669094,-0.62
 4867,0.308465\H,0,0.957015,0.194739,1.459804\\Version=ES64L-G16RevC.01

 Normal termination of Gaussian 16 at Tue Apr  8 23:50:26 2025.
