 Gaussian 16, Revision C.01,

 ----------------------------------------------------------------------
 #t hf aug-cc-pvdz symm=none int=(grid=ultrafine) guess=(read,tcheck) s
 table=(opt,rrhf)
 ----------------------------------------------------------------------
 -----
 title
 -----
 Symbolic Z-matrix:
 Charge =  0 Multiplicity = 1

 SCF Done:  E(RHF) =  -963.918113258     A.U. after   15 cycles
 Normal termination of Gaussian 16 at Tue Apr  8 23:15:59 2025.
 Gaussian 16:  ES64L-G16RevC.01  3-Jul-2019

 ----------------------------------------------------------------------
 #t hf aug-cc-pvdz iop(5/13=1,5/36=2,99/5=2) pseudo=read geom=check gue
 ss=(read,tcheck) scf=(maxcycle=1)
 ----------------------------------------------------------------------
 -----
 title
 -----
 Structure from the checkpoint file:  "BDE49_expt_857_mol1.chk"
 Charge =  0 Multiplicity = 1

                         Standard orientation:
 ---------------------------------------------------------------------
 Center     Atomic      Atomic             Coordinates (Angstroms)
 Number     Number       Type             X           Y           Z
 ---------------------------------------------------------------------
      1          6           0       -0.784105    0.002333   -0.036230
      2          6           0       -0.082749    1.207052   -0.027924
      3          6           0        1.306308    1.209426   -0.012547
      4          6           0       -0.083613   -1.204125   -0.027399
      5          6           0        1.304139   -1.206518   -0.011582
      6          6           0        2.011586    0.001630   -0.002536
      7          6           0       -2.284600    0.001175    0.001008
      8          1           0        1.837200    2.153836   -0.011168
      9          1           0       -0.623634   -2.142459   -0.042084
     10          1           0        1.838987   -2.149132   -0.008948
     11         16           0        3.787825   -0.082295    0.015228
     12          1           0        4.011522    1.241127    0.024112
     13          9           0       -2.808395    1.105819   -0.574859
     14          9           0       -2.758946   -0.034939    1.270104
     15          9           0       -2.807010   -1.070695   -0.635199
     16          1           0       -0.621909    2.145834   -0.042720
 ---------------------------------------------------------------------

 SCF Done:  E(RHF) =  -964.516682232     A.U. after    2 cycles

 The electronic state is 1-A.
 Alpha  occ. eigenvalues --  -93.98074 -26.50443 -26.50398 -26.49895 -11.52264
 Alpha  occ. eigenvalues --  -11.30909 -11.27838 -11.27784 -11.27628 -11.27054
 Alpha  occ. eigenvalues --  -11.26892  -8.26185  -6.24041  -6.23888  -6.23652
 Alpha  occ. eigenvalues --   -1.70889  -1.61034  -1.60458  -1.19833  -1.10986
 Alpha  occ. eigenvalues --   -1.05101  -1.02318  -0.94180  -0.87795  -0.85687
 Alpha  occ. eigenvalues --   -0.80335  -0.80131  -0.79892  -0.70042  -0.69241
 Alpha  occ. eigenvalues --   -0.68145  -0.66865  -0.66318  -0.63968  -0.63087
 Alpha  occ. eigenvalues --   -0.62256  -0.61525  -0.59038  -0.55472  -0.55319
 Alpha  occ. eigenvalues --   -0.53670  -0.49959  -0.44667  -0.37717  -0.33939
 Alpha virt. eigenvalues --    0.02965   0.03611   0.04249   0.05469   0.06461
 Alpha virt. eigenvalues --    0.06780   0.08117   0.08915   0.09553   0.09823
 Alpha virt. eigenvalues --    0.10087   0.11178   0.12072   0.12964   0.13420

 Mulliken charges:
               1
     1  C    0.638195
     2  C    0.067590
     3  C    0.597888
     4  C   -0.165056
     5  C   -0.239585
     6  C   -0.236907
     7  C    2.521013
     8  H   -0.306722
     9  H   -0.277558
    10  H   -0.218792
    11  S   -0.028196
    12  H    0.313702
    13  F   -0.825485
    14  F   -0.749280
    15  F   -0.818658
    16  H   -0.272148
 Sum of Mulliken charges =  -0.00000

 Dipole moment (field-independent basis, Debye):
    X=              2.2624    Y=              0.8778    Z=             -0.0744  Tot=              2.4278

 Test job not archived.
 1\1\GINC-SE367\SP\RHF\Aug-CC-pVDZ\C7H5F3S1\OHZDE\08-Apr-2025\0\\#t hf
 aug-cc-pvdz iop(5/13=1,5/36=2,99/5=2) pseudo=read geom=check guess=(re
 ad,tcheck) scf=(maxcycle=1)\\title\\0,1\C,0,-0.784105,0.002333,-0.0362
 3\C,0,-0.082749,1.207052,-0.027924\C,0,1.306308,1.209426,-0.012547\C,0
 ,-0.083613,-1.204125,-0.027399\C,0,1.304139,-1.206518,-0.011582\C,0,2.
 011586,0.00163,-0.002536\C,0,-2.2846,0.001175,0.001008\H,0,1.8372,2.15
 3836,-0.011168\H,0,-0.623634,-2.142459,-0.042084\H,0,1.838987,-2.14913
 2,-0.008948\S,0,3.787825,-0.082295,0.015228\H,0,4.011522,1.241127,0.02

 Normal termination of Gaussian 16 at Tue Apr  8 23:16:07 2025.
