 Gaussian 16, Revision C.01,

 ----------------------------------------------------------------------
 #t hf aug-cc-pvdz symm=none int=(grid=ultrafine) guess=(read,tcheck) s
 table=(opt,rrhf)
 ----------------------------------------------------------------------
 -----
 title
 -----
 Symbolic Z-matrix:
 Charge =  0 Multiplicity = 1

 SCF Done:  E(RHF) =  -1455.99384189     A.U. after   12 cycles

 1\1\GINC-SE457\Stability\RHF\Aug-CC-pVDZ\C2H3Cl3\OHZDE\08-Apr-2025\0\\
 #t hf aug-cc-pvdz symm=none int=(grid=ultrafine) guess=(read,tcheck) s
 table=(opt,rrhf)\\title\\0,1\C,0,-0.000021,0.000028,0.257772\C,0,0.000
 026,0.000037,1.773986\Cl,0,1.093693,1.290252,-0.364818\Cl,0,-1.664283,
 0.302001,-0.364756\Cl,0,0.57058,-1.592282,-0.364728\H,0,-0.346535,0.96
 7745,2.137554\H,0,1.01139,-0.183681,2.13749\H,0,-0.664728,-0.783971,2.
 137548\\Version=ES64L-G16RevC.01\HF=-1455.9938419\RMSD=4.194e-09\Dipol
 e=-0.0000164,0.0000461,0.8032987\Quadrupole=-0.9128549,-0.913176,1.826

 Normal termination of Gaussian 16 at Tue Apr  8 22:29:20 2025.
 Gaussian 16:  ES64L-G16RevC.01  3-Jul-2019

 ----------------------------------------------------------------------
 #t hf aug-cc-pvdz iop(5/13=1,5/36=2,99/5=2) pseudo=read geom=check gue
 ss=(read,tcheck) scf=(maxcycle=1)
 ----------------------------------------------------------------------
 -----
 title
 -----
 Structure from the checkpoint file:  "BDE49_expt_1014_mol1.chk"
 Charge =  0 Multiplicity = 1

                         Standard orientation:
 ---------------------------------------------------------------------
 Center     Atomic      Atomic             Coordinates (Angstroms)
 Number     Number       Type             X           Y           Z
 ---------------------------------------------------------------------
      1          6           0        0.000021   -0.000028    0.257772
      2          6           0       -0.000026   -0.000037    1.773986
      3         17           0       -1.093701   -1.290245   -0.364818
      4         17           0        1.664281   -0.302011   -0.364756
      5         17           0       -0.570570    1.592285   -0.364728
      6          1           0        0.346529   -0.967747    2.137554
      7          1           0       -1.011389    0.183687    2.137490
      8          1           0        0.664733    0.783967    2.137548
 ---------------------------------------------------------------------

 SCF Done:  E(RHF) =  -1456.30320734     A.U. after    2 cycles

 The electronic state is 1-A.
 Alpha  occ. eigenvalues -- -105.59152-105.59152-105.59152 -11.45094 -11.27526
 Alpha  occ. eigenvalues --  -10.63980 -10.63980 -10.63968  -7.80924  -7.80923
 Alpha  occ. eigenvalues --   -7.80912  -7.80498  -7.80497  -7.80497  -7.80494
 Alpha  occ. eigenvalues --   -7.80494  -7.80494  -1.21587  -1.06360  -1.06359
 Alpha  occ. eigenvalues --   -1.01334  -0.80317  -0.66367  -0.66366  -0.64237
 Alpha  occ. eigenvalues --   -0.57187  -0.57187  -0.50597  -0.50596  -0.47798
 Alpha  occ. eigenvalues --   -0.46738  -0.46738  -0.45566
 Alpha virt. eigenvalues --    0.03746   0.05523   0.05523   0.07099   0.09152
 Alpha virt. eigenvalues --    0.09152   0.09405   0.12975   0.14428   0.14428
 Alpha virt. eigenvalues --    0.15640   0.15640   0.17437   0.17632   0.18420

 Mulliken charges:
               1
     1  C   -1.173850
     2  C    0.245695
     3  Cl   0.106046
     4  Cl   0.106033
     5  Cl   0.106054
     6  H    0.203340
     7  H    0.203340
     8  H    0.203342
 Sum of Mulliken charges =   0.00000

 Dipole moment (field-independent basis, Debye):
    X=              0.0000    Y=             -0.0001    Z=              2.0253  Tot=              2.0253

 Test job not archived.
 1\1\GINC-SE457\SP\RHF\Aug-CC-pVDZ\C2H3Cl3\OHZDE\08-Apr-2025\0\\#t hf a
 ug-cc-pvdz iop(5/13=1,5/36=2,99/5=2) pseudo=read geom=check guess=(rea
 d,tcheck) scf=(maxcycle=1)\\title\\0,1\C,0,-0.000021,0.000028,0.257772
 \C,0,0.000026,0.000037,1.773986\Cl,0,1.093693,1.290252,-0.364818\Cl,0,
 -1.664283,0.302001,-0.364756\Cl,0,0.57058,-1.592282,-0.364728\H,0,-0.3
 46535,0.967745,2.137554\H,0,1.01139,-0.183681,2.13749\H,0,-0.664728,-0
 .783971,2.137548\\Version=ES64L-G16RevC.01\State=1-A\HF=-1456.3032073\
 RMSD=6.220e-03\Dipole=-0.0000166,0.0000462,0.796802\Quadrupole=-0.9099

 Normal termination of Gaussian 16 at Tue Apr  8 22:29:23 2025.
