 Gaussian 16, Revision C.01,

 ----------------------------------------------------------------------
 #t hf aug-cc-pvdz symm=none int=(grid=ultrafine) guess=(read,tcheck) s
 table=(opt,rrhf)
 ----------------------------------------------------------------------
 -----
 title
 -----
 Symbolic Z-matrix:
 Charge =  0 Multiplicity = 1

 SCF Done:  E(RHF) =  -822.024122098     A.U. after   14 cycles
 Normal termination of Gaussian 16 at Tue Apr  8 23:57:17 2025.
 Gaussian 16:  ES64L-G16RevC.01  3-Jul-2019

 ----------------------------------------------------------------------
 #t hf aug-cc-pvdz iop(5/13=1,5/36=2,99/5=2) pseudo=read geom=check gue
 ss=(read,tcheck) scf=(maxcycle=1)
 ----------------------------------------------------------------------
 -----
 title
 -----
 Structure from the checkpoint file:  "BDE49_nonexpt_1894_mol1.chk"
 Charge =  0 Multiplicity = 1

                         Standard orientation:
 ---------------------------------------------------------------------
 Center     Atomic      Atomic             Coordinates (Angstroms)
 Number     Number       Type             X           Y           Z
 ---------------------------------------------------------------------
      1         14           0       -0.631722    1.758038   -0.443440
      2          6           0        1.223779    1.487749   -0.672523
      3          6           0        1.793151    0.585304    0.411510
      4          8           0        1.830843    0.990083    1.569477
      5          7           0        2.228369   -0.664219    0.058205
      6          6           0       -1.452076    0.019999   -0.574131
      7          1           0       -1.174700    2.513707   -1.595357
      8          1           0       -0.891934    2.533653    0.789402
      9          8           0       -1.057150   -0.588539   -1.574597
     10          7           0       -2.376268   -0.504265    0.278525
     11          6           0        2.862155   -1.494597    1.075621
     12          1           0        2.820934   -0.966960    2.024764
     13          1           0        3.908309   -1.693248    0.815815
     14          1           0        2.340392   -2.452988    1.166841
     15          6           0       -2.848160    0.159854    1.482047
     16          1           0       -2.352861    1.119613    1.606744
     17          1           0       -2.635428   -0.452574    2.364914
     18          1           0       -3.930107    0.325998    1.432629
     19          6           0        2.207350   -1.201417   -1.300606
     20          1           0        1.284844   -0.937451   -1.814039
     21          1           0        2.238019   -2.290500   -1.235664
     22          1           0        3.074691   -0.874558   -1.888054
     23          6           0       -2.933409   -1.826182    0.013619
     24          1           0       -2.512069   -2.196336   -0.917817
     25          1           0       -4.023355   -1.767616   -0.072764
     26          1           0       -2.685453   -2.515337    0.827997
     27          1           0        1.694887    2.465137   -0.534356
     28          1           0        1.416940    1.159711   -1.692262
 ---------------------------------------------------------------------

 SCF Done:  E(RHF) =  -822.606187026     A.U. after    2 cycles

 The electronic state is 1-A.
 Alpha  occ. eigenvalues --  -69.54337 -20.51131 -20.49418 -15.53480 -15.51936
 Alpha  occ. eigenvalues --  -11.35298 -11.34378 -11.28083 -11.26772 -11.26305
 Alpha  occ. eigenvalues --  -11.25708 -11.23489  -6.21358  -3.96720  -3.96697
 Alpha  occ. eigenvalues --   -3.96689  -1.45189  -1.44417  -1.25551  -1.24135
 Alpha  occ. eigenvalues --   -1.01920  -0.99050  -0.97182  -0.96503  -0.93255
 Alpha  occ. eigenvalues --   -0.80209  -0.75425  -0.74067  -0.69329  -0.67560
 Alpha  occ. eigenvalues --   -0.67330  -0.66865  -0.66540  -0.65073  -0.58709
 Alpha  occ. eigenvalues --   -0.58009  -0.57851  -0.57353  -0.56781  -0.56348
 Alpha  occ. eigenvalues --   -0.55463  -0.55413  -0.54004  -0.53498  -0.52459
 Alpha  occ. eigenvalues --   -0.48327  -0.45874  -0.41201  -0.40001  -0.39810
 Alpha  occ. eigenvalues --   -0.38824
 Alpha virt. eigenvalues --    0.03229   0.03736   0.03738   0.04518   0.04565
 Alpha virt. eigenvalues --    0.04681   0.05309   0.05721   0.06319   0.06931
 Alpha virt. eigenvalues --    0.07254   0.07938   0.08120   0.08570   0.09795

 Mulliken charges:
               1
     1  Si   1.000220
     2  C   -0.537571
     3  C    0.227021
     4  O   -1.390645
     5  N    1.058857
     6  C   -0.586145
     7  H   -0.139470
     8  H   -0.119613
     9  O   -1.272554
    10  N    1.246692
    11  C   -0.266493
    12  H   -0.001427
    13  H    0.227849
    14  H    0.146043
    15  C   -0.227762
    16  H   -0.059824
    17  H    0.191344
    18  H    0.175511
    19  C   -0.276421
    20  H    0.128001
    21  H    0.024583
    22  H    0.159102
    23  C   -0.183194
    24  H    0.006855
    25  H    0.191768
    26  H    0.168927
    27  H    0.074688
    28  H    0.033659
 Sum of Mulliken charges =   0.00000

 Dipole moment (field-independent basis, Debye):
    X=             -1.4578    Y=             -1.1043    Z=             -0.2990  Tot=              1.8531

 Test job not archived.
 1\1\GINC-SE454\SP\RHF\Aug-CC-pVDZ\C7H16N2O2Si1\OHZDE\08-Apr-2025\0\\#t
  hf aug-cc-pvdz iop(5/13=1,5/36=2,99/5=2) pseudo=read geom=check guess
 =(read,tcheck) scf=(maxcycle=1)\\title\\0,1\Si,0,-0.631722,1.758038,-0
 .44344\C,0,1.223779,1.487749,-0.672523\C,0,1.793151,0.585304,0.41151\O
 ,0,1.830843,0.990083,1.569477\N,0,2.228369,-0.664219,0.058205\C,0,-1.4
 52076,0.019999,-0.574131\H,0,-1.1747,2.513707,-1.595357\H,0,-0.891934,
 2.533653,0.789402\O,0,-1.05715,-0.588539,-1.574597\N,0,-2.376268,-0.50
 4265,0.278525\C,0,2.862155,-1.494597,1.075621\H,0,2.820934,-0.96696,2.

 Normal termination of Gaussian 16 at Tue Apr  8 23:57:43 2025.
