 Gaussian 16, Revision C.01,

 ----------------------------------------------------------------------
 #t hf aug-cc-pvdz symm=none int=(grid=ultrafine) guess=(read,tcheck) s
 table=(opt,rrhf)
 ----------------------------------------------------------------------
 -----
 title
 -----
 Symbolic Z-matrix:
 Charge =  0 Multiplicity = 1

 SCF Done:  E(RHF) =  -183.584866510     A.U. after   14 cycles
 Normal termination of Gaussian 16 at Wed Apr  9 00:41:24 2025.
 Gaussian 16:  ES64L-G16RevC.01  3-Jul-2019

 ----------------------------------------------------------------------
 #t hf aug-cc-pvdz iop(5/13=1,5/36=2,99/5=2) pseudo=read geom=check gue
 ss=(read,tcheck) scf=(maxcycle=1)
 ----------------------------------------------------------------------
 -----
 title
 -----
 Structure from the checkpoint file:  "BDE49_nonexpt_67_mol1.chk"
 Charge =  0 Multiplicity = 1

                         Standard orientation:
 ---------------------------------------------------------------------
 Center     Atomic      Atomic             Coordinates (Angstroms)
 Number     Number       Type             X           Y           Z
 ---------------------------------------------------------------------
      1          5           0       -2.286294   -0.272818   -0.326470
      2          5           0       -0.947659   -0.251933    0.614353
      3          6           0        0.475518    0.140177    0.076160
      4          7           0        0.750589    1.378908   -0.105690
      5          1           0       -0.061369    1.982996    0.063018
      6          6           0        1.549399   -0.888146   -0.160998
      7          1           0        1.234119   -1.612915   -0.919236
      8          1           0        1.753307   -1.451558    0.755784
      9          1           0        2.462289   -0.390394   -0.493924
     10          1           0       -1.016714   -0.489147    1.788737
     11          1           0       -2.904539    0.714788   -0.594517
     12          1           0       -2.700947   -1.294558   -0.790419
 ---------------------------------------------------------------------

 SCF Done:  E(RHF) =  -183.777451151     A.U. after    2 cycles

 The electronic state is 1-A.
 Alpha  occ. eigenvalues --  -15.49147 -11.27809 -11.23920  -7.59727  -7.59560
 Alpha  occ. eigenvalues --   -1.20827  -0.99511  -0.81794  -0.76036  -0.69691
 Alpha  occ. eigenvalues --   -0.60457  -0.59278  -0.58006  -0.54598  -0.50646
 Alpha  occ. eigenvalues --   -0.48861  -0.43600  -0.41784
 Alpha virt. eigenvalues --    0.02931   0.03047   0.03559   0.03690   0.05390
 Alpha virt. eigenvalues --    0.05515   0.06598   0.07134   0.07275   0.08308
 Alpha virt. eigenvalues --    0.09089   0.09526   0.10310   0.10352   0.12982

 Mulliken charges:
               1
     1  B   -0.677696
     2  B   -0.122095
     3  C   -0.720281
     4  N    0.610421
     5  H    0.114893
     6  C   -0.754373
     7  H    0.233564
     8  H    0.219809
     9  H    0.182156
    10  H    0.328654
    11  H    0.294152
    12  H    0.290795
 Sum of Mulliken charges =  -0.00000

 Dipole moment (field-independent basis, Debye):
    X=             -1.5098    Y=             -2.0965    Z=              0.5595  Tot=              2.6435

 Test job not archived.
 1\1\GINC-SE054\SP\RHF\Aug-CC-pVDZ\C2H7B2N1\OHZDE\09-Apr-2025\0\\#t hf
 aug-cc-pvdz iop(5/13=1,5/36=2,99/5=2) pseudo=read geom=check guess=(re
 ad,tcheck) scf=(maxcycle=1)\\title\\0,1\B,0,-2.286294,-0.272818,-0.326
 47\B,0,-0.947659,-0.251933,0.614353\C,0,0.475518,0.140177,0.07616\N,0,
 0.750589,1.378908,-0.10569\H,0,-0.061369,1.982996,0.063018\C,0,1.54939
 9,-0.888146,-0.160998\H,0,1.234119,-1.612915,-0.919236\H,0,1.753307,-1
 .451558,0.755784\H,0,2.462289,-0.390394,-0.493924\H,0,-1.016714,-0.489
 147,1.788737\H,0,-2.904539,0.714788,-0.594517\H,0,-2.700947,-1.294558,

 Normal termination of Gaussian 16 at Wed Apr  9 00:41:28 2025.
