 Gaussian 16, Revision C.01,

 ----------------------------------------------------------------------
 #t hf aug-cc-pvdz symm=none int=(grid=ultrafine) guess=(read,tcheck) s
 table=(opt,rrhf)
 ----------------------------------------------------------------------
 -----
 title
 -----
 Symbolic Z-matrix:
 Charge =  0 Multiplicity = 1

 SCF Done:  E(RHF) =  -1022.45176704     A.U. after   12 cycles
 Normal termination of Gaussian 16 at Tue Apr  8 23:48:18 2025.
 Gaussian 16:  ES64L-G16RevC.01  3-Jul-2019

 ----------------------------------------------------------------------
 #t hf aug-cc-pvdz iop(5/13=1,5/36=2,99/5=2) pseudo=read geom=check gue
 ss=(read,tcheck) scf=(maxcycle=1)
 ----------------------------------------------------------------------
 -----
 title
 -----
 Structure from the checkpoint file:  "BDE49_nonexpt_180_mol1.chk"
 Charge =  0 Multiplicity = 1

                         Standard orientation:
 ---------------------------------------------------------------------
 Center     Atomic      Atomic             Coordinates (Angstroms)
 Number     Number       Type             X           Y           Z
 ---------------------------------------------------------------------
      1         17           0       -0.111449    1.631560   -0.000011
      2         17           0        1.856332   -0.658428   -0.000011
      3          5           0        0.171631   -0.111517    0.000028
      4          6           0       -0.984907   -1.159541    0.000018
      5          6           0       -2.429902   -0.643349    0.000010
      6          1           0       -0.811748   -1.817939   -0.863446
      7          1           0       -2.634523   -0.029199    0.879981
      8          1           0       -3.139759   -1.474051    0.000004
      9          1           0       -2.634512   -0.029195   -0.879960
     10          1           0       -0.811759   -1.817943    0.863482
 ---------------------------------------------------------------------

 SCF Done:  E(RHF) =  -1022.71758868     A.U. after    2 cycles

 The electronic state is 1-A.
 Alpha  occ. eigenvalues -- -105.57435-105.57211 -11.23812 -11.23664 -10.62460
 Alpha  occ. eigenvalues --  -10.62226  -7.79350  -7.79121  -7.79076  -7.79029
 Alpha  occ. eigenvalues --   -7.78842  -7.78801  -7.70955  -1.11178  -1.05457
 Alpha  occ. eigenvalues --   -1.03712  -0.87357  -0.68651  -0.62683  -0.61862
 Alpha  occ. eigenvalues --   -0.58992  -0.53797  -0.53050  -0.51555  -0.50208
 Alpha  occ. eigenvalues --   -0.47451  -0.46291  -0.45947
 Alpha virt. eigenvalues --    0.03434   0.04231   0.04478   0.04519   0.06890
 Alpha virt. eigenvalues --    0.07254   0.07451   0.07485   0.09239   0.10521
 Alpha virt. eigenvalues --    0.12750   0.14083   0.14961   0.15973   0.16685

 Mulliken charges:
               1
     1  Cl  -0.316656
     2  Cl  -0.353799
     3  B    0.686795
     4  C   -0.352629
     5  C   -0.434391
     6  H    0.166397
     7  H    0.153113
     8  H    0.131656
     9  H    0.153110
    10  H    0.166405
 Sum of Mulliken charges =  -0.00000

 Dipole moment (field-independent basis, Debye):
    X=             -1.4129    Y=             -1.1130    Z=              0.0001  Tot=              1.7986

 Test job not archived.
 1\1\GINC-SE398\SP\RHF\Aug-CC-pVDZ\C2H5B1Cl2\OHZDE\08-Apr-2025\0\\#t hf
  aug-cc-pvdz iop(5/13=1,5/36=2,99/5=2) pseudo=read geom=check guess=(r
 ead,tcheck) scf=(maxcycle=1)\\title\\0,1\Cl,0,-0.111449,1.63156,-0.000
 011\Cl,0,1.856332,-0.658428,-0.000011\B,0,0.171631,-0.111517,0.000028\
 C,0,-0.984907,-1.159541,0.000018\C,0,-2.429902,-0.643349,0.00001\H,0,-
 0.811748,-1.817939,-0.863446\H,0,-2.634523,-0.029199,0.879981\H,0,-3.1
 39759,-1.474051,0.000004\H,0,-2.634512,-0.029195,-0.87996\H,0,-0.81175
 9,-1.817943,0.863482\\Version=ES64L-G16RevC.01\State=1-A\HF=-1022.7175

 Normal termination of Gaussian 16 at Tue Apr  8 23:48:21 2025.
