 Gaussian 16, Revision C.01,

 ----------------------------------------------------------------------
 #t hf aug-cc-pvdz symm=none int=(grid=ultrafine) guess=(read,tcheck) s
 table=(opt,rrhf)
 ----------------------------------------------------------------------
 -----
 title
 -----
 Symbolic Z-matrix:
 Charge =  0 Multiplicity = 1

 SCF Done:  E(RHF) =  -995.465523226     A.U. after   13 cycles
 Normal termination of Gaussian 16 at Tue Apr  8 23:24:41 2025.
 Gaussian 16:  ES64L-G16RevC.01  3-Jul-2019

 ----------------------------------------------------------------------
 #t hf aug-cc-pvdz iop(5/13=1,5/36=2,99/5=2) pseudo=read geom=check gue
 ss=(read,tcheck) scf=(maxcycle=1)
 ----------------------------------------------------------------------
 -----
 title
 -----
 Structure from the checkpoint file:  "BDE49_nonexpt_1254_mol1.chk"
 Charge =  0 Multiplicity = 1

                         Standard orientation:
 ---------------------------------------------------------------------
 Center     Atomic      Atomic             Coordinates (Angstroms)
 Number     Number       Type             X           Y           Z
 ---------------------------------------------------------------------
      1         17           0       -2.013258   -0.524896   -0.000000
      2         15           0       -0.026009   -1.300670    0.000000
      3          6           0        0.702956   -0.330777    1.408700
      4          6           0        0.702956    1.198713    1.281409
      5          6           0        1.383893    1.699512    0.000000
      6          6           0        0.702956    1.198713   -1.281409
      7          6           0        0.702956   -0.330777   -1.408700
      8          1           0        1.733101   -0.709024    1.477452
      9          1           0        0.195857   -0.656312    2.320931
     10          1           0        1.207584    1.624321   -2.155655
     11          1           0       -0.329209    1.561624   -1.311802
     12          1           0        1.733101   -0.709024   -1.477452
     13          1           0        0.195857   -0.656312   -2.320931
     14          1           0        1.207584    1.624321    2.155655
     15          1           0       -0.329209    1.561624    1.311802
     16          1           0        2.436505    1.385850    0.000000
     17          1           0        1.390041    2.793901    0.000000
 ---------------------------------------------------------------------

 SCF Done:  E(RHF) =  -995.803815872     A.U. after    2 cycles

 The electronic state is 1-A'.
 Alpha  occ. eigenvalues -- -105.54591 -84.31611 -11.24974 -11.24964 -11.23956
 Alpha  occ. eigenvalues --  -11.23951 -11.23682 -10.59456  -7.76354  -7.76023
 Alpha  occ. eigenvalues --   -7.76011  -6.78258  -4.30541  -4.30447  -4.29888
 Alpha  occ. eigenvalues --   -1.11738  -1.04377  -1.02315  -0.96578  -0.85059
 Alpha  occ. eigenvalues --   -0.81307  -0.72914  -0.65396  -0.62323  -0.61816
 Alpha  occ. eigenvalues --   -0.58975  -0.55786  -0.53575  -0.51251  -0.50817
 Alpha  occ. eigenvalues --   -0.49455  -0.47278  -0.46552  -0.46051  -0.41483
 Alpha  occ. eigenvalues --   -0.33225
 Alpha virt. eigenvalues --    0.03304   0.03631   0.03709   0.04584   0.05798
 Alpha virt. eigenvalues --    0.06206   0.06393   0.06984   0.07488   0.09381
 Alpha virt. eigenvalues --    0.09522   0.10640   0.12168   0.13251   0.13757

 Mulliken charges:
               1
     1  Cl  -0.564350
     2  P    1.420349
     3  C   -0.725980
     4  C   -0.321772
     5  C   -0.390138
     6  C   -0.321772
     7  C   -0.725980
     8  H    0.239932
     9  H    0.163869
    10  H    0.116773
    11  H    0.163719
    12  H    0.239932
    13  H    0.163869
    14  H    0.116773
    15  H    0.163719
    16  H    0.129951
    17  H    0.131106
 Sum of Mulliken charges =  -0.00000

 Dipole moment (field-independent basis, Debye):
    X=              2.8438    Y=              0.8280    Z=              0.0000  Tot=              2.9619

 Test job not archived.
 1\1\GINC-SE073\SP\RHF\Aug-CC-pVDZ\C5H10Cl1P1\OHZDE\08-Apr-2025\0\\#t h
 f aug-cc-pvdz iop(5/13=1,5/36=2,99/5=2) pseudo=read geom=check guess=(
 read,tcheck) scf=(maxcycle=1)\\title\\0,1\Cl,0,-2.013258,-0.524896,0.\
 P,0,-0.026009,-1.30067,0.\C,0,0.702956,-0.330777,1.4087\C,0,0.702956,1
 .198713,1.281409\C,0,1.383893,1.699512,0.\C,0,0.702956,1.198713,-1.281
 409\C,0,0.702956,-0.330777,-1.4087\H,0,1.733101,-0.709024,1.477452\H,0
 ,0.195857,-0.656312,2.320931\H,0,1.207584,1.624321,-2.155655\H,0,-0.32
 9209,1.561624,-1.311802\H,0,1.733101,-0.709024,-1.477452\H,0,0.195857,

 Normal termination of Gaussian 16 at Tue Apr  8 23:24:46 2025.
