 Gaussian 16, Revision C.01,

 ----------------------------------------------------------------------
 #t hf aug-cc-pvdz symm=none int=(grid=ultrafine) guess=(read,tcheck) s
 table=(opt,rrhf)
 ----------------------------------------------------------------------
 -----
 title
 -----
 Symbolic Z-matrix:
 Charge =  0 Multiplicity = 1

 SCF Done:  E(RHF) =  -696.429737232     A.U. after   12 cycles
 Normal termination of Gaussian 16 at Tue Apr  8 23:29:33 2025.
 Gaussian 16:  ES64L-G16RevC.01  3-Jul-2019

 ----------------------------------------------------------------------
 #t hf aug-cc-pvdz iop(5/13=1,5/36=2,99/5=2) pseudo=read geom=check gue
 ss=(read,tcheck) scf=(maxcycle=1)
 ----------------------------------------------------------------------
 -----
 title
 -----
 Structure from the checkpoint file:  "BDE49_nonexpt_1345_mol1.chk"
 Charge =  0 Multiplicity = 1

                         Standard orientation:
 ---------------------------------------------------------------------
 Center     Atomic      Atomic             Coordinates (Angstroms)
 Number     Number       Type             X           Y           Z
 ---------------------------------------------------------------------
      1          6           0        0.826876    0.000000    0.040937
      2         15           0       -0.905181   -0.000000   -0.648953
      3          9           0       -1.507903   -1.227869    0.231323
      4          9           0       -1.507903    1.227869    0.231323
      5          6           0        1.512513    1.265055   -0.511559
      6          1           0        1.486519    1.298525   -1.605723
      7          1           0        2.563595    1.280075   -0.206919
      8          1           0        1.039232    2.174177   -0.132798
      9          6           0        1.512513   -1.265055   -0.511559
     10          1           0        1.486519   -1.298525   -1.605724
     11          1           0        1.039232   -2.174177   -0.132798
     12          1           0        2.563596   -1.280075   -0.206919
     13          6           0        0.823521    0.000000    1.576934
     14          1           0        0.317977    0.883694    1.970957
     15          1           0        1.852788    0.000000    1.950930
     16          1           0        0.317977   -0.883694    1.970957
 ---------------------------------------------------------------------

 SCF Done:  E(RHF) =  -696.828203289     A.U. after    2 cycles

 The electronic state is 1-A.
 Alpha  occ. eigenvalues --  -84.39756 -26.47042 -26.47041 -11.26361 -11.24455
 Alpha  occ. eigenvalues --  -11.24438 -11.23477  -6.85427  -4.38272  -4.37836
 Alpha  occ. eigenvalues --   -4.36893  -1.60448  -1.56342  -1.11432  -0.95480
 Alpha  occ. eigenvalues --   -0.95048  -0.87811  -0.76141  -0.69849  -0.68958
 Alpha  occ. eigenvalues --   -0.68003  -0.64982  -0.63473  -0.61215  -0.61192
 Alpha  occ. eigenvalues --   -0.60323  -0.56330  -0.55739  -0.53750  -0.50421
 Alpha  occ. eigenvalues --   -0.49598  -0.48626  -0.36030
 Alpha virt. eigenvalues --    0.03473   0.04046   0.04206   0.05205   0.06633
 Alpha virt. eigenvalues --    0.06727   0.07054   0.07229   0.07659   0.09662
 Alpha virt. eigenvalues --    0.11116   0.12007   0.12576   0.14159   0.14409

 Mulliken charges:
               1
     1  C   -1.732568
     2  P    1.855624
     3  F   -0.832184
     4  F   -0.832184
     5  C   -0.041231
     6  H    0.171101
     7  H    0.204362
     8  H    0.160922
     9  C   -0.041237
    10  H    0.171103
    11  H    0.160921
    12  H    0.204364
    13  C    0.046117
    14  H    0.148411
    15  H    0.208070
    16  H    0.148411
 Sum of Mulliken charges =  -0.00000

 Dipole moment (field-independent basis, Debye):
    X=              2.2817    Y=              0.0000    Z=             -0.4415  Tot=              2.3240

 Test job not archived.
 1\1\GINC-SE173\SP\RHF\Aug-CC-pVDZ\C4H9F2P1\OHZDE\08-Apr-2025\0\\#t hf
 aug-cc-pvdz iop(5/13=1,5/36=2,99/5=2) pseudo=read geom=check guess=(re
 ad,tcheck) scf=(maxcycle=1)\\title\\0,1\C,0,0.826876,0.,0.040937\P,0,-
 0.905181,0.,-0.648953\F,0,-1.507903,-1.227869,0.231323\F,0,-1.507903,1
 .227869,0.231323\C,0,1.512513,1.265055,-0.511559\H,0,1.486519,1.298525
 ,-1.605723\H,0,2.563595,1.280075,-0.206919\H,0,1.039232,2.174177,-0.13
 2798\C,0,1.512513,-1.265055,-0.511559\H,0,1.486519,-1.298525,-1.605724
 \H,0,1.039232,-2.174177,-0.132798\H,0,2.563596,-1.280075,-0.206919\C,0

 Normal termination of Gaussian 16 at Tue Apr  8 23:29:39 2025.
