 Gaussian 16, Revision C.01,

 ----------------------------------------------------------------------
 #t hf aug-cc-pvdz symm=none int=(grid=ultrafine) guess=(read,tcheck) s
 table=(opt,rrhf)
 ----------------------------------------------------------------------
 -----
 title
 -----
 Symbolic Z-matrix:
 Charge =  0 Multiplicity = 1

 SCF Done:  E(RHF) =  -733.128565585     A.U. after   13 cycles
 Normal termination of Gaussian 16 at Wed Apr  9 00:09:45 2025.
 Gaussian 16:  ES64L-G16RevC.01  3-Jul-2019

 ----------------------------------------------------------------------
 #t hf aug-cc-pvdz iop(5/13=1,5/36=2,99/5=2) pseudo=read geom=check gue
 ss=(read,tcheck) scf=(maxcycle=1)
 ----------------------------------------------------------------------
 -----
 title
 -----
 Structure from the checkpoint file:  "BDE49_nonexpt_2342_mol1.chk"
 Charge =  0 Multiplicity = 1

                         Standard orientation:
 ---------------------------------------------------------------------
 Center     Atomic      Atomic             Coordinates (Angstroms)
 Number     Number       Type             X           Y           Z
 ---------------------------------------------------------------------
      1         14           0       -1.841151   -0.730939    0.050870
      2         14           0       -0.448381    1.159701   -0.170302
      3          6           0        1.972014   -0.305842   -0.246911
      4          8           0        1.804251   -1.477226   -0.005096
      5          1           0       -1.407769   -1.818950   -0.853449
      6          1           0       -1.824310   -1.213781    1.451864
      7          1           0       -3.229524   -0.341758   -0.299860
      8          6           0        1.311657    0.812939    0.501501
      9          1           0        1.895229    1.735110    0.425926
     10          1           0        1.201624    0.531994    1.552731
     11          1           0       -0.994755    2.307596    0.595093
     12          1           0       -0.347417    1.566381   -1.594967
     13          1           0        2.624333    0.005956   -1.092069
 ---------------------------------------------------------------------

 SCF Done:  E(RHF) =  -733.352932458     A.U. after    2 cycles

 The electronic state is 1-A.
 Alpha  occ. eigenvalues --  -69.54170 -69.52773 -20.54819 -11.35142 -11.24869
 Alpha  occ. eigenvalues --   -6.21278  -6.19971  -3.96621  -3.96609  -3.96589
 Alpha  occ. eigenvalues --   -3.95325  -3.95325  -3.95318  -1.47974  -1.02885
 Alpha  occ. eigenvalues --   -0.81798  -0.77030  -0.70145  -0.67939  -0.63653
 Alpha  occ. eigenvalues --   -0.57713  -0.55977  -0.50743  -0.49147  -0.48208
 Alpha  occ. eigenvalues --   -0.46264  -0.41942  -0.41382
 Alpha virt. eigenvalues --    0.03101   0.04006   0.04305   0.04379   0.05834
 Alpha virt. eigenvalues --    0.06736   0.07513   0.07804   0.08296   0.09539
 Alpha virt. eigenvalues --    0.09908   0.10093   0.10266   0.11024   0.11325

 Mulliken charges:
               1
     1  Si   0.283147
     2  Si   0.797960
     3  C    1.013850
     4  O   -1.112715
     5  H   -0.057772
     6  H   -0.118326
     7  H   -0.136826
     8  C   -0.700290
     9  H    0.049742
    10  H    0.130119
    11  H   -0.169675
    12  H   -0.111581
    13  H    0.132365
 Sum of Mulliken charges =  -0.00000

 Dipole moment (field-independent basis, Debye):
    X=              0.2208    Y=              2.7600    Z=             -0.0761  Tot=              2.7699

 Test job not archived.
 1\1\GINC-SE071\SP\RHF\Aug-CC-pVDZ\C2H8O1Si2\OHZDE\09-Apr-2025\0\\#t hf
  aug-cc-pvdz iop(5/13=1,5/36=2,99/5=2) pseudo=read geom=check guess=(r
 ead,tcheck) scf=(maxcycle=1)\\title\\0,1\Si,0,-1.841151,-0.730939,0.05
 087\Si,0,-0.448381,1.159701,-0.170302\C,0,1.972014,-0.305842,-0.246911
 \O,0,1.804251,-1.477226,-0.005096\H,0,-1.407769,-1.81895,-0.853449\H,0
 ,-1.82431,-1.213781,1.451864\H,0,-3.229524,-0.341759,-0.29986\C,0,1.31
 1657,0.812939,0.501501\H,0,1.895229,1.73511,0.425926\H,0,1.201624,0.53
 1994,1.552731\H,0,-0.994755,2.307596,0.595093\H,0,-0.347417,1.566381,-

 Normal termination of Gaussian 16 at Wed Apr  9 00:09:49 2025.
