 Gaussian 16, Revision C.01,

 ----------------------------------------------------------------------
 #t hf aug-cc-pvdz symm=none int=(grid=ultrafine) guess=(read,tcheck) s
 table=(opt,rrhf)
 ----------------------------------------------------------------------
 -----
 title
 -----
 Symbolic Z-matrix:
 Charge =  0 Multiplicity = 1

 SCF Done:  E(RHF) =  -106.743032251     A.U. after   12 cycles
 Normal termination of Gaussian 16 at Wed Apr  9 00:38:49 2025.
 Gaussian 16:  ES64L-G16RevC.01  3-Jul-2019

 ----------------------------------------------------------------------
 #t hf aug-cc-pvdz iop(5/13=1,5/36=2,99/5=2) pseudo=read geom=check gue
 ss=(read,tcheck) scf=(maxcycle=1)
 ----------------------------------------------------------------------
 -----
 title
 -----
 Structure from the checkpoint file:  "BDE49_nonexpt_60_mol1.chk"
 Charge =  0 Multiplicity = 1

                         Standard orientation:
 ---------------------------------------------------------------------
 Center     Atomic      Atomic             Coordinates (Angstroms)
 Number     Number       Type             X           Y           Z
 ---------------------------------------------------------------------
      1          5           0        1.543862   -0.161885    0.000001
      2          5           0       -0.000697    0.460011   -0.000004
      3          7           0       -1.221039   -0.214007   -0.000003
      4          1           0       -1.311460   -1.218203   -0.000010
      5          1           0       -2.109097    0.263541    0.000008
      6          1           0       -0.061767    1.665349    0.000030
      7          1           0        2.156873   -0.351668   -1.011236
      8          1           0        2.156900   -0.351596    1.011237
 ---------------------------------------------------------------------

 SCF Done:  E(RHF) =  -106.856841457     A.U. after    2 cycles

 The electronic state is 1-A.
 Alpha  occ. eigenvalues --  -15.49720  -7.57620  -7.56488  -1.16406  -0.76543
 Alpha  occ. eigenvalues --   -0.71926  -0.67990  -0.54618  -0.49741  -0.46268
 Alpha  occ. eigenvalues --   -0.42004
 Alpha virt. eigenvalues --    0.02572   0.04003   0.04625   0.05040   0.06348
 Alpha virt. eigenvalues --    0.06826   0.07076   0.07935   0.10276   0.10930
 Alpha virt. eigenvalues --    0.12613   0.13832   0.13942   0.14287   0.15947

 Mulliken charges:
               1
     1  B   -0.818445
     2  B   -0.086551
     3  N    0.207298
     4  H    0.024854
     5  H   -0.028579
     6  H    0.077020
     7  H    0.312203
     8  H    0.312202
 Sum of Mulliken charges =  -0.00000

 Dipole moment (field-independent basis, Debye):
    X=             -1.3943    Y=             -0.7598    Z=             -0.0000  Tot=              1.5879

 Test job not archived.
 1\1\GINC-SE329\SP\RHF\Aug-CC-pVDZ\B2H5N1\OHZDE\09-Apr-2025\0\\#t hf au
 g-cc-pvdz iop(5/13=1,5/36=2,99/5=2) pseudo=read geom=check guess=(read
 ,tcheck) scf=(maxcycle=1)\\title\\0,1\B,0,-1.543862,-0.161885,-0.00000
 1\B,0,0.000697,0.460011,0.000004\N,0,1.221039,-0.214007,0.000003\H,0,1
 .31146,-1.218203,0.00001\H,0,2.109097,0.263541,-0.000008\H,0,0.061767,
 1.665349,-0.00003\H,0,-2.156873,-0.351668,1.011236\H,0,-2.1569,-0.3515
 96,-1.011237\\Version=ES64L-G16RevC.01\State=1-A\HF=-106.8568415\RMSD=
 2.014e-02\Dipole=0.5485738,-0.2989279,0.000005\Quadrupole=0.7026398,0.

 Normal termination of Gaussian 16 at Wed Apr  9 00:38:51 2025.
