 Gaussian 16, Revision C.01,

 ----------------------------------------------------------------------
 #t hf aug-cc-pvdz symm=none int=(grid=ultrafine) guess=(read,tcheck) s
 table=(opt,rrhf)
 ----------------------------------------------------------------------
 -----
 title
 -----
 Symbolic Z-matrix:
 Charge =  0 Multiplicity = 1

 SCF Done:  E(RHF) =  -633.605620139     A.U. after   14 cycles

 1\1\GINC-SE393\Stability\RHF\Aug-CC-pVDZ\Cl1F1O1\OHZDE\08-Apr-2025\0\\
 #t hf aug-cc-pvdz symm=none int=(grid=ultrafine) guess=(read,tcheck) s
 table=(opt,rrhf)\\title\\0,1\F,0,1.419546,0.610663,0.\O,0,0.,0.828693,
 0.\Cl,0,-0.751524,-0.713266,0.\\Version=ES64L-G16RevC.01\HF=-633.60562
 01\RMSD=3.832e-09\Dipole=-0.4044132,-0.3461351,0.\Quadrupole=-0.143235
 7,0.6900669,-0.5468312,0.478841,0.,0.\PG=Unknown\\@
 The archive entry for this job was punched.

 Normal termination of Gaussian 16 at Tue Apr  8 23:18:48 2025.
 Gaussian 16:  ES64L-G16RevC.01  3-Jul-2019

 ----------------------------------------------------------------------
 #t hf aug-cc-pvdz iop(5/13=1,5/36=2,99/5=2) pseudo=read geom=check gue
 ss=(read,tcheck) scf=(maxcycle=1)
 ----------------------------------------------------------------------
 -----
 title
 -----
 Structure from the checkpoint file:  "BDE49_nonexpt_1079_mol1.chk"
 Charge =  0 Multiplicity = 1

                         Standard orientation:
 ---------------------------------------------------------------------
 Center     Atomic      Atomic             Coordinates (Angstroms)
 Number     Number       Type             X           Y           Z
 ---------------------------------------------------------------------
      1          9           0        1.419546    0.610663    0.000000
      2          8           0        0.000000    0.828693    0.000000
      3         17           0       -0.751524   -0.713266    0.000000
 ---------------------------------------------------------------------

 SCF Done:  E(RHF) =  -633.837167233     A.U. after    2 cycles

 The electronic state is 1-A'.
 Alpha  occ. eigenvalues -- -105.66636 -26.54363 -20.75420 -10.70880  -7.87865
 Alpha  occ. eigenvalues --   -7.87274  -7.87229  -1.69236  -1.39373  -1.05395
 Alpha  occ. eigenvalues --   -0.74202  -0.73141  -0.71186  -0.60373  -0.59265
 Alpha  occ. eigenvalues --   -0.52140  -0.48754
 Alpha virt. eigenvalues --    0.03111   0.11161   0.12363   0.13168   0.13293
 Alpha virt. eigenvalues --    0.15516   0.21826   0.22962   0.23440   0.27908
 Alpha virt. eigenvalues --    0.28609   0.32852   0.39085   0.44081   0.44188

 Mulliken charges:
               1
     1  F   -0.310547
     2  O   -0.165027
     3  Cl   0.475573
 Sum of Mulliken charges =  -0.00000

 Dipole moment (field-independent basis, Debye):
    X=             -0.8182    Y=             -0.6898    Z=              0.0000  Tot=              1.0702

 Test job not archived.
 1\1\GINC-SE393\SP\RHF\Aug-CC-pVDZ\Cl1F1O1\OHZDE\08-Apr-2025\0\\#t hf a
 ug-cc-pvdz iop(5/13=1,5/36=2,99/5=2) pseudo=read geom=check guess=(rea
 d,tcheck) scf=(maxcycle=1)\\title\\0,1\F,0,1.419546,0.610663,0.\O,0,0.
 ,0.828693,0.\Cl,0,-0.751524,-0.713266,0.\\Version=ES64L-G16RevC.01\Sta
 te=1-A'\HF=-633.8371672\RMSD=4.177e-03\Dipole=-0.3219018,-0.2713809,0.
 \Quadrupole=-0.081871,0.6582915,-0.5764205,0.4626527,0.,0.\PG=CS [SG(C
 l1F1O1)]\\@

 Normal termination of Gaussian 16 at Tue Apr  8 23:18:51 2025.
