 Gaussian 16, Revision C.01,

 ----------------------------------------------------------------------
 #t hf aug-cc-pvdz symm=none int=(grid=ultrafine) guess=(read,tcheck) s
 table=opt
 ----------------------------------------------------------------------
 -----
 title
 -----
 Symbolic Z-matrix:
 Charge =  0 Multiplicity = 2

 SCF Done:  E(UHF) =  -142.940339523     A.U. after   14 cycles
 Normal termination of Gaussian 16 at Wed Apr  9 00:28:48 2025.
 Gaussian 16:  ES64L-G16RevC.01  3-Jul-2019

 ----------------------------------------------------------------------
 #t hf aug-cc-pvdz iop(5/13=1,5/36=2,99/5=2) pseudo=read geom=check gue
 ss=(read,tcheck) scf=(maxcycle=1)
 ----------------------------------------------------------------------
 -----
 title
 -----
 Structure from the checkpoint file:  "BDE49_nonexpt_312_mol2.chk"
 Charge =  0 Multiplicity = 2

                         Standard orientation:
 ---------------------------------------------------------------------
 Center     Atomic      Atomic             Coordinates (Angstroms)
 Number     Number       Type             X           Y           Z
 ---------------------------------------------------------------------
      1          6           0       -1.366007   -0.725405   -0.006707
      2          5           0        0.000000    0.064003   -0.000062
      3          1           0       -1.312217   -1.672051   -0.554958
      4          1           0       -2.220825   -0.151366   -0.376197
      5          1           0       -1.601269   -1.001722    1.033113
      6          6           0        1.366002   -0.725411    0.006705
      7          1           0        1.312165   -1.672058    0.554949
      8          1           0        2.220794   -0.151377    0.376268
      9          1           0        1.601348   -1.001722   -1.033097
     10          6           0        0.000003    1.605696    0.000046
     11          1           0       -0.911068    2.200503   -0.036059
     12          1           0        0.911084    2.200496    0.036029
 ---------------------------------------------------------------------

 SCF Done:  E(UHF) =  -143.099836220     A.U. after    2 cycles

 The electronic state is 2-A.
 Alpha  occ. eigenvalues --  -11.23709 -11.19687 -11.19660  -7.57243  -0.98991
 Alpha  occ. eigenvalues --   -0.92407  -0.92019  -0.63900  -0.59602  -0.57596
 Alpha  occ. eigenvalues --   -0.55982  -0.52845  -0.52400  -0.47218  -0.44955
 Alpha  occ. eigenvalues --   -0.39460
 Alpha virt. eigenvalues --    0.03506   0.04065   0.04255   0.04311   0.06584
 Alpha virt. eigenvalues --    0.06760   0.07546   0.08523   0.08707   0.09881
 Alpha virt. eigenvalues --    0.10737   0.10883   0.14536   0.15557   0.16236

  Beta  occ. eigenvalues --  -11.21811 -11.19703 -11.19675  -7.57254  -0.97154
  Beta  occ. eigenvalues --   -0.91958  -0.85818  -0.62709  -0.58441  -0.57485
  Beta  occ. eigenvalues --   -0.55311  -0.52556  -0.52167  -0.46049  -0.44943
  Beta virt. eigenvalues --    0.03025   0.03592   0.04294   0.04314   0.05129
  Beta virt. eigenvalues --    0.06599   0.06774   0.07563   0.08867   0.09388
  Beta virt. eigenvalues --    0.09977   0.10902   0.10906   0.15698   0.15888

 Mulliken charges and spin densities:
               1          2
     1  C   -0.428445  -0.005554
     2  B    1.114230  -0.034747
     3  H    0.018102   0.003216
     4  H   -0.058036  -0.001767
     5  H    0.123871   0.010973
     6  C   -0.428450  -0.005551
     7  H    0.018109   0.003216
     8  H   -0.058027  -0.001766
     9  H    0.123893   0.010973
    10  C   -0.217511   1.155657
    11  H   -0.103848  -0.067325
    12  H   -0.103887  -0.067324
 Sum of Mulliken charges =  -0.00000   1.00000

 Dipole moment (field-independent basis, Debye):
    X=              0.0000    Y=              0.3314    Z=             -0.0002  Tot=              0.3314
                          Isotropic Fermi Contact Couplings
        Atom                 a.u.       MegaHertz       Gauss      10(-4) cm-1
     1  C(13)             -0.00433      -4.86413      -1.73564      -1.62250
     2  B(11)             -0.00958     -13.73623      -4.90143      -4.58191
     3  H(1)               0.00081       3.63946       1.29865       1.21399
     4  H(1)               0.00023       1.00791       0.35965       0.33620
     5  H(1)               0.00345      15.40342       5.49632       5.13803
     6  C(13)             -0.00433      -4.86411      -1.73563      -1.62249
     7  H(1)               0.00081       3.64040       1.29898       1.21431
     8  H(1)               0.00023       1.00769       0.35957       0.33613

 Normal termination of Gaussian 16 at Wed Apr  9 00:28:51 2025.
