 Gaussian 16, Revision C.01,

 ----------------------------------------------------------------------
 #t hf aug-cc-pvdz symm=none int=(grid=ultrafine) guess=(read,tcheck) s
 table=(opt,rrhf)
 ----------------------------------------------------------------------
 -----
 title
 -----
 Symbolic Z-matrix:
 Charge =  0 Multiplicity = 1

 SCF Done:  E(RHF) =  -672.621816013     A.U. after   15 cycles
 Normal termination of Gaussian 16 at Wed Apr  9 00:05:06 2025.
 Gaussian 16:  ES64L-G16RevC.01  3-Jul-2019

 ----------------------------------------------------------------------
 #t hf aug-cc-pvdz iop(5/13=1,5/36=2,99/5=2) pseudo=read geom=check gue
 ss=(read,tcheck) scf=(maxcycle=1)
 ----------------------------------------------------------------------
 -----
 title
 -----
 Structure from the checkpoint file:  "BDE49_nonexpt_2182_mol1.chk"
 Charge =  0 Multiplicity = 1

                         Standard orientation:
 ---------------------------------------------------------------------
 Center     Atomic      Atomic             Coordinates (Angstroms)
 Number     Number       Type             X           Y           Z
 ---------------------------------------------------------------------
      1          8           0       -0.414170   -1.222333   -0.006860
      2          6           0        0.744452   -0.494335   -0.010342
      3          6           0        1.921190   -1.168877    0.324301
      4          6           0        0.787786    0.864823   -0.329346
      5          6           0        2.008128    1.538428   -0.314781
      6          6           0        3.183820    0.870967    0.016494
      7          6           0        3.131927   -0.485774    0.336594
      8          1           0        1.862922   -2.222641    0.567975
      9          1           0        4.040379   -1.017508    0.597013
     10          1           0       -0.122829    1.396254   -0.579098
     11          1           0        2.033310    2.593608   -0.563403
     12          1           0        4.129214    1.400325    0.026682
     13         14           0       -1.979311   -0.852391   -0.432969
     14          6           0       -2.775973    0.370337    0.722330
     15          6           0       -3.366540    1.489809    0.294679
     16          1           0       -2.792702    0.153933    1.790111
     17          1           0       -3.383391    1.762541   -0.757569
     18          1           0       -3.861175    2.182610    0.970344
     19          1           0       -2.656571   -2.161723   -0.372867
     20          1           0       -2.034187   -0.287532   -1.802324
 ---------------------------------------------------------------------

 SCF Done:  E(RHF) =  -673.047379859     A.U. after    2 cycles

 The electronic state is 1-A.
 Alpha  occ. eigenvalues --  -69.56341 -20.55616 -11.31078 -11.26203 -11.24722
 Alpha  occ. eigenvalues --  -11.24601 -11.23898 -11.23653 -11.23511 -11.23491
 Alpha  occ. eigenvalues --   -6.22922  -3.98411  -3.98262  -3.98252  -1.47173
 Alpha  occ. eigenvalues --   -1.14922  -1.04999  -1.01971  -1.00834  -0.85640
 Alpha  occ. eigenvalues --   -0.83819  -0.80508  -0.75260  -0.70471  -0.66638
 Alpha  occ. eigenvalues --   -0.66440  -0.63173  -0.61418  -0.60637  -0.60078
 Alpha  occ. eigenvalues --   -0.56654  -0.55000  -0.52718  -0.50685  -0.49544
 Alpha  occ. eigenvalues --   -0.46642  -0.45603  -0.39771  -0.34881  -0.32219
 Alpha virt. eigenvalues --    0.03253   0.03628   0.03797   0.04128   0.04812
 Alpha virt. eigenvalues --    0.05064   0.06236   0.06643   0.07164   0.08113
 Alpha virt. eigenvalues --    0.08836   0.09749   0.10115   0.10683   0.11231

 Mulliken charges:
               1
     1  O   -2.379404
     2  C    1.725454
     3  C   -0.203237
     4  C   -0.032241
     5  C    0.509525
     6  C    0.058620
     7  C    0.694373
     8  H   -0.282991
     9  H   -0.210916
    10  H   -0.411092
    11  H   -0.215382
    12  H   -0.223657
    13  Si   1.603750
    14  C   -0.063895
    15  C    0.078100
    16  H   -0.197014
    17  H   -0.070822
    18  H   -0.058175
    19  H   -0.164680
    20  H   -0.156316
 Sum of Mulliken charges =   0.00000

 Dipole moment (field-independent basis, Debye):
    X=             -0.7591    Y=              1.1989    Z=              0.1674  Tot=              1.4289

 Test job not archived.
 1\1\GINC-SE396\SP\RHF\Aug-CC-pVDZ\C8H10O1Si1\OHZDE\09-Apr-2025\0\\#t h
 f aug-cc-pvdz iop(5/13=1,5/36=2,99/5=2) pseudo=read geom=check guess=(
 read,tcheck) scf=(maxcycle=1)\\title\\0,1\O,0,-0.41417,-1.222333,-0.00
 686\C,0,0.744452,-0.494335,-0.010342\C,0,1.92119,-1.168877,0.324301\C,
 0,0.787786,0.864823,-0.329346\C,0,2.008128,1.538428,-0.314781\C,0,3.18
 382,0.870967,0.016494\C,0,3.131927,-0.485774,0.336594\H,0,1.862922,-2.
 222641,0.567975\H,0,4.040379,-1.017508,0.597013\H,0,-0.122829,1.396254
 ,-0.579098\H,0,2.03331,2.593608,-0.563403\H,0,4.129214,1.400325,0.0266

 Normal termination of Gaussian 16 at Wed Apr  9 00:05:18 2025.
