 Gaussian 16, Revision C.01,

 ----------------------------------------------------------------------
 #t hf aug-cc-pvdz symm=none int=(grid=ultrafine) guess=(read,tcheck) s
 table=(opt,rrhf)
 ----------------------------------------------------------------------
 -----
 title
 -----
 Symbolic Z-matrix:
 Charge =  0 Multiplicity = 1

 SCF Done:  E(RHF) =  -709.620317936     A.U. after   15 cycles
 Normal termination of Gaussian 16 at Wed Apr  9 00:05:09 2025.
 Gaussian 16:  ES64L-G16RevC.01  3-Jul-2019

 ----------------------------------------------------------------------
 #t hf aug-cc-pvdz iop(5/13=1,5/36=2,99/5=2) pseudo=read geom=check gue
 ss=(read,tcheck) scf=(maxcycle=1)
 ----------------------------------------------------------------------
 -----
 title
 -----
 Structure from the checkpoint file:  "BDE49_nonexpt_2195_mol1.chk"
 Charge =  0 Multiplicity = 1

                         Standard orientation:
 ---------------------------------------------------------------------
 Center     Atomic      Atomic             Coordinates (Angstroms)
 Number     Number       Type             X           Y           Z
 ---------------------------------------------------------------------
      1          6           0       -1.620646    1.603997   -0.000001
      2          6           0       -1.747088    0.207214    0.000000
      3          6           0       -0.609207   -0.598220    0.000000
      4          6           0       -0.358020    2.172832   -0.000001
      5          6           0        0.794343    1.382619    0.000000
      6          6           0        0.656501   -0.002888    0.000000
      7          1           0       -0.259701    3.252450   -0.000001
      8          1           0        1.774599    1.844516   -0.000001
      9          8           0        1.727588   -0.857161    0.000000
     10         14           0        3.358351   -0.541837    0.000000
     11          1           0       -0.660408   -1.677465    0.000000
     12          1           0       -2.519275    2.207398   -0.000001
     13          8           0       -3.022094   -0.271728    0.000000
     14          6           0       -3.219237   -1.678220    0.000000
     15          1           0       -4.297830   -1.826998    0.000000
     16          1           0       -2.789692   -2.144403    0.893798
     17          1           0       -2.789692   -2.144404   -0.893797
     18          1           0        3.998913   -1.868706    0.000001
     19          1           0        3.751166    0.225218    1.204146
     20          1           0        3.751166    0.225218   -1.204146
 ---------------------------------------------------------------------

 SCF Done:  E(RHF) =  -710.079940233     A.U. after    2 cycles

 The electronic state is 1-A.
 Alpha  occ. eigenvalues --  -69.56861 -20.57456 -20.56291 -11.31834 -11.31259
 Alpha  occ. eigenvalues --  -11.29644 -11.25244 -11.23320 -11.23308 -11.22887
 Alpha  occ. eigenvalues --   -6.23456  -3.98961  -3.98810  -3.98785  -1.49882
 Alpha  occ. eigenvalues --   -1.47794  -1.14932  -1.02329  -1.02015  -0.94849
 Alpha  occ. eigenvalues --   -0.85525  -0.83692  -0.76617  -0.71312  -0.69437
 Alpha  occ. eigenvalues --   -0.67374  -0.65801  -0.64924  -0.62036  -0.60537
 Alpha  occ. eigenvalues --   -0.59732  -0.55475  -0.54639  -0.52842  -0.51951
 Alpha  occ. eigenvalues --   -0.49982  -0.48689  -0.47405  -0.45247  -0.34071
 Alpha  occ. eigenvalues --   -0.31543
 Alpha virt. eigenvalues --    0.03366   0.03547   0.03858   0.04579   0.04975
 Alpha virt. eigenvalues --    0.05107   0.06546   0.06708   0.07207   0.09367
 Alpha virt. eigenvalues --    0.09400   0.10134   0.10204   0.11058   0.11952

 Mulliken charges:
               1
     1  C   -0.031097
     2  C    2.211493
     3  C   -0.558125
     4  C    0.615433
     5  C   -0.179079
     6  C    2.148632
     7  H   -0.222535
     8  H   -0.319440
     9  O   -2.424881
    10  Si   1.343997
    11  H   -0.447212
    12  H   -0.268631
    13  O   -1.895038
    14  C    0.136303
    15  H   -0.049671
    16  H    0.189967
    17  H    0.189966
    18  H   -0.178932
    19  H   -0.130575
    20  H   -0.130575
 Sum of Mulliken charges =   0.00000

 Dipole moment (field-independent basis, Debye):
    X=              0.3509    Y=             -0.7296    Z=             -0.0000  Tot=              0.8096

 Test job not archived.
 1\1\GINC-SE072\SP\RHF\Aug-CC-pVDZ\C7H10O2Si1\OHZDE\09-Apr-2025\0\\#t h
 f aug-cc-pvdz iop(5/13=1,5/36=2,99/5=2) pseudo=read geom=check guess=(
 read,tcheck) scf=(maxcycle=1)\\title\\0,1\C,0,-1.620646,1.603997,-0.00
 0001\C,0,-1.747088,0.207214,0.\C,0,-0.609207,-0.59822,0.\C,0,-0.35802,
 2.172832,-0.000001\C,0,0.794343,1.382619,0.\C,0,0.656501,-0.002888,0.\
 H,0,-0.259701,3.25245,-0.000001\H,0,1.774599,1.844516,-0.000001\O,0,1.
 727588,-0.857161,0.\Si,0,3.358351,-0.541837,0.\H,0,-0.660408,-1.677465
 ,0.\H,0,-2.519275,2.207398,-0.000001\O,0,-3.022094,-0.271728,0.\C,0,-3

 Normal termination of Gaussian 16 at Wed Apr  9 00:05:21 2025.
