 Gaussian 16, Revision C.01,

 ----------------------------------------------------------------------
 #t hf aug-cc-pvdz symm=none int=(grid=ultrafine) guess=(read,tcheck) s
 table=(opt,rrhf)
 ----------------------------------------------------------------------
 -----
 title
 -----
 Symbolic Z-matrix:
 Charge =  0 Multiplicity = 1

 SCF Done:  E(RHF) =  -1084.17595571     A.U. after   15 cycles
 Normal termination of Gaussian 16 at Tue Apr  8 23:17:55 2025.
 Gaussian 16:  ES64L-G16RevC.01  3-Jul-2019

 ----------------------------------------------------------------------
 #t hf aug-cc-pvdz iop(5/13=1,5/36=2,99/5=2) pseudo=read geom=check gue
 ss=(read,tcheck) scf=(maxcycle=1)
 ----------------------------------------------------------------------
 -----
 title
 -----
 Structure from the checkpoint file:  "BDE49_nonexpt_1062_mol1.chk"
 Charge =  0 Multiplicity = 1

                         Standard orientation:
 ---------------------------------------------------------------------
 Center     Atomic      Atomic             Coordinates (Angstroms)
 Number     Number       Type             X           Y           Z
 ---------------------------------------------------------------------
      1         17           0       -2.329197    0.048334   -0.000003
      2          8           0       -0.774616   -0.897728    0.000000
      3          6           0        0.373661   -0.219774    0.000005
      4         16           0        1.721309   -1.159467   -0.000001
      5          8           0        0.255984    1.085601    0.000003
      6          6           0        1.459938    1.882885    0.000001
      7          1           0        1.110023    2.911804    0.000001
      8          1           0        2.046419    1.668163   -0.893069
      9          1           0        2.046421    1.668165    0.893071
 ---------------------------------------------------------------------

 SCF Done:  E(RHF) =  -1084.52946634     A.U. after    2 cycles

 The electronic state is 1-A.
 Alpha  occ. eigenvalues -- -105.65252 -93.92593 -20.68385 -20.64046 -11.46054
 Alpha  occ. eigenvalues --  -11.32702 -10.69335  -8.20930  -7.86303  -7.85738
 Alpha  occ. eigenvalues --   -7.85724  -6.18801  -6.18450  -6.18352  -1.60544
 Alpha  occ. eigenvalues --   -1.52095  -1.10114  -1.02751  -1.01130  -0.82130
 Alpha  occ. eigenvalues --   -0.76470  -0.72080  -0.69049  -0.64380  -0.61188
 Alpha  occ. eigenvalues --   -0.58648  -0.53908  -0.53143  -0.50263  -0.49259
 Alpha  occ. eigenvalues --   -0.37965  -0.36571
 Alpha virt. eigenvalues --    0.01635   0.03154   0.05376   0.05575   0.07333
 Alpha virt. eigenvalues --    0.08894   0.09325   0.10387   0.11695   0.12357
 Alpha virt. eigenvalues --    0.13691   0.15116   0.15333   0.16051   0.16715

 Mulliken charges:
               1
     1  Cl   0.314859
     2  O   -1.009687
     3  C    0.959353
     4  S    0.098695
     5  O   -1.090130
     6  C    0.278317
     7  H    0.026903
     8  H    0.210845
     9  H    0.210846
 Sum of Mulliken charges =  -0.00000

 Dipole moment (field-independent basis, Debye):
    X=             -0.3156    Y=              3.6976    Z=              0.0000  Tot=              3.7110

 Test job not archived.
 1\1\GINC-SE074\SP\RHF\Aug-CC-pVDZ\C2H3Cl1O2S1\OHZDE\08-Apr-2025\0\\#t
 hf aug-cc-pvdz iop(5/13=1,5/36=2,99/5=2) pseudo=read geom=check guess=
 (read,tcheck) scf=(maxcycle=1)\\title\\0,1\Cl,0,-2.329197,0.048334,-0.
 000003\O,0,-0.774616,-0.897728,0.\C,0,0.373661,-0.219774,0.000005\S,0,
 1.721309,-1.159467,-0.000001\O,0,0.255984,1.085601,0.000003\C,0,1.4599
 38,1.882885,0.000001\H,0,1.110023,2.911804,0.000001\H,0,2.046419,1.668
 163,-0.893069\H,0,2.046421,1.668165,0.893071\\Version=ES64L-G16RevC.01
 \State=1-A\HF=-1084.5294663\RMSD=6.558e-03\Dipole=-0.1241855,1.4547427

 Normal termination of Gaussian 16 at Tue Apr  8 23:17:58 2025.
