 Gaussian 16, Revision C.01,

 ----------------------------------------------------------------------
 #t hf aug-cc-pvdz symm=none int=(grid=ultrafine) guess=(read,tcheck) s
 table=(opt,rrhf)
 ----------------------------------------------------------------------
 -----
 title
 -----
 Symbolic Z-matrix:
 Charge =  0 Multiplicity = 1

 SCF Done:  E(RHF) =  -673.484367235     A.U. after   17 cycles
 Normal termination of Gaussian 16 at Wed Apr  9 00:02:00 2025.
 Gaussian 16:  ES64L-G16RevC.01  3-Jul-2019

 ----------------------------------------------------------------------
 #t hf aug-cc-pvdz iop(5/13=1,5/36=2,99/5=2) pseudo=read geom=check gue
 ss=(read,tcheck) scf=(maxcycle=1)
 ----------------------------------------------------------------------
 -----
 title
 -----
 Structure from the checkpoint file:  "BDE49_nonexpt_2083_mol1.chk"
 Charge =  0 Multiplicity = 1

                         Standard orientation:
 ---------------------------------------------------------------------
 Center     Atomic      Atomic             Coordinates (Angstroms)
 Number     Number       Type             X           Y           Z
 ---------------------------------------------------------------------
      1          6           0        1.251483    0.116358   -0.000001
      2         14           0        2.619563   -1.171292    0.000002
      3          6           0       -0.141821   -0.228001   -0.000001
      4          6           0       -0.596333   -1.573493   -0.000001
      5          1           0        0.128473   -2.380354   -0.000002
      6          6           0       -1.937060   -1.876366   -0.000001
      7          1           0       -2.257752   -2.911999   -0.000002
      8          6           0       -2.902508   -0.845491   -0.000000
      9          1           0       -3.957257   -1.095926   -0.000000
     10          6           0       -2.502658    0.468140   -0.000000
     11          1           0       -3.237971    1.266169    0.000001
     12          6           0       -1.126245    0.812634   -0.000000
     13          6           0       -0.701379    2.166891   -0.000000
     14          1           0       -1.453277    2.949371    0.000001
     15          6           0        0.632843    2.482219   -0.000000
     16          1           0        0.951383    3.518596   -0.000000
     17          6           0        1.603885    1.454557   -0.000001
     18          1           0        2.652047    1.735342   -0.000001
     19          1           0        2.551657   -2.046021   -1.195869
     20          1           0        2.551655   -2.046015    1.195877
     21          1           0        3.915922   -0.455764   -0.000000
 ---------------------------------------------------------------------

 SCF Done:  E(RHF) =  -673.910128688     A.U. after    2 cycles

 The electronic state is 1-A.
 Alpha  occ. eigenvalues --  -69.52904 -11.25759 -11.25370 -11.25322 -11.25212
 Alpha  occ. eigenvalues --  -11.24929 -11.24905 -11.24777 -11.24732 -11.24694
 Alpha  occ. eigenvalues --  -11.23749  -6.19970  -3.95355  -3.95339  -3.95327
 Alpha  occ. eigenvalues --   -1.18160  -1.11556  -1.05564  -1.01413  -0.98785
 Alpha  occ. eigenvalues --   -0.86595  -0.85109  -0.83128  -0.74388  -0.71948
 Alpha  occ. eigenvalues --   -0.70450  -0.69120  -0.63441  -0.61956  -0.60397
 Alpha  occ. eigenvalues --   -0.58203  -0.56772  -0.54854  -0.52609  -0.50562
 Alpha  occ. eigenvalues --   -0.49124  -0.48545  -0.45896  -0.45733  -0.39538
 Alpha  occ. eigenvalues --   -0.33313  -0.30383
 Alpha virt. eigenvalues --    0.03205   0.03263   0.03425   0.04346   0.04562
 Alpha virt. eigenvalues --    0.05269   0.06196   0.06248   0.07101   0.07372
 Alpha virt. eigenvalues --    0.08905   0.09232   0.09400   0.10232   0.10373

 Mulliken charges:
               1
     1  C   -1.391869
     2  Si   0.580023
     3  C    1.698624
     4  C    0.195572
     5  H   -0.440395
     6  C   -0.176401
     7  H   -0.241307
     8  C   -0.192864
     9  H   -0.235926
    10  C    0.432882
    11  H   -0.305443
    12  C    1.049566
    13  C    0.338984
    14  H   -0.313273
    15  C   -0.239261
    16  H   -0.244132
    17  C    0.246051
    18  H   -0.342924
    19  H   -0.100906
    20  H   -0.100906
    21  H   -0.216094
 Sum of Mulliken charges =  -0.00000

 Dipole moment (field-independent basis, Debye):
    X=             -0.7790    Y=              0.6092    Z=              0.0000  Tot=              0.9889

 Test job not archived.
 1\1\GINC-SE253\SP\RHF\Aug-CC-pVDZ\C10H10Si1\OHZDE\09-Apr-2025\0\\#t hf
  aug-cc-pvdz iop(5/13=1,5/36=2,99/5=2) pseudo=read geom=check guess=(r
 ead,tcheck) scf=(maxcycle=1)\\title\\0,1\C,0,1.251483,0.116358,-0.0000
 01\Si,0,2.619563,-1.171292,0.000002\C,0,-0.141821,-0.228001,-0.000001\
 C,0,-0.596333,-1.573493,-0.000001\H,0,0.128473,-2.380354,-0.000002\C,0
 ,-1.93706,-1.876366,-0.000001\H,0,-2.257752,-2.911999,-0.000002\C,0,-2
 .902508,-0.845491,0.\H,0,-3.957257,-1.095927,0.\C,0,-2.502658,0.46814,
 0.\H,0,-3.237971,1.266168,0.000001\C,0,-1.126245,0.812634,0.\C,0,-0.70

 Normal termination of Gaussian 16 at Wed Apr  9 00:02:14 2025.
