 Gaussian 16, Revision C.01,

 ----------------------------------------------------------------------
 #t hf aug-cc-pvdz symm=none int=(grid=ultrafine) guess=(read,tcheck) s
 table=(opt,rrhf)
 ----------------------------------------------------------------------
 -----
 title
 -----
 Symbolic Z-matrix:
 Charge =  0 Multiplicity = 1

 SCF Done:  E(RHF) =  -1036.97693244     A.U. after   13 cycles
 Normal termination of Gaussian 16 at Tue Apr  8 23:26:59 2025.
 Gaussian 16:  ES64L-G16RevC.01  3-Jul-2019

 ----------------------------------------------------------------------
 #t hf aug-cc-pvdz iop(5/13=1,5/36=2,99/5=2) pseudo=read geom=check gue
 ss=(read,tcheck) scf=(maxcycle=1)
 ----------------------------------------------------------------------
 -----
 title
 -----
 Structure from the checkpoint file:  "BDE49_nonexpt_1229_mol1.chk"
 Charge =  0 Multiplicity = 1

                         Standard orientation:
 ---------------------------------------------------------------------
 Center     Atomic      Atomic             Coordinates (Angstroms)
 Number     Number       Type             X           Y           Z
 ---------------------------------------------------------------------
      1          6           0        3.412097    0.732042    0.453825
      2          6           0        2.240344   -0.150005   -0.004299
      3          1           0        4.316831    0.121040    0.525350
      4          1           0        3.225413    1.171570    1.437305
      5          1           0        3.609199    1.539333   -0.256594
      6          6           0        1.945277   -1.247411    1.023142
      7          1           0        2.795184   -1.935566    1.089270
      8          1           0        1.067322   -1.825667    0.729983
      9          1           0        1.766167   -0.824292    2.013816
     10          6           0        2.510266   -0.752814   -1.388367
     11          1           0        3.331829   -1.475386   -1.330182
     12          1           0        2.780779    0.023448   -2.107119
     13          1           0        1.624121   -1.269252   -1.761296
     14         16           0        0.822355    1.035142   -0.121513
     15          8           0       -0.396175   -0.011259   -0.664787
     16         14           0       -1.937918   -0.060108    0.013233
     17          6           0       -1.869281   -0.621315    1.800737
     18          1           0       -1.449292   -1.627021    1.890774
     19          1           0       -2.875472   -0.639863    2.232464
     20          1           0       -1.259667    0.054562    2.406451
     21          6           0       -2.728863    1.635900   -0.097751
     22          1           0       -2.177494    2.373940    0.492442
     23          1           0       -3.755942    1.611460    0.280918
     24          1           0       -2.760881    1.989192   -1.132355
     25          6           0       -2.842399   -1.301959   -1.054460
     26          1           0       -2.357390   -2.281367   -1.018138
     27          1           0       -2.867132   -0.977355   -2.098123
     28          1           0       -3.875655   -1.426095   -0.714679
 ---------------------------------------------------------------------

 SCF Done:  E(RHF) =  -1037.45117524     A.U. after    2 cycles

 The electronic state is 1-A.
 Alpha  occ. eigenvalues --  -93.98197 -69.53630 -20.54379 -11.27835 -11.23632
 Alpha  occ. eigenvalues --  -11.22864 -11.22515 -11.20743 -11.20701 -11.20646
 Alpha  occ. eigenvalues --   -8.25603  -6.23457  -6.23207  -6.22973  -6.20250
 Alpha  occ. eigenvalues --   -3.95708  -3.95566  -3.95541  -1.42560  -1.11766
 Alpha  occ. eigenvalues --   -0.97834  -0.94757  -0.94008  -0.93730  -0.92737
 Alpha  occ. eigenvalues --   -0.92427  -0.74824  -0.67375  -0.63929  -0.61883
 Alpha  occ. eigenvalues --   -0.61321  -0.58650  -0.57944  -0.56947  -0.56276
 Alpha  occ. eigenvalues --   -0.55619  -0.55136  -0.54626  -0.53585  -0.52885
 Alpha  occ. eigenvalues --   -0.52628  -0.52408  -0.52079  -0.48965  -0.48652
 Alpha  occ. eigenvalues --   -0.44240  -0.43491  -0.40648  -0.33691
 Alpha virt. eigenvalues --    0.03227   0.03528   0.03579   0.03918   0.05093
 Alpha virt. eigenvalues --    0.05252   0.05353   0.06100   0.06400   0.07438
 Alpha virt. eigenvalues --    0.07628   0.08012   0.08079   0.08417   0.09598

 Mulliken charges:
               1
     1  C    0.197754
     2  C   -1.638597
     3  H    0.229919
     4  H    0.210687
     5  H    0.194920
     6  C   -0.195000
     7  H    0.153430
     8  H    0.184418
     9  H    0.151651
    10  C   -0.128179
    11  H    0.198224
    12  H    0.172768
    13  H    0.154529
    14  S    0.675070
    15  O   -2.116279
    16  Si   3.631799
    17  C   -0.683636
    18  H   -0.058647
    19  H   -0.022372
    20  H   -0.003496
    21  C   -0.533345
    22  H   -0.054020
    23  H   -0.024282
    24  H   -0.029402
    25  C   -0.609155
    26  H   -0.014526
    27  H   -0.018169
    28  H   -0.026066
 Sum of Mulliken charges =  -0.00000

 Dipole moment (field-independent basis, Debye):
    X=              0.3559    Y=             -0.9559    Z=              0.7947  Tot=              1.2930

 Test job not archived.
 1\1\GINC-SE273\SP\RHF\Aug-CC-pVDZ\C7H18O1S1Si1\OHZDE\08-Apr-2025\0\\#t
  hf aug-cc-pvdz iop(5/13=1,5/36=2,99/5=2) pseudo=read geom=check guess
 =(read,tcheck) scf=(maxcycle=1)\\title\\0,1\C,0,3.412097,0.732042,0.45
 3825\C,0,2.240344,-0.150005,-0.004299\H,0,4.316831,0.12104,0.52535\H,0
 ,3.225413,1.17157,1.437305\H,0,3.609199,1.539333,-0.256594\C,0,1.94527
 7,-1.247411,1.023142\H,0,2.795184,-1.935566,1.08927\H,0,1.067322,-1.82
 5667,0.729983\H,0,1.766167,-0.824292,2.013816\C,0,2.510266,-0.752814,-
 1.388367\H,0,3.331829,-1.475386,-1.330182\H,0,2.780779,0.023448,-2.107

 Normal termination of Gaussian 16 at Tue Apr  8 23:27:23 2025.
