 Gaussian 16, Revision C.01,

 ----------------------------------------------------------------------
 #t hf aug-cc-pvdz symm=none int=(grid=ultrafine) guess=(read,tcheck) s
 table=(opt,rrhf)
 ----------------------------------------------------------------------
 -----
 title
 -----
 Symbolic Z-matrix:
 Charge =  0 Multiplicity = 1

 SCF Done:  E(RHF) =  -522.306687868     A.U. after   12 cycles
 Normal termination of Gaussian 16 at Wed Apr  9 00:06:04 2025.
 Gaussian 16:  ES64L-G16RevC.01  3-Jul-2019

 ----------------------------------------------------------------------
 #t hf aug-cc-pvdz iop(5/13=1,5/36=2,99/5=2) pseudo=read geom=check gue
 ss=(read,tcheck) scf=(maxcycle=1)
 ----------------------------------------------------------------------
 -----
 title
 -----
 Structure from the checkpoint file:  "BDE49_nonexpt_2216_mol1.chk"
 Charge =  0 Multiplicity = 1

                         Standard orientation:
 ---------------------------------------------------------------------
 Center     Atomic      Atomic             Coordinates (Angstroms)
 Number     Number       Type             X           Y           Z
 ---------------------------------------------------------------------
      1          6           0        3.352872   -0.553379   -0.133925
      2          6           0        1.908982   -0.402265    0.351915
      3          1           0        3.824736   -1.442838    0.292092
      4          1           0        3.961478    0.312107    0.147383
      5          1           0        3.394764   -0.646059   -1.223628
      6          6           0        1.211563    0.834812   -0.222651
      7          1           0        1.894377   -0.346513    1.447631
      8          1           0        1.330328   -1.289295    0.079767
      9          6           0       -0.236753    0.984857    0.221314
     10          1           0        1.234117    0.798322   -1.317834
     11          1           0        1.752880    1.741868    0.075265
     12          8           0       -1.000370   -0.124795   -0.260579
     13          1           0       -0.656089    1.920135   -0.171685
     14          1           0       -0.295155    1.025475    1.318198
     15         14           0       -2.611931   -0.354157   -0.004230
     16          1           0       -2.961809   -1.618035   -0.680286
     17          1           0       -3.409234    0.764671   -0.568485
     18          1           0       -2.920386   -0.447430    1.445514
 ---------------------------------------------------------------------

 SCF Done:  E(RHF) =  -522.592070198     A.U. after    2 cycles

 The electronic state is 1-A.
 Alpha  occ. eigenvalues --  -69.55409 -20.53477 -11.29241 -11.22874 -11.22426
 Alpha  occ. eigenvalues --  -11.22147  -6.22031  -3.97534  -3.97392  -3.97365
 Alpha  occ. eigenvalues --   -1.43739  -1.07236  -0.98093  -0.86646  -0.79677
 Alpha  occ. eigenvalues --   -0.75034  -0.65500  -0.64026  -0.61369  -0.60682
 Alpha  occ. eigenvalues --   -0.56209  -0.53449  -0.52611  -0.50559  -0.48116
 Alpha  occ. eigenvalues --   -0.47775  -0.47312  -0.45145  -0.42872
 Alpha virt. eigenvalues --    0.03674   0.03885   0.03960   0.04082   0.05416
 Alpha virt. eigenvalues --    0.05964   0.06370   0.06912   0.07626   0.08004
 Alpha virt. eigenvalues --    0.09014   0.09371   0.10080   0.11338   0.11375

 Mulliken charges:
               1
     1  C   -0.389067
     2  C   -0.273476
     3  H    0.118451
     4  H    0.161341
     5  H    0.173998
     6  C   -0.301801
     7  H    0.105546
     8  H    0.165624
     9  C    0.566971
    10  H    0.142562
    11  H    0.156476
    12  O   -1.645392
    13  H    0.074995
    14  H    0.099283
    15  Si   1.367198
    16  H   -0.161877
    17  H   -0.178270
    18  H   -0.182563
 Sum of Mulliken charges =   0.00000

 Dipole moment (field-independent basis, Debye):
    X=              0.2763    Y=              0.8665    Z=              0.4980  Tot=              1.0369

 Test job not archived.
 1\1\GINC-SE273\SP\RHF\Aug-CC-pVDZ\C4H12O1Si1\OHZDE\09-Apr-2025\0\\#t h
 f aug-cc-pvdz iop(5/13=1,5/36=2,99/5=2) pseudo=read geom=check guess=(
 read,tcheck) scf=(maxcycle=1)\\title\\0,1\C,0,3.352872,-0.553379,-0.13
 3925\C,0,1.908982,-0.402265,0.351915\H,0,3.824736,-1.442838,0.292092\H
 ,0,3.961478,0.312107,0.147383\H,0,3.394764,-0.646059,-1.223628\C,0,1.2
 11563,0.834812,-0.222651\H,0,1.894377,-0.346513,1.447631\H,0,1.330328,
 -1.289295,0.079767\C,0,-0.236753,0.984857,0.221314\H,0,1.234117,0.7983
 22,-1.317834\H,0,1.75288,1.741868,0.075265\O,0,-1.00037,-0.124795,-0.2

 Normal termination of Gaussian 16 at Wed Apr  9 00:06:11 2025.
