 Gaussian 16, Revision C.01,

 ----------------------------------------------------------------------
 #t hf aug-cc-pvdz symm=none int=(grid=ultrafine) guess=(read,tcheck) s
 table=opt
 ----------------------------------------------------------------------
 -----
 title
 -----
 Symbolic Z-matrix:
 Charge =  0 Multiplicity = 2

 SCF Done:  E(UHF) =  -596.492244233     A.U. after   17 cycles
 Normal termination of Gaussian 16 at Tue Apr  8 23:59:43 2025.
 Gaussian 16:  ES64L-G16RevC.01  3-Jul-2019

 ----------------------------------------------------------------------
 #t hf aug-cc-pvdz iop(5/13=1,5/36=2,99/5=2) pseudo=read geom=check gue
 ss=(read,tcheck) scf=(maxcycle=1)
 ----------------------------------------------------------------------
 -----
 title
 -----
 Structure from the checkpoint file:  "BDE49_nonexpt_2069_mol2.chk"
 Charge =  0 Multiplicity = 2

                         Standard orientation:
 ---------------------------------------------------------------------
 Center     Atomic      Atomic             Coordinates (Angstroms)
 Number     Number       Type             X           Y           Z
 ---------------------------------------------------------------------
      1         14           0        1.831359   -0.345337   -0.557227
      2          6           0        0.057148   -0.218592    0.231157
      3          8           0       -0.807530   -0.443462   -0.876830
      4          8           0       -0.195481    1.032859    0.850147
      5          6           0       -2.201342   -0.571366   -0.588617
      6          1           0       -2.716538   -0.488061   -1.545500
      7          1           0       -2.545291    0.224228    0.079017
      8          1           0       -2.436646   -1.544227   -0.144008
      9          6           0       -0.105130    2.173350    0.005342
     10          1           0       -0.292526    3.040559    0.638150
     11          1           0       -0.840593    2.138873   -0.803440
     12          1           0        0.895384    2.263248   -0.440797
     13          6           0       -0.106292   -1.253246    1.347023
     14          1           0       -0.029264   -2.265797    0.946366
     15          1           0       -1.076714   -1.132627    1.836953
     16          1           0        0.665122   -1.111796    2.105634
     17          1           0        2.035586   -1.708319   -1.112149
     18          1           0        2.860245   -0.077420    0.484981
 ---------------------------------------------------------------------

 SCF Done:  E(UHF) =  -596.841393822     A.U. after    2 cycles

 The electronic state is 2-A.
 Alpha  occ. eigenvalues --  -69.53272 -20.55082 -20.55071 -11.33584 -11.28295
 Alpha  occ. eigenvalues --  -11.28217 -11.23214  -6.20440  -3.96390  -3.95472
 Alpha  occ. eigenvalues --   -3.95445  -1.49549  -1.43114  -1.03184  -0.94827
 Alpha  occ. eigenvalues --   -0.92620  -0.81136  -0.74012  -0.69037  -0.66553
 Alpha  occ. eigenvalues --   -0.64523  -0.61920  -0.60342  -0.58977  -0.56135
 Alpha  occ. eigenvalues --   -0.53831  -0.52560  -0.50632  -0.48782  -0.44806
 Alpha  occ. eigenvalues --   -0.43476  -0.41197  -0.33018
 Alpha virt. eigenvalues --    0.03605   0.03973   0.04090   0.04256   0.05962
 Alpha virt. eigenvalues --    0.06058   0.06616   0.06655   0.07213   0.08987
 Alpha virt. eigenvalues --    0.09323   0.09728   0.10218   0.11494   0.13298

  Beta  occ. eigenvalues --  -69.52700 -20.55093 -20.55085 -11.33530 -11.28256
  Beta  occ. eigenvalues --  -11.28223 -11.23170  -6.19572  -3.95080  -3.95055
  Beta  occ. eigenvalues --   -3.94184  -1.49553  -1.43141  -1.02898  -0.94765
  Beta  occ. eigenvalues --   -0.92463  -0.80234  -0.71915  -0.68972  -0.66281
  Beta  occ. eigenvalues --   -0.63348  -0.61376  -0.60303  -0.58494  -0.55950
  Beta  occ. eigenvalues --   -0.53746  -0.52496  -0.50373  -0.47893  -0.44706
  Beta  occ. eigenvalues --   -0.43442  -0.39992
  Beta virt. eigenvalues --    0.02660   0.03690   0.04024   0.04175   0.05158
  Beta virt. eigenvalues --    0.06073   0.06332   0.06661   0.07127   0.07583
  Beta virt. eigenvalues --    0.09109   0.09450   0.09823   0.10593   0.11681

 Mulliken charges and spin densities:
               1          2
     1  Si   0.257547   1.012048
     2  C    1.385030   0.000610
     3  O   -1.389102  -0.026642
     4  O   -1.485206   0.003537
     5  C    0.269721  -0.006623
     6  H   -0.019318  -0.000170
     7  H    0.184036  -0.000874
     8  H    0.138571   0.000412
     9  C    0.205859   0.013466
    10  H   -0.012263  -0.000480
    11  H    0.190320   0.002171
    12  H    0.166209  -0.009035
    13  C   -0.254351  -0.023198
    14  H    0.204888  -0.005024
    15  H    0.169164   0.008750
    16  H    0.114885  -0.005319
    17  H   -0.064135   0.019389
    18  H   -0.061855   0.016981
 Sum of Mulliken charges =   0.00000   1.00000

 Dipole moment (field-independent basis, Debye):
    X=             -0.9956    Y=              0.1271    Z=              0.1881  Tot=              1.0212
                          Isotropic Fermi Contact Couplings
        Atom                 a.u.       MegaHertz       Gauss      10(-4) cm-1
     1  Si(29)             0.58970    -524.08519    -187.00663    -174.81600
     2  C(13)              0.00297       3.34247       1.19268       1.11493
     3  O(17)             -0.00630       3.81791       1.36233       1.27352
     4  O(17)             -0.00031       0.18521       0.06609       0.06178
     5  C(13)             -0.00120      -1.34666      -0.48052      -0.44920
     6  H(1)              -0.00001      -0.05771      -0.02059      -0.01925
     7  H(1)               0.00003       0.15590       0.05563       0.05200
     8  H(1)               0.00005       0.21414       0.07641       0.07143

 Normal termination of Gaussian 16 at Tue Apr  8 23:59:51 2025.
