 Gaussian 16, Revision C.01,

 ----------------------------------------------------------------------
 #t hf aug-cc-pvdz symm=none int=(grid=ultrafine) guess=(read,tcheck) s
 table=opt
 ----------------------------------------------------------------------
 -----
 title
 -----
 Symbolic Z-matrix:
 Charge =  0 Multiplicity = 2

 SCF Done:  E(UHF) =  -778.822844868     A.U. after   25 cycles
 Normal termination of Gaussian 16 at Wed Apr  9 00:24:53 2025.
 Gaussian 16:  ES64L-G16RevC.01  3-Jul-2019

 ----------------------------------------------------------------------
 #t hf aug-cc-pvdz iop(5/13=1,5/36=2,99/5=2) pseudo=read geom=check gue
 ss=(read,tcheck) scf=(maxcycle=1)
 ----------------------------------------------------------------------
 -----
 title
 -----
 Structure from the checkpoint file:  "BDE49_nonexpt_2678_mol2.chk"
 Charge =  0 Multiplicity = 2

                         Standard orientation:
 ---------------------------------------------------------------------
 Center     Atomic      Atomic             Coordinates (Angstroms)
 Number     Number       Type             X           Y           Z
 ---------------------------------------------------------------------
      1         16           0        1.060509   -1.157669   -1.079767
      2          6           0        0.028146    0.053698   -0.105580
      3          8           0       -1.100213    0.248442   -0.878051
      4          8           0        0.654084    1.266921    0.086618
      5          8           0       -0.235484   -0.495045    1.156990
      6          6           0       -1.893449    1.408862   -0.564111
      7          1           0       -2.817508    1.281854   -1.125717
      8          1           0       -1.385813    2.321984   -0.875061
      9          1           0       -2.110937    1.457829    0.505802
     10          6           0        1.816977    1.276146    0.915961
     11          1           0        2.194208    2.296932    0.883418
     12          1           0        2.573361    0.592414    0.517768
     13          1           0        1.568713    0.999077    1.941788
     14          6           0       -1.172604   -1.577701    1.214045
     15          1           0       -1.100782   -1.975351    2.225330
     16          1           0       -0.921481   -2.355309    0.489918
     17          1           0       -2.189433   -1.225292    1.026671
 ---------------------------------------------------------------------

 SCF Done:  E(UHF) =  -779.265101690     A.U. after    2 cycles

 The electronic state is 2-A.
 Alpha  occ. eigenvalues --  -93.96508 -20.56848 -20.56756 -20.56543 -11.43668
 Alpha  occ. eigenvalues --  -11.29023 -11.28988 -11.28746  -8.24602  -6.23787
 Alpha  occ. eigenvalues --   -6.21996  -6.21685  -1.56049  -1.45949  -1.45591
 Alpha  occ. eigenvalues --   -1.05057  -0.97242  -0.94829  -0.94182  -0.79799
 Alpha  occ. eigenvalues --   -0.72665  -0.72478  -0.68994  -0.64730  -0.63308
 Alpha  occ. eigenvalues --   -0.61650  -0.60067  -0.59381  -0.55225  -0.54048
 Alpha  occ. eigenvalues --   -0.51369  -0.49639  -0.46616  -0.45918  -0.43427
 Alpha  occ. eigenvalues --   -0.42335  -0.38901
 Alpha virt. eigenvalues --    0.03642   0.04136   0.04193   0.05070   0.06097
 Alpha virt. eigenvalues --    0.06190   0.06975   0.07363   0.09039   0.09313
 Alpha virt. eigenvalues --    0.11093   0.12450   0.13228   0.14139   0.14686

  Beta  occ. eigenvalues --  -93.95596 -20.56769 -20.56672 -20.56555 -11.43810
  Beta  occ. eigenvalues --  -11.29016 -11.28992 -11.28740  -8.23556  -6.21440
  Beta  occ. eigenvalues --   -6.21140  -6.19750  -1.55969  -1.45791  -1.45496
  Beta  occ. eigenvalues --   -1.01989  -0.95662  -0.94583  -0.91037  -0.78919
  Beta  occ. eigenvalues --   -0.72606  -0.72262  -0.67445  -0.64615  -0.63024
  Beta  occ. eigenvalues --   -0.61498  -0.60029  -0.59348  -0.54783  -0.53913
  Beta  occ. eigenvalues --   -0.51086  -0.49539  -0.45801  -0.44943  -0.41455
  Beta  occ. eigenvalues --   -0.36630
  Beta virt. eigenvalues --    0.00977   0.03689   0.04151   0.04282   0.05101
  Beta virt. eigenvalues --    0.06105   0.06213   0.07037   0.07381   0.09050
  Beta virt. eigenvalues --    0.09640   0.11171   0.13243   0.13428   0.14408

 Mulliken charges and spin densities:
               1          2
     1  S    0.351757   1.120283
     2  C    2.564393  -0.064175
     3  O   -1.339568  -0.025892
     4  O   -1.517012   0.005270
     5  O   -1.456814   0.000333
     6  C    0.083586  -0.007550
     7  H   -0.001927  -0.000476
     8  H    0.167761  -0.000313
     9  H    0.167190  -0.000098
    10  C    0.068240  -0.000101
    11  H   -0.016641   0.000332
    12  H    0.208151  -0.013892
    13  H    0.186458   0.000427
    14  C    0.149218   0.000796
    15  H   -0.013897   0.000479
    16  H    0.231282  -0.015948
    17  H    0.167824   0.000526
 Sum of Mulliken charges =  -0.00000   1.00000

 Dipole moment (field-independent basis, Debye):
    X=             -0.9899    Y=              0.6517    Z=              1.6549  Tot=              2.0355
                          Isotropic Fermi Contact Couplings
        Atom                 a.u.       MegaHertz       Gauss      10(-4) cm-1
     1  S(33)              0.17951      61.65652      22.00058      20.56640
     2  C(13)             -0.02798     -31.45443     -11.22372     -10.49207
     3  O(17)              0.02539     -15.39416      -5.49302      -5.13494
     4  O(17)             -0.00232       1.40522       0.50142       0.46873
     5  O(17)              0.01202      -7.28803      -2.60055      -2.43102
     6  C(13)              0.00121       1.36404       0.48672       0.45500
     7  H(1)               0.00004       0.17468       0.06233       0.05827
     8  H(1)              -0.00006      -0.26412      -0.09425      -0.08810

 Normal termination of Gaussian 16 at Wed Apr  9 00:25:02 2025.
