 Gaussian 16, Revision C.01,

 ----------------------------------------------------------------------
 #t hf aug-cc-pvdz symm=none int=(grid=ultrafine) guess=(read,tcheck) s
 table=(opt,rrhf)
 ----------------------------------------------------------------------
 -----
 title
 -----
 Symbolic Z-matrix:
 Charge =  0 Multiplicity = 1

 SCF Done:  E(RHF) =  -212.351741423     A.U. after   12 cycles

 1\1\GINC-SE250\Stability\RHF\Aug-CC-pVDZ\C4H11N1\OHZDE\08-Apr-2025\0\\
 #t hf aug-cc-pvdz symm=none int=(grid=ultrafine) guess=(read,tcheck) s
 table=(opt,rrhf)\\title\\0,1\N,0,-0.573616,1.381193,-0.235417\C,0,-0.4
 88421,0.023778,0.328092\H,0,0.204049,1.947745,0.088666\H,0,-1.416001,1
 .839765,0.099742\H,0,-0.380354,0.036312,1.428132\C,0,0.737442,-0.70027
 1,-0.247081\C,0,2.078263,-0.04131,0.091604\H,0,0.619933,-0.756954,-1.3
 34914\H,0,0.735736,-1.7288,0.131381\H,0,2.166942,0.948573,-0.364819\H,
 0,2.913814,-0.640586,-0.27951\C,0,-1.779107,-0.724167,-0.007959\H,0,-2

 Normal termination of Gaussian 16 at Tue Apr  8 22:39:41 2025.
 Gaussian 16:  ES64L-G16RevC.01  3-Jul-2019

 ----------------------------------------------------------------------
 #t hf aug-cc-pvdz iop(5/13=1,5/36=2,99/5=2) pseudo=read geom=check gue
 ss=(read,tcheck) scf=(maxcycle=1)
 ----------------------------------------------------------------------
 -----
 title
 -----
 Structure from the checkpoint file:  "BDE49_expt_1286_mol1.chk"
 Charge =  0 Multiplicity = 1

                         Standard orientation:
 ---------------------------------------------------------------------
 Center     Atomic      Atomic             Coordinates (Angstroms)
 Number     Number       Type             X           Y           Z
 ---------------------------------------------------------------------
      1          7           0       -0.573616    1.381193   -0.235417
      2          6           0       -0.488421    0.023778    0.328092
      3          1           0        0.204049    1.947745    0.088666
      4          1           0       -1.416001    1.839765    0.099742
      5          1           0       -0.380354    0.036312    1.428132
      6          6           0        0.737442   -0.700271   -0.247081
      7          6           0        2.078263   -0.041310    0.091604
      8          1           0        0.619933   -0.756954   -1.334914
      9          1           0        0.735736   -1.728800    0.131381
     10          1           0        2.166942    0.948573   -0.364819
     11          1           0        2.913814   -0.640586   -0.279510
     12          6           0       -1.779107   -0.724167   -0.007959
     13          1           0       -2.648964   -0.223602    0.429720
     14          1           0       -1.753773   -1.746118    0.379297
     15          1           0       -1.922079   -0.762210   -1.091392
     16          1           0        2.206937    0.069346    1.173675
 ---------------------------------------------------------------------

 SCF Done:  E(RHF) =  -212.590496854     A.U. after    2 cycles

 The electronic state is 1-A.
 Alpha  occ. eigenvalues --  -15.47953 -11.25673 -11.22256 -11.22225 -11.21984
 Alpha  occ. eigenvalues --   -1.18189  -1.03893  -0.97881  -0.86465  -0.77917
 Alpha  occ. eigenvalues --   -0.68510  -0.67368  -0.59333  -0.58516  -0.57471
 Alpha  occ. eigenvalues --   -0.53070  -0.52272  -0.49160  -0.48747  -0.47024
 Alpha  occ. eigenvalues --   -0.41899
 Alpha virt. eigenvalues --    0.03702   0.04073   0.04273   0.04542   0.05988
 Alpha virt. eigenvalues --    0.06064   0.06677   0.06852   0.09415   0.09743
 Alpha virt. eigenvalues --    0.09989   0.12761   0.13767   0.14493   0.14963

 Mulliken charges:
               1
     1  N    0.428168
     2  C   -1.683893
     3  H    0.162055
     4  H    0.171678
     5  H    0.079409
     6  C    0.026723
     7  C   -0.406123
     8  H    0.157138
     9  H    0.137057
    10  H    0.158400
    11  H    0.099823
    12  C   -0.024467
    13  H    0.100694
    14  H    0.165756
    15  H    0.256218
    16  H    0.171363
 Sum of Mulliken charges =  -0.00000

 Dipole moment (field-independent basis, Debye):
    X=              0.0352    Y=             -0.0554    Z=              1.3506  Tot=              1.3522

 Test job not archived.
 1\1\GINC-SE250\SP\RHF\Aug-CC-pVDZ\C4H11N1\OHZDE\08-Apr-2025\0\\#t hf a
 ug-cc-pvdz iop(5/13=1,5/36=2,99/5=2) pseudo=read geom=check guess=(rea
 d,tcheck) scf=(maxcycle=1)\\title\\0,1\N,0,-0.573616,1.381193,-0.23541
 7\C,0,-0.488421,0.023778,0.328092\H,0,0.204049,1.947745,0.088666\H,0,-
 1.416001,1.839765,0.099742\H,0,-0.380354,0.036312,1.428132\C,0,0.73744
 2,-0.700271,-0.247081\C,0,2.078263,-0.04131,0.091604\H,0,0.619933,-0.7
 56954,-1.334914\H,0,0.735736,-1.7288,0.131381\H,0,2.166942,0.948573,-0
 .364819\H,0,2.913814,-0.640586,-0.27951\C,0,-1.779107,-0.724167,-0.007

 Normal termination of Gaussian 16 at Tue Apr  8 22:39:46 2025.
