 Gaussian 16, Revision C.01,

 ----------------------------------------------------------------------
 #t hf aug-cc-pvdz symm=none int=(grid=ultrafine) guess=(read,tcheck) s
 table=(opt,rrhf)
 ----------------------------------------------------------------------
 -----
 title
 -----
 Symbolic Z-matrix:
 Charge =  0 Multiplicity = 1

 SCF Done:  E(RHF) =  -174.327001349     A.U. after   13 cycles
 Normal termination of Gaussian 16 at Wed Apr  9 00:36:19 2025.
 Gaussian 16:  ES64L-G16RevC.01  3-Jul-2019

 ----------------------------------------------------------------------
 #t hf aug-cc-pvdz iop(5/13=1,5/36=2,99/5=2) pseudo=read geom=check gue
 ss=(read,tcheck) scf=(maxcycle=1)
 ----------------------------------------------------------------------
 -----
 title
 -----
 Structure from the checkpoint file:  "BDE49_nonexpt_523_mol1.chk"
 Charge =  0 Multiplicity = 1

                         Standard orientation:
 ---------------------------------------------------------------------
 Center     Atomic      Atomic             Coordinates (Angstroms)
 Number     Number       Type             X           Y           Z
 ---------------------------------------------------------------------
      1          1           0        2.438894    0.398708   -1.053267
      2          5           0        1.911805    0.227130    0.000007
      3          1           0        2.438853    0.398870    1.053273
      4          7           0        0.618669   -0.166276   -0.000005
      5          7           0       -0.492398   -0.635596   -0.000031
      6          6           0       -1.606089    0.339222    0.000020
      7          1           0       -2.217121    0.135789   -0.882410
      8          1           0       -1.249892    1.373064    0.000078
      9          1           0       -2.217127    0.135691    0.882423
 ---------------------------------------------------------------------

 SCF Done:  E(RHF) =  -174.504698294     A.U. after    2 cycles

 The electronic state is 1-A.
 Alpha  occ. eigenvalues --  -15.59496 -15.57237 -11.27908  -7.59726  -1.39273
 Alpha  occ. eigenvalues --   -1.06781  -0.95483  -0.75213  -0.69545  -0.66260
 Alpha  occ. eigenvalues --   -0.60468  -0.57298  -0.56521  -0.46947  -0.40716
 Alpha virt. eigenvalues --    0.03473   0.04967   0.05221   0.05350   0.05677
 Alpha virt. eigenvalues --    0.06162   0.06324   0.07419   0.10279   0.12563
 Alpha virt. eigenvalues --    0.13087   0.13738   0.14420   0.14846   0.16777

 Mulliken charges:
               1
     1  H    0.133393
     2  B   -0.433425
     3  H    0.133384
     4  N    0.516272
     5  N   -0.449803
     6  C   -0.333524
     7  H    0.188009
     8  H    0.057684
     9  H    0.188009
 Sum of Mulliken charges =   0.00000

 Dipole moment (field-independent basis, Debye):
    X=             -1.4426    Y=              1.3752    Z=              0.0001  Tot=              1.9931

 Test job not archived.
 1\1\GINC-SE179\SP\RHF\Aug-CC-pVDZ\C1H5B1N2\OHZDE\09-Apr-2025\0\\#t hf
 aug-cc-pvdz iop(5/13=1,5/36=2,99/5=2) pseudo=read geom=check guess=(re
 ad,tcheck) scf=(maxcycle=1)\\title\\0,1\H,0,2.438894,0.398708,-1.05326
 7\B,0,1.911805,0.22713,0.000007\H,0,2.438853,0.39887,1.053273\N,0,0.61
 8669,-0.166276,-0.000005\N,0,-0.492398,-0.635596,-0.000031\C,0,-1.6060
 89,0.339222,0.00002\H,0,-2.217121,0.135789,-0.88241\H,0,-1.249892,1.37
 3064,0.000078\H,0,-2.217127,0.135691,0.882423\\Version=ES64L-G16RevC.0
 1\State=1-A\HF=-174.5046983\RMSD=4.318e-02\Dipole=-0.5675604,0.5410474

 Normal termination of Gaussian 16 at Wed Apr  9 00:36:22 2025.
