 Gaussian 16, Revision C.01,

 ----------------------------------------------------------------------
 #t hf aug-cc-pvdz symm=none int=(grid=ultrafine) guess=(read,tcheck) s
 table=(opt,rrhf)
 ----------------------------------------------------------------------
 -----
 title
 -----
 Symbolic Z-matrix:
 Charge =  0 Multiplicity = 1

 SCF Done:  E(RHF) =  -125.332838161     A.U. after   10 cycles
 Normal termination of Gaussian 16 at Wed Apr  9 00:36:46 2025.
 Gaussian 16:  ES64L-G16RevC.01  3-Jul-2019

 ----------------------------------------------------------------------
 #t hf aug-cc-pvdz iop(5/13=1,5/36=2,99/5=2) pseudo=read geom=check gue
 ss=(read,tcheck) scf=(maxcycle=1)
 ----------------------------------------------------------------------
 -----
 title
 -----
 Structure from the checkpoint file:  "BDE49_nonexpt_547_mol1.chk"
 Charge =  0 Multiplicity = 1

                         Standard orientation:
 ---------------------------------------------------------------------
 Center     Atomic      Atomic             Coordinates (Angstroms)
 Number     Number       Type             X           Y           Z
 ---------------------------------------------------------------------
      1          5           0       -0.674901    0.000000    0.000005
      2          9           0        0.648756   -0.000001   -0.000003
      3          1           0       -1.232144    1.054111   -0.000001
      4          1           0       -1.232154   -1.054106   -0.000001
 ---------------------------------------------------------------------

 SCF Done:  E(RHF) =  -125.450456931     A.U. after    2 cycles

 The electronic state is 1-A.
 Alpha  occ. eigenvalues --  -26.47255  -7.66998  -1.60074  -0.78490  -0.68767
 Alpha  occ. eigenvalues --   -0.65200  -0.63125  -0.48779
 Alpha virt. eigenvalues --    0.03860   0.04997   0.05009   0.05290   0.10877
 Alpha virt. eigenvalues --    0.12137   0.12246   0.21172   0.24494   0.25632
 Alpha virt. eigenvalues --    0.25867   0.28604   0.29217   0.33709   0.35023

 Mulliken charges:
               1
     1  B    0.593274
     2  F   -0.606884
     3  H    0.006806
     4  H    0.006805
 Sum of Mulliken charges =  -0.00000

 Dipole moment (field-independent basis, Debye):
    X=             -0.8963    Y=             -0.0000    Z=              0.0000  Tot=              0.8963

 Test job not archived.
 1\1\GINC-SE342\SP\RHF\Aug-CC-pVDZ\B1F1H2\OHZDE\09-Apr-2025\0\\#t hf au
 g-cc-pvdz iop(5/13=1,5/36=2,99/5=2) pseudo=read geom=check guess=(read
 ,tcheck) scf=(maxcycle=1)\\title\\0,1\B,0,0.674901,0.,-0.000005\F,0,-0
 .648756,-0.000001,0.000003\H,0,1.232144,1.054111,0.000001\H,0,1.232154
 ,-1.054106,0.000001\\Version=ES64L-G16RevC.01\State=1-A\HF=-125.450456
 9\RMSD=5.817e-03\Dipole=0.3526501,-0.000002,-0.0000078\Quadrupole=-0.6
 699684,-0.3508521,1.0208205,-0.0000063,-0.000002,0.\PG=C01 [X(B1F1H2)]
 \\@

 Normal termination of Gaussian 16 at Wed Apr  9 00:36:47 2025.
