 Gaussian 16, Revision C.01,

 ----------------------------------------------------------------------
 #t hf aug-cc-pvdz symm=none int=(grid=ultrafine) guess=(read,tcheck) s
 table=(opt,rrhf)
 ----------------------------------------------------------------------
 -----
 title
 -----
 Symbolic Z-matrix:
 Charge =  0 Multiplicity = 1

 SCF Done:  E(RHF) =  -919.312489568     A.U. after   17 cycles
 Normal termination of Gaussian 16 at Tue Apr  8 23:09:06 2025.
 Gaussian 16:  ES64L-G16RevC.01  3-Jul-2019

 ----------------------------------------------------------------------
 #t hf aug-cc-pvdz iop(5/13=1,5/36=2,99/5=2) pseudo=read geom=check gue
 ss=(read,tcheck) scf=(maxcycle=1)
 ----------------------------------------------------------------------
 -----
 title
 -----
 Structure from the checkpoint file:  "BDE49_expt_329_mol1.chk"
 Charge =  0 Multiplicity = 1

                         Standard orientation:
 ---------------------------------------------------------------------
 Center     Atomic      Atomic             Coordinates (Angstroms)
 Number     Number       Type             X           Y           Z
 ---------------------------------------------------------------------
      1          6           0        0.453689    0.944879    0.238607
      2          6           0       -0.873871    1.296127    0.038373
      3          6           0       -1.891975    0.358656   -0.062406
      4          6           0       -1.526627   -0.973054    0.044853
      5          6           0       -0.208995   -1.372227    0.239192
      6          6           0        0.793772   -0.407887    0.343109
      7          1           0        1.201605    1.723010    0.291501
      8          1           0        0.011380   -2.429200    0.307171
      9          6           0        2.224766   -0.846571    0.575013
     10          6           0        2.889406   -0.228530    1.801827
     11          1           0        2.924386    0.857788    1.724452
     12          1           0        3.909391   -0.601800    1.912772
     13          1           0        2.321600   -0.502298    2.693117
     14          7           0        3.058592   -0.496950   -0.673397
     15          1           0        2.271136   -1.932740    0.607808
     16          8           0        3.307157    0.682281   -0.864635
     17          8           0        3.406735   -1.426024   -1.377801
     18          7           0       -1.224525    2.737388   -0.067633
     19          8           0       -0.316962    3.543783    0.060529
     20          8           0       -2.395879    3.012290   -0.272158
     21          1           0       -2.919057    0.653542   -0.217182
     22          7           0       -2.582249   -2.013380   -0.053785
     23          8           0       -3.726032   -1.632924   -0.241919
     24          8           0       -2.230538   -3.177666    0.062566
 ---------------------------------------------------------------------

 SCF Done:  E(RHF) =  -920.199967868     A.U. after    2 cycles

 The electronic state is 1-A.
 Alpha  occ. eigenvalues --  -20.61924 -20.61837 -20.61710 -20.61708 -20.61687
 Alpha  occ. eigenvalues --  -20.61259 -15.82324 -15.82129 -15.80764 -11.36028
 Alpha  occ. eigenvalues --  -11.35683 -11.35647 -11.33270 -11.33153 -11.32879
 Alpha  occ. eigenvalues --  -11.32567 -11.28677  -1.70025  -1.69829  -1.69379
 Alpha  occ. eigenvalues --   -1.53812  -1.53618  -1.53328  -1.26374  -1.18964
 Alpha  occ. eigenvalues --   -1.17095  -1.10720  -1.03813  -1.02072  -1.00682
 Alpha  occ. eigenvalues --   -0.92969  -0.88259  -0.87005  -0.84521  -0.80349
 Alpha  occ. eigenvalues --   -0.79567  -0.77802  -0.77713  -0.77274  -0.77247
 Alpha  occ. eigenvalues --   -0.76631  -0.76398  -0.75847  -0.72550  -0.68102
 Alpha  occ. eigenvalues --   -0.63586  -0.62468  -0.61910  -0.60233  -0.58404
 Alpha  occ. eigenvalues --   -0.57575  -0.53177  -0.52259  -0.51648  -0.51449
 Alpha  occ. eigenvalues --   -0.50990  -0.50789  -0.47812  -0.47602  -0.47327
 Alpha  occ. eigenvalues --   -0.43360  -0.42279
 Alpha virt. eigenvalues --   -0.01276   0.00232   0.02102   0.03323   0.03452
 Alpha virt. eigenvalues --    0.03933   0.04245   0.05491   0.06346   0.06861
 Alpha virt. eigenvalues --    0.07550   0.08949   0.09546   0.09875   0.10440

 Mulliken charges:
               1
     1  C   -0.203372
     2  C   -0.632449
     3  C    0.329505
     4  C   -0.771770
     5  C    0.216521
     6  C    2.438403
     7  H   -0.280378
     8  H   -0.325471
     9  C   -1.474071
    10  C   -0.156814
    11  H    0.269365
    12  H    0.157985
    13  H    0.216382
    14  N    3.066263
    15  H   -0.059844
    16  O   -1.503779
    17  O   -1.458612
    18  N    3.249197
    19  O   -1.538345
    20  O   -1.541307
    21  H   -0.176584
    22  N    3.274645
    23  O   -1.544141
    24  O   -1.551328
 Sum of Mulliken charges =   0.00000

 Dipole moment (field-independent basis, Debye):
    X=              2.2184    Y=             -1.6147    Z=              3.8569  Tot=              4.7333

 Test job not archived.
 1\1\GINC-SE361\SP\RHF\Aug-CC-pVDZ\C8H7N3O6\OHZDE\08-Apr-2025\0\\#t hf
 aug-cc-pvdz iop(5/13=1,5/36=2,99/5=2) pseudo=read geom=check guess=(re
 ad,tcheck) scf=(maxcycle=1)\\title\\0,1\C,0,0.453689,0.944879,0.238607
 \C,0,-0.873871,1.296127,0.038373\C,0,-1.891975,0.358656,-0.062406\C,0,
 -1.526627,-0.973054,0.044853\C,0,-0.208995,-1.372227,0.239192\C,0,0.79
 3772,-0.407887,0.343109\H,0,1.201605,1.72301,0.291501\H,0,0.01138,-2.4
 292,0.307171\C,0,2.224766,-0.846571,0.575013\C,0,2.889406,-0.22853,1.8
 01827\H,0,2.924386,0.857788,1.724452\H,0,3.909391,-0.601799,1.912772\H

 Normal termination of Gaussian 16 at Tue Apr  8 23:09:32 2025.
