 Gaussian 16, Revision C.01,

 ----------------------------------------------------------------------
 #t hf aug-cc-pvdz symm=none int=(grid=ultrafine) guess=(read,tcheck) s
 table=opt
 ----------------------------------------------------------------------
 -----
 title
 -----
 Symbolic Z-matrix:
 Charge =  0 Multiplicity = 2

 SCF Done:  E(UHF) =  -336.171477855     A.U. after   13 cycles
 Normal termination of Gaussian 16 at Tue Apr  8 22:28:15 2025.
 Gaussian 16:  ES64L-G16RevC.01  3-Jul-2019

 ----------------------------------------------------------------------
 #t hf aug-cc-pvdz iop(5/13=1,5/36=2,99/5=2) pseudo=read geom=check gue
 ss=(read,tcheck) scf=(maxcycle=1)
 ----------------------------------------------------------------------
 -----
 title
 -----
 Structure from the checkpoint file:  "BDE49_expt_1000_mol3.chk"
 Charge =  0 Multiplicity = 2

                         Standard orientation:
 ---------------------------------------------------------------------
 Center     Atomic      Atomic             Coordinates (Angstroms)
 Number     Number       Type             X           Y           Z
 ---------------------------------------------------------------------
      1          6           0        0.000045   -0.000001    0.328306
      2          9           0       -0.621265    1.098162   -0.072961
      3          9           0       -0.640525   -1.087043   -0.072961
      4          9           0        1.261759   -0.011118   -0.072948
 ---------------------------------------------------------------------

 SCF Done:  E(UHF) =  -336.473931059     A.U. after    2 cycles

 The electronic state is 2-A.
 Alpha  occ. eigenvalues --  -26.53728 -26.53727 -26.53725 -11.54268  -1.74762
 Alpha  occ. eigenvalues --   -1.65021  -1.65019  -0.98288  -0.84189  -0.84187
 Alpha  occ. eigenvalues --   -0.83534  -0.71668  -0.71666  -0.66896  -0.66895
 Alpha  occ. eigenvalues --   -0.64859  -0.47734
 Alpha virt. eigenvalues --    0.08338   0.09109   0.09109   0.09335   0.23812
 Alpha virt. eigenvalues --    0.23813   0.25475   0.25476   0.26583   0.31549
 Alpha virt. eigenvalues --    0.33570   0.33572   0.34800   0.35460   0.35460

  Beta  occ. eigenvalues --  -26.53241 -26.53240 -26.53237 -11.51255  -1.72942
  Beta  occ. eigenvalues --   -1.63660  -1.63658  -0.94105  -0.82763  -0.82761
  Beta  occ. eigenvalues --   -0.75572  -0.69116  -0.69115  -0.65996  -0.65995
  Beta  occ. eigenvalues --   -0.64488
  Beta virt. eigenvalues --    0.05178   0.09217   0.09217   0.09237   0.14475
  Beta virt. eigenvalues --    0.23931   0.23932   0.25663   0.25663   0.27240
  Beta virt. eigenvalues --    0.32486   0.34579   0.34579   0.34814   0.37368

 Mulliken charges and spin densities:
               1          2
     1  C    1.656917   0.926133
     2  F   -0.552299   0.024620
     3  F   -0.552301   0.024620
     4  F   -0.552317   0.024627
 Sum of Mulliken charges =  -0.00000   1.00000

 Dipole moment (field-independent basis, Debye):
    X=              0.0002    Y=              0.0000    Z=              0.5110  Tot=              0.5110
                          Isotropic Fermi Contact Couplings
        Atom                 a.u.       MegaHertz       Gauss      10(-4) cm-1
     1  C(13)              0.60670     682.04600     243.37097     227.50606
     2  F(19)              0.09031     379.96730     135.58178     126.74345
     3  F(19)              0.09031     379.96884     135.58233     126.74396
     4  F(19)              0.09033     380.05837     135.61428     126.77383
 --------------------------------------------------------
       Center         ----  Spin Dipole Couplings  ----
                      3XX-RR        3YY-RR        3ZZ-RR
 --------------------------------------------------------

 Normal termination of Gaussian 16 at Tue Apr  8 22:28:16 2025.
