 Gaussian 16, Revision C.01,

 ----------------------------------------------------------------------
 #t hf aug-cc-pvdz symm=none int=(grid=ultrafine) guess=(read,tcheck) s
 table=(opt,rrhf)
 ----------------------------------------------------------------------
 -----
 title
 -----
 Symbolic Z-matrix:
 Charge =  0 Multiplicity = 1

 SCF Done:  E(RHF) =  -484.842005267     A.U. after   14 cycles
 Normal termination of Gaussian 16 at Wed Apr  9 00:42:11 2025.
 Gaussian 16:  ES64L-G16RevC.01  3-Jul-2019

 ----------------------------------------------------------------------
 #t hf aug-cc-pvdz iop(5/13=1,5/36=2,99/5=2) pseudo=read geom=check gue
 ss=(read,tcheck) scf=(maxcycle=1)
 ----------------------------------------------------------------------
 -----
 title
 -----
 Structure from the checkpoint file:  "BDE49_nonexpt_688_mol1.chk"
 Charge =  0 Multiplicity = 1

                         Standard orientation:
 ---------------------------------------------------------------------
 Center     Atomic      Atomic             Coordinates (Angstroms)
 Number     Number       Type             X           Y           Z
 ---------------------------------------------------------------------
      1          5           0       -1.380939   -1.511694    0.495406
      2         15           0       -0.628331   -0.129408   -0.413935
      3          6           0        1.205293   -0.232767   -0.642992
      4          6           0        2.063722    0.047493    0.596900
      5          1           0        1.477496    0.446648   -1.456872
      6          1           0        1.388314   -1.245297   -1.014374
      7          1           0        1.893140    1.053513    0.988335
      8          1           0        3.127840   -0.031832    0.353145
      9          6           0       -1.039730    1.553200    0.220071
     10          1           0       -2.107037    1.573306    0.447007
     11          1           0       -0.837470    2.307263   -0.543160
     12          1           0       -0.486666    1.806250    1.126176
     13          1           0        1.843205   -0.664655    1.395199
     14          1           0       -0.896802   -2.594580    0.392621
     15          1           0       -2.448070   -1.358576    1.000052
 ---------------------------------------------------------------------

 SCF Done:  E(RHF) =  -485.050917241     A.U. after    2 cycles

 The electronic state is 1-A.
 Alpha  occ. eigenvalues --  -84.24794 -11.24958 -11.24484 -11.23596  -7.58751
 Alpha  occ. eigenvalues --   -6.72410  -4.25163  -4.24959  -4.24157  -1.05146
 Alpha  occ. eigenvalues --   -0.97995  -0.87616  -0.78487  -0.65467  -0.62306
 Alpha  occ. eigenvalues --   -0.59676  -0.57999  -0.56401  -0.54029  -0.51746
 Alpha  occ. eigenvalues --   -0.49725  -0.44716  -0.43101  -0.29166
 Alpha virt. eigenvalues --    0.03240   0.03713   0.04138   0.04620   0.05405
 Alpha virt. eigenvalues --    0.05857   0.06195   0.06830   0.07597   0.09074
 Alpha virt. eigenvalues --    0.09455   0.09583   0.11405   0.11690   0.12818

 Mulliken charges:
               1
     1  B   -0.484580
     2  P    1.278751
     3  C   -0.875850
     4  C   -0.442941
     5  H    0.119959
     6  H    0.075469
     7  H    0.130430
     8  H    0.112778
     9  C   -1.003568
    10  H    0.017810
    11  H    0.121189
    12  H    0.089965
    13  H    0.157442
    14  H    0.329758
    15  H    0.373389
 Sum of Mulliken charges =  -0.00000

 Dipole moment (field-independent basis, Debye):
    X=              1.4238    Y=              1.5706    Z=              0.1628  Tot=              2.1261

 Test job not archived.
 1\1\GINC-SE219\SP\RHF\Aug-CC-pVDZ\C3H10B1P1\OHZDE\09-Apr-2025\0\\#t hf
  aug-cc-pvdz iop(5/13=1,5/36=2,99/5=2) pseudo=read geom=check guess=(r
 ead,tcheck) scf=(maxcycle=1)\\title\\0,1\B,0,-1.38094,-1.511693,0.4954
 06\P,0,-0.628331,-0.129408,-0.413935\C,0,1.205293,-0.232767,-0.642992\
 C,0,2.063722,0.047492,0.5969\H,0,1.477496,0.446648,-1.456872\H,0,1.388
 313,-1.245297,-1.014374\H,0,1.89314,1.053513,0.988335\H,0,3.12784,-0.0
 31833,0.353145\C,0,-1.03973,1.5532,0.220071\H,0,-2.107037,1.573307,0.4
 47007\H,0,-0.837469,2.307263,-0.54316\H,0,-0.486666,1.80625,1.126176\H

 Normal termination of Gaussian 16 at Wed Apr  9 00:42:16 2025.
