 Gaussian 16, Revision C.01,

 ----------------------------------------------------------------------
 #t hf aug-cc-pvdz symm=none int=(grid=ultrafine) guess=(read,tcheck) s
 table=(opt,rrhf)
 ----------------------------------------------------------------------
 -----
 title
 -----
 Symbolic Z-matrix:
 Charge =  0 Multiplicity = 1

 SCF Done:  E(RHF) =  -309.064640352     A.U. after   13 cycles

 1\1\GINC-SE086\Stability\RHF\Aug-CC-pVDZ\C6H12O1\OHZDE\08-Apr-2025\0\\
 #t hf aug-cc-pvdz symm=none int=(grid=ultrafine) guess=(read,tcheck) s
 table=(opt,rrhf)\\title\\0,1\C,0,3.347283,-0.324266,0.061219\C,0,1.863
 264,-0.297771,0.435886\H,0,3.819406,0.648442,0.232867\H,0,3.483321,-0.
 575489,-0.995266\H,0,3.892735,-1.06601,0.650637\C,0,1.062965,0.732421,
 -0.36893\H,0,1.758288,-0.077234,1.505341\H,0,1.42297,-1.286673,0.28060
 6\C,0,-0.418746,0.764201,-0.029173\H,0,1.169721,0.531689,-1.440937\H,0
 ,1.468366,1.736757,-0.195533\O,0,-0.988344,-0.49732,-0.389939\H,0,-0.9

 Normal termination of Gaussian 16 at Tue Apr  8 22:42:13 2025.
 Gaussian 16:  ES64L-G16RevC.01  3-Jul-2019

 ----------------------------------------------------------------------
 #t hf aug-cc-pvdz iop(5/13=1,5/36=2,99/5=2) pseudo=read geom=check gue
 ss=(read,tcheck) scf=(maxcycle=1)
 ----------------------------------------------------------------------
 -----
 title
 -----
 Structure from the checkpoint file:  "BDE49_expt_1379_mol1.chk"
 Charge =  0 Multiplicity = 1

                         Standard orientation:
 ---------------------------------------------------------------------
 Center     Atomic      Atomic             Coordinates (Angstroms)
 Number     Number       Type             X           Y           Z
 ---------------------------------------------------------------------
      1          6           0        3.347283   -0.324266    0.061219
      2          6           0        1.863264   -0.297771    0.435886
      3          1           0        3.819406    0.648442    0.232867
      4          1           0        3.483321   -0.575489   -0.995266
      5          1           0        3.892735   -1.066010    0.650637
      6          6           0        1.062965    0.732421   -0.368930
      7          1           0        1.758288   -0.077234    1.505341
      8          1           0        1.422970   -1.286673    0.280606
      9          6           0       -0.418746    0.764201   -0.029173
     10          1           0        1.169721    0.531689   -1.440937
     11          1           0        1.468366    1.736757   -0.195533
     12          8           0       -0.988344   -0.497320   -0.389939
     13          1           0       -0.931057    1.562510   -0.580164
     14          1           0       -0.573850    0.938865    1.043861
     15          6           0       -2.310139   -0.679887   -0.156807
     16          6           0       -3.186911    0.173500    0.374845
     17          1           0       -2.930750    1.171335    0.702614
     18          1           0       -4.215489   -0.140258    0.488905
     19          1           0       -2.603200   -1.674567   -0.475665
 ---------------------------------------------------------------------

 SCF Done:  E(RHF) =  -309.397127218     A.U. after    2 cycles

 The electronic state is 1-A.
 Alpha  occ. eigenvalues --  -20.56819 -11.30123 -11.29033 -11.23209 -11.22628
 Alpha  occ. eigenvalues --  -11.22283 -11.22033  -1.49222  -1.08214  -1.02594
 Alpha  occ. eigenvalues --   -0.98278  -0.88142  -0.81107  -0.76986  -0.69701
 Alpha  occ. eigenvalues --   -0.66622  -0.65668  -0.62466  -0.59301  -0.56057
 Alpha  occ. eigenvalues --   -0.54719  -0.53283  -0.51804  -0.49963  -0.48347
 Alpha  occ. eigenvalues --   -0.47317  -0.46564  -0.34669
 Alpha virt. eigenvalues --    0.03495   0.03760   0.03982   0.04110   0.05254
 Alpha virt. eigenvalues --    0.05582   0.06458   0.06984   0.07804   0.08726
 Alpha virt. eigenvalues --    0.09523   0.10562   0.11221   0.13108   0.13756

 Mulliken charges:
               1
     1  C   -0.400300
     2  C   -0.233309
     3  H    0.161839
     4  H    0.169335
     5  H    0.117870
     6  C   -0.404877
     7  H    0.102605
     8  H    0.164172
     9  C    0.369417
    10  H    0.164986
    11  H    0.163671
    12  O   -1.345178
    13  H    0.059897
    14  H    0.107064
    15  C    1.054984
    16  C    0.012850
    17  H   -0.067251
    18  H   -0.083880
    19  H   -0.113894
 Sum of Mulliken charges =  -0.00000

 Dipole moment (field-independent basis, Debye):
    X=              0.4118    Y=              0.7442    Z=              0.2564  Tot=              0.8884

 Test job not archived.
 1\1\GINC-SE086\SP\RHF\Aug-CC-pVDZ\C6H12O1\OHZDE\08-Apr-2025\0\\#t hf a
 ug-cc-pvdz iop(5/13=1,5/36=2,99/5=2) pseudo=read geom=check guess=(rea
 d,tcheck) scf=(maxcycle=1)\\title\\0,1\C,0,3.347283,-0.324266,0.061219
 \C,0,1.863264,-0.297771,0.435886\H,0,3.819406,0.648442,0.232867\H,0,3.
 483321,-0.575489,-0.995266\H,0,3.892735,-1.06601,0.650637\C,0,1.062965
 ,0.732421,-0.36893\H,0,1.758288,-0.077234,1.505341\H,0,1.42297,-1.2866
 73,0.280606\C,0,-0.418746,0.764201,-0.029173\H,0,1.169721,0.531689,-1.
 440937\H,0,1.468366,1.736757,-0.195533\O,0,-0.988344,-0.49732,-0.38993

 Normal termination of Gaussian 16 at Tue Apr  8 22:42:21 2025.
