 Gaussian 16, Revision C.01,

 ----------------------------------------------------------------------
 #t hf aug-cc-pvdz symm=none int=(grid=ultrafine) guess=(read,tcheck) s
 table=(opt,rrhf)
 ----------------------------------------------------------------------
 -----
 title
 -----
 Symbolic Z-matrix:
 Charge =  0 Multiplicity = 1

 SCF Done:  E(RHF) =  -969.602980555     A.U. after   12 cycles

 1\1\GINC-SE454\Stability\RHF\Aug-CC-pVDZ\B2Cl2H2\OHZDE\08-Apr-2025\0\\
 #t hf aug-cc-pvdz symm=none int=(grid=ultrafine) guess=(read,tcheck) s
 table=(opt,rrhf)\\title\\0,1\B,0,0.716539,0.759016,-0.431847\B,0,-0.71
 6534,0.759003,0.431854\Cl,0,-2.023595,-0.307703,-0.08283\Cl,0,2.023593
 ,-0.307705,0.082828\H,0,-0.941111,1.435925,1.383701\H,0,0.94111,1.4359
 24,-1.383705\\Version=ES64L-G16RevC.01\HF=-969.6029806\RMSD=9.369e-09\
 Dipole=0.0000032,0.522544,0.0000042\Quadrupole=-2.6416901,1.8199324,0.
 8217577,0.0000333,0.1856071,-0.000008\PG=Unknown\\@

 Normal termination of Gaussian 16 at Tue Apr  8 23:21:52 2025.
 Gaussian 16:  ES64L-G16RevC.01  3-Jul-2019

 ----------------------------------------------------------------------
 #t hf aug-cc-pvdz iop(5/13=1,5/36=2,99/5=2) pseudo=read geom=check gue
 ss=(read,tcheck) scf=(maxcycle=1)
 ----------------------------------------------------------------------
 -----
 title
 -----
 Structure from the checkpoint file:  "BDE49_nonexpt_11_mol1.chk"
 Charge =  0 Multiplicity = 1

                         Standard orientation:
 ---------------------------------------------------------------------
 Center     Atomic      Atomic             Coordinates (Angstroms)
 Number     Number       Type             X           Y           Z
 ---------------------------------------------------------------------
      1          5           0       -0.716539    0.759016    0.431847
      2          5           0        0.716534    0.759003   -0.431854
      3         17           0        2.023595   -0.307703    0.082830
      4         17           0       -2.023593   -0.307705   -0.082828
      5          1           0        0.941111    1.435925   -1.383701
      6          1           0       -0.941110    1.435924    1.383705
 ---------------------------------------------------------------------

 SCF Done:  E(RHF) =  -969.804605993     A.U. after    2 cycles

 The electronic state is 1-A.
 Alpha  occ. eigenvalues -- -105.57689-105.57689 -10.62683 -10.62683  -7.79568
 Alpha  occ. eigenvalues --   -7.79566  -7.79312  -7.79310  -7.79244  -7.79244
 Alpha  occ. eigenvalues --   -7.65963  -7.65921  -1.08608  -1.07578  -0.76301
 Alpha  occ. eigenvalues --   -0.67174  -0.57638  -0.56866  -0.54704  -0.50041
 Alpha  occ. eigenvalues --   -0.49704  -0.47589  -0.42131
 Alpha virt. eigenvalues --    0.03388   0.03679   0.03942   0.04645   0.06451
 Alpha virt. eigenvalues --    0.06867   0.07560   0.08054   0.08155   0.09468
 Alpha virt. eigenvalues --    0.13800   0.14004   0.14931   0.15673   0.16016

 Mulliken charges:
               1
     1  B    0.121381
     2  B    0.121386
     3  Cl  -0.332297
     4  Cl  -0.332299
     5  H    0.210913
     6  H    0.210917
 Sum of Mulliken charges =  -0.00000

 Dipole moment (field-independent basis, Debye):
    X=             -0.0000    Y=              1.3046    Z=             -0.0000  Tot=              1.3046

 Test job not archived.
 1\1\GINC-SE454\SP\RHF\Aug-CC-pVDZ\B2Cl2H2\OHZDE\08-Apr-2025\0\\#t hf a
 ug-cc-pvdz iop(5/13=1,5/36=2,99/5=2) pseudo=read geom=check guess=(rea
 d,tcheck) scf=(maxcycle=1)\\title\\0,1\B,0,0.716539,0.759016,-0.431847
 \B,0,-0.716534,0.759003,0.431854\Cl,0,-2.023595,-0.307703,-0.08283\Cl,
 0,2.023593,-0.307705,0.082828\H,0,-0.941111,1.435925,1.383701\H,0,0.94
 111,1.435924,-1.383705\\Version=ES64L-G16RevC.01\State=1-A\HF=-969.804
 606\RMSD=1.630e-02\Dipole=0.000003,0.513288,0.0000038\Quadrupole=-2.54
 64159,1.7741424,0.7722734,0.0000327,0.1858516,-0.0000079\PG=C01 [X(B2C

 Normal termination of Gaussian 16 at Tue Apr  8 23:21:54 2025.
