 Gaussian 16, Revision C.01,

 ----------------------------------------------------------------------
 #t hf aug-cc-pvdz symm=none int=(grid=ultrafine) guess=(read,tcheck) s
 table=(opt,rrhf)
 ----------------------------------------------------------------------
 -----
 title
 -----
 Symbolic Z-matrix:
 Charge =  0 Multiplicity = 1

 SCF Done:  E(RHF) =  -1323.69403266     A.U. after   14 cycles
 Normal termination of Gaussian 16 at Wed Apr  9 00:51:22 2025.
 Gaussian 16:  ES64L-G16RevC.01  3-Jul-2019

 ----------------------------------------------------------------------
 #t hf aug-cc-pvdz iop(5/13=1,5/36=2,99/5=2) pseudo=read geom=check gue
 ss=(read,tcheck) scf=(maxcycle=1)
 ----------------------------------------------------------------------
 -----
 title
 -----
 Structure from the checkpoint file:  "BDE49_nonexpt_921_mol1.chk"
 Charge =  0 Multiplicity = 1

                         Standard orientation:
 ---------------------------------------------------------------------
 Center     Atomic      Atomic             Coordinates (Angstroms)
 Number     Number       Type             X           Y           Z
 ---------------------------------------------------------------------
      1         17           0        4.291812    0.165001   -0.000005
      2          7           0        0.452777    0.430916   -0.000019
      3          7           0        1.884988   -1.473726    0.000036
      4          1           0        2.794555   -1.901826    0.000049
      5          1           0        1.039604   -2.024499    0.000048
      6          7           0        2.660654    0.801147   -0.000021
      7          6           0        1.763876   -0.137982    0.000002
      8         17           0       -4.291812   -0.165001   -0.000009
      9          7           0       -0.452777   -0.430916   -0.000008
     10          7           0       -1.884988    1.473726    0.000032
     11          1           0       -2.794555    1.901826    0.000003
     12          1           0       -1.039604    2.024499    0.000008
     13          7           0       -2.660654   -0.801147   -0.000010
     14          6           0       -1.763876    0.137982    0.000006
 ---------------------------------------------------------------------

 SCF Done:  E(RHF) =  -1324.24413723     A.U. after    2 cycles

 The electronic state is 1-A.
 Alpha  occ. eigenvalues -- -105.59470-105.59469 -15.63839 -15.63147 -15.57169
 Alpha  occ. eigenvalues --  -15.57159 -15.55924 -15.55913 -11.39629 -11.39623
 Alpha  occ. eigenvalues --  -10.64023 -10.64021  -7.80965  -7.80965  -7.80530
 Alpha  occ. eigenvalues --   -7.80530  -7.80504  -7.80504  -1.45478  -1.32964
 Alpha  occ. eigenvalues --   -1.30462  -1.22440  -1.22131  -1.11277  -1.05050
 Alpha  occ. eigenvalues --   -0.99172  -0.87147  -0.85679  -0.83057  -0.81834
 Alpha  occ. eigenvalues --   -0.78583  -0.70464  -0.70138  -0.68519  -0.66924
 Alpha  occ. eigenvalues --   -0.64211  -0.57153  -0.55794  -0.55635  -0.52090
 Alpha  occ. eigenvalues --   -0.51696  -0.51641  -0.45975  -0.45906  -0.42661
 Alpha  occ. eigenvalues --   -0.41034
 Alpha virt. eigenvalues --   -0.03242   0.02469   0.04500   0.05784   0.06499
 Alpha virt. eigenvalues --    0.07638   0.07879   0.09045   0.10296   0.10365
 Alpha virt. eigenvalues --    0.11046   0.11524   0.13641   0.13696   0.14009

 Mulliken charges:
               1
     1  Cl   0.008358
     2  N   -0.286301
     3  N    0.433386
     4  H    0.172777
     5  H    0.127804
     6  N    0.606916
     7  C   -1.062940
     8  Cl   0.008358
     9  N   -0.286301
    10  N    0.433386
    11  H    0.172777
    12  H    0.127804
    13  N    0.606916
    14  C   -1.062940
 Sum of Mulliken charges =  -0.00000

 Dipole moment (field-independent basis, Debye):
    X=             -0.0000    Y=             -0.0000    Z=              0.0001  Tot=              0.0001

 Test job not archived.
 1\1\GINC-SE109\SP\RHF\Aug-CC-pVDZ\C2H4Cl2N6\OHZDE\09-Apr-2025\0\\#t hf
  aug-cc-pvdz iop(5/13=1,5/36=2,99/5=2) pseudo=read geom=check guess=(r
 ead,tcheck) scf=(maxcycle=1)\\title\\0,1\Cl,0,4.291812,0.165001,-0.000
 005\N,0,0.452777,0.430916,-0.000019\N,0,1.884988,-1.473726,0.000036\H,
 0,2.794555,-1.901826,0.000049\H,0,1.039604,-2.024499,0.000048\N,0,2.66
 0654,0.801147,-0.000021\C,0,1.763876,-0.137982,0.000002\Cl,0,-4.291812
 ,-0.165001,-0.000009\N,0,-0.452777,-0.430916,-0.000008\N,0,-1.884988,1
 .473726,0.000032\H,0,-2.794555,1.901826,0.000003\H,0,-1.039604,2.02449

 Normal termination of Gaussian 16 at Wed Apr  9 00:51:30 2025.
