 Gaussian 16, Revision C.01,

 ----------------------------------------------------------------------
 #t hf aug-cc-pvdz symm=none int=(grid=ultrafine) guess=(read,tcheck) s
 table=(opt,rrhf)
 ----------------------------------------------------------------------
 -----
 title
 -----
 Symbolic Z-matrix:
 Charge =  0 Multiplicity = 1

 SCF Done:  E(RHF) =  -689.699002028     A.U. after   15 cycles
 Normal termination of Gaussian 16 at Tue Apr  8 22:38:53 2025.
 Gaussian 16:  ES64L-G16RevC.01  3-Jul-2019

 ----------------------------------------------------------------------
 #t hf aug-cc-pvdz iop(5/13=1,5/36=2,99/5=2) pseudo=read geom=check gue
 ss=(read,tcheck) scf=(maxcycle=1)
 ----------------------------------------------------------------------
 -----
 title
 -----
 Structure from the checkpoint file:  "BDE49_expt_1216_mol1.chk"
 Charge =  0 Multiplicity = 1

                         Standard orientation:
 ---------------------------------------------------------------------
 Center     Atomic      Atomic             Coordinates (Angstroms)
 Number     Number       Type             X           Y           Z
 ---------------------------------------------------------------------
      1          6           0        0.000021   -0.000011    0.420123
      2          7           0       -1.343735   -0.493583   -0.166061
      3          8           0       -1.291620   -1.253324   -1.105724
      4          8           0       -2.329677   -0.046761    0.380942
      5          6           0        0.000088   -0.000008    1.921249
      6          7           0        1.099319   -0.916931   -0.166146
      7          8           0        1.205050   -1.994371    0.380563
      8          8           0        1.731486   -0.491760   -1.105553
      9          1           0       -0.118012   -1.022014    2.278232
     10          1           0       -0.825930    0.613289    2.278246
     11          1           0        0.944248    0.408716    2.278169
     12          7           0        0.244400    1.410520   -0.166029
     13          8           0       -0.440105    1.745545   -1.105229
     14          8           0        1.124761    2.040681    0.380597
 ---------------------------------------------------------------------

 SCF Done:  E(RHF) =  -690.350827372     A.U. after    2 cycles

 The electronic state is 1-A.
 Alpha  occ. eigenvalues --  -20.65305 -20.65304 -20.65304 -20.64850 -20.64850
 Alpha  occ. eigenvalues --  -20.64848 -15.85590 -15.85589 -15.85508 -11.48942
 Alpha  occ. eigenvalues --  -11.31499  -1.74501  -1.73121  -1.73120  -1.57812
 Alpha  occ. eigenvalues --   -1.57811  -1.57631  -1.27036  -1.05840  -1.05839
 Alpha  occ. eigenvalues --   -1.05442  -0.89831  -0.87909  -0.87908  -0.81543
 Alpha  occ. eigenvalues --   -0.80338  -0.80337  -0.79114  -0.79113  -0.78955
 Alpha  occ. eigenvalues --   -0.70280  -0.65229  -0.65228  -0.57698  -0.55144
 Alpha  occ. eigenvalues --   -0.55143  -0.54566  -0.53263  -0.53263  -0.51639
 Alpha  occ. eigenvalues --   -0.49340  -0.49340
 Alpha virt. eigenvalues --    0.00255   0.00255   0.01565   0.03145   0.04788
 Alpha virt. eigenvalues --    0.04788   0.07864   0.11510   0.11511   0.11832
 Alpha virt. eigenvalues --    0.12371   0.12371   0.14033   0.15571   0.15571

 Mulliken charges:
               1
     1  C   -2.783930
     2  N    3.492963
     3  O   -1.449311
     4  O   -1.524103
     5  C    0.326166
     6  N    3.493173
     7  O   -1.524176
     8  O   -1.449341
     9  H    0.299621
    10  H    0.299617
    11  H    0.299619
    12  N    3.493133
    13  O   -1.449251
    14  O   -1.524180
 Sum of Mulliken charges =  -0.00000

 Dipole moment (field-independent basis, Debye):
    X=              0.0002    Y=              0.0002    Z=              3.7828  Tot=              3.7828

 Test job not archived.
 1\1\GINC-SE094\SP\RHF\Aug-CC-pVDZ\C2H3N3O6\OHZDE\08-Apr-2025\0\\#t hf
 aug-cc-pvdz iop(5/13=1,5/36=2,99/5=2) pseudo=read geom=check guess=(re
 ad,tcheck) scf=(maxcycle=1)\\title\\0,1\C,0,-0.000021,0.000011,0.42012
 3\N,0,1.34369,0.493705,-0.166061\O,0,1.291506,1.253442,-1.105724\O,0,2
 .329673,0.046973,0.380942\C,0,-0.000088,0.000008,1.921249\N,0,-1.09940
 2,0.916831,-0.166146\O,0,-1.205231,1.994262,0.380563\O,0,-1.731531,0.4
 91603,-1.105553\H,0,0.117919,1.022025,2.278232\H,0,0.825986,-0.613214,
 2.278246\H,0,-0.944211,-0.408802,2.278169\N,0,-0.244272,-1.410542,-0.1

 Normal termination of Gaussian 16 at Tue Apr  8 22:39:01 2025.
