 Gaussian 16, Revision C.01,

 ----------------------------------------------------------------------
 #t hf aug-cc-pvdz symm=none int=(grid=ultrafine) guess=(read,tcheck) s
 table=(opt,rrhf)
 ----------------------------------------------------------------------
 -----
 title
 -----
 Symbolic Z-matrix:
 Charge =  0 Multiplicity = 1

 SCF Done:  E(RHF) =  -2360.14842890     A.U. after   13 cycles

 1\1\GINC-SE105\Stability\RHF\Aug-CC-pVDZ\C1B1Cl5\OHZDE\09-Apr-2025\0\\
 #t hf aug-cc-pvdz symm=none int=(grid=ultrafine) guess=(read,tcheck) s
 table=(opt,rrhf)\\title\\0,1\Cl,0,1.837003,1.508188,-0.114021\Cl,0,1.8
 37003,-1.508187,-0.114021\B,0,0.960956,0.,-0.106412\C,0,-0.647029,0.,-
 0.025786\Cl,0,-1.39685,1.454099,-0.750615\Cl,0,-1.396849,-1.454098,-0.
 750618\Cl,0,-0.934578,-0.000002,1.769673\\Version=ES64L-G16RevC.01\HF=
 -2360.1484289\RMSD=3.787e-09\Dipole=0.1688381,-0.0000014,-0.0663713\Qu
 adrupole=-1.1367867,0.233513,0.9032737,-0.0000065,-0.0281062,0.\PG=Unk

 Normal termination of Gaussian 16 at Wed Apr  9 00:21:16 2025.
 Gaussian 16:  ES64L-G16RevC.01  3-Jul-2019

 ----------------------------------------------------------------------
 #t hf aug-cc-pvdz iop(5/13=1,5/36=2,99/5=2) pseudo=read geom=check gue
 ss=(read,tcheck) scf=(maxcycle=1)
 ----------------------------------------------------------------------
 -----
 title
 -----
 Structure from the checkpoint file:  "BDE49_nonexpt_262_mol1.chk"
 Charge =  0 Multiplicity = 1

                         Standard orientation:
 ---------------------------------------------------------------------
 Center     Atomic      Atomic             Coordinates (Angstroms)
 Number     Number       Type             X           Y           Z
 ---------------------------------------------------------------------
      1         17           0        1.837003    1.508188   -0.114021
      2         17           0        1.837003   -1.508187   -0.114021
      3          5           0        0.960956   -0.000000   -0.106412
      4          6           0       -0.647029    0.000000   -0.025786
      5         17           0       -1.396850    1.454099   -0.750615
      6         17           0       -1.396849   -1.454098   -0.750618
      7         17           0       -0.934578   -0.000002    1.769673
 ---------------------------------------------------------------------

 SCF Done:  E(RHF) =  -2360.58617447     A.U. after    2 cycles

 The electronic state is 1-A.
 Alpha  occ. eigenvalues -- -105.60943-105.60475-105.60475-105.59922-105.59921
 Alpha  occ. eigenvalues --  -11.44843 -10.65710 -10.65283 -10.65282 -10.64966
 Alpha  occ. eigenvalues --  -10.64935  -7.82649  -7.82237  -7.82237  -7.82228
 Alpha  occ. eigenvalues --   -7.82220  -7.81863  -7.81841  -7.81799  -7.81796
 Alpha  occ. eigenvalues --   -7.81794  -7.81791  -7.81554  -7.81549  -7.81506
 Alpha  occ. eigenvalues --   -7.81499  -7.75709  -1.22079  -1.13187  -1.09162
 Alpha  occ. eigenvalues --   -1.07820  -1.06800  -0.87909  -0.72569  -0.65815
 Alpha  occ. eigenvalues --   -0.65636  -0.64493  -0.59666  -0.55821  -0.52692
 Alpha  occ. eigenvalues --   -0.52569  -0.51185  -0.49872  -0.49546  -0.48214
 Alpha  occ. eigenvalues --   -0.47188  -0.46819  -0.46212
 Alpha virt. eigenvalues --    0.03928   0.04774   0.05377   0.05559   0.05944
 Alpha virt. eigenvalues --    0.08281   0.09119   0.09915   0.11811   0.12040
 Alpha virt. eigenvalues --    0.12731   0.14465   0.14575   0.16553   0.17239

 Mulliken charges:
               1
     1  Cl  -0.266430
     2  Cl  -0.266428
     3  B    1.194581
     4  C   -0.840062
     5  Cl   0.060322
     6  Cl   0.060322
     7  Cl   0.057696
 Sum of Mulliken charges =   0.00000

 Dipole moment (field-independent basis, Debye):
    X=              0.4647    Y=             -0.0000    Z=             -0.1614  Tot=              0.4919

 Test job not archived.
 1\1\GINC-SE105\SP\RHF\Aug-CC-pVDZ\C1B1Cl5\OHZDE\09-Apr-2025\0\\#t hf a
 ug-cc-pvdz iop(5/13=1,5/36=2,99/5=2) pseudo=read geom=check guess=(rea
 d,tcheck) scf=(maxcycle=1)\\title\\0,1\Cl,0,1.837003,1.508188,-0.11402
 1\Cl,0,1.837003,-1.508187,-0.114021\B,0,0.960956,0.,-0.106412\C,0,-0.6
 47029,0.,-0.025786\Cl,0,-1.39685,1.454099,-0.750615\Cl,0,-1.396849,-1.
 454098,-0.750618\Cl,0,-0.934578,-0.000002,1.769673\\Version=ES64L-G16R
 evC.01\State=1-A\HF=-2360.5861745\RMSD=4.166e-03\Dipole=0.1828297,-0.0
 000014,-0.0635093\Quadrupole=-1.0762381,0.3162917,0.7599465,-0.0000068

 Normal termination of Gaussian 16 at Wed Apr  9 00:21:19 2025.
