 Gaussian 16, Revision C.01,

 ----------------------------------------------------------------------
 #t hf aug-cc-pvdz symm=none int=(grid=ultrafine) guess=(read,tcheck) s
 table=(opt,rrhf)
 ----------------------------------------------------------------------
 -----
 title
 -----
 Symbolic Z-matrix:
 Charge =  0 Multiplicity = 1

 SCF Done:  E(RHF) =  -443.063347682     A.U. after   12 cycles
 Normal termination of Gaussian 16 at Wed Apr  9 00:03:28 2025.
 Gaussian 16:  ES64L-G16RevC.01  3-Jul-2019

 ----------------------------------------------------------------------
 #t hf aug-cc-pvdz iop(5/13=1,5/36=2,99/5=2) pseudo=read geom=check gue
 ss=(read,tcheck) scf=(maxcycle=1)
 ----------------------------------------------------------------------
 -----
 title
 -----
 Structure from the checkpoint file:  "BDE49_nonexpt_2181_mol1.chk"
 Charge =  0 Multiplicity = 1

                         Standard orientation:
 ---------------------------------------------------------------------
 Center     Atomic      Atomic             Coordinates (Angstroms)
 Number     Number       Type             X           Y           Z
 ---------------------------------------------------------------------
      1         14           0       -0.719049   -0.549125    0.000044
      2          8           0       -1.174559    1.042326   -0.000206
      3          1           0       -2.108384    1.259745    0.000897
      4          6           0        1.136639   -0.553487   -0.000061
      5          6           0        1.871532    0.560787    0.000035
      6          1           0        1.648069   -1.516073   -0.000248
      7          1           0        1.407479    1.542086    0.000196
      8          1           0        2.958161    0.537896   -0.000056
      9          1           0       -1.245606   -1.259401   -1.194474
     10          1           0       -1.245586   -1.258910    1.194870
 ---------------------------------------------------------------------

 SCF Done:  E(RHF) =  -443.255978180     A.U. after    2 cycles

 The electronic state is 1-A.
 Alpha  occ. eigenvalues --  -69.55358 -20.54766 -11.24847 -11.22642  -6.21997
 Alpha  occ. eigenvalues --   -3.97506  -3.97350  -3.97304  -1.43384  -1.03791
 Alpha  occ. eigenvalues --   -0.80999  -0.74437  -0.65250  -0.63168  -0.58489
 Alpha  occ. eigenvalues --   -0.55192  -0.52041  -0.45894  -0.45522  -0.38258
 Alpha virt. eigenvalues --    0.03307   0.04053   0.04652   0.05897   0.06423
 Alpha virt. eigenvalues --    0.06948   0.07977   0.09346   0.09546   0.10608
 Alpha virt. eigenvalues --    0.13147   0.14627   0.14806   0.15845   0.17375

 Mulliken charges:
               1
     1  Si   1.794087
     2  O   -1.386760
     3  H    0.426566
     4  C   -0.251239
     5  C    0.148954
     6  H   -0.199506
     7  H   -0.035700
     8  H   -0.063895
     9  H   -0.216258
    10  H   -0.216251
 Sum of Mulliken charges =  -0.00000

 Dipole moment (field-independent basis, Debye):
    X=             -0.6016    Y=             -0.1181    Z=              0.0018  Tot=              0.6131

 Test job not archived.
 1\1\GINC-SE329\SP\RHF\Aug-CC-pVDZ\C2H6O1Si1\OHZDE\09-Apr-2025\0\\#t hf
  aug-cc-pvdz iop(5/13=1,5/36=2,99/5=2) pseudo=read geom=check guess=(r
 ead,tcheck) scf=(maxcycle=1)\\title\\0,1\Si,0,-0.719049,-0.549125,0.00
 0044\O,0,-1.174559,1.042326,-0.000206\H,0,-2.108384,1.259745,0.000897\
 C,0,1.136639,-0.553487,-0.000061\C,0,1.871532,0.560787,0.000035\H,0,1.
 648069,-1.516073,-0.000248\H,0,1.407479,1.542086,0.000196\H,0,2.958161
 ,0.537896,-0.000056\H,0,-1.245606,-1.259401,-1.194474\H,0,-1.245586,-1
 .25891,1.19487\\Version=ES64L-G16RevC.01\State=1-A\HF=-443.2559782\RMS

 Normal termination of Gaussian 16 at Wed Apr  9 00:03:31 2025.
