 Gaussian 16, Revision C.01,

 ----------------------------------------------------------------------
 #t hf aug-cc-pvdz symm=none int=(grid=ultrafine) guess=(read,tcheck) s
 table=(opt,rrhf)
 ----------------------------------------------------------------------
 -----
 title
 -----
 Symbolic Z-matrix:
 Charge =  0 Multiplicity = 1

 SCF Done:  E(RHF) =  -428.529699321     A.U. after   12 cycles
 Normal termination of Gaussian 16 at Tue Apr  8 22:36:23 2025.
 Gaussian 16:  ES64L-G16RevC.01  3-Jul-2019

 ----------------------------------------------------------------------
 #t hf aug-cc-pvdz iop(5/13=1,5/36=2,99/5=2) pseudo=read geom=check gue
 ss=(read,tcheck) scf=(maxcycle=1)
 ----------------------------------------------------------------------
 -----
 title
 -----
 Structure from the checkpoint file:  "BDE49_expt_1147_mol1.chk"
 Charge =  0 Multiplicity = 1

                         Standard orientation:
 ---------------------------------------------------------------------
 Center     Atomic      Atomic             Coordinates (Angstroms)
 Number     Number       Type             X           Y           Z
 ---------------------------------------------------------------------
      1          6           0       -1.158172   -0.000001    0.000024
      2          6           0        0.321325    0.000040    0.000001
      3          7           0       -2.307798    0.000012    0.000003
      4          9           0        0.784291   -0.626547    1.086788
      5          9           0        0.784255   -0.628027   -1.085947
      6          9           0        0.784305    1.254539   -0.000861
 ---------------------------------------------------------------------

 SCF Done:  E(RHF) =  -428.920591460     A.U. after    2 cycles

 The electronic state is 1-A.
 Alpha  occ. eigenvalues --  -26.55376 -26.55375 -26.55371 -15.58237 -11.59977
 Alpha  occ. eigenvalues --  -11.33612  -1.76655  -1.66352  -1.66351  -1.29234
 Alpha  occ. eigenvalues --   -1.06319  -0.91361  -0.86121  -0.86120  -0.73201
 Alpha  occ. eigenvalues --   -0.73200  -0.69228  -0.68342  -0.68341  -0.66445
 Alpha  occ. eigenvalues --   -0.64397  -0.56535  -0.56535
 Alpha virt. eigenvalues --    0.06164   0.07211   0.08066   0.08066   0.11896
 Alpha virt. eigenvalues --    0.11896   0.12843   0.12843   0.13204   0.19388
 Alpha virt. eigenvalues --    0.22266   0.22266   0.23304   0.24147   0.24148

 Mulliken charges:
               1
     1  C   -1.574423
     2  C    2.890919
     3  N    0.674137
     4  F   -0.663540
     5  F   -0.663543
     6  F   -0.663550
 Sum of Mulliken charges =   0.00000

 Dipole moment (field-independent basis, Debye):
    X=              2.0278    Y=              0.0002    Z=              0.0000  Tot=              2.0278

 Test job not archived.
 1\1\GINC-SE070\SP\RHF\Aug-CC-pVDZ\C2F3N1\OHZDE\08-Apr-2025\0\\#t hf au
 g-cc-pvdz iop(5/13=1,5/36=2,99/5=2) pseudo=read geom=check guess=(read
 ,tcheck) scf=(maxcycle=1)\\title\\0,1\C,0,-1.158172,-0.000001,0.000024
 \C,0,0.321325,0.00004,0.000001\N,0,-2.307798,0.000012,0.000003\F,0,0.7
 84291,-0.62709,1.086475\F,0,0.784255,-0.627484,-1.086261\F,0,0.784305,
 1.254539,-0.000234\\Version=ES64L-G16RevC.01\State=1-A\HF=-428.9205915
 \RMSD=1.365e-02\Dipole=0.7977985,0.0000608,0.000016\Quadrupole=-3.9118
 102,1.9558638,1.9559463,0.0000758,-0.0000244,0.0000022\PG=C01 [X(C2F3N

 Normal termination of Gaussian 16 at Tue Apr  8 22:36:25 2025.
