 Gaussian 16, Revision C.01,

 ----------------------------------------------------------------------
 #t hf aug-cc-pvdz symm=none int=(grid=ultrafine) guess=(read,tcheck) s
 table=opt
 ----------------------------------------------------------------------
 -----
 title
 -----
 Symbolic Z-matrix:
 Charge =  0 Multiplicity = 2

 SCF Done:  E(UHF) =  -365.190053405     A.U. after   26 cycles
 Normal termination of Gaussian 16 at Tue Apr  8 23:37:34 2025.
 Gaussian 16:  ES64L-G16RevC.01  3-Jul-2019

 ----------------------------------------------------------------------
 #t hf aug-cc-pvdz iop(5/13=1,5/36=2,99/5=2) pseudo=read geom=check gue
 ss=(read,tcheck) scf=(maxcycle=1)
 ----------------------------------------------------------------------
 -----
 title
 -----
 Structure from the checkpoint file:  "BDE49_nonexpt_154_mol2.chk"
 Charge =  0 Multiplicity = 2

                         Standard orientation:
 ---------------------------------------------------------------------
 Center     Atomic      Atomic             Coordinates (Angstroms)
 Number     Number       Type             X           Y           Z
 ---------------------------------------------------------------------
      1          5           0        2.495189   -0.793402   -0.545460
      2          6           0        1.314778   -0.104556    0.081571
      3          8           0        1.559913    0.947715    0.639193
      4          8           0        0.054966   -0.673902   -0.003633
      5          6           0       -1.096131    0.118550   -0.139344
      6          8           0       -1.074166    1.233202   -0.554645
      7          6           0       -2.300474   -0.680486    0.270953
      8          1           0       -2.316364   -1.635671   -0.257419
      9          1           0       -3.202539   -0.111704    0.056050
     10          1           0       -2.242842   -0.898441    1.340360
     11          1           0        3.451063   -1.444336   -0.338087
 ---------------------------------------------------------------------

 SCF Done:  E(UHF) =  -365.542342328     A.U. after    2 cycles

 The electronic state is 2-A.
 Alpha  occ. eigenvalues --  -20.61635 -20.57487 -20.55869 -11.41507 -11.38859
 Alpha  occ. eigenvalues --  -11.26825  -7.66687  -1.57533  -1.50969  -1.47194
 Alpha  occ. eigenvalues --   -1.05325  -0.93212  -0.81340  -0.74462  -0.71302
 Alpha  occ. eigenvalues --   -0.69247  -0.66711  -0.62724  -0.62303  -0.59765
 Alpha  occ. eigenvalues --   -0.57656  -0.55504  -0.49453  -0.48313  -0.44920
 Alpha  occ. eigenvalues --   -0.36375
 Alpha virt. eigenvalues --    0.02067   0.03484   0.04300   0.04510   0.05544
 Alpha virt. eigenvalues --    0.05944   0.06609   0.07804   0.09943   0.10846
 Alpha virt. eigenvalues --    0.12555   0.12989   0.13677   0.14789   0.15050

  Beta  occ. eigenvalues --  -20.61716 -20.55995 -20.55883 -11.41500 -11.39481
  Beta  occ. eigenvalues --  -11.26825  -7.64992  -1.57431  -1.49658  -1.45635
  Beta  occ. eigenvalues --   -1.05289  -0.92415  -0.79451  -0.74050  -0.71042
  Beta  occ. eigenvalues --   -0.68879  -0.65346  -0.61992  -0.60970  -0.59710
  Beta  occ. eigenvalues --   -0.56766  -0.52369  -0.47791  -0.46325  -0.43811
  Beta virt. eigenvalues --    0.02647   0.03201   0.03831   0.04406   0.05417
  Beta virt. eigenvalues --    0.05714   0.06709   0.07332   0.08786   0.10540
  Beta virt. eigenvalues --    0.10991   0.12778   0.13224   0.14218   0.15050

 Mulliken charges and spin densities:
               1          2
     1  B   -0.462139   0.931925
     2  C    1.719282  -0.269444
     3  O   -1.018572   0.354701
     4  O   -1.305225  -0.004615
     5  C    1.754758   0.008707
     6  O   -1.114405   0.000103
     7  C   -0.618719  -0.001005
     8  H    0.236297  -0.000021
     9  H    0.191409  -0.000087
    10  H    0.247900   0.000021
    11  H    0.369414  -0.020285
 Sum of Mulliken charges =  -0.00000   1.00000

 Dipole moment (field-independent basis, Debye):
    X=             -0.7124    Y=             -4.0665    Z=              0.1298  Tot=              4.1305
                          Isotropic Fermi Contact Couplings
        Atom                 a.u.       MegaHertz       Gauss      10(-4) cm-1
     1  B(11)              0.19624     281.48431     100.44060      93.89306
     2  C(13)             -0.06443     -72.43210     -25.84558     -24.16075
     3  O(17)              0.11173     -67.73275     -24.16873     -22.59321
     4  O(17)             -0.01353       8.20029       2.92607       2.73532
     5  C(13)              0.00006       0.06621       0.02363       0.02209
     6  O(17)             -0.00072       0.43717       0.15599       0.14583
     7  C(13)             -0.00002      -0.01787      -0.00638      -0.00596
     8  H(1)               0.00000       0.01128       0.00402       0.00376

 Normal termination of Gaussian 16 at Tue Apr  8 23:37:38 2025.
