 Gaussian 16, Revision C.01,

 ----------------------------------------------------------------------
 #t hf aug-cc-pvdz symm=none int=(grid=ultrafine) guess=(read,tcheck) s
 table=(opt,rrhf)
 ----------------------------------------------------------------------
 -----
 title
 -----
 Symbolic Z-matrix:
 Charge =  0 Multiplicity = 1

 SCF Done:  E(RHF) =  -650.859212564     A.U. after   13 cycles
 Normal termination of Gaussian 16 at Tue Apr  8 22:36:25 2025.
 Gaussian 16:  ES64L-G16RevC.01  3-Jul-2019

 ----------------------------------------------------------------------
 #t hf aug-cc-pvdz iop(5/13=1,5/36=2,99/5=2) pseudo=read geom=check gue
 ss=(read,tcheck) scf=(maxcycle=1)
 ----------------------------------------------------------------------
 -----
 title
 -----
 Structure from the checkpoint file:  "BDE49_expt_1143_mol1.chk"
 Charge =  0 Multiplicity = 1

                         Standard orientation:
 ---------------------------------------------------------------------
 Center     Atomic      Atomic             Coordinates (Angstroms)
 Number     Number       Type             X           Y           Z
 ---------------------------------------------------------------------
      1          8           0        2.059374   -0.518689   -0.015772
      2          6           0        1.664477    0.850628   -0.191492
      3          6           0        0.776427   -0.109759    0.468800
      4          1           0        1.460026    1.148543   -1.217035
      5          1           0        2.211679    1.572072    0.408952
      6          6           0       -0.384925   -0.724166   -0.262517
      7          1           0        0.684126   -0.078218    1.552297
      8         17           0       -1.904235    0.228003    0.032068
      9          1           0       -0.209562   -0.732419   -1.336519
     10          1           0       -0.585140   -1.736727    0.084573
 ---------------------------------------------------------------------

 SCF Done:  E(RHF) =  -651.132976626     A.U. after    2 cycles

 The electronic state is 1-A.
 Alpha  occ. eigenvalues -- -105.56510 -20.57553 -11.31818 -11.31602 -11.30736
 Alpha  occ. eigenvalues --  -10.61290  -7.78228  -7.77857  -7.77848  -1.50662
 Alpha  occ. eigenvalues --   -1.11681  -0.97868  -0.92764  -0.83435  -0.72439
 Alpha  occ. eigenvalues --   -0.68059  -0.62810  -0.59766  -0.56543  -0.53722
 Alpha  occ. eigenvalues --   -0.47028  -0.46609  -0.45046  -0.44596
 Alpha virt. eigenvalues --    0.03775   0.04157   0.04181   0.06236   0.06928
 Alpha virt. eigenvalues --    0.07681   0.10156   0.12030   0.13670   0.13883
 Alpha virt. eigenvalues --    0.14541   0.15095   0.16115   0.16410   0.17346

 Mulliken charges:
               1
     1  O   -1.219462
     2  C    0.322462
     3  C    1.185920
     4  H    0.022425
     5  H    0.019607
     6  C   -0.712099
     7  H   -0.052034
     8  Cl  -0.084930
     9  H    0.235562
    10  H    0.282549
 Sum of Mulliken charges =  -0.00000

 Dipole moment (field-independent basis, Debye):
    X=              0.5572    Y=              0.3881    Z=             -0.1142  Tot=              0.6886

 Test job not archived.
 1\1\GINC-SE361\SP\RHF\Aug-CC-pVDZ\C3H5Cl1O1\OHZDE\08-Apr-2025\0\\#t hf
  aug-cc-pvdz iop(5/13=1,5/36=2,99/5=2) pseudo=read geom=check guess=(r
 ead,tcheck) scf=(maxcycle=1)\\title\\0,1\O,0,2.059374,-0.518689,-0.015
 772\C,0,1.664477,0.850628,-0.191492\C,0,0.776427,-0.109759,0.4688\H,0,
 1.460026,1.148543,-1.217035\H,0,2.211679,1.572072,0.408952\C,0,-0.3849
 25,-0.724166,-0.262517\H,0,0.684126,-0.078218,1.552297\Cl,0,-1.904235,
 0.228003,0.032068\H,0,-0.209562,-0.732419,-1.336519\H,0,-0.58514,-1.73
 6727,0.084573\\Version=ES64L-G16RevC.01\State=1-A\HF=-651.1329766\RMSD

 Normal termination of Gaussian 16 at Tue Apr  8 22:36:28 2025.
