 Gaussian 16, Revision C.01,

 ----------------------------------------------------------------------
 #t hf aug-cc-pvdz symm=none int=(grid=ultrafine) guess=(read,tcheck) s
 table=(opt,rrhf)
 ----------------------------------------------------------------------
 -----
 title
 -----
 Symbolic Z-matrix:
 Charge =  0 Multiplicity = 1

 SCF Done:  E(RHF) =  -1303.61138296     A.U. after   16 cycles
 Normal termination of Gaussian 16 at Wed Apr  9 00:16:49 2025.
 Gaussian 16:  ES64L-G16RevC.01  3-Jul-2019

 ----------------------------------------------------------------------
 #t hf aug-cc-pvdz iop(5/13=1,5/36=2,99/5=2) pseudo=read geom=check gue
 ss=(read,tcheck) scf=(maxcycle=1)
 ----------------------------------------------------------------------
 -----
 title
 -----
 Structure from the checkpoint file:  "BDE49_nonexpt_2540_mol1.chk"
 Charge =  0 Multiplicity = 1

                         Standard orientation:
 ---------------------------------------------------------------------
 Center     Atomic      Atomic             Coordinates (Angstroms)
 Number     Number       Type             X           Y           Z
 ---------------------------------------------------------------------
      1         17           0        2.625186   -0.110428   -0.276263
      2         16           0        0.909721   -1.045215    0.426525
      3          6           0       -0.306645   -0.016774   -0.433138
      4          7           0       -1.643428   -0.727754   -0.309292
      5          8           0       -1.675035   -1.682389    0.448916
      6          8           0       -2.553155   -0.274593   -0.965476
      7          7           0       -0.488485    1.374841    0.205318
      8          1           0       -0.082861    0.145330   -1.483014
      9          8           0       -1.132351    1.429345    1.231079
     10          8           0        0.068345    2.280938   -0.379301
 ---------------------------------------------------------------------

 SCF Done:  E(RHF) =  -1304.16572939     A.U. after    2 cycles

 The electronic state is 1-A.
 Alpha  occ. eigenvalues -- -105.62910 -94.07840 -20.65002 -20.64945 -20.64037
 Alpha  occ. eigenvalues --  -20.63754 -15.84984 -15.83984 -11.45218 -10.67581
 Alpha  occ. eigenvalues --   -8.35437  -7.84530  -7.84064  -7.84020  -6.33176
 Alpha  occ. eigenvalues --   -6.32985  -6.32641  -1.73469  -1.71907  -1.57367
 Alpha  occ. eigenvalues --   -1.56384  -1.24867  -1.15014  -1.04759  -0.99898
 Alpha  occ. eigenvalues --   -0.89923  -0.86289  -0.84082  -0.80839  -0.79217
 Alpha  occ. eigenvalues --   -0.78108  -0.75589  -0.65966  -0.58525  -0.57045
 Alpha  occ. eigenvalues --   -0.56249  -0.54086  -0.53529  -0.52905  -0.50619
 Alpha  occ. eigenvalues --   -0.50121  -0.48888  -0.42884
 Alpha virt. eigenvalues --    0.00530   0.01138   0.02517   0.03681   0.06048
 Alpha virt. eigenvalues --    0.09127   0.09682   0.10114   0.11050   0.12516
 Alpha virt. eigenvalues --    0.12789   0.13916   0.14199   0.14614   0.16074

 Mulliken charges:
               1
     1  Cl  -0.233014
     2  S    0.822193
     3  C   -0.946244
     4  N    2.971926
     5  O   -1.335164
     6  O   -1.442730
     7  N    2.837056
     8  H    0.094920
     9  O   -1.417201
    10  O   -1.351741
 Sum of Mulliken charges =  -0.00000

 Dipole moment (field-independent basis, Debye):
    X=              1.9630    Y=             -1.4118    Z=             -1.4642  Tot=              2.8267

 Test job not archived.
 1\1\GINC-SE398\SP\RHF\Aug-CC-pVDZ\C1H1Cl1N2O4S1\OHZDE\09-Apr-2025\0\\#
 t hf aug-cc-pvdz iop(5/13=1,5/36=2,99/5=2) pseudo=read geom=check gues
 s=(read,tcheck) scf=(maxcycle=1)\\title\\0,1\Cl,0,2.625186,-0.110428,-
 0.276263\S,0,0.909721,-1.045215,0.426525\C,0,-0.306645,-0.016774,-0.43
 3138\N,0,-1.643428,-0.727754,-0.309292\O,0,-1.675035,-1.682389,0.44891
 6\O,0,-2.553155,-0.274593,-0.965476\N,0,-0.488485,1.374841,0.205318\H,
 0,-0.082861,0.14533,-1.483014\O,0,-1.132351,1.429345,1.231079\O,0,0.06
 8345,2.280938,-0.379301\\Version=ES64L-G16RevC.01\State=1-A\HF=-1304.1

 Normal termination of Gaussian 16 at Wed Apr  9 00:16:54 2025.
