 Gaussian 16, Revision C.01,

 ----------------------------------------------------------------------
 #t hf aug-cc-pvdz symm=none int=(grid=ultrafine) guess=(read,tcheck) s
 table=(opt,rrhf)
 ----------------------------------------------------------------------
 -----
 title
 -----
 Symbolic Z-matrix:
 Charge =  0 Multiplicity = 1

 SCF Done:  E(RHF) =  -1646.52985207     A.U. after   17 cycles

 1\1\GINC-SE072\Stability\RHF\Aug-CC-pVDZ\C7H5Cl3\OHZDE\08-Apr-2025\0\\
 #t hf aug-cc-pvdz symm=none int=(grid=ultrafine) guess=(read,tcheck) s
 table=(opt,rrhf)\\title\\0,1\C,0,-0.839186,-1.51766,0.394062\C,0,0.502
 222,-1.758714,0.13321\C,0,1.394636,-0.695915,0.001361\C,0,0.929794,0.6
 16093,0.132697\C,0,-0.417424,0.850645,0.393253\C,0,-1.313191,-0.209561
 ,0.527865\H,0,-1.522253,-2.353857,0.48973\H,0,0.873442,-2.770052,0.030
 926\C,0,-2.758941,0.057019,0.812376\H,0,-0.759387,1.873923,0.486832\H,
 0,-3.214314,-0.744974,1.388817\Cl,0,-3.751537,0.172313,-0.724649\H,0,-

 Normal termination of Gaussian 16 at Tue Apr  8 22:49:49 2025.
 Gaussian 16:  ES64L-G16RevC.01  3-Jul-2019

 ----------------------------------------------------------------------
 #t hf aug-cc-pvdz iop(5/13=1,5/36=2,99/5=2) pseudo=read geom=check gue
 ss=(read,tcheck) scf=(maxcycle=1)
 ----------------------------------------------------------------------
 -----
 title
 -----
 Structure from the checkpoint file:  "BDE49_expt_1696_mol1.chk"
 Charge =  0 Multiplicity = 1

                         Standard orientation:
 ---------------------------------------------------------------------
 Center     Atomic      Atomic             Coordinates (Angstroms)
 Number     Number       Type             X           Y           Z
 ---------------------------------------------------------------------
      1          6           0       -0.839186   -1.517660    0.394062
      2          6           0        0.502222   -1.758714    0.133210
      3          6           0        1.394636   -0.695915    0.001361
      4          6           0        0.929794    0.616093    0.132697
      5          6           0       -0.417424    0.850645    0.393253
      6          6           0       -1.313191   -0.209561    0.527865
      7          1           0       -1.522253   -2.353857    0.489730
      8          1           0        0.873442   -2.770052    0.030926
      9          6           0       -2.758941    0.057019    0.812376
     10          1           0       -0.759387    1.873923    0.486832
     11          1           0       -3.214314   -0.744974    1.388817
     12         17           0       -3.751537    0.172312   -0.724649
     13          1           0       -2.907245    1.005014    1.323915
     14         17           0        2.005049    1.980789   -0.018599
     15         17           0        3.072505   -1.039072   -0.320820
 ---------------------------------------------------------------------

 SCF Done:  E(RHF) =  -1647.02942752     A.U. after    2 cycles

 The electronic state is 1-A.
 Alpha  occ. eigenvalues -- -105.58691-105.58679-105.56467 -11.33542 -11.33458
 Alpha  occ. eigenvalues --  -11.32783 -11.28419 -11.28002 -11.27893 -11.27570
 Alpha  occ. eigenvalues --  -10.63495 -10.63478 -10.61228  -7.80470  -7.80448
 Alpha  occ. eigenvalues --   -7.80049  -7.80037  -7.80032  -7.80020  -7.78164
 Alpha  occ. eigenvalues --   -7.77791  -7.77785  -1.22283  -1.14760  -1.11696
 Alpha  occ. eigenvalues --   -1.09014  -1.02725  -1.00115  -0.92045  -0.87439
 Alpha  occ. eigenvalues --   -0.82378  -0.71907  -0.71756  -0.66886  -0.63248
 Alpha  occ. eigenvalues --   -0.62371  -0.61924  -0.59904  -0.57295  -0.55410
 Alpha  occ. eigenvalues --   -0.54872  -0.50777  -0.49133  -0.48490  -0.46787
 Alpha  occ. eigenvalues --   -0.45544  -0.45416  -0.37262  -0.35773
 Alpha virt. eigenvalues --    0.03008   0.03339   0.04290   0.05566   0.06352
 Alpha virt. eigenvalues --    0.06648   0.07331   0.07880   0.08957   0.09478
 Alpha virt. eigenvalues --    0.10312   0.11917   0.12518   0.12788   0.13040

 Mulliken charges:
               1
     1  C    0.030969
     2  C    0.263957
     3  C   -0.626967
     4  C    0.313035
     5  C    0.391192
     6  C    1.671874
     7  H   -0.287876
     8  H   -0.193941
     9  C   -0.878932
    10  H   -0.201441
    11  H    0.079440
    12  Cl  -0.075098
    13  H    0.077694
    14  Cl  -0.299415
    15  Cl  -0.264491
 Sum of Mulliken charges =  -0.00000

 Dipole moment (field-independent basis, Debye):
    X=             -1.1588    Y=             -1.1889    Z=              2.1197  Tot=              2.6924

 Test job not archived.
 1\1\GINC-SE072\SP\RHF\Aug-CC-pVDZ\C7H5Cl3\OHZDE\08-Apr-2025\0\\#t hf a
 ug-cc-pvdz iop(5/13=1,5/36=2,99/5=2) pseudo=read geom=check guess=(rea
 d,tcheck) scf=(maxcycle=1)\\title\\0,1\C,0,-0.839186,-1.51766,0.394062
 \C,0,0.502222,-1.758714,0.13321\C,0,1.394636,-0.695915,0.001361\C,0,0.
 929794,0.616093,0.132697\C,0,-0.417424,0.850645,0.393253\C,0,-1.313191
 ,-0.209561,0.527865\H,0,-1.522253,-2.353857,0.48973\H,0,0.873442,-2.77
 0052,0.030926\C,0,-2.758941,0.057019,0.812376\H,0,-0.759387,1.873923,0
 .486832\H,0,-3.214314,-0.744974,1.388817\Cl,0,-3.751537,0.172313,-0.72

 Normal termination of Gaussian 16 at Tue Apr  8 22:49:58 2025.
