 Gaussian 16, Revision C.01,

 ----------------------------------------------------------------------
 #t hf aug-cc-pvdz symm=none int=(grid=ultrafine) guess=(read,tcheck) s
 table=opt
 ----------------------------------------------------------------------
 -----
 title
 -----
 Symbolic Z-matrix:
 Charge =  0 Multiplicity = 2

 SCF Done:  E(UHF) =  -1070.97534174     A.U. after   16 cycles
 Normal termination of Gaussian 16 at Wed Apr  9 00:01:34 2025.
 Gaussian 16:  ES64L-G16RevC.01  3-Jul-2019

 ----------------------------------------------------------------------
 #t hf aug-cc-pvdz iop(5/13=1,5/36=2,99/5=2) pseudo=read geom=check gue
 ss=(read,tcheck) scf=(maxcycle=1)
 ----------------------------------------------------------------------
 -----
 title
 -----
 Structure from the checkpoint file:  "BDE49_nonexpt_213_mol2.chk"
 Charge =  0 Multiplicity = 2

                         Standard orientation:
 ---------------------------------------------------------------------
 Center     Atomic      Atomic             Coordinates (Angstroms)
 Number     Number       Type             X           Y           Z
 ---------------------------------------------------------------------
      1         17           0       -2.381406    0.113082   -0.000002
      2          5           0       -0.841606    0.852499   -0.000004
      3         16           0        0.759588   -0.154296    0.000001
      4          8           0        0.813705   -0.866198   -1.269169
      5          6           0        2.082545    1.055811   -0.000006
      6          8           0        0.813705   -0.866183    1.269180
      7          1           0        2.006438    1.662905   -0.901294
      8          1           0        3.011092    0.482230   -0.000002
      9          1           0        2.006438    1.662915    0.901275
 ---------------------------------------------------------------------

 SCF Done:  E(UHF) =  -1071.32323622     A.U. after    2 cycles

 The electronic state is 2-A.
 Alpha  occ. eigenvalues -- -105.61845 -94.19175 -20.54536 -20.54534 -11.29728
 Alpha  occ. eigenvalues --  -10.66845  -8.44728  -7.83774  -7.83461  -7.83378
 Alpha  occ. eigenvalues --   -7.74495  -6.42787  -6.42627  -6.42547  -1.55873
 Alpha  occ. eigenvalues --   -1.44283  -1.13273  -1.07489  -0.91263  -0.75594
 Alpha  occ. eigenvalues --   -0.68379  -0.67104  -0.67033  -0.61753  -0.61527
 Alpha  occ. eigenvalues --   -0.55588  -0.54312  -0.50742  -0.50293  -0.46972
 Alpha  occ. eigenvalues --   -0.46690  -0.38409
 Alpha virt. eigenvalues --    0.00927   0.02815   0.04137   0.05063   0.05234
 Alpha virt. eigenvalues --    0.06796   0.06909   0.08511   0.12259   0.13275
 Alpha virt. eigenvalues --    0.13840   0.14162   0.15183   0.16095   0.16121

  Beta  occ. eigenvalues -- -105.61780 -94.19103 -20.54406 -20.54403 -11.29752
  Beta  occ. eigenvalues --  -10.66771  -8.44624  -7.83681  -7.83429  -7.83182
  Beta  occ. eigenvalues --   -7.72438  -6.42770  -6.42521  -6.42356  -1.55485
  Beta  occ. eigenvalues --   -1.43896  -1.12358  -1.07349  -0.89886  -0.74256
  Beta  occ. eigenvalues --   -0.67881  -0.66818  -0.65312  -0.61413  -0.60991
  Beta  occ. eigenvalues --   -0.54293  -0.52722  -0.49729  -0.49173  -0.46939
  Beta  occ. eigenvalues --   -0.43853
  Beta virt. eigenvalues --    0.00895   0.03330   0.03527   0.04992   0.05331
  Beta virt. eigenvalues --    0.05872   0.06827   0.07020   0.09163   0.12334
  Beta virt. eigenvalues --    0.13668   0.13973   0.15167   0.15598   0.16178

 Mulliken charges and spin densities:
               1          2
     1  Cl  -0.156096   0.016061
     2  B    0.346134   0.974670
     3  S    2.909764  -0.044893
     4  O   -1.479736   0.028963
     5  C   -0.805632  -0.000937
     6  O   -1.479736   0.028963
     7  H    0.210911  -0.000270
     8  H    0.243481  -0.002287
     9  H    0.210910  -0.000270
 Sum of Mulliken charges =  -0.00000   1.00000

 Dipole moment (field-independent basis, Debye):
    X=              0.2635    Y=              4.2694    Z=             -0.0000  Tot=              4.2775
                          Isotropic Fermi Contact Couplings
        Atom                 a.u.       MegaHertz       Gauss      10(-4) cm-1
     1  Cl(35)             0.05279      23.14573       8.25897       7.72058
     2  B(11)              0.34940     501.17375     178.83126     167.17357
     3  S(33)              0.13237      45.46570      16.22329      15.16573
     4  O(17)              0.00955      -5.78676      -2.06486      -1.93026
     5  C(13)             -0.00593      -6.66849      -2.37948      -2.22437
     6  O(17)              0.00955      -5.78671      -2.06484      -1.93024
     7  H(1)               0.00024       1.08408       0.38683       0.36161
     8  H(1)              -0.00015      -0.65923      -0.23523      -0.21990

 Normal termination of Gaussian 16 at Wed Apr  9 00:01:38 2025.
