 Gaussian 16, Revision C.01,

 ----------------------------------------------------------------------
 #t hf aug-cc-pvdz symm=none int=(grid=ultrafine) guess=(read,tcheck) s
 table=(opt,rrhf)
 ----------------------------------------------------------------------
 -----
 title
 -----
 Symbolic Z-matrix:
 Charge =  0 Multiplicity = 1

 SCF Done:  E(RHF) =  -1076.02083137     A.U. after   11 cycles

 1\1\GINC-SE458\Stability\RHF\Aug-CC-pVDZ\F5H1Si2\OHZDE\09-Apr-2025\0\\
 #t hf aug-cc-pvdz symm=none int=(grid=ultrafine) guess=(read,tcheck) s
 table=(opt,rrhf)\\title\\0,1\Si,0,1.331303,0.,-0.411515\Si,0,-0.982859
 ,0.,0.003526\F,0,-1.665967,1.279947,-0.64163\F,0,1.957144,-1.293636,0.
 283663\F,0,-1.314385,-0.000005,1.554073\F,0,1.957144,1.293636,0.283663
 \F,0,-1.665967,-1.279942,-0.641638\H,0,1.710067,0.,-1.831343\\Version=
 ES64L-G16RevC.01\HF=-1076.0208314\RMSD=7.804e-09\Dipole=0.2882228,-0.0
 000009,-0.625498\Quadrupole=-1.1132091,-0.9881072,2.1013163,0.0000042,

 Normal termination of Gaussian 16 at Wed Apr  9 00:08:33 2025.
 Gaussian 16:  ES64L-G16RevC.01  3-Jul-2019

 ----------------------------------------------------------------------
 #t hf aug-cc-pvdz iop(5/13=1,5/36=2,99/5=2) pseudo=read geom=check gue
 ss=(read,tcheck) scf=(maxcycle=1)
 ----------------------------------------------------------------------
 -----
 title
 -----
 Structure from the checkpoint file:  "BDE49_nonexpt_2308_mol1.chk"
 Charge =  0 Multiplicity = 1

                         Standard orientation:
 ---------------------------------------------------------------------
 Center     Atomic      Atomic             Coordinates (Angstroms)
 Number     Number       Type             X           Y           Z
 ---------------------------------------------------------------------
      1         14           0        1.331303    0.000000   -0.411515
      2         14           0       -0.982859   -0.000000    0.003526
      3          9           0       -1.665967    1.279947   -0.641630
      4          9           0        1.957144   -1.293636    0.283663
      5          9           0       -1.314385   -0.000005    1.554073
      6          9           0        1.957144    1.293636    0.283663
      7          9           0       -1.665967   -1.279942   -0.641638
      8          1           0        1.710067    0.000000   -1.831343
 ---------------------------------------------------------------------

 SCF Done:  E(RHF) =  -1076.53259879     A.U. after    2 cycles

 The electronic state is 1-A.
 Alpha  occ. eigenvalues --  -69.69341 -69.66223 -26.49681 -26.49680 -26.49610
 Alpha  occ. eigenvalues --  -26.49065 -26.49064  -6.35218  -6.32404  -4.10508
 Alpha  occ. eigenvalues --   -4.10507  -4.10220  -4.07804  -4.07638  -4.07466
 Alpha  occ. eigenvalues --   -1.63459  -1.61532  -1.60127  -1.60113  -1.59331
 Alpha  occ. eigenvalues --   -0.84878  -0.81195  -0.74412  -0.74393  -0.72964
 Alpha  occ. eigenvalues --   -0.72357  -0.70640  -0.68866  -0.68323  -0.68321
 Alpha  occ. eigenvalues --   -0.66301  -0.65518  -0.65492  -0.64307  -0.63818
 Alpha  occ. eigenvalues --   -0.59681  -0.48513
 Alpha virt. eigenvalues --    0.04132   0.04619   0.04648   0.05152   0.07600
 Alpha virt. eigenvalues --    0.07875   0.08016   0.10754   0.11723   0.12116
 Alpha virt. eigenvalues --    0.15740   0.17925   0.19854   0.20240   0.22106

 Mulliken charges:
               1
     1  Si   1.737556
     2  Si   2.498095
     3  F   -0.806067
     4  F   -0.799442
     5  F   -0.842888
     6  F   -0.799442
     7  F   -0.806068
     8  H   -0.181745
 Sum of Mulliken charges =  -0.00000

 Dipole moment (field-independent basis, Debye):
    X=              0.6927    Y=             -0.0000    Z=             -1.4347  Tot=              1.5932

 Test job not archived.
 1\1\GINC-SE458\SP\RHF\Aug-CC-pVDZ\F5H1Si2\OHZDE\09-Apr-2025\0\\#t hf a
 ug-cc-pvdz iop(5/13=1,5/36=2,99/5=2) pseudo=read geom=check guess=(rea
 d,tcheck) scf=(maxcycle=1)\\title\\0,1\Si,0,1.331303,0.,-0.411515\Si,0
 ,-0.982859,0.,0.003526\F,0,-1.665967,1.279947,-0.64163\F,0,1.957144,-1
 .293636,0.283663\F,0,-1.314385,-0.000005,1.554073\F,0,1.957144,1.29363
 6,0.283663\F,0,-1.665967,-1.279942,-0.641638\H,0,1.710067,0.,-1.831343
 \\Version=ES64L-G16RevC.01\State=1-A\HF=-1076.5325988\RMSD=2.375e-03\D
 ipole=0.2725335,-0.0000009,-0.5644432\Quadrupole=-0.9492373,-0.9381365

 Normal termination of Gaussian 16 at Wed Apr  9 00:08:37 2025.
