 Gaussian 16, Revision C.01,

 ----------------------------------------------------------------------
 #t hf aug-cc-pvdz symm=none int=(grid=ultrafine) guess=(read,tcheck) s
 table=(opt,rrhf)
 ----------------------------------------------------------------------
 -----
 title
 -----
 Symbolic Z-matrix:
 Charge =  0 Multiplicity = 1

 SCF Done:  E(RHF) =  -595.744819121     A.U. after   14 cycles
 Normal termination of Gaussian 16 at Wed Apr  9 00:05:37 2025.
 Gaussian 16:  ES64L-G16RevC.01  3-Jul-2019

 ----------------------------------------------------------------------
 #t hf aug-cc-pvdz iop(5/13=1,5/36=2,99/5=2) pseudo=read geom=check gue
 ss=(read,tcheck) scf=(maxcycle=1)
 ----------------------------------------------------------------------
 -----
 title
 -----
 Structure from the checkpoint file:  "BDE49_nonexpt_2211_mol1.chk"
 Charge =  0 Multiplicity = 1

                         Standard orientation:
 ---------------------------------------------------------------------
 Center     Atomic      Atomic             Coordinates (Angstroms)
 Number     Number       Type             X           Y           Z
 ---------------------------------------------------------------------
      1          6           0       -0.632219   -1.204301   -0.111816
      2          6           0       -2.009728   -1.206629    0.092439
      3          6           0        0.082294    0.000001   -0.213088
      4          6           0       -0.632220    1.204302   -0.111813
      5          6           0       -2.009730    1.206628    0.092443
      6          6           0       -2.699375   -0.000001    0.195710
      7          8           0        2.657738   -0.000005    1.013457
      8          1           0       -0.107693   -2.151010   -0.195691
      9          1           0       -2.545119   -2.146588    0.168954
     10          1           0       -3.772429   -0.000002    0.352811
     11          1           0       -2.545121    2.146586    0.168959
     12          1           0       -0.107696    2.151012   -0.195685
     13         14           0        1.926084    0.000003   -0.474049
     14          1           0        3.616875   -0.000005    1.052958
     15          1           0        2.319990   -1.207522   -1.243267
     16          1           0        2.319989    1.207536   -1.243255
 ---------------------------------------------------------------------

 SCF Done:  E(RHF) =  -596.091712732     A.U. after    2 cycles

 The electronic state is 1-A.
 Alpha  occ. eigenvalues --  -69.55425 -20.54484 -11.24974 -11.24966 -11.24933
 Alpha  occ. eigenvalues --  -11.24436 -11.24418 -11.22985  -6.22049  -3.97523
 Alpha  occ. eigenvalues --   -3.97407  -3.97377  -1.42997  -1.15371  -1.01860
 Alpha  occ. eigenvalues --   -1.01785  -0.83888  -0.83495  -0.76321  -0.70878
 Alpha  occ. eigenvalues --   -0.65224  -0.64313  -0.63696  -0.60182  -0.57443
 Alpha  occ. eigenvalues --   -0.54578  -0.52394  -0.51106  -0.50571  -0.45740
 Alpha  occ. eigenvalues --   -0.44995  -0.35013  -0.34767
 Alpha virt. eigenvalues --    0.03155   0.03634   0.03851   0.04794   0.05339
 Alpha virt. eigenvalues --    0.05450   0.07137   0.07542   0.08399   0.08883
 Alpha virt. eigenvalues --    0.09513   0.10282   0.10617   0.12327   0.13199

 Mulliken charges:
               1
     1  C    0.442367
     2  C    0.490516
     3  C   -1.075623
     4  C    0.442358
     5  C    0.490513
     6  C    0.295870
     7  O   -1.359953
     8  H   -0.309272
     9  H   -0.213975
    10  H   -0.211339
    11  H   -0.213976
    12  H   -0.309273
    13  Si   1.606830
    14  H    0.369081
    15  H   -0.222062
    16  H   -0.222062
 Sum of Mulliken charges =  -0.00000

 Dipole moment (field-independent basis, Debye):
    X=              0.2532    Y=              0.0000    Z=             -0.4295  Tot=              0.4986

 Test job not archived.
 1\1\GINC-SE284\SP\RHF\Aug-CC-pVDZ\C6H8O1Si1\OHZDE\09-Apr-2025\0\\#t hf
  aug-cc-pvdz iop(5/13=1,5/36=2,99/5=2) pseudo=read geom=check guess=(r
 ead,tcheck) scf=(maxcycle=1)\\title\\0,1\C,0,-0.632219,-1.204301,-0.11
 1816\C,0,-2.009728,-1.206629,0.092439\C,0,0.082294,0.000001,-0.213088\
 C,0,-0.63222,1.204302,-0.111813\C,0,-2.00973,1.206628,0.092443\C,0,-2.
 699375,-0.000001,0.19571\O,0,2.657738,-0.000005,1.013457\H,0,-0.107693
 ,-2.15101,-0.195691\H,0,-2.545119,-2.146588,0.168954\H,0,-3.772429,-0.
 000002,0.352811\H,0,-2.545121,2.146586,0.168959\H,0,-0.107696,2.151012

 Normal termination of Gaussian 16 at Wed Apr  9 00:05:44 2025.
