 Gaussian 16, Revision C.01,

 ----------------------------------------------------------------------
 #t hf aug-cc-pvdz symm=none int=(grid=ultrafine) guess=(read,tcheck) s
 table=(opt,rrhf)
 ----------------------------------------------------------------------
 -----
 title
 -----
 Symbolic Z-matrix:
 Charge =  0 Multiplicity = 1

 SCF Done:  E(RHF) =  -483.324481935     A.U. after   11 cycles
 Normal termination of Gaussian 16 at Tue Apr  8 22:56:57 2025.
 Gaussian 16:  ES64L-G16RevC.01  3-Jul-2019

 ----------------------------------------------------------------------
 #t hf aug-cc-pvdz iop(5/13=1,5/36=2,99/5=2) pseudo=read geom=check gue
 ss=(read,tcheck) scf=(maxcycle=1)
 ----------------------------------------------------------------------
 -----
 title
 -----
 Structure from the checkpoint file:  "BDE49_expt_1907_mol1.chk"
 Charge =  0 Multiplicity = 1

                         Standard orientation:
 ---------------------------------------------------------------------
 Center     Atomic      Atomic             Coordinates (Angstroms)
 Number     Number       Type             X           Y           Z
 ---------------------------------------------------------------------
      1         14           0       -0.005675    0.000000    0.034460
      2          8           0       -0.185097   -0.000005    1.692279
      3          1           0        0.602338   -0.000007    2.240199
      4          6           0        0.925836    1.532046   -0.526855
      5          1           0        0.411408    2.444524   -0.211422
      6          1           0        1.013593    1.558314   -1.618055
      7          1           0        1.941442    1.561814   -0.118434
      8          6           0       -1.753643   -0.000011   -0.626006
      9          1           0       -2.298708    0.883891   -0.283182
     10          1           0       -2.298695   -0.883924   -0.283188
     11          1           0       -1.765988   -0.000008   -1.720329
     12          6           0        0.925859   -1.532031   -0.526861
     13          1           0        1.941465   -1.561785   -0.118440
     14          1           0        1.013617   -1.558291   -1.618061
     15          1           0        0.411443   -2.444518   -0.211432
 ---------------------------------------------------------------------

 SCF Done:  E(RHF) =  -483.570795892     A.U. after    2 cycles

 The electronic state is 1-A.
 Alpha  occ. eigenvalues --  -69.53339 -20.53172 -11.20838 -11.20835 -11.20450
 Alpha  occ. eigenvalues --   -6.19991  -3.95458  -3.95306  -3.95283  -1.41649
 Alpha  occ. eigenvalues --   -0.97326  -0.92851  -0.92756  -0.71959  -0.61073
 Alpha  occ. eigenvalues --   -0.57691  -0.57222  -0.56353  -0.55133  -0.54191
 Alpha  occ. eigenvalues --   -0.53568  -0.50785  -0.50403  -0.43592  -0.42382
 Alpha virt. eigenvalues --    0.03089   0.04053   0.04381   0.04514   0.06505
 Alpha virt. eigenvalues --    0.06813   0.06834   0.07161   0.07456   0.09329
 Alpha virt. eigenvalues --    0.10177   0.10611   0.11940   0.12782   0.14879

 Mulliken charges:
               1
     1  Si   3.451030
     2  O   -1.727701
     3  H    0.368585
     4  C   -0.603646
     5  H   -0.067442
     6  H    0.011426
     7  H   -0.060941
     8  C   -0.610491
     9  H   -0.020394
    10  H   -0.020393
    11  H    0.000573
    12  C   -0.603647
    13  H   -0.060942
    14  H    0.011425
    15  H   -0.067440
 Sum of Mulliken charges =  -0.00000

 Dipole moment (field-independent basis, Debye):
    X=              1.2837    Y=              0.0000    Z=             -0.4840  Tot=              1.3719

 Test job not archived.
 1\1\GINC-SE094\SP\RHF\Aug-CC-pVDZ\C3H10O1Si1\OHZDE\08-Apr-2025\0\\#t h
 f aug-cc-pvdz iop(5/13=1,5/36=2,99/5=2) pseudo=read geom=check guess=(
 read,tcheck) scf=(maxcycle=1)\\title\\0,1\Si,0,-0.005675,0.,0.03446\O,
 0,-0.185097,-0.000005,1.692279\H,0,0.602338,-0.000007,2.240199\C,0,0.9
 25837,1.532046,-0.526855\H,0,0.411409,2.444524,-0.211422\H,0,1.013594,
 1.558313,-1.618055\H,0,1.941443,1.561813,-0.118434\C,0,-1.753643,-0.00
 001,-0.626006\H,0,-2.298708,0.883892,-0.283182\H,0,-2.298695,-0.883923
 ,-0.283188\H,0,-1.765988,-0.000007,-1.720329\C,0,0.925858,-1.532031,-0

 Normal termination of Gaussian 16 at Tue Apr  8 22:57:01 2025.
