 Gaussian 16, Revision C.01,

 ----------------------------------------------------------------------
 #t hf aug-cc-pvdz symm=none int=(grid=ultrafine) guess=(read,tcheck) s
 table=(opt,rrhf)
 ----------------------------------------------------------------------
 -----
 title
 -----
 Symbolic Z-matrix:
 Charge =  0 Multiplicity = 1

 SCF Done:  E(RHF) =  -1135.67074204     A.U. after   16 cycles
 Normal termination of Gaussian 16 at Tue Apr  8 22:53:06 2025.
 Gaussian 16:  ES64L-G16RevC.01  3-Jul-2019

 ----------------------------------------------------------------------
 #t hf aug-cc-pvdz iop(5/13=1,5/36=2,99/5=2) pseudo=read geom=check gue
 ss=(read,tcheck) scf=(maxcycle=1)
 ----------------------------------------------------------------------
 -----
 title
 -----
 Structure from the checkpoint file:  "BDE49_expt_1220_mol1.chk"
 Charge =  0 Multiplicity = 1

                         Standard orientation:
 ---------------------------------------------------------------------
 Center     Atomic      Atomic             Coordinates (Angstroms)
 Number     Number       Type             X           Y           Z
 ---------------------------------------------------------------------
      1          6           0        0.614555   -0.065343   -0.015172
      2          7           0        0.736413   -0.067389    1.544001
      3          8           0        0.090707    0.796532    2.088539
      4          8           0        1.480776   -0.878116    2.030274
      5          6           0       -0.842814    0.047663   -0.524954
      6          7           0        1.318527   -1.349092   -0.537112
      7          6           0       -1.027852    0.068971   -2.034629
      8          1           0       -0.521364    0.931228   -2.457709
      9          1           0       -2.095575    0.123946   -2.239255
     10          1           0       -0.635537   -0.844160   -2.477289
     11          7           0       -1.710247   -1.106246    0.099495
     12          8           0       -2.669652   -1.453601   -0.543676
     13          8           0       -1.360521   -1.524293    1.182918
     14          7           0       -1.482194    1.375186    0.019868
     15          7           0        1.543976    1.106891   -0.512990
     16          8           0       -2.526954    1.287323    0.612936
     17          8           0       -0.876485    2.380011   -0.288781
     18          8           0        0.589923   -2.269537   -0.844523
     19          8           0        2.523177   -1.311291   -0.563195
     20          8           0        2.076572    1.774695    0.331918
     21          8           0        1.665434    1.169002   -1.715168
 ---------------------------------------------------------------------

 SCF Done:  E(RHF) =  -1136.73426609     A.U. after    2 cycles

 The electronic state is 1-A.
 Alpha  occ. eigenvalues --  -20.67723 -20.67624 -20.67364 -20.66673 -20.66655
 Alpha  occ. eigenvalues --  -20.66273 -20.66116 -20.65678 -20.65512 -20.65241
 Alpha  occ. eigenvalues --  -15.88482 -15.88404 -15.87786 -15.86601 -15.86133
 Alpha  occ. eigenvalues --  -11.53142 -11.48452 -11.31829  -1.76932  -1.75761
 Alpha  occ. eigenvalues --   -1.75275  -1.74939  -1.73931  -1.60633  -1.60236
 Alpha  occ. eigenvalues --   -1.59692  -1.58870  -1.58299  -1.31092  -1.21709
 Alpha  occ. eigenvalues --   -1.08293  -1.07763  -1.05162  -1.04717  -0.95592
 Alpha  occ. eigenvalues --   -0.91854  -0.90609  -0.89592  -0.87834  -0.87033
 Alpha  occ. eigenvalues --   -0.82756  -0.82651  -0.82199  -0.82031  -0.81538
 Alpha  occ. eigenvalues --   -0.81368  -0.80558  -0.80108  -0.79605  -0.78299
 Alpha  occ. eigenvalues --   -0.69134  -0.65696  -0.65440  -0.60251  -0.58141
 Alpha  occ. eigenvalues --   -0.57751  -0.57311  -0.56606  -0.55603  -0.55414
 Alpha  occ. eigenvalues --   -0.54939  -0.54428  -0.53775  -0.53496  -0.51633
 Alpha  occ. eigenvalues --   -0.51376  -0.50548  -0.49863
 Alpha virt. eigenvalues --   -0.02394  -0.01707  -0.00650   0.00635   0.01246
 Alpha virt. eigenvalues --    0.02998   0.04976   0.05030   0.08077   0.09796
 Alpha virt. eigenvalues --    0.10194   0.10560   0.10681   0.11118   0.11527

 Mulliken charges:
               1
     1  C   -2.589643
     2  N    4.109514
     3  O   -1.688101
     4  O   -1.592741
     5  C   -2.492797
     6  N    4.002181
     7  C    0.351105
     8  H    0.441178
     9  H    0.257243
    10  H    0.421118
    11  N    4.023089
    12  O   -1.632669
    13  O   -1.667587
    14  N    3.788198
    15  N    4.140169
    16  O   -1.560397
    17  O   -1.724344
    18  O   -1.629440
    19  O   -1.629142
    20  O   -1.604992
    21  O   -1.721941
 Sum of Mulliken charges =  -0.00000

 Dipole moment (field-independent basis, Debye):
    X=             -0.5057    Y=             -0.0045    Z=             -3.4844  Tot=              3.5209

 Test job not archived.
 1\1\GINC-SE102\SP\RHF\Aug-CC-pVDZ\C3H3N5O10\OHZDE\08-Apr-2025\0\\#t hf
  aug-cc-pvdz iop(5/13=1,5/36=2,99/5=2) pseudo=read geom=check guess=(r
 ead,tcheck) scf=(maxcycle=1)\\title\\0,1\C,0,0.614555,-0.065343,-0.015
 172\N,0,0.736413,-0.067389,1.544001\O,0,0.090707,0.796532,2.088539\O,0
 ,1.480776,-0.878116,2.030274\C,0,-0.842814,0.047663,-0.524954\N,0,1.31
 8527,-1.349092,-0.537112\C,0,-1.027852,0.068971,-2.034629\H,0,-0.52136
 4,0.931228,-2.457709\H,0,-2.095575,0.123946,-2.239255\H,0,-0.635537,-0
 .84416,-2.477289\N,0,-1.710247,-1.106246,0.099495\O,0,-2.669652,-1.453

 Normal termination of Gaussian 16 at Tue Apr  8 22:53:34 2025.
