 Gaussian 16, Revision C.01,

 ----------------------------------------------------------------------
 #t hf aug-cc-pvdz symm=none int=(grid=ultrafine) guess=(read,tcheck) s
 table=(opt,rrhf)
 ----------------------------------------------------------------------
 -----
 title
 -----
 Symbolic Z-matrix:
 Charge =  0 Multiplicity = 1

 SCF Done:  E(RHF) =  -710.040705658     A.U. after   17 cycles
 Normal termination of Gaussian 16 at Wed Apr  9 00:44:39 2025.
 Gaussian 16:  ES64L-G16RevC.01  3-Jul-2019

 ----------------------------------------------------------------------
 #t hf aug-cc-pvdz iop(5/13=1,5/36=2,99/5=2) pseudo=read geom=check gue
 ss=(read,tcheck) scf=(maxcycle=1)
 ----------------------------------------------------------------------
 -----
 title
 -----
 Structure from the checkpoint file:  "BDE49_nonexpt_712_mol1.chk"
 Charge =  0 Multiplicity = 1

                         Standard orientation:
 ---------------------------------------------------------------------
 Center     Atomic      Atomic             Coordinates (Angstroms)
 Number     Number       Type             X           Y           Z
 ---------------------------------------------------------------------
      1          6           0       -2.751302    0.711590    0.404405
      2          6           0       -1.444078    1.172865    0.329848
      3          6           0       -0.417051    0.315956   -0.090232
      4          6           0        0.966530    0.868544   -0.157754
      5          8           0        1.199894    2.054914   -0.127165
      6          5           0        2.584449   -1.450818    1.088470
      7          6           0       -3.048328   -0.605301    0.049193
      8          6           0       -2.034635   -1.458919   -0.380961
      9          6           0       -0.721801   -1.001855   -0.448283
     10          1           0        0.058979   -1.666363   -0.798290
     11          1           0       -3.541234    1.375795    0.735729
     12          1           0       -1.192350    2.193036    0.591841
     13          1           0       -4.070016   -0.963891    0.104566
     14          1           0       -2.266402   -2.478319   -0.666516
     15         15           0        2.428133   -0.304915   -0.357453
     16          1           0        1.625529   -2.000814    1.521455
     17          1           0        3.676280   -1.722194    1.472222
     18          1           0        3.469819    0.633961   -0.261545
 ---------------------------------------------------------------------

 SCF Done:  E(RHF) =  -710.456263863     A.U. after    2 cycles

 The electronic state is 1-A.
 Alpha  occ. eigenvalues --  -84.27087 -20.54881 -11.36191 -11.26829 -11.26600
 Alpha  occ. eigenvalues --  -11.26372 -11.26181 -11.25894 -11.25731  -7.62118
 Alpha  occ. eigenvalues --   -6.74718  -4.27502  -4.27455  -4.26526  -1.48503
 Alpha  occ. eigenvalues --   -1.17581  -1.05529  -1.03652  -0.93464  -0.87461
 Alpha  occ. eigenvalues --   -0.85020  -0.78095  -0.72984  -0.69571  -0.66809
 Alpha  occ. eigenvalues --   -0.65563  -0.63449  -0.61905  -0.58872  -0.56684
 Alpha  occ. eigenvalues --   -0.54272  -0.52962  -0.51831  -0.51439  -0.48118
 Alpha  occ. eigenvalues --   -0.39989  -0.36591  -0.36163  -0.33573
 Alpha virt. eigenvalues --    0.02843   0.03180   0.03596   0.03886   0.04525
 Alpha virt. eigenvalues --    0.04822   0.05421   0.06159   0.06960   0.07426
 Alpha virt. eigenvalues --    0.08520   0.08875   0.09489   0.09672   0.11030

 Mulliken charges:
               1
     1  C    0.389308
     2  C   -0.189726
     3  C    1.797542
     4  C   -0.390110
     5  O   -1.326372
     6  B   -0.392622
     7  C   -0.029272
     8  C    0.086501
     9  C    0.379473
    10  H   -0.257419
    11  H   -0.219862
    12  H   -0.313194
    13  H   -0.210755
    14  H   -0.238596
    15  P   -0.148753
    16  H    0.377619
    17  H    0.303205
    18  H    0.383033
 Sum of Mulliken charges =  -0.00000

 Dipole moment (field-independent basis, Debye):
    X=             -1.6873    Y=             -2.2005    Z=              0.2119  Tot=              2.7811

 Test job not archived.
 1\1\GINC-SE044\SP\RHF\Aug-CC-pVDZ\C7H8B1O1P1\OHZDE\09-Apr-2025\0\\#t h
 f aug-cc-pvdz iop(5/13=1,5/36=2,99/5=2) pseudo=read geom=check guess=(
 read,tcheck) scf=(maxcycle=1)\\title\\0,1\C,0,-2.751302,0.71159,0.4044
 05\C,0,-1.444078,1.172865,0.329848\C,0,-0.417051,0.315956,-0.090232\C,
 0,0.96653,0.868544,-0.157754\O,0,1.199894,2.054914,-0.127165\B,0,2.584
 449,-1.450818,1.08847\C,0,-3.048328,-0.605301,0.049193\C,0,-2.034635,-
 1.458919,-0.380961\C,0,-0.721801,-1.001855,-0.448283\H,0,0.058979,-1.6
 66363,-0.79829\H,0,-3.541234,1.375795,0.735729\H,0,-1.19235,2.193036,0

 Normal termination of Gaussian 16 at Wed Apr  9 00:44:49 2025.
