 Gaussian 16, Revision C.01,

 ----------------------------------------------------------------------
 #t hf aug-cc-pvdz symm=none int=(grid=ultrafine) guess=(read,tcheck) s
 table=(opt,rrhf)
 ----------------------------------------------------------------------
 -----
 title
 -----
 Symbolic Z-matrix:
 Charge =  0 Multiplicity = 1

 SCF Done:  E(RHF) =  -656.293944372     A.U. after   10 cycles

 1\1\GINC-SE070\Stability\RHF\Aug-CC-pVDZ\H6O1Si2\OHZDE\08-Apr-2025\0\\
 #t hf aug-cc-pvdz symm=none int=(grid=ultrafine) guess=(read,tcheck) s
 table=(opt,rrhf)\\title\\0,1\Si,0,-1.59638,-0.054896,0.000002\O,0,0.,0
 .313339,-0.000005\H,0,-1.93837,-0.844385,1.205533\H,0,-1.938306,-0.844
 715,-1.205332\H,0,-2.369485,1.204287,-0.00019\Si,0,1.59638,-0.054896,0
 .\H,0,2.369485,1.204287,-0.000204\H,0,1.938302,-0.844724,-1.205329\H,0
 ,1.938373,-0.844376,1.205536\\Version=ES64L-G16RevC.01\HF=-656.2939444
 \RMSD=7.552e-09\Dipole=0.0000006,-0.1133527,0.0000018\Quadrupole=0.839

 Normal termination of Gaussian 16 at Tue Apr  8 22:56:35 2025.
 Gaussian 16:  ES64L-G16RevC.01  3-Jul-2019

 ----------------------------------------------------------------------
 #t hf aug-cc-pvdz iop(5/13=1,5/36=2,99/5=2) pseudo=read geom=check gue
 ss=(read,tcheck) scf=(maxcycle=1)
 ----------------------------------------------------------------------
 -----
 title
 -----
 Structure from the checkpoint file:  "BDE49_expt_1906_mol1.chk"
 Charge =  0 Multiplicity = 1

                         Standard orientation:
 ---------------------------------------------------------------------
 Center     Atomic      Atomic             Coordinates (Angstroms)
 Number     Number       Type             X           Y           Z
 ---------------------------------------------------------------------
      1         14           0       -1.596380   -0.054896    0.000002
      2          8           0        0.000000    0.313339   -0.000005
      3          1           0       -1.938370   -0.844385    1.205533
      4          1           0       -1.938306   -0.844715   -1.205332
      5          1           0       -2.369485    1.204287   -0.000190
      6         14           0        1.596380   -0.054896   -0.000000
      7          1           0        2.369485    1.204287   -0.000204
      8          1           0        1.938302   -0.844724   -1.205329
      9          1           0        1.938373   -0.844376    1.205536
 ---------------------------------------------------------------------

 SCF Done:  E(RHF) =  -656.438325575     A.U. after    2 cycles

 The electronic state is 1-A.
 Alpha  occ. eigenvalues --  -69.56611 -69.56611 -20.54056  -6.23148  -6.23096
 Alpha  occ. eigenvalues --   -3.98685  -3.98664  -3.98478  -3.98474  -3.98464
 Alpha  occ. eigenvalues --   -3.98461  -1.43604  -0.81697  -0.69988  -0.60260
 Alpha  occ. eigenvalues --   -0.58608  -0.58607  -0.49431  -0.49352  -0.44992
 Alpha  occ. eigenvalues --   -0.44677
 Alpha virt. eigenvalues --    0.03783   0.04086   0.05219   0.05533   0.06069
 Alpha virt. eigenvalues --    0.07704   0.07832   0.08561   0.08968   0.09760
 Alpha virt. eigenvalues --    0.10792   0.10813   0.14052   0.15673   0.16532

 Mulliken charges:
               1
     1  Si   1.534902
     2  O   -1.941611
     3  H   -0.194470
     4  H   -0.194469
     5  H   -0.175158
     6  Si   1.534902
     7  H   -0.175157
     8  H   -0.194469
     9  H   -0.194470
 Sum of Mulliken charges =  -0.00000

 Dipole moment (field-independent basis, Debye):
    X=              0.0000    Y=             -0.2694    Z=              0.0000  Tot=              0.2694

 Test job not archived.
 1\1\GINC-SE070\SP\RHF\Aug-CC-pVDZ\H6O1Si2\OHZDE\08-Apr-2025\0\\#t hf a
 ug-cc-pvdz iop(5/13=1,5/36=2,99/5=2) pseudo=read geom=check guess=(rea
 d,tcheck) scf=(maxcycle=1)\\title\\0,1\Si,0,-1.59638,-0.054896,0.00000
 2\O,0,0.,0.313339,-0.000005\H,0,-1.93837,-0.844385,1.205533\H,0,-1.938
 306,-0.844715,-1.205332\H,0,-2.369485,1.204287,-0.00019\Si,0,1.59638,-
 0.054896,0.\H,0,2.369485,1.204287,-0.000204\H,0,1.938302,-0.844724,-1.
 205329\H,0,1.938373,-0.844376,1.205536\\Version=ES64L-G16RevC.01\State
 =1-A\HF=-656.4383256\RMSD=5.149e-03\Dipole=0.0000006,-0.1059982,0.0000

 Normal termination of Gaussian 16 at Tue Apr  8 22:56:38 2025.
