 Gaussian 16, Revision C.01,

 ----------------------------------------------------------------------
 #t hf aug-cc-pvdz symm=none int=(grid=ultrafine) guess=(read,tcheck) s
 table=(opt,rrhf)
 ----------------------------------------------------------------------
 -----
 title
 -----
 Symbolic Z-matrix:
 Charge =  0 Multiplicity = 1

 SCF Done:  E(RHF) =  -321.786471085     A.U. after   15 cycles
 Normal termination of Gaussian 16 at Tue Apr  8 22:51:48 2025.
 Gaussian 16:  ES64L-G16RevC.01  3-Jul-2019

 ----------------------------------------------------------------------
 #t hf aug-cc-pvdz iop(5/13=1,5/36=2,99/5=2) pseudo=read geom=check gue
 ss=(read,tcheck) scf=(maxcycle=1)
 ----------------------------------------------------------------------
 -----
 title
 -----
 Structure from the checkpoint file:  "BDE49_expt_1780_mol1.chk"
 Charge =  0 Multiplicity = 1

                         Standard orientation:
 ---------------------------------------------------------------------
 Center     Atomic      Atomic             Coordinates (Angstroms)
 Number     Number       Type             X           Y           Z
 ---------------------------------------------------------------------
      1          8           0       -0.503418   -0.488365   -0.452990
      2          7           0       -1.874059   -0.606148   -0.191655
      3          8           0       -2.340099    0.289223    0.421525
      4          6           0        0.158005    0.697227    0.056450
      5          6           0        1.628903    0.584483   -0.310297
      6          1           0        0.007805    0.747476    1.139536
      7          1           0       -0.310589    1.579177   -0.389306
      8          6           0        2.341915   -0.590752    0.363606
      9          1           0        2.108115    1.528146   -0.026477
     10          1           0        1.714250    0.505758   -1.398431
     11          1           0        2.303559   -0.502217    1.453672
     12          1           0        3.393277   -0.629155    0.069228
     13          1           0        1.877193   -1.538755    0.086519
 ---------------------------------------------------------------------

 SCF Done:  E(RHF) =  -322.111708633     A.U. after    2 cycles

 The electronic state is 1-A.
 Alpha  occ. eigenvalues --  -20.63454 -20.61307 -15.72279 -11.30347 -11.24711
 Alpha  occ. eigenvalues --  -11.23158  -1.66870  -1.49165  -1.08752  -0.99382
 Alpha  occ. eigenvalues --   -0.90812  -0.82133  -0.77885  -0.73378  -0.71343
 Alpha  occ. eigenvalues --   -0.63838  -0.61611  -0.59459  -0.56016  -0.52088
 Alpha  occ. eigenvalues --   -0.51322  -0.50001  -0.47014  -0.45810
 Alpha virt. eigenvalues --    0.03615   0.04071   0.04196   0.05033   0.06666
 Alpha virt. eigenvalues --    0.07354   0.07589   0.07785   0.10843   0.11753
 Alpha virt. eigenvalues --    0.14253   0.14351   0.15494   0.15729   0.16213

 Mulliken charges:
               1
     1  O   -1.406800
     2  N    1.703984
     3  O   -0.981005
     4  C    0.446010
     5  C   -0.523303
     6  H    0.146436
     7  H    0.100295
     8  C   -0.270043
     9  H    0.173490
    10  H    0.152783
    11  H    0.141878
    12  H    0.119647
    13  H    0.196628
 Sum of Mulliken charges =  -0.00000

 Dipole moment (field-independent basis, Debye):
    X=              2.0389    Y=              1.5233    Z=              0.4043  Tot=              2.5770

 Test job not archived.
 1\1\GINC-SE082\SP\RHF\Aug-CC-pVDZ\C3H7N1O2\OHZDE\08-Apr-2025\0\\#t hf
 aug-cc-pvdz iop(5/13=1,5/36=2,99/5=2) pseudo=read geom=check guess=(re
 ad,tcheck) scf=(maxcycle=1)\\title\\0,1\O,0,-0.503418,-0.488365,-0.452
 99\N,0,-1.874059,-0.606148,-0.191655\O,0,-2.340099,0.289223,0.421525\C
 ,0,0.158005,0.697227,0.05645\C,0,1.628903,0.584483,-0.310297\H,0,0.007
 805,0.747476,1.139536\H,0,-0.310589,1.579177,-0.389306\C,0,2.341915,-0
 .590752,0.363606\H,0,2.108115,1.528146,-0.026477\H,0,1.71425,0.505758,
 -1.398431\H,0,2.303559,-0.502217,1.453672\H,0,3.393277,-0.629155,0.069

 Normal termination of Gaussian 16 at Tue Apr  8 22:51:52 2025.
