 Gaussian 16, Revision C.01,

 ----------------------------------------------------------------------
 #t hf aug-cc-pvdz symm=none int=(grid=ultrafine) guess=(read,tcheck) s
 table=(opt,rrhf)
 ----------------------------------------------------------------------
 -----
 title
 -----
 Symbolic Z-matrix:
 Charge =  0 Multiplicity = 1

 SCF Done:  E(RHF) =  -295.014757597     A.U. after   15 cycles
 Normal termination of Gaussian 16 at Wed Apr  9 00:28:48 2025.
 Gaussian 16:  ES64L-G16RevC.01  3-Jul-2019

 ----------------------------------------------------------------------
 #t hf aug-cc-pvdz iop(5/13=1,5/36=2,99/5=2) pseudo=read geom=check gue
 ss=(read,tcheck) scf=(maxcycle=1)
 ----------------------------------------------------------------------
 -----
 title
 -----
 Structure from the checkpoint file:  "BDE49_nonexpt_297_mol1.chk"
 Charge =  0 Multiplicity = 1

                         Standard orientation:
 ---------------------------------------------------------------------
 Center     Atomic      Atomic             Coordinates (Angstroms)
 Number     Number       Type             X           Y           Z
 ---------------------------------------------------------------------
      1          6           0        0.217164    0.638125   -0.000000
      2          6           0        0.197881   -0.081058    1.204411
      3          6           0        0.197881   -1.472659    1.204519
      4          6           0        0.199839   -2.173522   -0.000000
      5          6           0        0.197881   -1.472659   -1.204519
      6          6           0        0.197881   -0.081058   -1.204411
      7          5           0       -1.366161    2.303565    0.000000
      8          1           0        0.197356   -2.010287    2.146160
      9          1           0        0.201269   -3.257570   -0.000000
     10          1           0        0.197356   -2.010287   -2.146160
     11          1           0        0.197794    0.459206   -2.145137
     12          1           0        0.197794    0.459206    2.145137
     13          6           0        0.191651    2.164240    0.000000
     14          1           0        0.688826    2.548612   -0.891971
     15          1           0        0.688826    2.548612    0.891971
     16          1           0       -1.969745    2.308112   -1.028680
     17          1           0       -1.969745    2.308112    1.028680
 ---------------------------------------------------------------------

 SCF Done:  E(RHF) =  -295.325283686     A.U. after    2 cycles

 The electronic state is 1-A'.
 Alpha  occ. eigenvalues --  -11.25944 -11.24606 -11.24589 -11.24451 -11.24439
 Alpha  occ. eigenvalues --  -11.24384 -11.21759  -7.59272  -1.16114  -1.05394
 Alpha  occ. eigenvalues --   -1.01924  -0.94073  -0.83887  -0.81042  -0.70928
 Alpha  occ. eigenvalues --   -0.68810  -0.65722  -0.64331  -0.60207  -0.58268
 Alpha  occ. eigenvalues --   -0.56737  -0.53397  -0.50482  -0.50423  -0.46906
 Alpha  occ. eigenvalues --   -0.46739  -0.34890  -0.33576
 Alpha virt. eigenvalues --    0.03268   0.03392   0.03503   0.04458   0.04666
 Alpha virt. eigenvalues --    0.04866   0.06187   0.06997   0.07825   0.08659
 Alpha virt. eigenvalues --    0.08665   0.09671   0.10442   0.11853   0.12405

 Mulliken charges:
               1
     1  C    0.693787
     2  C    0.237876
     3  C    0.074229
     4  C    0.084791
     5  C    0.074229
     6  C    0.237876
     7  B   -0.409637
     8  H   -0.227320
     9  H   -0.211419
    10  H   -0.227320
    11  H   -0.314828
    12  H   -0.314828
    13  C   -0.351949
    14  H    0.028325
    15  H    0.028325
    16  H    0.298932
    17  H    0.298932
 Sum of Mulliken charges =  -0.00000

 Dipole moment (field-independent basis, Debye):
    X=              0.6241    Y=             -0.1963    Z=             -0.0000  Tot=              0.6542

 Test job not archived.
 1\1\GINC-SE044\SP\RHF\Aug-CC-pVDZ\C7H9B1\OHZDE\09-Apr-2025\0\\#t hf au
 g-cc-pvdz iop(5/13=1,5/36=2,99/5=2) pseudo=read geom=check guess=(read
 ,tcheck) scf=(maxcycle=1)\\title\\0,1\C,0,0.217164,0.638125,0.\C,0,0.1
 97881,-0.081058,1.204411\C,0,0.197881,-1.472659,1.204519\C,0,0.199839,
 -2.173522,0.\C,0,0.197881,-1.472659,-1.204519\C,0,0.197881,-0.081058,-
 1.204411\B,0,-1.366161,2.303565,0.\H,0,0.197356,-2.010287,2.14616\H,0,
 0.201269,-3.25757,0.\H,0,0.197356,-2.010287,-2.14616\H,0,0.197794,0.45
 9206,-2.145137\H,0,0.197794,0.459206,2.145137\C,0,0.191651,2.16424,0.\

 Normal termination of Gaussian 16 at Wed Apr  9 00:28:53 2025.
