 Gaussian 16, Revision C.01,

 ----------------------------------------------------------------------
 #t hf aug-cc-pvdz symm=none int=(grid=ultrafine) guess=(read,tcheck) s
 table=opt
 ----------------------------------------------------------------------
 -----
 title
 -----
 Symbolic Z-matrix:
 Charge =  0 Multiplicity = 2

 SCF Done:  E(UHF) =  -178.831409255     A.U. after   15 cycles
 Normal termination of Gaussian 16 at Tue Apr  8 23:54:22 2025.
 Gaussian 16:  ES64L-G16RevC.01  3-Jul-2019

 ----------------------------------------------------------------------
 #t hf aug-cc-pvdz iop(5/13=1,5/36=2,99/5=2) pseudo=read geom=check gue
 ss=(read,tcheck) scf=(maxcycle=1)
 ----------------------------------------------------------------------
 -----
 title
 -----
 Structure from the checkpoint file:  "BDE49_nonexpt_1961_mol2.chk"
 Charge =  0 Multiplicity = 2

                         Standard orientation:
 ---------------------------------------------------------------------
 Center     Atomic      Atomic             Coordinates (Angstroms)
 Number     Number       Type             X           Y           Z
 ---------------------------------------------------------------------
      1          6           0       -1.130093   -1.070120    0.000050
      2          5           0       -0.043354    0.030118   -0.000005
      3          8           0       -0.397281    1.355224   -0.000013
      4          6           0        1.495050   -0.306668   -0.000010
      5          1           0       -1.349361    1.495179    0.000004
      6          1           0        1.763338   -0.912310   -0.874194
      7          1           0        1.763356   -0.912257    0.874207
      8          1           0        2.120968    0.588380   -0.000043
      9          1           0       -0.893710   -2.130635   -0.000048
     10          1           0       -2.199311   -0.860013   -0.000044
 ---------------------------------------------------------------------

 SCF Done:  E(UHF) =  -179.018926861     A.U. after    2 cycles

 The electronic state is 2-A.
 Alpha  occ. eigenvalues --  -20.55304 -11.24114 -11.19544  -7.60305  -1.45307
 Alpha  occ. eigenvalues --   -0.97344  -0.93003  -0.73813  -0.63846  -0.60677
 Alpha  occ. eigenvalues --   -0.56286  -0.53400  -0.52581  -0.51693  -0.46688
 Alpha  occ. eigenvalues --   -0.39687
 Alpha virt. eigenvalues --    0.03097   0.04178   0.04601   0.04805   0.07093
 Alpha virt. eigenvalues --    0.07349   0.08307   0.09084   0.10192   0.10685
 Alpha virt. eigenvalues --    0.12880   0.15862   0.16771   0.17183   0.17844

  Beta  occ. eigenvalues --  -20.55109 -11.22095 -11.19550  -7.60398  -1.44828
  Beta  occ. eigenvalues --   -0.94919  -0.86883  -0.73652  -0.62860  -0.59492
  Beta  occ. eigenvalues --   -0.55183  -0.53071  -0.52096  -0.50280  -0.45824
  Beta virt. eigenvalues --    0.03195   0.03496   0.04210   0.04827   0.06299
  Beta virt. eigenvalues --    0.07101   0.07364   0.08536   0.09223   0.10202
  Beta virt. eigenvalues --    0.10756   0.14073   0.16013   0.16872   0.17237

 Mulliken charges and spin densities:
               1          2
     1  C   -0.298630   1.181330
     2  B    1.493234  -0.087967
     3  O   -1.222009   0.042272
     4  C   -0.431398  -0.002986
     5  H    0.561412  -0.007253
     6  H    0.075901   0.005999
     7  H    0.075913   0.006001
     8  H   -0.087638   0.000489
     9  H   -0.029725  -0.069976
    10  H   -0.137060  -0.067911
 Sum of Mulliken charges =  -0.00000   1.00000

 Dipole moment (field-independent basis, Debye):
    X=             -1.4828    Y=             -0.8563    Z=             -0.0001  Tot=              1.7123
                          Isotropic Fermi Contact Couplings
        Atom                 a.u.       MegaHertz       Gauss      10(-4) cm-1
     1  C(13)              0.15153     170.35259      60.78604      56.82351
     2  B(11)             -0.01844     -26.44511      -9.43627      -8.82114
     3  O(17)              0.01832     -11.10662      -3.96312      -3.70477
     4  C(13)             -0.00306      -3.44257      -1.22839      -1.14832
     5  H(1)              -0.00117      -5.23727      -1.86879      -1.74697
     6  H(1)               0.00146       6.51858       2.32599       2.17436
     7  H(1)               0.00146       6.51828       2.32588       2.17426
     8  H(1)              -0.00046      -2.06974      -0.73853      -0.69039

 Normal termination of Gaussian 16 at Tue Apr  8 23:54:24 2025.
