 Gaussian 16, Revision C.01,

 ----------------------------------------------------------------------
 #t hf aug-cc-pvdz symm=none int=(grid=ultrafine) guess=(read,tcheck) s
 table=(opt,rrhf)
 ----------------------------------------------------------------------
 -----
 title
 -----
 Symbolic Z-matrix:
 Charge =  0 Multiplicity = 1

 SCF Done:  E(RHF) =  -665.337515185     A.U. after   14 cycles
 Normal termination of Gaussian 16 at Wed Apr  9 00:22:10 2025.
 Gaussian 16:  ES64L-G16RevC.01  3-Jul-2019

 ----------------------------------------------------------------------
 #t hf aug-cc-pvdz iop(5/13=1,5/36=2,99/5=2) pseudo=read geom=check gue
 ss=(read,tcheck) scf=(maxcycle=1)
 ----------------------------------------------------------------------
 -----
 title
 -----
 Structure from the checkpoint file:  "BDE49_nonexpt_2656_mol1.chk"
 Charge =  0 Multiplicity = 1

                         Standard orientation:
 ---------------------------------------------------------------------
 Center     Atomic      Atomic             Coordinates (Angstroms)
 Number     Number       Type             X           Y           Z
 ---------------------------------------------------------------------
      1          9           0       -1.754495    0.609921    0.000512
      2         16           0       -0.759895   -0.752261   -0.000365
      3          6           0        0.876228   -0.010903   -0.000102
      4          8           0        1.793012   -0.799300    0.000277
      5          7           0        0.921928    1.334188   -0.000047
      6          1           0        0.073261    1.876947   -0.000275
      7          1           0        1.820548    1.790436    0.000221
 ---------------------------------------------------------------------

 SCF Done:  E(RHF) =  -665.650301965     A.U. after    2 cycles

 The electronic state is 1-A.
 Alpha  occ. eigenvalues --  -94.06361 -26.49575 -20.55088 -15.56310 -11.42234
 Alpha  occ. eigenvalues --   -8.33724  -6.31489  -6.31184  -6.30888  -1.59238
 Alpha  occ. eigenvalues --   -1.50444  -1.26594  -1.05223  -0.86834  -0.80333
 Alpha  occ. eigenvalues --   -0.73159  -0.67977  -0.66645  -0.65242  -0.63247
 Alpha  occ. eigenvalues --   -0.57120  -0.47923  -0.45132  -0.41302
 Alpha virt. eigenvalues --    0.02725   0.05441   0.06591   0.07452   0.10811
 Alpha virt. eigenvalues --    0.11117   0.12267   0.12566   0.13973   0.14977
 Alpha virt. eigenvalues --    0.14992   0.16726   0.17660   0.19437   0.21776

 Mulliken charges:
               1
     1  F   -0.699223
     2  S    1.122197
     3  C   -0.182845
     4  O   -0.986162
     5  N    0.537892
     6  H    0.113336
     7  H    0.094805
 Sum of Mulliken charges =  -0.00000

 Dipole moment (field-independent basis, Debye):
    X=             -0.3721    Y=              2.6947    Z=             -0.0012  Tot=              2.7203

 Test job not archived.
 1\1\GINC-SE116\SP\RHF\Aug-CC-pVDZ\C1H2F1N1O1S1\OHZDE\09-Apr-2025\0\\#t
  hf aug-cc-pvdz iop(5/13=1,5/36=2,99/5=2) pseudo=read geom=check guess
 =(read,tcheck) scf=(maxcycle=1)\\title\\0,1\F,0,-1.754495,0.609921,0.0
 00512\S,0,-0.759895,-0.752261,-0.000365\C,0,0.876228,-0.010903,-0.0001
 02\O,0,1.793012,-0.7993,0.000277\N,0,0.921928,1.334188,-0.000047\H,0,0
 .073261,1.876947,-0.000275\H,0,1.820548,1.790436,0.000221\\Version=ES6
 4L-G16RevC.01\State=1-A\HF=-665.650302\RMSD=1.141e-02\Dipole=-0.146389
 7,1.0601831,-0.0004527\Quadrupole=-2.5359046,3.5058507,-0.9699461,4.78

 Normal termination of Gaussian 16 at Wed Apr  9 00:22:13 2025.
