 Gaussian 16, Revision C.01,

 ----------------------------------------------------------------------
 #t hf aug-cc-pvdz symm=none int=(grid=ultrafine) guess=(read,tcheck) s
 table=(opt,rrhf)
 ----------------------------------------------------------------------
 -----
 title
 -----
 Symbolic Z-matrix:
 Charge =  0 Multiplicity = 1

 SCF Done:  E(RHF) =  -709.616550732     A.U. after   15 cycles
 Normal termination of Gaussian 16 at Wed Apr  9 00:05:43 2025.
 Gaussian 16:  ES64L-G16RevC.01  3-Jul-2019

 ----------------------------------------------------------------------
 #t hf aug-cc-pvdz iop(5/13=1,5/36=2,99/5=2) pseudo=read geom=check gue
 ss=(read,tcheck) scf=(maxcycle=1)
 ----------------------------------------------------------------------
 -----
 title
 -----
 Structure from the checkpoint file:  "BDE49_nonexpt_2196_mol1.chk"
 Charge =  0 Multiplicity = 1

                         Standard orientation:
 ---------------------------------------------------------------------
 Center     Atomic      Atomic             Coordinates (Angstroms)
 Number     Number       Type             X           Y           Z
 ---------------------------------------------------------------------
      1          6           0        2.819643    0.137622    0.000261
      2          6           0        1.749091    1.035633    0.000155
      3          6           0        0.441066    0.559688   -0.000105
      4          6           0        2.581664   -1.230607    0.000103
      5          6           0        1.271084   -1.708961   -0.000142
      6          6           0        0.197465   -0.827164   -0.000222
      7          1           0        3.408294   -1.931053    0.000170
      8          1           0        1.055555   -2.770479   -0.000263
      9          8           0       -1.065392   -1.334917   -0.000476
     10         14           0       -2.606087   -0.702640    0.000297
     11          1           0        3.833710    0.519310    0.000459
     12          8           0       -0.684742    1.337492   -0.000306
     13          6           0       -0.544150    2.751243   -0.000063
     14          1           0       -1.556138    3.152377   -0.000225
     15          1           0       -0.015539    3.097355   -0.894511
     16          1           0       -0.015928    3.097089    0.894717
     17          1           0        1.941772    2.100334    0.000251
     18          1           0       -2.907247    0.082746   -1.214281
     19          1           0       -2.906303    0.082224    1.215453
     20          1           0       -3.447069   -1.918274    0.000413
 ---------------------------------------------------------------------

 SCF Done:  E(RHF) =  -710.075933881     A.U. after    2 cycles

 The electronic state is 1-A.
 Alpha  occ. eigenvalues --  -69.55797 -20.58315 -20.55396 -11.30806 -11.30725
 Alpha  occ. eigenvalues --  -11.30516 -11.24660 -11.24219 -11.24017 -11.23942
 Alpha  occ. eigenvalues --   -6.22238  -3.97752  -3.97595  -3.97576  -1.51082
 Alpha  occ. eigenvalues --   -1.46678  -1.15077  -1.02647  -1.01903  -0.95617
 Alpha  occ. eigenvalues --   -0.84934  -0.83592  -0.77674  -0.72060  -0.69501
 Alpha  occ. eigenvalues --   -0.66979  -0.66543  -0.63646  -0.62201  -0.60379
 Alpha  occ. eigenvalues --   -0.59849  -0.55766  -0.54964  -0.52298  -0.51355
 Alpha  occ. eigenvalues --   -0.50435  -0.48727  -0.45819  -0.45333  -0.34215
 Alpha  occ. eigenvalues --   -0.31039
 Alpha virt. eigenvalues --    0.03059   0.03604   0.03869   0.04850   0.04887
 Alpha virt. eigenvalues --    0.04992   0.06667   0.06972   0.07407   0.08133
 Alpha virt. eigenvalues --    0.09663   0.09785   0.11001   0.11345   0.12131

 Mulliken charges:
               1
     1  C    0.377858
     2  C    0.098724
     3  C    2.272772
     4  C    0.253454
     5  C    0.510229
     6  C    0.658391
     7  H   -0.219328
     8  H   -0.320385
     9  O   -2.426052
    10  Si   1.423627
    11  H   -0.230015
    12  O   -1.908661
    13  C    0.090390
    14  H   -0.050885
    15  H    0.195728
    16  H    0.195755
    17  H   -0.431311
    18  H   -0.132456
    19  H   -0.132394
    20  H   -0.225441
 Sum of Mulliken charges =  -0.00000

 Dipole moment (field-independent basis, Debye):
    X=              0.6290    Y=              2.4103    Z=              0.0007  Tot=              2.4910

 Test job not archived.
 1\1\GINC-SE105\SP\RHF\Aug-CC-pVDZ\C7H10O2Si1\OHZDE\09-Apr-2025\0\\#t h
 f aug-cc-pvdz iop(5/13=1,5/36=2,99/5=2) pseudo=read geom=check guess=(
 read,tcheck) scf=(maxcycle=1)\\title\\0,1\C,0,2.819643,0.137623,0.0002
 61\C,0,1.749091,1.035634,0.000155\C,0,0.441066,0.559688,-0.000105\C,0,
 2.581665,-1.230606,0.000103\C,0,1.271085,-1.70896,-0.000142\C,0,0.1974
 65,-0.827164,-0.000222\H,0,3.408295,-1.931052,0.00017\H,0,1.055556,-2.
 770479,-0.000263\O,0,-1.065391,-1.334917,-0.000476\Si,0,-2.606087,-0.7
 02641,0.000297\H,0,3.83371,0.519312,0.000459\O,0,-0.684743,1.337492,-0

 Normal termination of Gaussian 16 at Wed Apr  9 00:05:55 2025.
