 Gaussian 16, Revision C.01,

 ----------------------------------------------------------------------
 #t hf aug-cc-pvdz symm=none int=(grid=ultrafine) guess=(read,tcheck) s
 table=(opt,rrhf)
 ----------------------------------------------------------------------
 -----
 title
 -----
 Symbolic Z-matrix:
 Charge =  0 Multiplicity = 1

 SCF Done:  E(RHF) =  -1067.13892329     A.U. after   15 cycles
 Normal termination of Gaussian 16 at Wed Apr  9 00:48:44 2025.
 Gaussian 16:  ES64L-G16RevC.01  3-Jul-2019

 ----------------------------------------------------------------------
 #t hf aug-cc-pvdz iop(5/13=1,5/36=2,99/5=2) pseudo=read geom=check gue
 ss=(read,tcheck) scf=(maxcycle=1)
 ----------------------------------------------------------------------
 -----
 title
 -----
 Structure from the checkpoint file:  "BDE49_nonexpt_864_mol1.chk"
 Charge =  0 Multiplicity = 1

                         Standard orientation:
 ---------------------------------------------------------------------
 Center     Atomic      Atomic             Coordinates (Angstroms)
 Number     Number       Type             X           Y           Z
 ---------------------------------------------------------------------
      1          1           0        4.246539   -0.152016   -0.056767
      2         16           0       -2.159573   -1.479830    0.312368
      3         16           0       -1.997138    1.566450   -0.348055
      4          5           0       -1.148123   -0.002728    0.007728
      5          7           0        2.494412   -1.146046   -0.487377
      6          6           0        3.162538   -0.081504   -0.032437
      7          6           0        2.538371    1.066134    0.450885
      8          1           0        3.129192    1.902145    0.806048
      9          6           0        1.150340    1.108537    0.466943
     10          1           0        0.639215    1.987940    0.843591
     11          6           0        0.411039    0.002686    0.013632
     12          6           0        1.162234   -1.091064   -0.455116
     13          1           0        0.655013   -1.968287   -0.848473
     14          1           0       -3.262323    1.170679   -0.120720
     15          1           0       -1.167645   -2.319160    0.656869
 ---------------------------------------------------------------------

 SCF Done:  E(RHF) =  -1067.53217483     A.U. after    2 cycles

 The electronic state is 1-A.
 Alpha  occ. eigenvalues --  -93.96236 -93.96066 -15.51419 -11.29574 -11.29517
 Alpha  occ. eigenvalues --  -11.27945 -11.25739 -11.24615  -8.24543  -8.24366
 Alpha  occ. eigenvalues --   -7.66434  -6.22375  -6.22228  -6.22207  -6.22070
 Alpha  occ. eigenvalues --   -6.22055  -6.21901  -1.26929  -1.10525  -1.06601
 Alpha  occ. eigenvalues --   -1.03729  -1.00828  -0.88899  -0.87808  -0.75138
 Alpha  occ. eigenvalues --   -0.70610  -0.69253  -0.63840  -0.61581  -0.60172
 Alpha  occ. eigenvalues --   -0.57891  -0.56791  -0.54278  -0.48848  -0.46815
 Alpha  occ. eigenvalues --   -0.45473  -0.45043  -0.40915  -0.38304  -0.36395
 Alpha virt. eigenvalues --    0.03093   0.03900   0.04029   0.04602   0.04916
 Alpha virt. eigenvalues --    0.05337   0.05850   0.06839   0.07488   0.07771
 Alpha virt. eigenvalues --    0.08322   0.09705   0.10495   0.11583   0.11856

 Mulliken charges:
               1
     1  H   -0.172957
     2  S   -0.742878
     3  S   -0.718895
     4  B    0.979483
     5  N    1.175600
     6  C   -0.910219
     7  C    0.744474
     8  H   -0.181373
     9  C    0.057366
    10  H   -0.312921
    11  C    0.980564
    12  C   -1.082745
    13  H   -0.343026
    14  H    0.256645
    15  H    0.270881
 Sum of Mulliken charges =   0.00000

 Dipole moment (field-independent basis, Debye):
    X=              0.0443    Y=              1.3204    Z=              1.3140  Tot=              1.8634

 Test job not archived.
 1\1\GINC-SE365\SP\RHF\Aug-CC-pVDZ\C5H6B1N1S2\OHZDE\09-Apr-2025\0\\#t h
 f aug-cc-pvdz iop(5/13=1,5/36=2,99/5=2) pseudo=read geom=check guess=(
 read,tcheck) scf=(maxcycle=1)\\title\\0,1\H,0,4.246539,-0.152016,-0.05
 6767\S,0,-2.159573,-1.47983,0.312368\S,0,-1.997138,1.56645,-0.348055\B
 ,0,-1.148123,-0.002728,0.007728\N,0,2.494412,-1.146046,-0.487377\C,0,3
 .162538,-0.081504,-0.032437\C,0,2.538371,1.066134,0.450885\H,0,3.12919
 2,1.902145,0.806048\C,0,1.15034,1.108537,0.466943\H,0,0.639215,1.98794
 ,0.843591\C,0,0.411039,0.002686,0.013632\C,0,1.162234,-1.091064,-0.455

 Normal termination of Gaussian 16 at Wed Apr  9 00:48:50 2025.
