 Gaussian 16, Revision C.01,

 ----------------------------------------------------------------------
 #t hf aug-cc-pvdz symm=none int=(grid=ultrafine) guess=(read,tcheck) s
 table=(opt,rrhf)
 ----------------------------------------------------------------------
 -----
 title
 -----
 Symbolic Z-matrix:
 Charge =  0 Multiplicity = 1

 SCF Done:  E(RHF) =  -822.527419409     A.U. after   15 cycles
 Normal termination of Gaussian 16 at Tue Apr  8 23:27:53 2025.
 Gaussian 16:  ES64L-G16RevC.01  3-Jul-2019

 ----------------------------------------------------------------------
 #t hf aug-cc-pvdz iop(5/13=1,5/36=2,99/5=2) pseudo=read geom=check gue
 ss=(read,tcheck) scf=(maxcycle=1)
 ----------------------------------------------------------------------
 -----
 title
 -----
 Structure from the checkpoint file:  "BDE49_nonexpt_1225_mol1.chk"
 Charge =  0 Multiplicity = 1

                         Standard orientation:
 ---------------------------------------------------------------------
 Center     Atomic      Atomic             Coordinates (Angstroms)
 Number     Number       Type             X           Y           Z
 ---------------------------------------------------------------------
      1         16           0        0.177551   -0.722143   -0.650269
      2          8           0       -1.063709    0.429070   -0.598158
      3          6           0       -2.330596    0.097071    0.067281
      4          6           0       -3.138902    1.383254   -0.113298
      5          1           0       -4.133406    1.274743    0.327488
      6          1           0       -3.249438    1.613749   -1.174761
      7          1           0       -2.632208    2.221902    0.369025
      8          6           0       -2.999114   -1.077607   -0.650966
      9          1           0       -3.981144   -1.284259   -0.216690
     10          1           0       -2.392723   -1.982015   -0.564370
     11          1           0       -3.130415   -0.847690   -1.710872
     12          6           0       -2.108272   -0.209572    1.549440
     13          1           0       -1.476665   -1.092160    1.673034
     14          1           0       -3.064120   -0.408690    2.041430
     15          1           0       -1.635628    0.637858    2.051939
     16          6           0        1.343881   -0.067314    0.624889
     17          6           0        2.516419   -1.017635    0.634009
     18          6           0        3.569281   -0.493610    0.003952
     19          6           0        3.298000    0.904789   -0.497944
     20          6           0        1.978862    1.280604    0.220508
     21          1           0        3.187619    0.904369   -1.588834
     22          1           0        4.110250    1.600243   -0.265944
     23          1           0        2.207643    1.842517    1.132024
     24          1           0        1.302932    1.885016   -0.384560
     25          1           0        0.803971   -0.024824    1.571637
     26          1           0        2.462536   -2.013982    1.055208
     27          1           0        4.512308   -1.004934   -0.153398
 ---------------------------------------------------------------------

 SCF Done:  E(RHF) =  -823.040217931     A.U. after    2 cycles

 The electronic state is 1-A.
 Alpha  occ. eigenvalues --  -93.97726 -20.55654 -11.29633 -11.26937 -11.24503
 Alpha  occ. eigenvalues --  -11.23944 -11.23608 -11.23310 -11.22544 -11.22232
 Alpha  occ. eigenvalues --  -11.22152  -8.25158  -6.22995  -6.22750  -6.22525
 Alpha  occ. eigenvalues --   -1.44196  -1.15283  -1.08167  -1.00619  -0.97400
 Alpha  occ. eigenvalues --   -0.94312  -0.94219  -0.89724  -0.79172  -0.74656
 Alpha  occ. eigenvalues --   -0.73624  -0.69852  -0.65049  -0.64323  -0.63012
 Alpha  occ. eigenvalues --   -0.61793  -0.57805  -0.57150  -0.55409  -0.53983
 Alpha  occ. eigenvalues --   -0.53316  -0.52411  -0.52025  -0.51437  -0.50890
 Alpha  occ. eigenvalues --   -0.50640  -0.49682  -0.47981  -0.45856  -0.41518
 Alpha  occ. eigenvalues --   -0.35537  -0.34161
 Alpha virt. eigenvalues --    0.03391   0.03490   0.03686   0.04056   0.04742
 Alpha virt. eigenvalues --    0.05023   0.05447   0.06137   0.06468   0.07190
 Alpha virt. eigenvalues --    0.07383   0.07989   0.08734   0.09973   0.10105

 Mulliken charges:
               1
     1  S    0.660820
     2  O   -1.545422
     3  C   -1.112297
     4  C   -0.047306
     5  H    0.251109
     6  H    0.166398
     7  H    0.181463
     8  C    0.179015
     9  H    0.216977
    10  H    0.216023
    11  H    0.236977
    12  C    0.082118
    13  H    0.254455
    14  H    0.126825
    15  H    0.258779
    16  C   -0.241032
    17  C    0.355620
    18  C    0.370897
    19  C   -0.566687
    20  C   -0.321738
    21  H    0.200307
    22  H    0.145501
    23  H    0.135254
    24  H    0.076175
    25  H    0.008900
    26  H   -0.185690
    27  H   -0.103442
 Sum of Mulliken charges =  -0.00000

 Dipole moment (field-independent basis, Debye):
    X=              0.1073    Y=              0.2735    Z=              1.5594  Tot=              1.5869

 Test job not archived.
 1\1\GINC-SE083\SP\RHF\Aug-CC-pVDZ\C9H16O1S1\OHZDE\08-Apr-2025\0\\#t hf
  aug-cc-pvdz iop(5/13=1,5/36=2,99/5=2) pseudo=read geom=check guess=(r
 ead,tcheck) scf=(maxcycle=1)\\title\\0,1\S,0,0.177551,-0.722143,-0.650
 269\O,0,-1.063709,0.42907,-0.598158\C,0,-2.330596,0.097071,0.067281\C,
 0,-3.138902,1.383254,-0.113298\H,0,-4.133406,1.274743,0.327488\H,0,-3.
 249438,1.613749,-1.174761\H,0,-2.632208,2.221902,0.369025\C,0,-2.99911
 4,-1.077607,-0.650966\H,0,-3.981144,-1.284259,-0.21669\H,0,-2.392723,-
 1.982015,-0.56437\H,0,-3.130415,-0.84769,-1.710872\C,0,-2.108272,-0.20

 Normal termination of Gaussian 16 at Tue Apr  8 23:28:18 2025.
