 Gaussian 16, Revision C.01,

 ----------------------------------------------------------------------
 #t hf aug-cc-pvdz symm=none int=(grid=ultrafine) guess=(read,tcheck) s
 table=(opt,rrhf)
 ----------------------------------------------------------------------
 -----
 title
 -----
 Symbolic Z-matrix:
 Charge =  0 Multiplicity = 1

 SCF Done:  E(RHF) =  -596.363596386     A.U. after   11 cycles
 Normal termination of Gaussian 16 at Wed Apr  9 00:23:36 2025.
 Gaussian 16:  ES64L-G16RevC.01  3-Jul-2019

 ----------------------------------------------------------------------
 #t hf aug-cc-pvdz iop(5/13=1,5/36=2,99/5=2) pseudo=read geom=check gue
 ss=(read,tcheck) scf=(maxcycle=1)
 ----------------------------------------------------------------------
 -----
 title
 -----
 Structure from the checkpoint file:  "BDE49_nonexpt_2684_mol1.chk"
 Charge =  0 Multiplicity = 1

                         Standard orientation:
 ---------------------------------------------------------------------
 Center     Atomic      Atomic             Coordinates (Angstroms)
 Number     Number       Type             X           Y           Z
 ---------------------------------------------------------------------
      1          9           0        0.000000    1.250278   -0.496448
      2         16           0        0.000000   -0.000000    0.558504
      3          9           0       -0.000000   -1.250278   -0.496448
 ---------------------------------------------------------------------

 SCF Done:  E(RHF) =  -596.597445338     A.U. after    2 cycles

 The electronic state is 1-A1.
 Alpha  occ. eigenvalues --  -94.13666 -26.51536 -26.51535  -8.40096  -6.37768
 Alpha  occ. eigenvalues --   -6.37547  -6.37038  -1.64435  -1.60041  -1.00490
 Alpha  occ. eigenvalues --   -0.74538  -0.72207  -0.72020  -0.67295  -0.64072
 Alpha  occ. eigenvalues --   -0.59440  -0.41420
 Alpha virt. eigenvalues --    0.04852   0.06542   0.10301   0.10330   0.14829
 Alpha virt. eigenvalues --    0.16860   0.23540   0.26576   0.27018   0.28075
 Alpha virt. eigenvalues --    0.28717   0.34899   0.41815   0.42196   0.43515

 Mulliken charges:
               1
     1  F   -0.592340
     2  S    1.184680
     3  F   -0.592340
 Sum of Mulliken charges =  -0.00000

 Dipole moment (field-independent basis, Debye):
    X=              0.0000    Y=             -0.0000    Z=              1.2970  Tot=              1.2970

 Test job not archived.
 1\1\GINC-SE162\SP\RHF\Aug-CC-pVDZ\F2S1\OHZDE\09-Apr-2025\0\\#t hf aug-
 cc-pvdz iop(5/13=1,5/36=2,99/5=2) pseudo=read geom=check guess=(read,t
 check) scf=(maxcycle=1)\\title\\0,1\F,0,0.,1.250278,-0.496448\S,0,0.,0
 .,0.558504\F,0,0.,-1.250278,-0.496448\\Version=ES64L-G16RevC.01\State=
 1-A1\HF=-596.5974453\RMSD=2.681e-03\Dipole=0.,0.,0.510281\Quadrupole=-
 0.4972865,-0.396139,0.8934255,0.,0.,0.\PG=C02V [C2(S1),SGV(F2)]\\@

 Normal termination of Gaussian 16 at Wed Apr  9 00:23:37 2025.
