 Gaussian 16, Revision C.01,

 ----------------------------------------------------------------------
 #t hf aug-cc-pvdz symm=none int=(grid=ultrafine) guess=(read,tcheck) s
 table=(opt,rrhf)
 ----------------------------------------------------------------------
 -----
 title
 -----
 Symbolic Z-matrix:
 Charge =  0 Multiplicity = 1

 SCF Done:  E(RHF) =  -1248.86651541     A.U. after   15 cycles
 Normal termination of Gaussian 16 at Wed Apr  9 00:51:19 2025.
 Gaussian 16:  ES64L-G16RevC.01  3-Jul-2019

 ----------------------------------------------------------------------
 #t hf aug-cc-pvdz iop(5/13=1,5/36=2,99/5=2) pseudo=read geom=check gue
 ss=(read,tcheck) scf=(maxcycle=1)
 ----------------------------------------------------------------------
 -----
 title
 -----
 Structure from the checkpoint file:  "BDE49_nonexpt_913_mol1.chk"
 Charge =  0 Multiplicity = 1

                         Standard orientation:
 ---------------------------------------------------------------------
 Center     Atomic      Atomic             Coordinates (Angstroms)
 Number     Number       Type             X           Y           Z
 ---------------------------------------------------------------------
      1          9           0        0.382104    2.351472   -0.000177
      2          9           0        0.381370   -2.351284    0.000177
      3         16           0       -2.076312    0.000193    1.616395
      4         16           0       -2.076313   -0.000058   -1.616394
      5          5           0       -1.269030    0.000348   -0.000000
      6          6           0        1.053843    1.177394   -0.000090
      7          6           0        2.439400    1.209542   -0.000092
      8          6           0        3.128942   -0.000335   -0.000000
      9          6           0        2.439026   -1.209998    0.000091
     10          6           0        1.053479   -1.177418    0.000090
     11          6           0        0.306561    0.000103   -0.000000
     12          1           0        2.950705    2.163203   -0.000163
     13          1           0        4.212152   -0.000503   -0.000000
     14          1           0        2.950035   -2.163819    0.000163
     15          1           0       -3.362263    0.000000    1.221829
     16          1           0       -3.362263   -0.000192   -1.221829
 ---------------------------------------------------------------------

 SCF Done:  E(RHF) =  -1249.42095179     A.U. after    2 cycles

 The electronic state is 1-A.
 Alpha  occ. eigenvalues --  -93.96435 -93.96427 -26.48798 -26.48797 -11.35743
 Alpha  occ. eigenvalues --  -11.35739 -11.27702 -11.26107 -11.26086 -11.25526
 Alpha  occ. eigenvalues --   -8.24719  -8.24703  -7.67574  -6.22553  -6.22540
 Alpha  occ. eigenvalues --   -6.22391  -6.22376  -6.22234  -6.22230  -1.61751
 Alpha  occ. eigenvalues --   -1.61637  -1.18206  -1.07273  -1.03886  -1.03691
 Alpha  occ. eigenvalues --   -1.01005  -0.88508  -0.86879  -0.77411  -0.74439
 Alpha  occ. eigenvalues --   -0.73000  -0.69092  -0.68600  -0.67777  -0.67117
 Alpha  occ. eigenvalues --   -0.65459  -0.60208  -0.58891  -0.57924  -0.56703
 Alpha  occ. eigenvalues --   -0.54518  -0.52063  -0.51145  -0.45186  -0.44251
 Alpha  occ. eigenvalues --   -0.38480  -0.36826  -0.36006
 Alpha virt. eigenvalues --    0.03077   0.03539   0.04020   0.05190   0.05215
 Alpha virt. eigenvalues --    0.05990   0.07031   0.07076   0.08545   0.08608
 Alpha virt. eigenvalues --    0.09118   0.09659   0.10069   0.11793   0.12443

 Mulliken charges:
               1
     1  F   -1.061471
     2  F   -1.061480
     3  S   -0.707554
     4  S   -0.707553
     5  B    0.876318
     6  C    1.090591
     7  C    0.216010
     8  C    0.468992
     9  C    0.215907
    10  C    1.090922
    11  C   -0.301753
    12  H   -0.209990
    13  H   -0.194953
    14  H   -0.209993
    15  H    0.248005
    16  H    0.248004
 Sum of Mulliken charges =  -0.00000

 Dipole moment (field-independent basis, Debye):
    X=              0.5757    Y=             -0.0004    Z=             -0.0000  Tot=              0.5757

 Test job not archived.
 1\1\GINC-SE345\SP\RHF\Aug-CC-pVDZ\C6H5B1F2S2\OHZDE\09-Apr-2025\0\\#t h
 f aug-cc-pvdz iop(5/13=1,5/36=2,99/5=2) pseudo=read geom=check guess=(
 read,tcheck) scf=(maxcycle=1)\\title\\0,1\F,0,0.382104,2.351472,-0.000
 177\F,0,0.38137,-2.351284,0.000177\S,0,-2.076312,0.000193,1.616395\S,0
 ,-2.076313,-0.000058,-1.616394\B,0,-1.26903,0.000348,0.\C,0,1.053843,1
 .177394,-0.00009\C,0,2.4394,1.209542,-0.000092\C,0,3.128942,-0.000335,
 0.\C,0,2.439026,-1.209998,0.000091\C,0,1.053479,-1.177418,0.00009\C,0,
 0.306561,0.000103,0.\H,0,2.950705,2.163203,-0.000163\H,0,4.212152,-0.0

 Normal termination of Gaussian 16 at Wed Apr  9 00:51:29 2025.
