 Gaussian 16, Revision C.01,

 ----------------------------------------------------------------------
 #t hf aug-cc-pvdz symm=none int=(grid=ultrafine) guess=(read,tcheck) s
 table=(opt,rrhf)
 ----------------------------------------------------------------------
 -----
 title
 -----
 Symbolic Z-matrix:
 Charge =  0 Multiplicity = 1

 SCF Done:  E(RHF) =  -1064.35210483     A.U. after   15 cycles
 Normal termination of Gaussian 16 at Tue Apr  8 22:50:23 2025.
 Gaussian 16:  ES64L-G16RevC.01  3-Jul-2019

 ----------------------------------------------------------------------
 #t hf aug-cc-pvdz iop(5/13=1,5/36=2,99/5=2) pseudo=read geom=check gue
 ss=(read,tcheck) scf=(maxcycle=1)
 ----------------------------------------------------------------------
 -----
 title
 -----
 Structure from the checkpoint file:  "BDE49_expt_1692_mol1.chk"
 Charge =  0 Multiplicity = 1

                         Standard orientation:
 ---------------------------------------------------------------------
 Center     Atomic      Atomic             Coordinates (Angstroms)
 Number     Number       Type             X           Y           Z
 ---------------------------------------------------------------------
      1          6           0        1.329925    1.725701    0.177840
      2          6           0        0.149566    2.356156   -0.203199
      3          6           0       -1.033492    1.629450   -0.293325
      4          6           0       -1.026386    0.265741   -0.000721
      5          6           0        0.154795   -0.367069    0.378025
      6          6           0        1.343613    0.359116    0.471369
      7          1           0        2.250499    2.295719    0.242070
      8          1           0        0.150268    3.415344   -0.431322
      9          6           0        2.614324   -0.320675    0.879057
     10          1           0        0.149993   -1.429176    0.591157
     11          1           0        3.287923    0.352849    1.403933
     12         17           0        3.565674   -0.921907   -0.569657
     13          1           0        2.429835   -1.202513    1.488009
     14          1           0       -1.954366    2.112353   -0.594752
     15          6           0       -2.315107   -0.510442   -0.039683
     16          9           0       -3.146356   -0.061125   -1.004368
     17          9           0       -2.989979   -0.412967    1.130505
     18          9           0       -2.111892   -1.825912   -0.262927
 ---------------------------------------------------------------------

 SCF Done:  E(RHF) =  -1065.00997144     A.U. after    2 cycles

 The electronic state is 1-A.
 Alpha  occ. eigenvalues -- -105.56249 -26.50751 -26.50668 -26.50252 -11.52570
 Alpha  occ. eigenvalues --  -11.32541 -11.28360 -11.27994 -11.27790 -11.27718
 Alpha  occ. eigenvalues --  -11.27482 -11.27060 -10.61008  -7.77943  -7.77572
 Alpha  occ. eigenvalues --   -7.77566  -1.71250  -1.61357  -1.60830  -1.19966
 Alpha  occ. eigenvalues --   -1.12290  -1.07382  -1.04265  -0.96420  -0.93101
 Alpha  occ. eigenvalues --   -0.87591  -0.85257  -0.80671  -0.80433  -0.78573
 Alpha  occ. eigenvalues --   -0.72340  -0.70272  -0.68594  -0.67794  -0.66202
 Alpha  occ. eigenvalues --   -0.64229  -0.63427  -0.62303  -0.61807  -0.61481
 Alpha  occ. eigenvalues --   -0.59808  -0.58498  -0.54476  -0.53599  -0.52823
 Alpha  occ. eigenvalues --   -0.45522  -0.45223  -0.38060  -0.37041
 Alpha virt. eigenvalues --    0.02826   0.03257   0.04010   0.05032   0.05847
 Alpha virt. eigenvalues --    0.06462   0.07434   0.07758   0.08426   0.08768
 Alpha virt. eigenvalues --    0.09850   0.10170   0.11835   0.12803   0.13273

 Mulliken charges:
               1
     1  C   -0.170879
     2  C    0.091643
     3  C   -0.443565
     4  C    0.738530
     5  C   -0.251974
     6  C    1.655552
     7  H   -0.279626
     8  H   -0.211915
     9  C   -0.685973
    10  H   -0.280747
    11  H    0.025867
    12  Cl  -0.081195
    13  H    0.056956
    14  H   -0.257603
    15  C    2.514603
    16  F   -0.826409
    17  F   -0.756705
    18  F   -0.836560
 Sum of Mulliken charges =  -0.00000

 Dipole moment (field-independent basis, Debye):
    X=              1.0897    Y=              2.3889    Z=              1.6164  Tot=              3.0834

 Test job not archived.
 1\1\GINC-SE363\SP\RHF\Aug-CC-pVDZ\C8H6Cl1F3\OHZDE\08-Apr-2025\0\\#t hf
  aug-cc-pvdz iop(5/13=1,5/36=2,99/5=2) pseudo=read geom=check guess=(r
 ead,tcheck) scf=(maxcycle=1)\\title\\0,1\C,0,1.329925,1.725701,0.17784
 \C,0,0.149566,2.356156,-0.203199\C,0,-1.033492,1.62945,-0.293325\C,0,-
 1.026386,0.265741,-0.000721\C,0,0.154795,-0.367069,0.378025\C,0,1.3436
 13,0.359116,0.471369\H,0,2.250499,2.295719,0.24207\H,0,0.150268,3.4153
 44,-0.431322\C,0,2.614324,-0.320675,0.879057\H,0,0.149993,-1.429176,0.
 591157\H,0,3.287923,0.352849,1.403933\Cl,0,3.565674,-0.921907,-0.56965

 Normal termination of Gaussian 16 at Tue Apr  8 22:50:35 2025.
