 Gaussian 16, Revision C.01,

 ----------------------------------------------------------------------
 #t hf aug-cc-pvdz symm=none int=(grid=ultrafine) guess=(read,tcheck) s
 table=(opt,rrhf)
 ----------------------------------------------------------------------
 -----
 title
 -----
 Symbolic Z-matrix:
 Charge =  0 Multiplicity = 1

 SCF Done:  E(RHF) =  -651.999414267     A.U. after   15 cycles
 Normal termination of Gaussian 16 at Tue Apr  8 23:16:55 2025.
 Gaussian 16:  ES64L-G16RevC.01  3-Jul-2019

 ----------------------------------------------------------------------
 #t hf aug-cc-pvdz iop(5/13=1,5/36=2,99/5=2) pseudo=read geom=check gue
 ss=(read,tcheck) scf=(maxcycle=1)
 ----------------------------------------------------------------------
 -----
 title
 -----
 Structure from the checkpoint file:  "BDE49_nonexpt_1034_mol1.chk"
 Charge =  0 Multiplicity = 1

                         Standard orientation:
 ---------------------------------------------------------------------
 Center     Atomic      Atomic             Coordinates (Angstroms)
 Number     Number       Type             X           Y           Z
 ---------------------------------------------------------------------
      1         17           0       -1.838080   -0.051310   -0.066370
      2          8           0       -0.265889   -0.640574    0.390119
      3          6           0        0.803635    0.020194   -0.329894
      4          6           0        0.979684    1.465020    0.115765
      5          1           0        0.077242    2.048114   -0.076229
      6          1           0        1.804575    1.930236   -0.430734
      7          1           0        1.200827    1.508510    1.185241
      8          6           0        2.011899   -0.859604   -0.023242
      9          1           0        0.574859   -0.024434   -1.400452
     10          1           0        2.218172   -0.867809    1.049633
     11          1           0        2.890137   -0.467049   -0.541937
     12          1           0        1.837343   -1.884375   -0.353944
 ---------------------------------------------------------------------

 SCF Done:  E(RHF) =  -652.278255881     A.U. after    2 cycles

 The electronic state is 1-A.
 Alpha  occ. eigenvalues -- -105.60924 -20.61882 -11.30868 -11.23933 -11.23561
 Alpha  occ. eigenvalues --  -10.65167  -7.82143  -7.81633  -7.81608  -1.46939
 Alpha  occ. eigenvalues --   -1.07910  -1.00294  -0.95148  -0.81514  -0.68407
 Alpha  occ. eigenvalues --   -0.64559  -0.63516  -0.57588  -0.56236  -0.55119
 Alpha  occ. eigenvalues --   -0.53784  -0.50585  -0.49199  -0.46016  -0.42740
 Alpha virt. eigenvalues --    0.03618   0.04281   0.04293   0.05297   0.06876
 Alpha virt. eigenvalues --    0.07142   0.07597   0.08380   0.10785   0.13045
 Alpha virt. eigenvalues --    0.13835   0.15002   0.15464   0.16152   0.16639

 Mulliken charges:
               1
     1  Cl   0.250996
     2  O   -1.221559
     3  C    0.366367
     4  C   -0.316618
     5  H    0.139127
     6  H    0.203131
     7  H    0.238761
     8  C   -0.328849
     9  H    0.135825
    10  H    0.191963
    11  H    0.201072
    12  H    0.139784
 Sum of Mulliken charges =  -0.00000

 Dipole moment (field-independent basis, Debye):
    X=              1.9864    Y=              0.7808    Z=             -0.7958  Tot=              2.2779

 Test job not archived.
 1\1\GINC-SE424\SP\RHF\Aug-CC-pVDZ\C3H7Cl1O1\OHZDE\08-Apr-2025\0\\#t hf
  aug-cc-pvdz iop(5/13=1,5/36=2,99/5=2) pseudo=read geom=check guess=(r
 ead,tcheck) scf=(maxcycle=1)\\title\\0,1\Cl,0,-1.83808,-0.05131,-0.066
 37\O,0,-0.265889,-0.640574,0.390119\C,0,0.803635,0.020194,-0.329894\C,
 0,0.979684,1.46502,0.115765\H,0,0.077242,2.048114,-0.076229\H,0,1.8045
 75,1.930236,-0.430734\H,0,1.200827,1.50851,1.185241\C,0,2.011899,-0.85
 9604,-0.023242\H,0,0.574859,-0.024434,-1.400452\H,0,2.218172,-0.867809
 ,1.049633\H,0,2.890137,-0.467049,-0.541937\H,0,1.837343,-1.884375,-0.3

 Normal termination of Gaussian 16 at Tue Apr  8 23:16:58 2025.
