 Gaussian 16, Revision C.01,

 ----------------------------------------------------------------------
 #t hf aug-cc-pvdz symm=none int=(grid=ultrafine) guess=(read,tcheck) s
 table=(opt,rrhf)
 ----------------------------------------------------------------------
 -----
 title
 -----
 Symbolic Z-matrix:
 Charge =  0 Multiplicity = 1

 SCF Done:  E(RHF) =  -1474.91699860     A.U. after   13 cycles
 Normal termination of Gaussian 16 at Tue Apr  8 23:48:53 2025.
 Gaussian 16:  ES64L-G16RevC.01  3-Jul-2019

 ----------------------------------------------------------------------
 #t hf aug-cc-pvdz iop(5/13=1,5/36=2,99/5=2) pseudo=read geom=check gue
 ss=(read,tcheck) scf=(maxcycle=1)
 ----------------------------------------------------------------------
 -----
 title
 -----
 Structure from the checkpoint file:  "BDE49_nonexpt_1812_mol1.chk"
 Charge =  0 Multiplicity = 1

                         Standard orientation:
 ---------------------------------------------------------------------
 Center     Atomic      Atomic             Coordinates (Angstroms)
 Number     Number       Type             X           Y           Z
 ---------------------------------------------------------------------
      1          6           0        0.619584   -0.000108    0.925565
      2          8           0        1.007566   -0.000143    2.068949
      3         14           0       -1.250467   -0.000018    0.517599
      4          8           0        1.407193   -0.000024   -0.156848
      5         17           0       -1.736753   -1.689983   -0.562530
      6         17           0       -1.736635    1.690098   -0.562349
      7          6           0        2.847954   -0.000035    0.075207
      8          6           0        3.524443    0.000070   -1.278393
      9          1           0        3.098543   -0.883450    0.666137
     10          1           0        3.098535    0.883292    0.666271
     11          1           0        3.247048   -0.885979   -1.852828
     12          1           0        4.609595    0.000065   -1.147224
     13          1           0        3.247040    0.886204   -1.852694
     14          1           0       -2.016587   -0.000059    1.765811
 ---------------------------------------------------------------------

 SCF Done:  E(RHF) =  -1475.37075548     A.U. after    2 cycles

 The electronic state is 1-A.
 Alpha  occ. eigenvalues -- -105.58150-105.58149 -69.64520 -20.60552 -20.56161
 Alpha  occ. eigenvalues --  -11.39715 -11.31171 -11.24515 -10.63160 -10.63150
 Alpha  occ. eigenvalues --   -7.80049  -7.80042  -7.79723  -7.79719  -7.79713
 Alpha  occ. eigenvalues --   -7.79713  -6.30733  -4.06149  -4.06048  -4.05934
 Alpha  occ. eigenvalues --   -1.55697  -1.46948  -1.09766  -1.06012  -1.05699
 Alpha  occ. eigenvalues --   -0.90395  -0.82296  -0.77004  -0.70007  -0.69626
 Alpha  occ. eigenvalues --   -0.66838  -0.60593  -0.58155  -0.57661  -0.57202
 Alpha  occ. eigenvalues --   -0.56277  -0.52846  -0.52840  -0.51595  -0.49635
 Alpha  occ. eigenvalues --   -0.48434  -0.48126  -0.46755  -0.43277
 Alpha virt. eigenvalues --    0.03511   0.04355   0.04422   0.05174   0.05777
 Alpha virt. eigenvalues --    0.06261   0.06360   0.07636   0.09104   0.09528
 Alpha virt. eigenvalues --    0.09679   0.11665   0.12233   0.13130   0.13592

 Mulliken charges:
               1
     1  C    1.104443
     2  O   -0.975091
     3  Si   1.487676
     4  O   -1.115672
     5  Cl  -0.542074
     6  Cl  -0.542074
     7  C    0.450265
     8  C   -0.522801
     9  H    0.114370
    10  H    0.114368
    11  H    0.176182
    12  H    0.163583
    13  H    0.176182
    14  H   -0.089357
 Sum of Mulliken charges =  -0.00000

 Dipole moment (field-independent basis, Debye):
    X=              1.6594    Y=              0.0000    Z=             -0.7431  Tot=              1.8181

 Test job not archived.
 1\1\GINC-SE404\SP\RHF\Aug-CC-pVDZ\C3H6Cl2O2Si1\OHZDE\08-Apr-2025\0\\#t
  hf aug-cc-pvdz iop(5/13=1,5/36=2,99/5=2) pseudo=read geom=check guess
 =(read,tcheck) scf=(maxcycle=1)\\title\\0,1\C,0,0.619584,-0.000108,0.9
 25565\O,0,1.007566,-0.000143,2.068949\Si,0,-1.250467,-0.000018,0.51759
 9\O,0,1.407193,-0.000024,-0.156848\Cl,0,-1.736753,-1.689983,-0.56253\C
 l,0,-1.736635,1.690098,-0.562349\C,0,2.847954,-0.000035,0.075207\C,0,3
 .524443,0.00007,-1.278393\H,0,3.098543,-0.88345,0.666137\H,0,3.098535,
 0.883292,0.666271\H,0,3.247048,-0.885979,-1.852828\H,0,4.609595,0.0000

 Normal termination of Gaussian 16 at Tue Apr  8 23:49:01 2025.
