 Gaussian 16, Revision C.01,

 ----------------------------------------------------------------------
 #t hf aug-cc-pvdz symm=none int=(grid=ultrafine) guess=(read,tcheck) s
 table=(opt,rrhf)
 ----------------------------------------------------------------------
 -----
 title
 -----
 Symbolic Z-matrix:
 Charge =  0 Multiplicity = 1

 SCF Done:  E(RHF) =  -420.320310059     A.U. after   16 cycles
 Normal termination of Gaussian 16 at Tue Apr  8 23:21:05 2025.
 Gaussian 16:  ES64L-G16RevC.01  3-Jul-2019

 ----------------------------------------------------------------------
 #t hf aug-cc-pvdz iop(5/13=1,5/36=2,99/5=2) pseudo=read geom=check gue
 ss=(read,tcheck) scf=(maxcycle=1)
 ----------------------------------------------------------------------
 -----
 title
 -----
 Structure from the checkpoint file:  "BDE49_nonexpt_1174_mol1.chk"
 Charge =  0 Multiplicity = 1

                         Standard orientation:
 ---------------------------------------------------------------------
 Center     Atomic      Atomic             Coordinates (Angstroms)
 Number     Number       Type             X           Y           Z
 ---------------------------------------------------------------------
      1          9           0        2.645881    0.420683    0.000001
      2          8           0        1.766727   -0.709608   -0.000004
      3          6           0        0.464779   -0.270643   -0.000001
      4          6           0       -0.484037   -1.293459    0.000002
      5          6           0        0.061925    1.056910   -0.000003
      6          6           0       -1.311367    1.299906   -0.000001
      7          6           0       -1.821313   -0.916193    0.000003
      8          7           0       -2.249004    0.351300    0.000002
      9          1           0       -0.184852   -2.333485    0.000004
     10          1           0       -2.590333   -1.683076    0.000006
     11          1           0        0.779168    1.863030   -0.000005
     12          1           0       -1.667629    2.326026   -0.000002
 ---------------------------------------------------------------------

 SCF Done:  E(RHF) =  -420.730649486     A.U. after    2 cycles

 The electronic state is 1-A.
 Alpha  occ. eigenvalues --  -26.53746 -20.71310 -15.51455 -11.35671 -11.30193
 Alpha  occ. eigenvalues --  -11.30163 -11.26743 -11.26550  -1.69789  -1.41257
 Alpha  occ. eigenvalues --   -1.27326  -1.10090  -1.06019  -0.90619  -0.88436
 Alpha  occ. eigenvalues --   -0.78501  -0.74774  -0.73637  -0.69524  -0.67896
 Alpha  occ. eigenvalues --   -0.66085  -0.63028  -0.60420  -0.60250  -0.55662
 Alpha  occ. eigenvalues --   -0.55360  -0.47420  -0.40192  -0.37930
 Alpha virt. eigenvalues --    0.03319   0.03846   0.04895   0.05224   0.07640
 Alpha virt. eigenvalues --    0.08456   0.08684   0.11235   0.11415   0.12218
 Alpha virt. eigenvalues --    0.12304   0.12575   0.12590   0.13420   0.14600

 Mulliken charges:
               1
     1  F   -0.350089
     2  O   -0.940832
     3  C    1.022410
     4  C    0.756434
     5  C    1.098610
     6  C   -0.991841
     7  C   -0.889210
     8  N    0.914825
     9  H   -0.203019
    10  H   -0.153658
    11  H   -0.114907
    12  H   -0.148723
 Sum of Mulliken charges =   0.00000

 Dipole moment (field-independent basis, Debye):
    X=              0.6143    Y=             -0.4074    Z=             -0.0000  Tot=              0.7371

 Test job not archived.
 1\1\GINC-SE460\SP\RHF\Aug-CC-pVDZ\C5H4F1N1O1\OHZDE\08-Apr-2025\0\\#t h
 f aug-cc-pvdz iop(5/13=1,5/36=2,99/5=2) pseudo=read geom=check guess=(
 read,tcheck) scf=(maxcycle=1)\\title\\0,1\F,0,2.645881,0.420683,0.0000
 01\O,0,1.766727,-0.709608,-0.000004\C,0,0.464779,-0.270643,-0.000001\C
 ,0,-0.484037,-1.293459,0.000002\C,0,0.061925,1.05691,-0.000003\C,0,-1.
 311367,1.299906,-0.000001\C,0,-1.821313,-0.916193,0.000003\N,0,-2.2490
 04,0.3513,0.000002\H,0,-0.184852,-2.333485,0.000004\H,0,-2.590333,-1.6
 83076,0.000006\H,0,0.779168,1.86303,-0.000005\H,0,-1.667629,2.326026,-

 Normal termination of Gaussian 16 at Tue Apr  8 23:21:09 2025.
