 Gaussian 16, Revision C.01,

 ----------------------------------------------------------------------
 #t hf aug-cc-pvdz symm=none int=(grid=ultrafine) guess=(read,tcheck) s
 table=(opt,rrhf)
 ----------------------------------------------------------------------
 -----
 title
 -----
 Symbolic Z-matrix:
 Charge =  0 Multiplicity = 1

 SCF Done:  E(RHF) =  -497.622680880     A.U. after   17 cycles
 Normal termination of Gaussian 16 at Wed Apr  9 00:41:59 2025.
 Gaussian 16:  ES64L-G16RevC.01  3-Jul-2019

 ----------------------------------------------------------------------
 #t hf aug-cc-pvdz iop(5/13=1,5/36=2,99/5=2) pseudo=read geom=check gue
 ss=(read,tcheck) scf=(maxcycle=1)
 ----------------------------------------------------------------------
 -----
 title
 -----
 Structure from the checkpoint file:  "BDE49_nonexpt_649_mol1.chk"
 Charge =  0 Multiplicity = 1

                         Standard orientation:
 ---------------------------------------------------------------------
 Center     Atomic      Atomic             Coordinates (Angstroms)
 Number     Number       Type             X           Y           Z
 ---------------------------------------------------------------------
      1          8           0       -2.478299   -1.830677    0.131963
      2          1           0       -1.705461   -2.377484    0.290754
      3          8           0       -3.291828    0.342809   -0.164733
      4          1           0       -4.129381   -0.132517   -0.147493
      5          7           0        3.758782   -1.521788   -0.062436
      6          6           0        1.642720   -0.035492   -0.007508
      7          6           0        2.815529   -0.855219   -0.038533
      8          6           0       -0.789834    0.146461    0.005857
      9          6           0        0.373245   -0.628745   -0.021593
     10          1           0        0.322972   -1.712080   -0.067007
     11          6           0        1.759123    1.360671    0.036088
     12          1           0        2.741814    1.815770    0.048338
     13          6           0       -0.645874    1.543410    0.042455
     14          1           0       -1.537933    2.158391    0.056985
     15          6           0        0.610432    2.143001    0.060468
     16          1           0        0.697722    3.222805    0.091799
     17          5           0       -2.226446   -0.492787   -0.007515
 ---------------------------------------------------------------------

 SCF Done:  E(RHF) =  -498.116590156     A.U. after    2 cycles

 The electronic state is 1-A.
 Alpha  occ. eigenvalues --  -20.57539 -20.56690 -15.51951 -11.29862 -11.28813
 Alpha  occ. eigenvalues --  -11.28806 -11.28609 -11.27596 -11.26923 -11.25072
 Alpha  occ. eigenvalues --   -7.66000  -1.49671  -1.45353  -1.24019  -1.18789
 Alpha  occ. eigenvalues --   -1.06705  -1.05209  -0.89899  -0.87603  -0.79953
 Alpha  occ. eigenvalues --   -0.77574  -0.74237  -0.70986  -0.68127  -0.64564
 Alpha  occ. eigenvalues --   -0.64133  -0.61032  -0.59077  -0.58063  -0.57225
 Alpha  occ. eigenvalues --   -0.56756  -0.54391  -0.51907  -0.50852  -0.50552
 Alpha  occ. eigenvalues --   -0.49667  -0.37904  -0.37402
 Alpha virt. eigenvalues --    0.02834   0.03035   0.03584   0.04330   0.04854
 Alpha virt. eigenvalues --    0.04978   0.05527   0.06635   0.07190   0.08151
 Alpha virt. eigenvalues --    0.08707   0.09916   0.10518   0.10944   0.11914

 Mulliken charges:
               1
     1  O   -1.480740
     2  H    0.618138
     3  O   -1.366897
     4  H    0.500588
     5  N    1.141093
     6  C    2.696319
     7  C   -3.296499
     8  C    0.921818
     9  C   -0.092955
    10  H   -0.404752
    11  C    0.170906
    12  H   -0.281449
    13  C   -0.237170
    14  H   -0.333522
    15  C    0.263150
    16  H   -0.205437
    17  B    1.387408
 Sum of Mulliken charges =  -0.00000

 Dipole moment (field-independent basis, Debye):
    X=             -3.7859    Y=              2.2905    Z=              0.3759  Tot=              4.4408

 Test job not archived.
 1\1\GINC-SE132\SP\RHF\Aug-CC-pVDZ\C7H6B1N1O2\OHZDE\09-Apr-2025\0\\#t h
 f aug-cc-pvdz iop(5/13=1,5/36=2,99/5=2) pseudo=read geom=check guess=(
 read,tcheck) scf=(maxcycle=1)\\title\\0,1\O,0,-2.478299,-1.830677,0.13
 1963\H,0,-1.705461,-2.377484,0.290754\O,0,-3.291828,0.342809,-0.164733
 \H,0,-4.129381,-0.132517,-0.147493\N,0,3.758782,-1.521788,-0.062436\C,
 0,1.64272,-0.035492,-0.007508\C,0,2.815529,-0.855219,-0.038533\C,0,-0.
 789834,0.146461,0.005857\C,0,0.373245,-0.628745,-0.021593\H,0,0.322972
 ,-1.71208,-0.067007\C,0,1.759123,1.360671,0.036088\H,0,2.741814,1.8157

 Normal termination of Gaussian 16 at Wed Apr  9 00:42:09 2025.
