 Gaussian 16, Revision C.01,

 ----------------------------------------------------------------------
 #t hf aug-cc-pvdz symm=none int=(grid=ultrafine) guess=(read,tcheck) s
 table=(opt,rrhf)
 ----------------------------------------------------------------------
 -----
 title
 -----
 Symbolic Z-matrix:
 Charge =  0 Multiplicity = 1

 SCF Done:  E(RHF) =  -94.0471631346     A.U. after   11 cycles
 Normal termination of Gaussian 16 at Tue Apr  8 23:05:40 2025.
 Gaussian 16:  ES64L-G16RevC.01  3-Jul-2019

 ----------------------------------------------------------------------
 #t hf aug-cc-pvdz iop(5/13=1,5/36=2,99/5=2) pseudo=read geom=check gue
 ss=(read,tcheck) scf=(maxcycle=1)
 ----------------------------------------------------------------------
 -----
 title
 -----
 Structure from the checkpoint file:  "BDE49_expt_402_mol1.chk"
 Charge =  0 Multiplicity = 1

                         Standard orientation:
 ---------------------------------------------------------------------
 Center     Atomic      Atomic             Coordinates (Angstroms)
 Number     Number       Type             X           Y           Z
 ---------------------------------------------------------------------
      1          7           0        0.667856   -0.153911    0.000001
      2          6           0       -0.584861    0.028648   -0.000003
      3          1           0       -1.084311    1.005725    0.000001
      4          1           0       -1.242976   -0.843023    0.000003
      5          1           0        1.161463    0.742792    0.000003
 ---------------------------------------------------------------------

 SCF Done:  E(RHF) =  -94.1453294819     A.U. after    2 cycles

 The electronic state is 1-A.
 Alpha  occ. eigenvalues --  -15.50813 -11.29522  -1.21722  -0.85679  -0.71375
 Alpha  occ. eigenvalues --   -0.63184  -0.48358  -0.46606
 Alpha virt. eigenvalues --    0.03423   0.05238   0.05564   0.07821   0.10713
 Alpha virt. eigenvalues --    0.14471   0.16074   0.16256   0.19453   0.20690
 Alpha virt. eigenvalues --    0.22370   0.24962   0.30183   0.31890   0.32629

 Mulliken charges:
               1
     1  N    0.339872
     2  C   -0.518382
     3  H    0.058479
     4  H    0.036443
     5  H    0.083587
 Sum of Mulliken charges =  -0.00000

 Dipole moment (field-independent basis, Debye):
    X=             -1.7895    Y=              1.7585    Z=              0.0000  Tot=              2.5089

 Test job not archived.
 1\1\GINC-SE284\SP\RHF\Aug-CC-pVDZ\C1H3N1\OHZDE\08-Apr-2025\0\\#t hf au
 g-cc-pvdz iop(5/13=1,5/36=2,99/5=2) pseudo=read geom=check guess=(read
 ,tcheck) scf=(maxcycle=1)\\title\\0,1\N,0,0.667856,-0.153911,0.000001\
 C,0,-0.584861,0.028648,-0.000003\H,0,-1.084311,1.005725,0.000001\H,0,-
 1.242976,-0.843023,0.000003\H,0,1.161463,0.742792,0.000003\\Version=ES
 64L-G16RevC.01\State=1-A\HF=-94.1453295\RMSD=1.550e-02\Dipole=-0.70405
 86,0.6918322,0.0000012\Quadrupole=0.6168207,0.3443451,-0.9611658,1.621
 9194,-0.0000003,0.0000034\PG=C01 [X(C1H3N1)]\\@

 Normal termination of Gaussian 16 at Tue Apr  8 23:05:42 2025.
