 Gaussian 16, Revision C.01,

 ----------------------------------------------------------------------
 #t hf aug-cc-pvdz symm=none int=(grid=ultrafine) guess=(read,tcheck) s
 table=opt
 ----------------------------------------------------------------------
 -----
 title
 -----
 Symbolic Z-matrix:
 Charge =  0 Multiplicity = 2

 SCF Done:  E(UHF) =  -645.435129325     A.U. after   27 cycles
 Normal termination of Gaussian 16 at Tue Apr  8 23:33:54 2025.
 Gaussian 16:  ES64L-G16RevC.01  3-Jul-2019

 ----------------------------------------------------------------------
 #t hf aug-cc-pvdz iop(5/13=1,5/36=2,99/5=2) pseudo=read geom=check gue
 ss=(read,tcheck) scf=(maxcycle=1)
 ----------------------------------------------------------------------
 -----
 title
 -----
 Structure from the checkpoint file:  "BDE49_nonexpt_1447_mol2.chk"
 Charge =  0 Multiplicity = 2

                         Standard orientation:
 ---------------------------------------------------------------------
 Center     Atomic      Atomic             Coordinates (Angstroms)
 Number     Number       Type             X           Y           Z
 ---------------------------------------------------------------------
      1         15           0       -0.061602   -0.916030   -0.646730
      2          6           0       -1.367992    0.288028    0.023436
      3          6           0       -2.692596   -0.342378    0.395990
      4          1           0       -3.063053   -0.965229   -0.423289
      5          1           0       -3.417121    0.436832    0.635427
      6          1           0       -2.554231   -0.998870    1.260924
      7          6           0        1.504734   -0.169196    0.112827
      8          6           0        1.915420    1.245105   -0.191858
      9          1           0        2.828270    1.487845    0.354588
     10          1           0        1.102533    1.928479    0.062703
     11          1           0        2.088555    1.344672   -1.268543
     12          8           0        2.146481   -0.934240    0.794780
     13          8           0       -1.173770    1.481409    0.084817
 ---------------------------------------------------------------------

 SCF Done:  E(UHF) =  -645.778189933     A.U. after    2 cycles

 The electronic state is 2-A.
 Alpha  occ. eigenvalues --  -84.30659 -20.57444 -20.56265 -11.36577 -11.35952
 Alpha  occ. eigenvalues --  -11.26393 -11.24906  -6.77991  -4.30589  -4.30227
 Alpha  occ. eigenvalues --   -4.29552  -1.51074  -1.49731  -1.04408  -1.03010
 Alpha  occ. eigenvalues --   -0.92227  -0.78073  -0.73483  -0.66740  -0.65478
 Alpha  occ. eigenvalues --   -0.63862  -0.63223  -0.61146  -0.59923  -0.56531
 Alpha  occ. eigenvalues --   -0.54627  -0.52702  -0.51211  -0.39387  -0.37315
 Alpha  occ. eigenvalues --   -0.35482
 Alpha virt. eigenvalues --    0.03288   0.04243   0.04983   0.05347   0.05750
 Alpha virt. eigenvalues --    0.06849   0.07664   0.08615   0.09073   0.10525
 Alpha virt. eigenvalues --    0.11360   0.12020   0.12913   0.13560   0.14330

  Beta  occ. eigenvalues --  -84.29956 -20.56543 -20.55779 -11.37131 -11.36298
  Beta  occ. eigenvalues --  -11.26369 -11.24886  -6.77097  -4.29660  -4.29115
  Beta  occ. eigenvalues --   -4.27229  -1.49117  -1.48655  -1.04080  -1.02910
  Beta  occ. eigenvalues --   -0.88464  -0.78280  -0.72457  -0.66574  -0.64928
  Beta  occ. eigenvalues --   -0.63424  -0.62691  -0.60986  -0.58880  -0.56203
  Beta  occ. eigenvalues --   -0.51230  -0.50801  -0.49075  -0.38685  -0.35858
  Beta virt. eigenvalues --    0.01709   0.03325   0.04391   0.05030   0.05518
  Beta virt. eigenvalues --    0.05793   0.06918   0.07790   0.08966   0.09485
  Beta virt. eigenvalues --    0.11190   0.11864   0.12843   0.13446   0.13749

 Mulliken charges and spin densities:
               1          2
     1  P    1.218066   1.176079
     2  C    0.618936  -0.309528
     3  C   -0.571111   0.030651
     4  H    0.260834  -0.008864
     5  H    0.135726  -0.000117
     6  H    0.258095  -0.006737
     7  C    0.476344  -0.189338
     8  C   -0.596232   0.002319
     9  H    0.136346   0.001404
    10  H    0.213832  -0.002171
    11  H    0.265522  -0.011328
    12  O   -1.188513   0.098106
    13  O   -1.227846   0.219521
 Sum of Mulliken charges =  -0.00000   1.00000

 Dipole moment (field-independent basis, Debye):
    X=             -2.0159    Y=             -0.0937    Z=             -1.1928  Tot=              2.3442
                          Isotropic Fermi Contact Couplings
        Atom                 a.u.       MegaHertz       Gauss      10(-4) cm-1
     1  P(31)              0.22371     405.16412     144.57263     135.14820
     2  C(13)             -0.06713     -75.46234     -26.92684     -25.17153
     3  C(13)              0.00371       4.17458       1.48959       1.39249
     4  H(1)              -0.00248     -11.08177      -3.95425      -3.69648
     5  H(1)              -0.00001      -0.04287      -0.01530      -0.01430
     6  H(1)              -0.00173      -7.73732      -2.76087      -2.58089
     7  C(13)             -0.04611     -51.83121     -18.49466     -17.28903
     8  C(13)              0.00445       4.99823       1.78349       1.66723

 Normal termination of Gaussian 16 at Tue Apr  8 23:33:59 2025.
