 Gaussian 16, Revision C.01,

 ----------------------------------------------------------------------
 #t hf aug-cc-pvdz symm=none int=(grid=ultrafine) guess=(read,tcheck) s
 table=(opt,rrhf)
 ----------------------------------------------------------------------
 -----
 title
 -----
 Symbolic Z-matrix:
 Charge =  0 Multiplicity = 1

 SCF Done:  E(RHF) =  -999.465937061     A.U. after   11 cycles
 Normal termination of Gaussian 16 at Tue Apr  8 23:40:08 2025.
 Gaussian 16:  ES64L-G16RevC.01  3-Jul-2019

 ----------------------------------------------------------------------
 #t hf aug-cc-pvdz iop(5/13=1,5/36=2,99/5=2) pseudo=read geom=check gue
 ss=(read,tcheck) scf=(maxcycle=1)
 ----------------------------------------------------------------------
 -----
 title
 -----
 Structure from the checkpoint file:  "BDE49_nonexpt_163_mol1.chk"
 Charge =  0 Multiplicity = 1

                         Standard orientation:
 ---------------------------------------------------------------------
 Center     Atomic      Atomic             Coordinates (Angstroms)
 Number     Number       Type             X           Y           Z
 ---------------------------------------------------------------------
      1         17           0        1.534906   -0.544479   -0.000012
      2         17           0       -1.534906   -0.544479    0.000000
      3          7           0        0.000000    1.739858    0.000009
      4          5           0        0.000000    0.354920    0.000025
      5          1           0        0.851432    2.279334   -0.000003
      6          1           0       -0.851431    2.279334    0.000004
 ---------------------------------------------------------------------

 SCF Done:  E(RHF) =  -999.701258501     A.U. after    2 cycles

 The electronic state is 1-A.
 Alpha  occ. eigenvalues -- -105.56690-105.56689 -15.52595 -10.61721 -10.61682
 Alpha  occ. eigenvalues --   -7.78611  -7.78585  -7.78300  -7.78297  -7.78284
 Alpha  occ. eigenvalues --   -7.78277  -7.71173  -1.21108  -1.08387  -1.05037
 Alpha  occ. eigenvalues --   -0.77374  -0.75074  -0.63281  -0.56071  -0.55664
 Alpha  occ. eigenvalues --   -0.49345  -0.47309  -0.47054  -0.45820
 Alpha virt. eigenvalues --    0.02944   0.05446   0.05900   0.05994   0.07208
 Alpha virt. eigenvalues --    0.08267   0.12880   0.13253   0.15459   0.15672
 Alpha virt. eigenvalues --    0.16067   0.16427   0.17814   0.18980   0.19533

 Mulliken charges:
               1
     1  Cl  -0.342269
     2  Cl  -0.342269
     3  N    0.223715
     4  B    0.369656
     5  H    0.045584
     6  H    0.045583
 Sum of Mulliken charges =  -0.00000

 Dipole moment (field-independent basis, Debye):
    X=              0.0000    Y=              2.7075    Z=              0.0000  Tot=              2.7075

 Test job not archived.
 1\1\GINC-SE461\SP\RHF\Aug-CC-pVDZ\B1Cl2H2N1\OHZDE\08-Apr-2025\0\\#t hf
  aug-cc-pvdz iop(5/13=1,5/36=2,99/5=2) pseudo=read geom=check guess=(r
 ead,tcheck) scf=(maxcycle=1)\\title\\0,1\Cl,0,1.534906,-0.544479,-0.00
 0012\Cl,0,-1.534906,-0.544479,0.\N,0,0.,1.739858,0.000009\B,0,0.,0.354
 92,0.000025\H,0,0.851432,2.279334,-0.000003\H,0,-0.851431,2.279334,0.0
 00004\\Version=ES64L-G16RevC.01\State=1-A\HF=-999.7012585\RMSD=6.368e-
 03\Dipole=0.0000005,1.0652312,0.0000128\Quadrupole=-1.5058869,3.210778
 1,-1.7048912,0.0000023,-0.0000013,-0.0000149\PG=C01 [X(B1Cl2H2N1)]\\@

 Normal termination of Gaussian 16 at Tue Apr  8 23:40:10 2025.
