 Gaussian 16, Revision C.01,

 ----------------------------------------------------------------------
 #t hf aug-cc-pvdz symm=none int=(grid=ultrafine) guess=(read,tcheck) s
 table=(opt,rrhf)
 ----------------------------------------------------------------------
 -----
 title
 -----
 Symbolic Z-matrix:
 Charge =  0 Multiplicity = 1

 SCF Done:  E(RHF) =  -134.272429326     A.U. after   12 cycles
 Normal termination of Gaussian 16 at Tue Apr  8 22:39:24 2025.
 Gaussian 16:  ES64L-G16RevC.01  3-Jul-2019

 ----------------------------------------------------------------------
 #t hf aug-cc-pvdz iop(5/13=1,5/36=2,99/5=2) pseudo=read geom=check gue
 ss=(read,tcheck) scf=(maxcycle=1)
 ----------------------------------------------------------------------
 -----
 title
 -----
 Structure from the checkpoint file:  "BDE49_expt_1280_mol1.chk"
 Charge =  0 Multiplicity = 1

                         Standard orientation:
 ---------------------------------------------------------------------
 Center     Atomic      Atomic             Coordinates (Angstroms)
 Number     Number       Type             X           Y           Z
 ---------------------------------------------------------------------
      1          7           0        1.208039   -0.324131   -0.117657
      2          6           0        0.048630    0.561100    0.055465
      3          1           0        1.266359   -0.970659    0.664531
      4          1           0        2.067740    0.216092   -0.106265
      5          6           0       -1.248083   -0.238882   -0.028412
      6          1           0        0.071439    1.297817   -0.754149
      7          1           0        0.063012    1.131067    0.999558
      8          1           0       -1.296047   -0.784772   -0.973417
      9          1           0       -2.121119    0.415382    0.045781
     10          1           0       -1.310942   -0.969319    0.785246
 ---------------------------------------------------------------------

 SCF Done:  E(RHF) =  -134.424399907     A.U. after    2 cycles

 The electronic state is 1-A.
 Alpha  occ. eigenvalues --  -15.48153 -11.25515 -11.22070  -1.17434  -0.99101
 Alpha  occ. eigenvalues --   -0.83023  -0.68789  -0.65022  -0.59843  -0.52847
 Alpha  occ. eigenvalues --   -0.52498  -0.49817  -0.42462
 Alpha virt. eigenvalues --    0.03631   0.04618   0.04848   0.05158   0.07052
 Alpha virt. eigenvalues --    0.07538   0.07638   0.11714   0.13739   0.14119
 Alpha virt. eigenvalues --    0.15901   0.16758   0.17593   0.17980   0.19606

 Mulliken charges:
               1
     1  N    0.085465
     2  C   -0.583099
     3  H    0.127679
     4  H    0.128769
     5  C   -0.399374
     6  H    0.076797
     7  H    0.092507
     8  H    0.184573
     9  H    0.151910
    10  H    0.134773
 Sum of Mulliken charges =  -0.00000

 Dipole moment (field-independent basis, Debye):
    X=              0.0889    Y=              0.7648    Z=              1.2076  Tot=              1.4322

 Test job not archived.
 1\1\GINC-SE334\SP\RHF\Aug-CC-pVDZ\C2H7N1\OHZDE\08-Apr-2025\0\\#t hf au
 g-cc-pvdz iop(5/13=1,5/36=2,99/5=2) pseudo=read geom=check guess=(read
 ,tcheck) scf=(maxcycle=1)\\title\\0,1\N,0,1.208039,-0.324131,-0.117657
 \C,0,0.04863,0.5611,0.055465\H,0,1.266359,-0.970659,0.664531\H,0,2.067
 74,0.216092,-0.106265\C,0,-1.248083,-0.238882,-0.028412\H,0,0.071439,1
 .297817,-0.754149\H,0,0.063012,1.131067,0.999558\H,0,-1.296047,-0.7847
 72,-0.973417\H,0,-2.121119,0.415382,0.045781\H,0,-1.310942,-0.969319,0
 .785246\\Version=ES64L-G16RevC.01\State=1-A\HF=-134.4243999\RMSD=1.116

 Normal termination of Gaussian 16 at Tue Apr  8 22:39:26 2025.
