 Gaussian 16, Revision C.01,

 ----------------------------------------------------------------------
 #t hf aug-cc-pvdz symm=none int=(grid=ultrafine) guess=(read,tcheck) s
 table=(opt,rrhf)
 ----------------------------------------------------------------------
 -----
 title
 -----
 Symbolic Z-matrix:
 Charge =  0 Multiplicity = 1

 SCF Done:  E(RHF) =  -369.885349884     A.U. after   15 cycles
 Normal termination of Gaussian 16 at Wed Apr  9 00:37:58 2025.
 Gaussian 16:  ES64L-G16RevC.01  3-Jul-2019

 ----------------------------------------------------------------------
 #t hf aug-cc-pvdz iop(5/13=1,5/36=2,99/5=2) pseudo=read geom=check gue
 ss=(read,tcheck) scf=(maxcycle=1)
 ----------------------------------------------------------------------
 -----
 title
 -----
 Structure from the checkpoint file:  "BDE49_nonexpt_529_mol1.chk"
 Charge =  0 Multiplicity = 1

                         Standard orientation:
 ---------------------------------------------------------------------
 Center     Atomic      Atomic             Coordinates (Angstroms)
 Number     Number       Type             X           Y           Z
 ---------------------------------------------------------------------
      1          1           0       -4.201128    0.582236   -0.000053
      2          1           0       -3.898114   -1.454974   -0.000054
      3          5           0       -3.450811   -0.347216    0.000012
      4          6           0       -1.940725   -0.124464    0.000005
      5          6           0       -1.375968    1.174890    0.000003
      6          6           0       -0.010968    1.379233    0.000000
      7          6           0        0.859887    0.276591   -0.000001
      8          6           0       -1.036529   -1.205972    0.000003
      9          1           0       -1.431061   -2.216712    0.000004
     10          6           0        0.340738   -1.025745    0.000000
     11          1           0        0.996792   -1.885766   -0.000001
     12          1           0       -2.039134    2.033464    0.000004
     13          8           0        2.180516    0.575281   -0.000004
     14          6           0        3.129249   -0.486183    0.000000
     15          1           0        3.030382   -1.109860    0.894479
     16          1           0        4.106688   -0.007500    0.000002
     17          1           0        3.030387   -1.109862   -0.894477
     18          1           0        0.421016    2.372708    0.000000
 ---------------------------------------------------------------------

 SCF Done:  E(RHF) =  -370.266098598     A.U. after    2 cycles

 The electronic state is 1-A.
 Alpha  occ. eigenvalues --  -20.58566 -11.32554 -11.30505 -11.25960 -11.25590
 Alpha  occ. eigenvalues --  -11.24210 -11.23689 -11.21083  -7.58219  -1.51138
 Alpha  occ. eigenvalues --   -1.15355  -1.03242  -1.02199  -0.95534  -0.84721
 Alpha  occ. eigenvalues --   -0.82729  -0.74431  -0.70762  -0.68411  -0.66681
 Alpha  occ. eigenvalues --   -0.63901  -0.61136  -0.60244  -0.59399  -0.54086
 Alpha  occ. eigenvalues --   -0.53424  -0.49424  -0.48244  -0.47578  -0.46946
 Alpha  occ. eigenvalues --   -0.35646  -0.32804
 Alpha virt. eigenvalues --    0.03047   0.03455   0.03899   0.04100   0.04989
 Alpha virt. eigenvalues --    0.05136   0.05246   0.07120   0.07243   0.07825
 Alpha virt. eigenvalues --    0.08150   0.10049   0.10229   0.10692   0.12683

 Mulliken charges:
               1
     1  H    0.243071
     2  H    0.237454
     3  B   -0.920118
     4  C    0.056096
     5  C    0.741225
     6  C   -0.080081
     7  C    1.922240
     8  C    0.522678
     9  H   -0.264016
    10  C   -0.126982
    11  H   -0.413631
    12  H   -0.275571
    13  O   -1.862154
    14  C    0.162610
    15  H    0.177327
    16  H   -0.031822
    17  H    0.177324
    18  H   -0.265650
 Sum of Mulliken charges =   0.00000

 Dipole moment (field-independent basis, Debye):
    X=              2.5998    Y=             -0.9709    Z=              0.0001  Tot=              2.7752

 Test job not archived.
 1\1\GINC-SE015\SP\RHF\Aug-CC-pVDZ\C7H9B1O1\OHZDE\09-Apr-2025\0\\#t hf
 aug-cc-pvdz iop(5/13=1,5/36=2,99/5=2) pseudo=read geom=check guess=(re
 ad,tcheck) scf=(maxcycle=1)\\title\\0,1\H,0,-4.201128,0.582236,-0.0000
 53\H,0,-3.898114,-1.454974,-0.000054\B,0,-3.450811,-0.347216,0.000012\
 C,0,-1.940725,-0.124464,0.000005\C,0,-1.375968,1.17489,0.000003\C,0,-0
 .010968,1.379233,0.\C,0,0.859887,0.276591,-0.000001\C,0,-1.036529,-1.2
 05972,0.000003\H,0,-1.431061,-2.216712,0.000004\C,0,0.340738,-1.025745
 ,0.\H,0,0.996792,-1.885766,-0.000001\H,0,-2.039134,2.033464,0.000004\O

 Normal termination of Gaussian 16 at Wed Apr  9 00:38:07 2025.
