 Gaussian 16, Revision C.01,

 ----------------------------------------------------------------------
 #t hf aug-cc-pvdz symm=none int=(grid=ultrafine) guess=(read,tcheck) s
 table=(opt,rrhf)
 ----------------------------------------------------------------------
 -----
 title
 -----
 Symbolic Z-matrix:
 Charge =  0 Multiplicity = 1

 SCF Done:  E(RHF) =  -948.018001072     A.U. after   14 cycles
 Normal termination of Gaussian 16 at Wed Apr  9 00:26:01 2025.
 Gaussian 16:  ES64L-G16RevC.01  3-Jul-2019

 ----------------------------------------------------------------------
 #t hf aug-cc-pvdz iop(5/13=1,5/36=2,99/5=2) pseudo=read geom=check gue
 ss=(read,tcheck) scf=(maxcycle=1)
 ----------------------------------------------------------------------
 -----
 title
 -----
 Structure from the checkpoint file:  "BDE49_nonexpt_2743_mol1.chk"
 Charge =  0 Multiplicity = 1

                         Standard orientation:
 ---------------------------------------------------------------------
 Center     Atomic      Atomic             Coordinates (Angstroms)
 Number     Number       Type             X           Y           Z
 ---------------------------------------------------------------------
      1         16           0       -1.958237    0.230654   -0.116359
      2         16           0       -0.238064   -0.925464    0.053474
      3          6           0        1.109463    0.327551    0.015422
      4          8           0        0.915836    1.505546    0.031456
      5          6           0        2.470161   -0.332460   -0.047506
      6          1           0        2.448732   -1.372793    0.280886
      7          1           0        3.169523    0.239921    0.563496
      8          1           0        2.814952   -0.303001   -1.085088
      9          1           0       -2.096814    0.537922    1.187726
 ---------------------------------------------------------------------

 SCF Done:  E(RHF) =  -948.291765644     A.U. after    2 cycles

 The electronic state is 1-A.
 Alpha  occ. eigenvalues --  -93.99576 -93.98959 -20.56276 -11.38776 -11.27010
 Alpha  occ. eigenvalues --   -8.27597  -8.26908  -6.25387  -6.25164  -6.24962
 Alpha  occ. eigenvalues --   -6.24730  -6.24550  -6.24294  -1.50600  -1.11371
 Alpha  occ. eigenvalues --   -1.04331  -0.93417  -0.76053  -0.66818  -0.65733
 Alpha  occ. eigenvalues --   -0.63531  -0.58193  -0.57452  -0.53277  -0.48953
 Alpha  occ. eigenvalues --   -0.43283  -0.39845  -0.38415
 Alpha virt. eigenvalues --    0.03307   0.04289   0.05075   0.05440   0.07385
 Alpha virt. eigenvalues --    0.08860   0.09729   0.11353   0.11894   0.12090
 Alpha virt. eigenvalues --    0.12947   0.13184   0.14963   0.15674   0.15751

 Mulliken charges:
               1
     1  S   -0.244696
     2  S   -0.026507
     3  C    0.823072
     4  O   -1.158419
     5  C   -0.474992
     6  H    0.187833
     7  H    0.200526
     8  H    0.275355
     9  H    0.417829
 Sum of Mulliken charges =  -0.00000

 Dipole moment (field-independent basis, Debye):
    X=              1.4830    Y=             -1.4129    Z=              0.7840  Tot=              2.1932

 Test job not archived.
 1\1\GINC-SE166\SP\RHF\Aug-CC-pVDZ\C2H4O1S2\OHZDE\09-Apr-2025\0\\#t hf
 aug-cc-pvdz iop(5/13=1,5/36=2,99/5=2) pseudo=read geom=check guess=(re
 ad,tcheck) scf=(maxcycle=1)\\title\\0,1\S,0,-1.958237,0.230654,-0.1163
 59\S,0,-0.238064,-0.925464,0.053474\C,0,1.109463,0.327551,0.015422\O,0
 ,0.915836,1.505546,0.031456\C,0,2.470161,-0.33246,-0.047506\H,0,2.4487
 32,-1.372793,0.280886\H,0,3.169523,0.239921,0.563496\H,0,2.814952,-0.3
 03001,-1.085088\H,0,-2.096814,0.537922,1.187726\\Version=ES64L-G16RevC
 .01\State=1-A\HF=-948.2917656\RMSD=8.611e-03\Dipole=0.583454,-0.555868

 Normal termination of Gaussian 16 at Wed Apr  9 00:26:05 2025.
