 Gaussian 16, Revision C.01,

 ----------------------------------------------------------------------
 #t hf aug-cc-pvdz symm=none int=(grid=ultrafine) guess=(read,tcheck) s
 table=(opt,rrhf)
 ----------------------------------------------------------------------
 -----
 title
 -----
 Symbolic Z-matrix:
 Charge =  0 Multiplicity = 1

 SCF Done:  E(RHF) =  -143.402453699     A.U. after   13 cycles
 Normal termination of Gaussian 16 at Wed Apr  9 00:48:56 2025.
 Gaussian 16:  ES64L-G16RevC.01  3-Jul-2019

 ----------------------------------------------------------------------
 #t hf aug-cc-pvdz iop(5/13=1,5/36=2,99/5=2) pseudo=read geom=check gue
 ss=(read,tcheck) scf=(maxcycle=1)
 ----------------------------------------------------------------------
 -----
 title
 -----
 Structure from the checkpoint file:  "BDE49_nonexpt_88_mol1.chk"
 Charge =  0 Multiplicity = 1

                         Standard orientation:
 ---------------------------------------------------------------------
 Center     Atomic      Atomic             Coordinates (Angstroms)
 Number     Number       Type             X           Y           Z
 ---------------------------------------------------------------------
      1          5           0        1.921764   -0.364865    0.000066
      2          5           0        0.608643    0.623086   -0.000217
      3          6           0       -0.824249    0.099589   -0.000019
      4          7           0       -1.902787   -0.321355    0.000111
      5          1           0        2.433653   -0.725079   -1.016878
      6          1           0        2.434451   -0.723441    1.017187
      7          1           0        0.744862    1.809367   -0.000213
 ---------------------------------------------------------------------

 SCF Done:  E(RHF) =  -143.541520795     A.U. after    2 cycles

 The electronic state is 1-A.
 Alpha  occ. eigenvalues --  -15.53679 -11.27302  -7.64116  -7.61666  -1.24302
 Alpha  occ. eigenvalues --   -0.85449  -0.72717  -0.63550  -0.58846  -0.54095
 Alpha  occ. eigenvalues --   -0.53238  -0.51199  -0.46754
 Alpha virt. eigenvalues --    0.00855   0.02319   0.03434   0.03855   0.04260
 Alpha virt. eigenvalues --    0.05968   0.06913   0.07049   0.08676   0.08824
 Alpha virt. eigenvalues --    0.12864   0.13048   0.13377   0.14581   0.14737

 Mulliken charges:
               1
     1  B   -0.580422
     2  B    0.128609
     3  C   -1.114979
     4  N    0.767114
     5  H    0.277107
     6  H    0.277117
     7  H    0.245454
 Sum of Mulliken charges =  -0.00000

 Dipole moment (field-independent basis, Debye):
    X=              3.7933    Y=              1.2307    Z=             -0.0006  Tot=              3.9879

 Test job not archived.
 1\1\GINC-SE460\SP\RHF\Aug-CC-pVDZ\C1H3B2N1\OHZDE\09-Apr-2025\0\\#t hf
 aug-cc-pvdz iop(5/13=1,5/36=2,99/5=2) pseudo=read geom=check guess=(re
 ad,tcheck) scf=(maxcycle=1)\\title\\0,1\B,0,1.921764,-0.364865,0.00006
 6\B,0,0.608643,0.623086,-0.000217\C,0,-0.824249,0.099589,-0.000019\N,0
 ,-1.902787,-0.321355,0.000111\H,0,2.433653,-0.725079,-1.016878\H,0,2.4
 34451,-0.723441,1.017187\H,0,0.744862,1.809367,-0.000213\\Version=ES64
 L-G16RevC.01\State=1-A\HF=-143.5415208\RMSD=2.162e-02\Dipole=1.4923941
 ,0.4841996,-0.0002314\Quadrupole=-3.7188935,1.794432,1.9244615,-0.4087

 Normal termination of Gaussian 16 at Wed Apr  9 00:48:58 2025.
