 Gaussian 16, Revision C.01,

 ----------------------------------------------------------------------
 #t hf aug-cc-pvdz symm=none int=(grid=ultrafine) guess=(read,tcheck) s
 table=(opt,rrhf)
 ----------------------------------------------------------------------
 -----
 title
 -----
 Symbolic Z-matrix:
 Charge =  0 Multiplicity = 1

 SCF Done:  E(RHF) =  -1174.28891703     A.U. after   16 cycles
 Normal termination of Gaussian 16 at Tue Apr  8 23:36:29 2025.
 Gaussian 16:  ES64L-G16RevC.01  3-Jul-2019

 ----------------------------------------------------------------------
 #t hf aug-cc-pvdz iop(5/13=1,5/36=2,99/5=2) pseudo=read geom=check gue
 ss=(read,tcheck) scf=(maxcycle=1)
 ----------------------------------------------------------------------
 -----
 title
 -----
 Structure from the checkpoint file:  "BDE49_nonexpt_1463_mol1.chk"
 Charge =  0 Multiplicity = 1

                         Standard orientation:
 ---------------------------------------------------------------------
 Center     Atomic      Atomic             Coordinates (Angstroms)
 Number     Number       Type             X           Y           Z
 ---------------------------------------------------------------------
      1         16           0        0.886447    0.641188    0.519521
      2          8           0        1.002707    2.089113    0.386269
      3         15           0        2.086627   -0.256776   -1.160323
      4          6           0       -0.824134    0.195833    0.191327
      5          6           0       -1.586863    1.003466   -0.651225
      6          6           0       -2.904368    0.643626   -0.919603
      7          6           0       -3.445259   -0.508498   -0.348771
      8          6           0       -2.674704   -1.302983    0.498731
      9          6           0       -1.354731   -0.953523    0.774364
     10          1           0       -3.103193   -2.189067    0.952658
     11          1           0       -0.746258   -1.540234    1.450591
     12          1           0       -1.155062    1.904840   -1.067449
     13          1           0       -3.510790    1.265985   -1.567289
     14          1           0       -4.472758   -0.782852   -0.558941
     15          8           0        1.275914   -0.045710    1.750836
     16          7           0        2.573961   -1.732007   -0.499292
     17          1           0        2.024989   -2.533139   -0.779048
     18          1           0        2.808517   -1.758062    0.487455
     19          1           0        3.165662    0.534468   -0.696197
 ---------------------------------------------------------------------

 SCF Done:  E(RHF) =  -1174.83603322     A.U. after    2 cycles

 The electronic state is 1-A.
 Alpha  occ. eigenvalues --  -94.17297 -84.34251 -20.53286 -20.53154 -15.52957
 Alpha  occ. eigenvalues --  -11.28437 -11.27368 -11.27297 -11.27093 -11.26569
 Alpha  occ. eigenvalues --  -11.26525  -8.42831  -6.80878  -6.40906  -6.40676
 Alpha  occ. eigenvalues --   -6.40587  -4.33558  -4.32912  -4.32489  -1.53941
 Alpha  occ. eigenvalues --   -1.42648  -1.20245  -1.18491  -1.06442  -1.04388
 Alpha  occ. eigenvalues --   -0.95360  -0.87451  -0.86310  -0.81175  -0.74443
 Alpha  occ. eigenvalues --   -0.73601  -0.68709  -0.67561  -0.66998  -0.64828
 Alpha  occ. eigenvalues --   -0.62971  -0.62670  -0.58937  -0.55461  -0.53888
 Alpha  occ. eigenvalues --   -0.53237  -0.52543  -0.48979  -0.47700  -0.46053
 Alpha  occ. eigenvalues --   -0.42925  -0.37558  -0.36929  -0.36318
 Alpha virt. eigenvalues --    0.02597   0.03080   0.03632   0.04783   0.05457
 Alpha virt. eigenvalues --    0.05841   0.06653   0.07264   0.07531   0.07977
 Alpha virt. eigenvalues --    0.08388   0.09436   0.09463   0.11156   0.12013

 Mulliken charges:
               1
     1  S    3.471724
     2  O   -1.628132
     3  P   -0.024404
     4  C    0.835440
     5  C   -0.643268
     6  C    0.553602
     7  C   -0.045529
     8  C    0.499092
     9  C   -0.577225
    10  H   -0.220676
    11  H   -0.280076
    12  H   -0.248596
    13  H   -0.212433
    14  H   -0.204197
    15  O   -1.650068
    16  N   -0.126140
    17  H    0.081934
    18  H    0.014753
    19  H    0.404201
 Sum of Mulliken charges =   0.00000

 Dipole moment (field-independent basis, Debye):
    X=             -2.4215    Y=             -3.6143    Z=             -3.0122  Tot=              5.2916

 Test job not archived.
 1\1\GINC-SE103\SP\RHF\Aug-CC-pVDZ\C6H8N1O2P1S1\OHZDE\08-Apr-2025\0\\#t
  hf aug-cc-pvdz iop(5/13=1,5/36=2,99/5=2) pseudo=read geom=check guess
 =(read,tcheck) scf=(maxcycle=1)\\title\\0,1\S,0,-0.886447,-0.641188,0.
 519521\O,0,-1.002707,-2.089113,0.386269\P,0,-2.086627,0.256776,-1.1603
 23\C,0,0.824134,-0.195833,0.191327\C,0,1.586863,-1.003466,-0.651225\C,
 0,2.904368,-0.643626,-0.919603\C,0,3.445259,0.508499,-0.348771\C,0,2.6
 74704,1.302983,0.498731\C,0,1.354731,0.953523,0.774364\H,0,3.103192,2.
 189068,0.952658\H,0,0.746258,1.540234,1.450591\H,0,1.155062,-1.90484,-

 Normal termination of Gaussian 16 at Tue Apr  8 23:36:46 2025.
