 Gaussian 16, Revision C.01,

 ----------------------------------------------------------------------
 #t hf aug-cc-pvdz symm=none int=(grid=ultrafine) guess=(read,tcheck) s
 table=(opt,rrhf)
 ----------------------------------------------------------------------
 -----
 title
 -----
 Symbolic Z-matrix:
 Charge =  0 Multiplicity = 1

 SCF Done:  E(RHF) =  -1045.15225146     A.U. after   14 cycles
 Normal termination of Gaussian 16 at Tue Apr  8 23:17:49 2025.
 Gaussian 16:  ES64L-G16RevC.01  3-Jul-2019

 ----------------------------------------------------------------------
 #t hf aug-cc-pvdz iop(5/13=1,5/36=2,99/5=2) pseudo=read geom=check gue
 ss=(read,tcheck) scf=(maxcycle=1)
 ----------------------------------------------------------------------
 -----
 title
 -----
 Structure from the checkpoint file:  "BDE49_nonexpt_1059_mol1.chk"
 Charge =  0 Multiplicity = 1

                         Standard orientation:
 ---------------------------------------------------------------------
 Center     Atomic      Atomic             Coordinates (Angstroms)
 Number     Number       Type             X           Y           Z
 ---------------------------------------------------------------------
      1         17           0        1.880645   -0.152550   -0.000074
      2          8           0        0.526115    0.908635    0.000129
      3          6           0       -0.727278    0.336669    0.000276
      4         16           0       -1.124153   -1.231554   -0.000050
      5          8           0       -1.590200    1.351843   -0.000073
      6          1           0       -1.108180    2.194374   -0.000049
 ---------------------------------------------------------------------

 SCF Done:  E(RHF) =  -1045.46287484     A.U. after    2 cycles

 The electronic state is 1-A.
 Alpha  occ. eigenvalues -- -105.66138 -93.93542 -20.68647 -20.64363 -11.46734
 Alpha  occ. eigenvalues --  -10.70270  -8.21916  -7.87279  -7.86658  -7.86643
 Alpha  occ. eigenvalues --   -6.19782  -6.19455  -6.19314  -1.61255  -1.51601
 Alpha  occ. eigenvalues --   -1.09637  -1.06731  -0.85623  -0.79459  -0.70343
 Alpha  occ. eigenvalues --   -0.69860  -0.60386  -0.59866  -0.57584  -0.50581
 Alpha  occ. eigenvalues --   -0.48793  -0.39518  -0.37551
 Alpha virt. eigenvalues --    0.02760   0.04216   0.07883   0.08108   0.09016
 Alpha virt. eigenvalues --    0.10841   0.12280   0.13190   0.14169   0.14614
 Alpha virt. eigenvalues --    0.15635   0.15654   0.16745   0.20846   0.21232

 Mulliken charges:
               1
     1  Cl   0.474913
     2  O   -1.081158
     3  C    1.037043
     4  S    0.284305
     5  O   -1.069692
     6  H    0.354588
 Sum of Mulliken charges =   0.00000

 Dipole moment (field-independent basis, Debye):
    X=              1.4815    Y=              2.7193    Z=              0.0002  Tot=              3.0967

 Test job not archived.
 1\1\GINC-SE339\SP\RHF\Aug-CC-pVDZ\C1H1Cl1O2S1\OHZDE\08-Apr-2025\0\\#t
 hf aug-cc-pvdz iop(5/13=1,5/36=2,99/5=2) pseudo=read geom=check guess=
 (read,tcheck) scf=(maxcycle=1)\\title\\0,1\Cl,0,-1.880645,-0.15255,0.0
 00074\O,0,-0.526115,0.908635,-0.000129\C,0,0.727278,0.336669,-0.000276
 \S,0,1.124153,-1.231554,0.00005\O,0,1.5902,1.351843,0.000073\H,0,1.108
 18,2.194374,0.000049\\Version=ES64L-G16RevC.01\State=1-A\HF=-1045.4628
 748\RMSD=6.684e-03\Dipole=-0.5828808,1.0698679,-0.0000653\Quadrupole=-
 2.1677794,3.2091183,-1.0413389,2.5949957,-0.0003981,-0.0007838\PG=C01

 Normal termination of Gaussian 16 at Tue Apr  8 23:17:51 2025.
