 Gaussian 16, Revision C.01,

 ----------------------------------------------------------------------
 #t hf aug-cc-pvdz symm=none int=(grid=ultrafine) guess=(read,tcheck) s
 table=(opt,rrhf)
 ----------------------------------------------------------------------
 -----
 title
 -----
 Symbolic Z-matrix:
 Charge =  0 Multiplicity = 1

 SCF Done:  E(RHF) =  -983.285372342     A.U. after   13 cycles
 Normal termination of Gaussian 16 at Wed Apr  9 00:35:18 2025.
 Gaussian 16:  ES64L-G16RevC.01  3-Jul-2019

 ----------------------------------------------------------------------
 #t hf aug-cc-pvdz iop(5/13=1,5/36=2,99/5=2) pseudo=read geom=check gue
 ss=(read,tcheck) scf=(maxcycle=1)
 ----------------------------------------------------------------------
 -----
 title
 -----
 Structure from the checkpoint file:  "BDE49_nonexpt_463_mol1.chk"
 Charge =  0 Multiplicity = 1

                         Standard orientation:
 ---------------------------------------------------------------------
 Center     Atomic      Atomic             Coordinates (Angstroms)
 Number     Number       Type             X           Y           Z
 ---------------------------------------------------------------------
      1          1           0       -0.368907    1.810161   -1.316587
      2          1           0       -1.389847    2.227511    0.451034
      3          5           0       -0.622841    1.580535   -0.182901
      4          6           0        0.077908    0.378509    0.521510
      5         17           0        1.626865   -0.223388   -0.094926
      6         17           0       -1.372158   -0.628734   -0.078551
      7          1           0        0.075489    0.274667    1.600114
 ---------------------------------------------------------------------

 SCF Done:  E(RHF) =  -983.505996036     A.U. after    2 cycles

 The electronic state is 1-A.
 Alpha  occ. eigenvalues -- -105.59483-105.58707 -11.36793 -10.64244 -10.63510
 Alpha  occ. eigenvalues --   -7.81157  -7.80813  -7.80762  -7.80461  -7.80059
 Alpha  occ. eigenvalues --   -7.80041  -7.62569  -1.16561  -1.06172  -0.89246
 Alpha  occ. eigenvalues --   -0.74695  -0.64748  -0.60198  -0.56381  -0.51139
 Alpha  occ. eigenvalues --   -0.49769  -0.48401  -0.46549  -0.44646
 Alpha virt. eigenvalues --    0.03239   0.04007   0.04663   0.05092   0.07835
 Alpha virt. eigenvalues --    0.08603   0.09181   0.10114   0.12092   0.12894
 Alpha virt. eigenvalues --    0.13770   0.15067   0.15746   0.16925   0.17878

 Mulliken charges:
               1
     1  H    0.244957
     2  H    0.237945
     3  B    0.054979
     4  C   -0.461503
     5  Cl  -0.096190
     6  Cl  -0.177481
     7  H    0.197294
 Sum of Mulliken charges =  -0.00000

 Dipole moment (field-independent basis, Debye):
    X=             -0.0679    Y=              0.8793    Z=              1.2015  Tot=              1.4905

 Test job not archived.
 1\1\GINC-SE058\SP\RHF\Aug-CC-pVDZ\C1H3B1Cl2\OHZDE\09-Apr-2025\0\\#t hf
  aug-cc-pvdz iop(5/13=1,5/36=2,99/5=2) pseudo=read geom=check guess=(r
 ead,tcheck) scf=(maxcycle=1)\\title\\0,1\H,0,-0.368907,1.810161,-1.316
 587\H,0,-1.389847,2.227511,0.451034\B,0,-0.622841,1.580535,-0.182901\C
 ,0,0.077908,0.378509,0.52151\Cl,0,1.626865,-0.223387,-0.094926\Cl,0,-1
 .372158,-0.628734,-0.078551\H,0,0.075489,0.274667,1.600114\\Version=ES
 64L-G16RevC.01\State=1-A\HF=-983.505996\RMSD=7.288e-03\Dipole=-0.02671
 88,0.3459593,0.4727258\Quadrupole=-1.2038069,0.2045473,0.9992596,0.435

 Normal termination of Gaussian 16 at Wed Apr  9 00:35:20 2025.
