 Gaussian 16, Revision C.01,

 ----------------------------------------------------------------------
 #t hf aug-cc-pvdz symm=none int=(grid=ultrafine) guess=(read,tcheck) s
 table=(opt,rrhf)
 ----------------------------------------------------------------------
 -----
 title
 -----
 Symbolic Z-matrix:
 Charge =  0 Multiplicity = 1

 SCF Done:  E(RHF) =  -1073.01659761     A.U. after   14 cycles
 Normal termination of Gaussian 16 at Tue Apr  8 23:57:20 2025.
 Gaussian 16:  ES64L-G16RevC.01  3-Jul-2019

 ----------------------------------------------------------------------
 #t hf aug-cc-pvdz iop(5/13=1,5/36=2,99/5=2) pseudo=read geom=check gue
 ss=(read,tcheck) scf=(maxcycle=1)
 ----------------------------------------------------------------------
 -----
 title
 -----
 Structure from the checkpoint file:  "BDE49_nonexpt_203_mol1.chk"
 Charge =  0 Multiplicity = 1

                         Standard orientation:
 ---------------------------------------------------------------------
 Center     Atomic      Atomic             Coordinates (Angstroms)
 Number     Number       Type             X           Y           Z
 ---------------------------------------------------------------------
      1         17           0        0.846415    1.556836   -0.019489
      2         17           0        0.852129   -1.553803   -0.019494
      3          5           0        0.029228   -0.000013   -0.003443
      4          7           0       -1.350123   -0.002428    0.290178
      5          8           0       -2.446315   -0.004311   -0.168915
 ---------------------------------------------------------------------

 SCF Done:  E(RHF) =  -1073.30915100     A.U. after    2 cycles

 The electronic state is 1-A.
 Alpha  occ. eigenvalues -- -105.60106-105.60105 -20.67419 -15.66056 -10.65104
 Alpha  occ. eigenvalues --  -10.65069  -7.81999  -7.81980  -7.81668  -7.81663
 Alpha  occ. eigenvalues --   -7.81648  -7.81638  -7.75893  -1.64062  -1.15866
 Alpha  occ. eigenvalues --   -1.08615  -1.06492  -0.81022  -0.73906  -0.67690
 Alpha  occ. eigenvalues --   -0.67204  -0.59018  -0.55246  -0.52353  -0.50282
 Alpha  occ. eigenvalues --   -0.49088  -0.42463
 Alpha virt. eigenvalues --    0.01918   0.04368   0.05617   0.05711   0.05892
 Alpha virt. eigenvalues --    0.08223   0.11886   0.12917   0.13779   0.14162
 Alpha virt. eigenvalues --    0.16371   0.17693   0.18220   0.19979   0.20665

 Mulliken charges:
               1
     1  Cl  -0.286631
     2  Cl  -0.286574
     3  B    0.344865
     4  N    1.085828
     5  O   -0.857489
 Sum of Mulliken charges =  -0.00000

 Dipole moment (field-independent basis, Debye):
    X=              0.4394    Y=              0.0004    Z=             -0.4494  Tot=              0.6285

 Test job not archived.
 1\1\GINC-SE332\SP\RHF\Aug-CC-pVDZ\B1Cl2N1O1\OHZDE\08-Apr-2025\0\\#t hf
  aug-cc-pvdz iop(5/13=1,5/36=2,99/5=2) pseudo=read geom=check guess=(r
 ead,tcheck) scf=(maxcycle=1)\\title\\0,1\Cl,0,-0.846424,-1.55683,-0.01
 9489\Cl,0,-0.852119,1.553809,-0.019494\B,0,-0.029228,0.000013,-0.00344
 3\N,0,1.350123,0.00242,0.290178\O,0,2.446315,0.004296,-0.168915\\Versi
 on=ES64L-G16RevC.01\State=1-A\HF=-1073.309151\RMSD=1.017e-02\Dipole=-0
 .1728825,-0.0001543,-0.1767915\Quadrupole=-1.2427204,0.9215122,0.32120
 82,-0.0039698,-0.4552875,-0.0008255\PG=C01 [X(B1Cl2N1O1)]\\@

 Normal termination of Gaussian 16 at Tue Apr  8 23:57:21 2025.
