 Gaussian 16, Revision C.01,

 ----------------------------------------------------------------------
 #t hf aug-cc-pvdz symm=none int=(grid=ultrafine) guess=(read,tcheck) s
 table=(opt,rrhf)
 ----------------------------------------------------------------------
 -----
 title
 -----
 Symbolic Z-matrix:
 Charge =  0 Multiplicity = 1

 SCF Done:  E(RHF) =  -483.640297594     A.U. after   14 cycles
 Normal termination of Gaussian 16 at Wed Apr  9 00:43:06 2025.
 Gaussian 16:  ES64L-G16RevC.01  3-Jul-2019

 ----------------------------------------------------------------------
 #t hf aug-cc-pvdz iop(5/13=1,5/36=2,99/5=2) pseudo=read geom=check gue
 ss=(read,tcheck) scf=(maxcycle=1)
 ----------------------------------------------------------------------
 -----
 title
 -----
 Structure from the checkpoint file:  "BDE49_nonexpt_719_mol1.chk"
 Charge =  0 Multiplicity = 1

                         Standard orientation:
 ---------------------------------------------------------------------
 Center     Atomic      Atomic             Coordinates (Angstroms)
 Number     Number       Type             X           Y           Z
 ---------------------------------------------------------------------
      1          5           0       -2.330612    0.695143    0.105876
      2          6           0        0.622379    0.005986    0.538521
      3          6           0        1.534613    0.922525   -0.252276
      4          6           0        1.924685   -0.511155   -0.040918
      5          1           0        1.871185   -1.181080   -0.890928
      6          1           0        2.723438   -0.732304    0.656852
      7          1           0        2.061040    1.691202    0.300167
      8          1           0        1.218494    1.221697   -1.244478
      9         15           0       -0.964669   -0.506364   -0.207422
     10          1           0        0.611210    0.163512    1.610938
     11          1           0       -3.450623    0.293715    0.098166
     12          1           0       -2.100925    1.862208    0.124535
     13          1           0       -1.300798   -1.703347    0.454734
 ---------------------------------------------------------------------

 SCF Done:  E(RHF) =  -483.841723510     A.U. after    2 cycles

 The electronic state is 1-A.
 Alpha  occ. eigenvalues --  -84.25370 -11.25394 -11.24642 -11.24563  -7.60171
 Alpha  occ. eigenvalues --   -6.72917  -4.25678  -4.25572  -4.24633  -1.15204
 Alpha  occ. eigenvalues --   -0.90465  -0.83346  -0.78504  -0.69237  -0.66626
 Alpha  occ. eigenvalues --   -0.62061  -0.53396  -0.52660  -0.48570  -0.47884
 Alpha  occ. eigenvalues --   -0.42936  -0.42050  -0.31511
 Alpha virt. eigenvalues --    0.03258   0.03870   0.04223   0.04303   0.05220
 Alpha virt. eigenvalues --    0.05702   0.06291   0.07090   0.07787   0.08987
 Alpha virt. eigenvalues --    0.09944   0.11085   0.12452   0.13213   0.13511

 Mulliken charges:
               1
     1  B   -0.356656
     2  C    0.017982
     3  C    0.101978
     4  C    0.261199
     5  H   -0.116901
     6  H   -0.119895
     7  H   -0.121963
     8  H   -0.130895
     9  P   -0.202155
    10  H   -0.217874
    11  H    0.325213
    12  H    0.296404
    13  H    0.263564
 Sum of Mulliken charges =  -0.00000

 Dipole moment (field-independent basis, Debye):
    X=              1.2790    Y=             -0.1044    Z=              0.8192  Tot=              1.5225

 Test job not archived.
 1\1\GINC-SE106\SP\RHF\Aug-CC-pVDZ\C3H8B1P1\OHZDE\09-Apr-2025\0\\#t hf
 aug-cc-pvdz iop(5/13=1,5/36=2,99/5=2) pseudo=read geom=check guess=(re
 ad,tcheck) scf=(maxcycle=1)\\title\\0,1\B,0,-2.330612,0.695143,0.10587
 6\C,0,0.622379,0.005986,0.538521\C,0,1.534613,0.922525,-0.252276\C,0,1
 .924685,-0.511155,-0.040918\H,0,1.871185,-1.18108,-0.890928\H,0,2.7234
 38,-0.732304,0.656852\H,0,2.06104,1.691202,0.300167\H,0,1.218494,1.221
 697,-1.244478\P,0,-0.964669,-0.506364,-0.207422\H,0,0.61121,0.163512,1
 .610938\H,0,-3.450623,0.293714,0.098166\H,0,-2.100925,1.862208,0.12453

 Normal termination of Gaussian 16 at Wed Apr  9 00:43:10 2025.
