 Gaussian 16, Revision C.01,

 ----------------------------------------------------------------------
 #t hf aug-cc-pvdz symm=none int=(grid=ultrafine) guess=(read,tcheck) s
 table=(opt,rrhf)
 ----------------------------------------------------------------------
 -----
 title
 -----
 Symbolic Z-matrix:
 Charge =  0 Multiplicity = 1

 SCF Done:  E(RHF) =  -866.178401126     A.U. after   12 cycles
 Normal termination of Gaussian 16 at Tue Apr  8 23:45:19 2025.
 Gaussian 16:  ES64L-G16RevC.01  3-Jul-2019

 ----------------------------------------------------------------------
 #t hf aug-cc-pvdz iop(5/13=1,5/36=2,99/5=2) pseudo=read geom=check gue
 ss=(read,tcheck) scf=(maxcycle=1)
 ----------------------------------------------------------------------
 -----
 title
 -----
 Structure from the checkpoint file:  "BDE49_nonexpt_1753_mol1.chk"
 Charge =  0 Multiplicity = 1

                         Standard orientation:
 ---------------------------------------------------------------------
 Center     Atomic      Atomic             Coordinates (Angstroms)
 Number     Number       Type             X           Y           Z
 ---------------------------------------------------------------------
      1          6           0        1.517796   -0.213229   -0.530286
      2         14           0       -0.028560    0.323821    0.347082
      3          6           0       -0.618096    2.013677   -0.182981
      4          6           0        2.636503   -0.547404    0.118239
      5         17           0       -1.562481   -1.045091   -0.082495
      6          1           0       -0.803831    2.044648   -1.259807
      7          1           0        0.137626    2.768008    0.056800
      8          1           0       -1.545909    2.279403    0.329667
      9          1           0        3.542759   -0.844025   -0.402956
     10          1           0        2.694140   -0.542444    1.203364
     11          1           0        1.519249   -0.246660   -1.619277
     12          1           0        0.200754    0.255860    1.805644
 ---------------------------------------------------------------------

 SCF Done:  E(RHF) =  -866.417744460     A.U. after    2 cycles

 The electronic state is 1-A.
 Alpha  occ. eigenvalues -- -105.54475 -69.57002 -11.26346 -11.23960 -11.22865
 Alpha  occ. eigenvalues --  -10.59459  -7.76342  -7.76051  -7.76050  -6.23668
 Alpha  occ. eigenvalues --   -3.99089  -3.98951  -3.98923  -1.05893  -1.03456
 Alpha  occ. eigenvalues --   -0.96118  -0.80728  -0.70869  -0.64061  -0.59897
 Alpha  occ. eigenvalues --   -0.58142  -0.56638  -0.51490  -0.50764  -0.49143
 Alpha  occ. eigenvalues --   -0.44549  -0.44088  -0.39740
 Alpha virt. eigenvalues --    0.03345   0.03989   0.04027   0.05131   0.05966
 Alpha virt. eigenvalues --    0.06539   0.07524   0.08083   0.08673   0.10089
 Alpha virt. eigenvalues --    0.10804   0.12254   0.13981   0.14683   0.14900

 Mulliken charges:
               1
     1  C   -0.212806
     2  Si   1.742037
     3  C   -0.631315
     4  C    0.108978
     5  Cl  -0.663146
     6  H    0.093601
     7  H    0.028429
     8  H    0.029116
     9  H   -0.047484
    10  H   -0.094094
    11  H   -0.156009
    12  H   -0.197307
 Sum of Mulliken charges =  -0.00000

 Dipole moment (field-independent basis, Debye):
    X=              1.9668    Y=              1.6072    Z=             -0.0345  Tot=              2.5402

 Test job not archived.
 1\1\GINC-SE404\SP\RHF\Aug-CC-pVDZ\C3H7Cl1Si1\OHZDE\08-Apr-2025\0\\#t h
 f aug-cc-pvdz iop(5/13=1,5/36=2,99/5=2) pseudo=read geom=check guess=(
 read,tcheck) scf=(maxcycle=1)\\title\\0,1\C,0,1.517796,-0.213229,-0.53
 0286\Si,0,-0.02856,0.323821,0.347082\C,0,-0.618096,2.013677,-0.182981\
 C,0,2.636503,-0.547404,0.118239\Cl,0,-1.562481,-1.045091,-0.082495\H,0
 ,-0.803831,2.044648,-1.259807\H,0,0.137626,2.768008,0.0568\H,0,-1.5459
 09,2.279403,0.329667\H,0,3.542759,-0.844025,-0.402956\H,0,2.69414,-0.5
 42444,1.203364\H,0,1.519249,-0.24666,-1.619277\H,0,0.200754,0.25586,1.

 Normal termination of Gaussian 16 at Tue Apr  8 23:45:23 2025.
