 Gaussian 16, Revision C.01,

 ----------------------------------------------------------------------
 #t hf aug-cc-pvdz symm=none int=(grid=ultrafine) guess=(read,tcheck) s
 table=(opt,rrhf)
 ----------------------------------------------------------------------
 -----
 title
 -----
 Symbolic Z-matrix:
 Charge =  0 Multiplicity = 1

 SCF Done:  E(RHF) =  -1542.37257775     A.U. after   14 cycles
 Normal termination of Gaussian 16 at Wed Apr  9 00:27:12 2025.
 Gaussian 16:  ES64L-G16RevC.01  3-Jul-2019

 ----------------------------------------------------------------------
 #t hf aug-cc-pvdz iop(5/13=1,5/36=2,99/5=2) pseudo=read geom=check gue
 ss=(read,tcheck) scf=(maxcycle=1)
 ----------------------------------------------------------------------
 -----
 title
 -----
 Structure from the checkpoint file:  "BDE49_nonexpt_2754_mol1.chk"
 Charge =  0 Multiplicity = 1

                         Standard orientation:
 ---------------------------------------------------------------------
 Center     Atomic      Atomic             Coordinates (Angstroms)
 Number     Number       Type             X           Y           Z
 ---------------------------------------------------------------------
      1         16           0        1.066422   -0.449678    0.977519
      2         16           0       -0.250361   -1.164417   -0.391367
      3          8           0       -1.294956    0.162068   -0.758230
      4          6           0        2.392739    0.271210   -0.091923
      5          9           0        3.348935    0.704752    0.743658
      6          9           0        1.956958    1.300534   -0.819136
      7          9           0        2.925447   -0.628881   -0.921828
      8          6           0       -2.436221    0.275207   -0.013320
      9          9           0       -3.106680    1.323149   -0.482676
     10          9           0       -2.179691    0.475021    1.289366
     11          9           0       -3.215684   -0.813410   -0.107287
 ---------------------------------------------------------------------

 SCF Done:  E(RHF) =  -1543.16981341     A.U. after    2 cycles

 The electronic state is 1-A.
 Alpha  occ. eigenvalues --  -94.08611 -94.04262 -26.53967 -26.53682 -26.53604
 Alpha  occ. eigenvalues --  -26.52809 -26.52773 -26.52732 -20.64939 -11.59197
 Alpha  occ. eigenvalues --  -11.57144  -8.35874  -8.32346  -6.33615  -6.33391
 Alpha  occ. eigenvalues --   -6.33081  -6.30088  -6.29888  -6.29647  -1.75278
 Alpha  occ. eigenvalues --   -1.74934  -1.64792  -1.64553  -1.64197  -1.63765
 Alpha  occ. eigenvalues --   -1.54613  -1.16681  -1.02940  -0.96405  -0.92587
 Alpha  occ. eigenvalues --   -0.84847  -0.84715  -0.84308  -0.84190  -0.83656
 Alpha  occ. eigenvalues --   -0.78105  -0.71848  -0.71714  -0.71337  -0.71332
 Alpha  occ. eigenvalues --   -0.67167  -0.66889  -0.66293  -0.66070  -0.65377
 Alpha  occ. eigenvalues --   -0.64920  -0.64091  -0.61806  -0.60713  -0.56601
 Alpha  occ. eigenvalues --   -0.50822  -0.45335  -0.43614
 Alpha virt. eigenvalues --    0.04879   0.05914   0.06835   0.07925   0.08855
 Alpha virt. eigenvalues --    0.08971   0.09616   0.10611   0.10814   0.11583
 Alpha virt. eigenvalues --    0.12201   0.13600   0.14589   0.15057   0.16553

 Mulliken charges:
               1
     1  S    0.196680
     2  S    0.519079
     3  O   -1.293018
     4  C    1.747760
     5  F   -0.634924
     6  F   -0.669535
     7  F   -0.627622
     8  C    2.794289
     9  F   -0.666526
    10  F   -0.691700
    11  F   -0.674483
 Sum of Mulliken charges =   0.00000

 Dipole moment (field-independent basis, Debye):
    X=              0.6707    Y=             -1.0222    Z=              0.4157  Tot=              1.2913

 Test job not archived.
 1\1\GINC-SE253\SP\RHF\Aug-CC-pVDZ\C2F6O1S2\OHZDE\09-Apr-2025\0\\#t hf
 aug-cc-pvdz iop(5/13=1,5/36=2,99/5=2) pseudo=read geom=check guess=(re
 ad,tcheck) scf=(maxcycle=1)\\title\\0,1\S,0,1.066422,-0.449678,0.97751
 9\S,0,-0.250361,-1.164417,-0.391367\O,0,-1.294956,0.162068,-0.75823\C,
 0,2.392739,0.27121,-0.091923\F,0,3.348935,0.704752,0.743658\F,0,1.9569
 58,1.300534,-0.819136\F,0,2.925447,-0.628881,-0.921828\C,0,-2.436221,0
 .275207,-0.01332\F,0,-3.10668,1.323149,-0.482676\F,0,-2.179691,0.47502
 1,1.289366\F,0,-3.215684,-0.81341,-0.107287\\Version=ES64L-G16RevC.01\

 Normal termination of Gaussian 16 at Wed Apr  9 00:27:19 2025.
