 Gaussian 16, Revision C.01,

 ----------------------------------------------------------------------
 #t hf aug-cc-pvdz symm=none int=(grid=ultrafine) guess=(read,tcheck) s
 table=opt
 ----------------------------------------------------------------------
 -----
 title
 -----
 Symbolic Z-matrix:
 Charge =  0 Multiplicity = 2

 SCF Done:  E(UHF) =  -756.867659664     A.U. after   18 cycles
 Normal termination of Gaussian 16 at Wed Apr  9 00:21:31 2025.
 Gaussian 16:  ES64L-G16RevC.01  3-Jul-2019

 ----------------------------------------------------------------------
 #t hf aug-cc-pvdz iop(5/13=1,5/36=2,99/5=2) pseudo=read geom=check gue
 ss=(read,tcheck) scf=(maxcycle=1)
 ----------------------------------------------------------------------
 -----
 title
 -----
 Structure from the checkpoint file:  "BDE49_nonexpt_256_mol2.chk"
 Charge =  0 Multiplicity = 2

                         Standard orientation:
 ---------------------------------------------------------------------
 Center     Atomic      Atomic             Coordinates (Angstroms)
 Number     Number       Type             X           Y           Z
 ---------------------------------------------------------------------
      1          6           0       -1.350919    1.378139   -0.173871
      2          6           0       -2.538163    0.632524   -0.800541
      3          6           0       -2.899625   -0.626440   -0.000808
      4          6           0       -1.680957   -1.542125    0.177277
      5          6           0       -0.495946   -0.790779    0.801245
      6          6           0        1.050345    1.232705    0.663404
      7          6           0       -0.119836    0.469724    0.001193
      8          5           0        2.470951    0.607430    0.647160
      9         17           0        3.104550   -0.546728   -0.505438
     10          1           0       -1.646019    1.769772    0.809339
     11          1           0       -1.085816    2.246785   -0.786973
     12          1           0       -2.281447    0.345764   -1.828477
     13          1           0       -3.403366    1.299619   -0.871764
     14          1           0       -3.712546   -1.168638   -0.494371
     15          1           0       -3.276477   -0.330784    0.987016
     16          1           0       -1.380662   -1.939202   -0.800817
     17          1           0       -1.942233   -2.406742    0.795791
     18          1           0        0.368650   -1.458246    0.880151
     19          1           0       -0.755609   -0.492843    1.826550
     20          1           0        0.783781    1.524245    1.687398
     21          1           0        1.205789    2.195818    0.143019
     22          1           0        0.204458    0.149197   -0.997606
 ---------------------------------------------------------------------

 SCF Done:  E(UHF) =  -757.264414144     A.U. after    2 cycles

 The electronic state is 2-A.
 Alpha  occ. eigenvalues -- -105.56967 -11.23873 -11.22732 -11.22713 -11.22675
 Alpha  occ. eigenvalues --  -11.22635 -11.22600 -11.22541 -10.61974  -7.78909
 Alpha  occ. eigenvalues --   -7.78594  -7.78547  -7.66833  -1.12833  -1.08102
 Alpha  occ. eigenvalues --   -1.03628  -1.00485  -0.93662  -0.83831  -0.81632
 Alpha  occ. eigenvalues --   -0.76029  -0.67319  -0.65694  -0.62057  -0.61432
 Alpha  occ. eigenvalues --   -0.60721  -0.57509  -0.55937  -0.53741  -0.53526
 Alpha  occ. eigenvalues --   -0.50832  -0.49466  -0.49167  -0.48788  -0.48023
 Alpha  occ. eigenvalues --   -0.45986  -0.44723  -0.43562  -0.33472
 Alpha virt. eigenvalues --    0.03079   0.03147   0.03460   0.03875   0.05074
 Alpha virt. eigenvalues --    0.05226   0.05606   0.06014   0.06263   0.07197
 Alpha virt. eigenvalues --    0.08252   0.08538   0.09259   0.09448   0.09536

  Beta  occ. eigenvalues -- -105.56888 -11.23761 -11.22733 -11.22705 -11.22628
  Beta  occ. eigenvalues --  -11.22598 -11.22563 -11.22541 -10.61881  -7.78769
  Beta  occ. eigenvalues --   -7.78555  -7.78350  -7.64859  -1.12674  -1.07124
  Beta  occ. eigenvalues --   -1.03351  -1.00467  -0.93146  -0.83809  -0.81285
  Beta  occ. eigenvalues --   -0.75968  -0.65703  -0.64660  -0.61754  -0.61302
  Beta  occ. eigenvalues --   -0.60342  -0.57100  -0.54360  -0.53670  -0.52984
  Beta  occ. eigenvalues --   -0.50248  -0.49140  -0.48965  -0.48115  -0.47111
  Beta  occ. eigenvalues --   -0.45881  -0.44217  -0.43420
  Beta virt. eigenvalues --    0.02900   0.03158   0.03265   0.03725   0.05105
  Beta virt. eigenvalues --    0.05295   0.05645   0.06045   0.06296   0.07821
  Beta virt. eigenvalues --    0.07959   0.08431   0.09267   0.09439   0.09898

 Mulliken charges and spin densities:
               1          2
     1  C    0.014722  -0.007304
     2  C   -0.273633   0.002263
     3  C   -0.246882   0.000025
     4  C   -0.277260   0.002131
     5  C   -0.178346   0.008226
     6  C    0.285289  -0.113526
     7  C   -0.904298   0.081054
     8  B   -0.027473   1.065172
     9  Cl  -0.258246  -0.004613
    10  H    0.186888   0.000339
    11  H    0.077538   0.001023
    12  H    0.164547   0.000104
    13  H    0.106475   0.000362
    14  H    0.099776   0.000071
    15  H    0.153353   0.000173
    16  H    0.162925   0.000133
    17  H    0.100067   0.000074
    18  H    0.075911  -0.001421
    19  H    0.166138  -0.000768
    20  H    0.187538  -0.003405
    21  H    0.272751  -0.023177
    22  H    0.112220  -0.006934
 Sum of Mulliken charges =  -0.00000   1.00000

 Dipole moment (field-independent basis, Debye):
    X=             -1.6115    Y=              0.6510    Z=              0.1467  Tot=              1.7442
                          Isotropic Fermi Contact Couplings
        Atom                 a.u.       MegaHertz       Gauss      10(-4) cm-1
     1  C(13)              0.00215       2.41265       0.86089       0.80477
     2  C(13)              0.00160       1.79854       0.64176       0.59993
     3  C(13)             -0.00013      -0.15039      -0.05366      -0.05017
     4  C(13)              0.00042       0.47270       0.16867       0.15768
     5  C(13)             -0.00169      -1.89878      -0.67753      -0.63336
     6  C(13)              0.03414      38.38025      13.69503      12.80227
     7  C(13)              0.02147      24.14129       8.61421       8.05267
     8  B(11)              0.32475     465.81111     166.21299     155.37786

 Normal termination of Gaussian 16 at Wed Apr  9 00:21:46 2025.
