 Gaussian 16, Revision C.01,

 ----------------------------------------------------------------------
 #t hf aug-cc-pvdz symm=none int=(grid=ultrafine) guess=(read,tcheck) s
 table=opt
 ----------------------------------------------------------------------
 -----
 title
 -----
 Symbolic Z-matrix:
 Charge =  0 Multiplicity = 2

 SCF Done:  E(UHF) =  -1006.66165025     A.U. after   21 cycles

 1\1\GINC-SE127\Stability\UHF\Aug-CC-pVDZ\Cl1O2S1\OHZDE\08-Apr-2025\0\\
 #t hf aug-cc-pvdz symm=none int=(grid=ultrafine) guess=(read,tcheck) s
 table=opt\\title\\0,2\S,0,-0.57745,0.000008,0.255567\Cl,0,1.577619,-0.
 000114,-0.046852\O,0,-1.098519,1.267439,-0.205774\O,0,-1.099022,-1.267
 213,-0.205798\\Version=ES64L-G16RevC.01\HF=-1006.6616502\S2=0.820549\S
 2-1=0.\S2A=0.752866\RMSD=5.864e-09\Dipole=0.3613937,-0.0000808,0.51434
 41\Quadrupole=0.6780422,-2.699443,2.0214008,-0.0004576,-1.4136974,0.00
 00297\PG=Unknown\\@

 Normal termination of Gaussian 16 at Tue Apr  8 22:57:40 2025.
 Gaussian 16:  ES64L-G16RevC.01  3-Jul-2019

 ----------------------------------------------------------------------
 #t hf aug-cc-pvdz iop(5/13=1,5/36=2,99/5=2) pseudo=read geom=check gue
 ss=(read,tcheck) scf=(maxcycle=1)
 ----------------------------------------------------------------------
 -----
 title
 -----
 Structure from the checkpoint file:  "BDE49_expt_1937_mol2.chk"
 Charge =  0 Multiplicity = 2

                         Standard orientation:
 ---------------------------------------------------------------------
 Center     Atomic      Atomic             Coordinates (Angstroms)
 Number     Number       Type             X           Y           Z
 ---------------------------------------------------------------------
      1         16           0       -0.577450    0.000008    0.255567
      2         17           0        1.577619   -0.000113   -0.046852
      3          8           0       -1.098519    1.267439   -0.205774
      4          8           0       -1.099021   -1.267213   -0.205798
 ---------------------------------------------------------------------

 SCF Done:  E(UHF) =  -1006.93447426     A.U. after    2 cycles

 The electronic state is 2-A.
 Alpha  occ. eigenvalues -- -105.62905 -94.24754 -20.63612 -20.63610 -10.67639
 Alpha  occ. eigenvalues --   -8.50419  -7.85369  -7.83973  -7.83951  -6.48556
 Alpha  occ. eigenvalues --   -6.48097  -6.47680  -1.63176  -1.52598  -1.13022
 Alpha  occ. eigenvalues --   -0.93937  -0.73796  -0.73122  -0.73091  -0.58355
 Alpha  occ. eigenvalues --   -0.57722  -0.56226  -0.52273  -0.50942  -0.46903
 Alpha virt. eigenvalues --    0.03313   0.07933   0.08091   0.09135   0.09248
 Alpha virt. eigenvalues --    0.14093   0.14702   0.15007   0.19494   0.20132
 Alpha virt. eigenvalues --    0.21565   0.23623   0.25484   0.25853   0.28463

  Beta  occ. eigenvalues -- -105.62383 -94.24435 -20.62539 -20.62536 -10.67105
  Beta  occ. eigenvalues --   -8.49951  -7.83705  -7.83651  -7.83145  -6.48097
  Beta  occ. eigenvalues --   -6.48064  -6.46914  -1.60742  -1.49471  -1.08794
  Beta  occ. eigenvalues --   -0.88428  -0.71895  -0.69813  -0.67310  -0.56057
  Beta  occ. eigenvalues --   -0.52262  -0.51306  -0.50491  -0.49951
  Beta virt. eigenvalues --   -0.06037   0.05477   0.08265   0.08850   0.09427
  Beta virt. eigenvalues --    0.09443   0.14862   0.14931   0.15479   0.20355
  Beta virt. eigenvalues --    0.20670   0.21850   0.24308   0.25799   0.26486

 Mulliken charges and spin densities:
               1          2
     1  S    2.213915   0.209778
     2  Cl  -0.140304   0.365195
     3  O   -1.036783   0.212559
     4  O   -1.036829   0.212468
 Sum of Mulliken charges =  -0.00000   1.00000

 Dipole moment (field-independent basis, Debye):
    X=              0.7146    Y=             -0.0002    Z=              1.1835  Tot=              1.3825
                          Isotropic Fermi Contact Couplings
        Atom                 a.u.       MegaHertz       Gauss      10(-4) cm-1
     1  S(33)              0.75734     260.12729      92.81988      86.76912
     2  Cl(35)             0.07784      34.13161      12.17901      11.38508
     3  O(17)              0.05893     -35.72325     -12.74694     -11.91599
     4  O(17)              0.05891     -35.71268     -12.74317     -11.91247
 --------------------------------------------------------
       Center         ----  Spin Dipole Couplings  ----
                      3XX-RR        3YY-RR        3ZZ-RR
 --------------------------------------------------------

 Normal termination of Gaussian 16 at Tue Apr  8 22:57:42 2025.
