 Gaussian 16, Revision C.01,

 ----------------------------------------------------------------------
 #t hf aug-cc-pvdz symm=none int=(grid=ultrafine) guess=(read,tcheck) s
 table=(opt,rrhf)
 ----------------------------------------------------------------------
 -----
 title
 -----
 Symbolic Z-matrix:
 Charge =  0 Multiplicity = 1

 SCF Done:  E(RHF) =  -1662.50688726     A.U. after   15 cycles
 Normal termination of Gaussian 16 at Tue Apr  8 22:51:36 2025.
 Gaussian 16:  ES64L-G16RevC.01  3-Jul-2019

 ----------------------------------------------------------------------
 #t hf aug-cc-pvdz iop(5/13=1,5/36=2,99/5=2) pseudo=read geom=check gue
 ss=(read,tcheck) scf=(maxcycle=1)
 ----------------------------------------------------------------------
 -----
 title
 -----
 Structure from the checkpoint file:  "BDE49_expt_1736_mol1.chk"
 Charge =  0 Multiplicity = 1

                         Standard orientation:
 ---------------------------------------------------------------------
 Center     Atomic      Atomic             Coordinates (Angstroms)
 Number     Number       Type             X           Y           Z
 ---------------------------------------------------------------------
      1          6           0        2.703686   -1.156085   -0.000000
      2          6           0        1.317045   -1.187931   -0.000000
      3          6           0        3.352095    0.077651   -0.000001
      4          6           0        2.573906    1.228661   -0.000002
      5          7           0        1.236862    1.208905   -0.000002
      6          6           0        0.630943    0.031477   -0.000002
      7          1           0        3.269998   -2.080055    0.000001
      8          1           0        0.780828   -2.127538    0.000001
      9          6           0       -0.903230    0.028797   -0.000000
     10         17           0       -1.600737    1.663152   -0.000006
     11         17           0       -1.500252   -0.853586    1.467374
     12         17           0       -1.500256   -0.853597   -1.467365
     13          1           0        4.433046    0.145809   -0.000001
     14          1           0        3.032598    2.212568   -0.000003
 ---------------------------------------------------------------------

 SCF Done:  E(RHF) =  -1663.01872381     A.U. after    2 cycles

 The electronic state is 1-A.
 Alpha  occ. eigenvalues -- -105.59043-105.59043-105.58531 -15.52790 -11.45145
 Alpha  occ. eigenvalues --  -11.32237 -11.29879 -11.28419 -11.27153 -11.26867
 Alpha  occ. eigenvalues --  -10.63833 -10.63832 -10.63348  -7.80779  -7.80776
 Alpha  occ. eigenvalues --   -7.80359  -7.80357  -7.80352  -7.80351  -7.80306
 Alpha  occ. eigenvalues --   -7.79861  -7.79859  -1.29425  -1.20401  -1.11440
 Alpha  occ. eigenvalues --   -1.06679  -1.06008  -1.05681  -0.92079  -0.89847
 Alpha  occ. eigenvalues --   -0.82543  -0.74198  -0.71863  -0.68026  -0.64447
 Alpha  occ. eigenvalues --   -0.64174  -0.62659  -0.60654  -0.57923  -0.56823
 Alpha  occ. eigenvalues --   -0.50903  -0.50571  -0.48834  -0.47397  -0.46566
 Alpha  occ. eigenvalues --   -0.45557  -0.45106  -0.42387  -0.37266
 Alpha virt. eigenvalues --    0.02789   0.03528   0.04357   0.06027   0.06254
 Alpha virt. eigenvalues --    0.07205   0.07818   0.08522   0.09490   0.09791
 Alpha virt. eigenvalues --    0.10560   0.10594   0.12151   0.12551   0.13272

 Mulliken charges:
               1
     1  C   -0.112585
     2  C    1.008067
     3  C    0.787042
     4  C   -0.475331
     5  N    1.302064
     6  C   -0.578337
     7  H   -0.162498
     8  H   -0.240097
     9  C   -1.502954
    10  Cl   0.085135
    11  Cl   0.131023
    12  Cl   0.131023
    13  H   -0.186556
    14  H   -0.185997
 Sum of Mulliken charges =  -0.00000

 Dipole moment (field-independent basis, Debye):
    X=              3.7772    Y=             -1.8709    Z=             -0.0000  Tot=              4.2151

 Test job not archived.
 1\1\GINC-SE249\SP\RHF\Aug-CC-pVDZ\C6H4Cl3N1\OHZDE\08-Apr-2025\0\\#t hf
  aug-cc-pvdz iop(5/13=1,5/36=2,99/5=2) pseudo=read geom=check guess=(r
 ead,tcheck) scf=(maxcycle=1)\\title\\0,1\C,0,2.703686,-1.156085,0.\C,0
 ,1.317045,-1.187931,0.\C,0,3.352095,0.077651,-0.000001\C,0,2.573906,1.
 228661,-0.000002\N,0,1.236862,1.208905,-0.000002\C,0,0.630943,0.031477
 ,-0.000002\H,0,3.269998,-2.080055,0.000001\H,0,0.780828,-2.127538,0.00
 0001\C,0,-0.90323,0.028797,0.\Cl,0,-1.600737,1.663152,-0.000006\Cl,0,-
 1.500252,-0.853586,1.467374\Cl,0,-1.500256,-0.853597,-1.467365\H,0,4.4

 Normal termination of Gaussian 16 at Tue Apr  8 22:51:45 2025.
