 Gaussian 16, Revision C.01,

 ----------------------------------------------------------------------
 #t hf aug-cc-pvdz symm=none int=(grid=ultrafine) guess=(read,tcheck) s
 table=opt
 ----------------------------------------------------------------------
 -----
 title
 -----
 Symbolic Z-matrix:
 Charge =  0 Multiplicity = 2

 SCF Done:  E(UHF) =  -2151.77726995     A.U. after   15 cycles
 Normal termination of Gaussian 16 at Tue Apr  8 23:43:18 2025.
 Gaussian 16:  ES64L-G16RevC.01  3-Jul-2019

 ----------------------------------------------------------------------
 #t hf aug-cc-pvdz iop(5/13=1,5/36=2,99/5=2) pseudo=read geom=check gue
 ss=(read,tcheck) scf=(maxcycle=1)
 ----------------------------------------------------------------------
 -----
 title
 -----
 Structure from the checkpoint file:  "BDE49_nonexpt_169_mol2.chk"
 Charge =  0 Multiplicity = 2

                         Standard orientation:
 ---------------------------------------------------------------------
 Center     Atomic      Atomic             Coordinates (Angstroms)
 Number     Number       Type             X           Y           Z
 ---------------------------------------------------------------------
      1         17           0        3.015597   -0.000001   -0.244665
      2          5           0        1.435448    0.000026   -0.897858
      3         14           0       -0.369584    0.000001   -0.059416
      4         17           0       -1.352096   -1.684797   -0.725160
      5         17           0       -0.429279   -0.000103    2.007824
      6         17           0       -1.352050    1.684892   -0.724992
 ---------------------------------------------------------------------

 SCF Done:  E(UHF) =  -2152.13231663     A.U. after    2 cycles

 The electronic state is 2-A.
 Alpha  occ. eigenvalues -- -105.61145-105.58759-105.58759-105.58562 -69.67727
 Alpha  occ. eigenvalues --  -10.66154 -10.63784 -10.63773 -10.63566  -7.83038
 Alpha  occ. eigenvalues --   -7.82797  -7.82712  -7.80663  -7.80657  -7.80501
 Alpha  occ. eigenvalues --   -7.80342  -7.80337  -7.80332  -7.80330  -7.80128
 Alpha  occ. eigenvalues --   -7.80110  -7.71199  -6.33615  -4.08939  -4.08938
 Alpha  occ. eigenvalues --   -4.08773  -1.12506  -1.11612  -1.06728  -1.06557
 Alpha  occ. eigenvalues --   -0.77771  -0.68765  -0.59845  -0.59484  -0.59429
 Alpha  occ. eigenvalues --   -0.55289  -0.53316  -0.51719  -0.51683  -0.49477
 Alpha  occ. eigenvalues --   -0.49194  -0.48471  -0.47709  -0.36170
 Alpha virt. eigenvalues --    0.00642   0.03966   0.05163   0.05485   0.06051
 Alpha virt. eigenvalues --    0.07488   0.07548   0.08248   0.10140   0.12153
 Alpha virt. eigenvalues --    0.12721   0.13574   0.14352   0.15068   0.15072

  Beta  occ. eigenvalues -- -105.61087-105.58766-105.58766-105.58514 -69.67667
  Beta  occ. eigenvalues --  -10.66088 -10.63792 -10.63781 -10.63513  -7.83015
  Beta  occ. eigenvalues --   -7.82755  -7.82488  -7.80686  -7.80680  -7.80361
  Beta  occ. eigenvalues --   -7.80349  -7.80348  -7.80335  -7.80334  -7.80082
  Beta  occ. eigenvalues --   -7.80058  -7.69309  -6.33507  -4.08887  -4.08884
  Beta  occ. eigenvalues --   -4.08635  -1.11931  -1.11223  -1.06782  -1.06300
  Beta  occ. eigenvalues --   -0.75501  -0.66657  -0.59419  -0.59291  -0.58302
  Beta  occ. eigenvalues --   -0.53366  -0.52485  -0.51760  -0.51320  -0.49205
  Beta  occ. eigenvalues --   -0.48951  -0.47653  -0.46875
  Beta virt. eigenvalues --    0.02513   0.02541   0.04601   0.05203   0.06105
  Beta virt. eigenvalues --    0.06359   0.07539   0.07612   0.08345   0.10664
  Beta virt. eigenvalues --    0.12601   0.12753   0.14134   0.14709   0.15462

 Mulliken charges and spin densities:
               1          2
     1  Cl  -0.189772   0.010177
     2  B   -0.148793   1.002337
     3  Si   1.855556  -0.025917
     4  Cl  -0.494827  -0.003526
     5  Cl  -0.527338   0.020454
     6  Cl  -0.494827  -0.003525
 Sum of Mulliken charges =  -0.00000   1.00000

 Dipole moment (field-independent basis, Debye):
    X=              1.2496    Y=             -0.0000    Z=             -0.2853  Tot=              1.2817
                          Isotropic Fermi Contact Couplings
        Atom                 a.u.       MegaHertz       Gauss      10(-4) cm-1
     1  Cl(35)             0.04499      19.72728       7.03918       6.58031
     2  B(11)              0.28334     406.41682     145.01963     135.56606
     3  Si(29)             0.13437    -119.41952     -42.61186     -39.83407
     4  Cl(35)            -0.00577      -2.52986      -0.90272      -0.84387
     5  Cl(35)             0.02989      13.10376       4.67575       4.37094
     6  Cl(35)            -0.00577      -2.52979      -0.90269      -0.84385
 --------------------------------------------------------
       Center         ----  Spin Dipole Couplings  ----

 Normal termination of Gaussian 16 at Tue Apr  8 23:43:22 2025.
