 Gaussian 16, Revision C.01,

 ----------------------------------------------------------------------
 #t hf aug-cc-pvdz symm=none int=(grid=ultrafine) guess=(read,tcheck) s
 table=(opt,rrhf)
 ----------------------------------------------------------------------
 -----
 title
 -----
 Symbolic Z-matrix:
 Charge =  0 Multiplicity = 1

 SCF Done:  E(RHF) =  -747.996722655     A.U. after   15 cycles
 Normal termination of Gaussian 16 at Wed Apr  9 00:46:27 2025.
 Gaussian 16:  ES64L-G16RevC.01  3-Jul-2019

 ----------------------------------------------------------------------
 #t hf aug-cc-pvdz iop(5/13=1,5/36=2,99/5=2) pseudo=read geom=check gue
 ss=(read,tcheck) scf=(maxcycle=1)
 ----------------------------------------------------------------------
 -----
 title
 -----
 Structure from the checkpoint file:  "BDE49_nonexpt_795_mol1.chk"
 Charge =  0 Multiplicity = 1

                         Standard orientation:
 ---------------------------------------------------------------------
 Center     Atomic      Atomic             Coordinates (Angstroms)
 Number     Number       Type             X           Y           Z
 ---------------------------------------------------------------------
      1         14           0       -0.125829    0.215003    0.799601
      2          7           0       -1.141868   -1.193358    0.017086
      3          5           0        1.739155   -0.067702    0.031296
      4          8           0       -2.343746   -1.055816   -0.148593
      5          8           0       -0.531008   -2.234438   -0.274664
      6          8           0        2.105880   -1.245491   -0.522685
      7          8           0        2.606716    0.978087    0.104899
      8          6           0       -1.037766    1.806870    0.430649
      9          6           0       -1.041880    2.218995   -1.052044
     10          1           0       -0.560333    2.583587    1.041332
     11          1           0       -2.060357    1.704015    0.806303
     12          1           0       -0.025655    2.340268   -1.436622
     13          1           0       -1.562813    3.169603   -1.191584
     14          1           0       -1.551920    1.473981   -1.667667
     15          1           0        3.472622    0.762768   -0.266578
     16          1           0        1.370706   -1.883046   -0.525890
     17          1           0       -0.248196   -0.163129    2.226932
 ---------------------------------------------------------------------

 SCF Done:  E(RHF) =  -748.482182309     A.U. after    2 cycles

 The electronic state is 1-A.
 Alpha  occ. eigenvalues --  -69.57486 -20.59937 -20.58992 -20.57862 -20.56733
 Alpha  occ. eigenvalues --  -15.75521 -11.24899 -11.24814  -7.66401  -6.24556
 Alpha  occ. eigenvalues --   -3.99939  -3.99763  -3.99719  -1.65630  -1.50014
 Alpha  occ. eigenvalues --   -1.49356  -1.45577  -1.05157  -0.99185  -0.87648
 Alpha  occ. eigenvalues --   -0.81917  -0.79309  -0.74873  -0.73937  -0.72431
 Alpha  occ. eigenvalues --   -0.67708  -0.63164  -0.62570  -0.60351  -0.58272
 Alpha  occ. eigenvalues --   -0.58063  -0.54386  -0.52381  -0.50597  -0.49474
 Alpha  occ. eigenvalues --   -0.48349  -0.46383  -0.45202  -0.44253
 Alpha virt. eigenvalues --    0.03025   0.03299   0.03899   0.04515   0.05248
 Alpha virt. eigenvalues --    0.05496   0.05764   0.06953   0.07498   0.07937
 Alpha virt. eigenvalues --    0.08591   0.09127   0.09511   0.09951   0.10537

 Mulliken charges:
               1
     1  Si   0.993501
     2  N    1.829264
     3  B    1.751817
     4  O   -1.200718
     5  O   -1.258894
     6  O   -1.457655
     7  O   -1.306417
     8  C   -0.543866
     9  C   -0.400534
    10  H    0.089130
    11  H    0.120644
    12  H    0.153355
    13  H    0.102094
    14  H    0.164664
    15  H    0.533508
    16  H    0.699707
    17  H   -0.269600
 Sum of Mulliken charges =  -0.00000

 Dipole moment (field-independent basis, Debye):
    X=              1.7189    Y=              3.1261    Z=              0.8800  Tot=              3.6745

 Test job not archived.
 1\1\GINC-SE106\SP\RHF\Aug-CC-pVDZ\C2H8B1N1O4Si1\OHZDE\09-Apr-2025\0\\#
 t hf aug-cc-pvdz iop(5/13=1,5/36=2,99/5=2) pseudo=read geom=check gues
 s=(read,tcheck) scf=(maxcycle=1)\\title\\0,1\Si,0,0.125829,0.215003,-0
 .799601\N,0,1.141868,-1.193358,-0.017086\B,0,-1.739155,-0.067702,-0.03
 1296\O,0,2.343746,-1.055816,0.148593\O,0,0.531008,-2.234438,0.274664\O
 ,0,-2.10588,-1.245491,0.522685\O,0,-2.606716,0.978087,-0.104899\C,0,1.
 037766,1.80687,-0.430649\C,0,1.04188,2.218995,1.052044\H,0,0.560333,2.
 583587,-1.041332\H,0,2.060357,1.704015,-0.806303\H,0,0.025655,2.340268

 Normal termination of Gaussian 16 at Wed Apr  9 00:46:36 2025.
