 Gaussian 16, Revision C.01,

 ----------------------------------------------------------------------
 #t hf aug-cc-pvdz symm=none int=(grid=ultrafine) guess=(read,tcheck) s
 table=opt
 ----------------------------------------------------------------------
 -----
 title
 -----
 Symbolic Z-matrix:
 Charge =  0 Multiplicity = 2

 SCF Done:  E(UHF) =  -192.513855179     A.U. after   16 cycles
 Normal termination of Gaussian 16 at Tue Apr  8 22:46:35 2025.
 Gaussian 16:  ES64L-G16RevC.01  3-Jul-2019

 ----------------------------------------------------------------------
 #t hf aug-cc-pvdz iop(5/13=1,5/36=2,99/5=2) pseudo=read geom=check gue
 ss=(read,tcheck) scf=(maxcycle=1)
 ----------------------------------------------------------------------
 -----
 title
 -----
 Structure from the checkpoint file:  "BDE49_expt_157_mol2.chk"
 Charge =  0 Multiplicity = 2

                         Standard orientation:
 ---------------------------------------------------------------------
 Center     Atomic      Atomic             Coordinates (Angstroms)
 Number     Number       Type             X           Y           Z
 ---------------------------------------------------------------------
      1          6           0       -1.557208   -0.515903    0.132575
      2          6           0       -0.681654    0.615971   -0.284561
      3          1           0       -1.658270   -0.766007    1.183969
      4          1           0       -2.204359   -1.026797   -0.568614
      5          6           0        0.737876    0.526221    0.298617
      6          1           0       -1.117503    1.573894    0.048876
      7          1           0       -0.612277    0.666151   -1.375168
      8          8           0        1.459875   -0.593267   -0.194400
      9          1           0        0.680903    0.508535    1.397877
     10          1           0        1.316372    1.406947    0.011539
     11          1           0        0.922052   -1.374321   -0.023066
 ---------------------------------------------------------------------

 SCF Done:  E(UHF) =  -192.718480790     A.U. after    2 cycles

 The electronic state is 2-A.
 Alpha  occ. eigenvalues --  -20.54404 -11.28545 -11.25032 -11.23887  -1.44404
 Alpha  occ. eigenvalues --   -1.06610  -0.92961  -0.81399  -0.69548  -0.63994
 Alpha  occ. eigenvalues --   -0.61766  -0.60814  -0.54308  -0.52028  -0.49404
 Alpha  occ. eigenvalues --   -0.44010  -0.36799
 Alpha virt. eigenvalues --    0.03709   0.04037   0.04202   0.05137   0.06848
 Alpha virt. eigenvalues --    0.07147   0.07388   0.12058   0.12489   0.14308
 Alpha virt. eigenvalues --    0.14863   0.15478   0.15924   0.16516   0.17171

  Beta  occ. eigenvalues --  -20.54395 -11.28396 -11.24214 -11.22632  -1.44338
  Beta  occ. eigenvalues --   -1.04246  -0.89089  -0.78454  -0.69182  -0.62536
  Beta  occ. eigenvalues --   -0.60912  -0.60011  -0.53162  -0.51276  -0.48759
  Beta  occ. eigenvalues --   -0.43594
  Beta virt. eigenvalues --    0.03817   0.04070   0.04219   0.04706   0.06863
  Beta virt. eigenvalues --    0.07024   0.07317   0.09002   0.12418   0.13345
  Beta virt. eigenvalues --    0.14509   0.15104   0.15636   0.16683   0.17189

 Mulliken charges and spin densities:
               1          2
     1  C    0.100311   1.394896
     2  C   -0.528467  -0.254210
     3  H   -0.027803  -0.104358
     4  H   -0.018745  -0.105145
     5  C    0.668815   0.047190
     6  H    0.257458   0.038071
     7  H    0.131536  -0.001074
     8  O   -1.125636   0.000228
     9  H    0.125253  -0.006449
    10  H    0.055946  -0.002830
    11  H    0.361333  -0.006319
 Sum of Mulliken charges =   0.00000   1.00000

 Dipole moment (field-independent basis, Debye):
    X=             -1.7141    Y=              0.2543    Z=              0.6368  Tot=              1.8461
                          Isotropic Fermi Contact Couplings
        Atom                 a.u.       MegaHertz       Gauss      10(-4) cm-1
     1  C(13)              0.20377     229.07348      81.73911      76.41069
     2  C(13)             -0.05832     -65.56477     -23.39514     -21.87005
     3  H(1)              -0.02344    -104.76224     -37.38177     -34.94492
     4  H(1)              -0.02443    -109.19640     -38.96399     -36.42400
     5  C(13)              0.03382      38.01625      13.56514      12.68086
     6  H(1)               0.02362     105.59180      37.67778      35.22163
     7  H(1)               0.00295      13.20245       4.71096       4.40386
     8  O(17)              0.00041      -0.24753      -0.08833      -0.08257

 Normal termination of Gaussian 16 at Tue Apr  8 22:46:38 2025.
