 Gaussian 16, Revision C.01,

 ----------------------------------------------------------------------
 #t hf aug-cc-pvdz symm=none int=(grid=ultrafine) guess=(read,tcheck) s
 table=(opt,rrhf)
 ----------------------------------------------------------------------
 -----
 title
 -----
 Symbolic Z-matrix:
 Charge =  0 Multiplicity = 1

 SCF Done:  E(RHF) =  -1219.46442543     A.U. after   14 cycles
 Normal termination of Gaussian 16 at Wed Apr  9 00:25:18 2025.
 Gaussian 16:  ES64L-G16RevC.01  3-Jul-2019

 ----------------------------------------------------------------------
 #t hf aug-cc-pvdz iop(5/13=1,5/36=2,99/5=2) pseudo=read geom=check gue
 ss=(read,tcheck) scf=(maxcycle=1)
 ----------------------------------------------------------------------
 -----
 title
 -----
 Structure from the checkpoint file:  "BDE49_nonexpt_2726_mol1.chk"
 Charge =  0 Multiplicity = 1

                         Standard orientation:
 ---------------------------------------------------------------------
 Center     Atomic      Atomic             Coordinates (Angstroms)
 Number     Number       Type             X           Y           Z
 ---------------------------------------------------------------------
      1         16           0       -0.880328    0.933587    0.544640
      2         16           0        0.880297    0.933509   -0.544849
      3          6           0        1.784984   -0.381344    0.275816
      4          6           0       -1.784942   -0.381549   -0.275669
      5          9           0       -2.994461   -0.428662    0.322607
      6          8           0       -1.460283   -1.098938   -1.148104
      7          8           0        1.460479   -1.098319    1.148647
      8          9           0        2.994315   -0.428907   -0.322818
 ---------------------------------------------------------------------

 SCF Done:  E(RHF) =  -1219.97159472     A.U. after    2 cycles

 The electronic state is 1-A.
 Alpha  occ. eigenvalues --  -94.05219 -94.05211 -26.53617 -26.53616 -20.60820
 Alpha  occ. eigenvalues --  -20.60820 -11.49123 -11.49122  -8.33196  -8.33171
 Alpha  occ. eigenvalues --   -6.30967  -6.30931  -6.30754  -6.30738  -6.30497
 Alpha  occ. eigenvalues --   -6.30497  -1.67897  -1.67864  -1.55250  -1.55131
 Alpha  occ. eigenvalues --   -1.17978  -1.04687  -0.89438  -0.85473  -0.77961
 Alpha  occ. eigenvalues --   -0.75130  -0.75057  -0.74192  -0.74037  -0.72829
 Alpha  occ. eigenvalues --   -0.63893  -0.63369  -0.58484  -0.58028  -0.55762
 Alpha  occ. eigenvalues --   -0.50511  -0.50074  -0.45455  -0.44170
 Alpha virt. eigenvalues --    0.04218   0.05373   0.07420   0.08044   0.08798
 Alpha virt. eigenvalues --    0.09322   0.10249   0.10651   0.10932   0.10969
 Alpha virt. eigenvalues --    0.11668   0.12802   0.13773   0.14849   0.14956

 Mulliken charges:
               1
     1  S    0.263248
     2  S    0.263229
     3  C    1.169556
     4  C    1.169501
     5  F   -0.592258
     6  O   -0.840495
     7  O   -0.840521
     8  F   -0.592260
 Sum of Mulliken charges =  -0.00000

 Dipole moment (field-independent basis, Debye):
    X=             -0.0001    Y=              2.4027    Z=             -0.0004  Tot=              2.4027

 Test job not archived.
 1\1\GINC-SE332\SP\RHF\Aug-CC-pVDZ\C2F2O2S2\OHZDE\09-Apr-2025\0\\#t hf
 aug-cc-pvdz iop(5/13=1,5/36=2,99/5=2) pseudo=read geom=check guess=(re
 ad,tcheck) scf=(maxcycle=1)\\title\\0,1\S,0,0.880328,0.933587,-0.54464
 \S,0,-0.880297,0.933509,0.544849\C,0,-1.784984,-0.381344,-0.275816\C,0
 ,1.784942,-0.381549,0.275669\F,0,2.994461,-0.428663,-0.322607\O,0,1.46
 0283,-1.098938,1.148104\O,0,-1.460479,-1.098319,-1.148647\F,0,-2.99431
 5,-0.428907,0.322818\\Version=ES64L-G16RevC.01\State=1-A\HF=-1219.9715
 947\RMSD=4.974e-03\Dipole=0.0000496,0.9453011,0.0001495\Quadrupole=0.1

 Normal termination of Gaussian 16 at Wed Apr  9 00:25:21 2025.
