 Gaussian 16, Revision C.01,

 ----------------------------------------------------------------------
 #t hf aug-cc-pvdz symm=none int=(grid=ultrafine) guess=(read,tcheck) s
 table=opt
 ----------------------------------------------------------------------
 -----
 title
 -----
 Symbolic Z-matrix:
 Charge =  0 Multiplicity = 2

 SCF Done:  E(UHF) =  -613.460875372     A.U. after   20 cycles
 Normal termination of Gaussian 16 at Tue Apr  8 23:57:20 2025.
 Gaussian 16:  ES64L-G16RevC.01  3-Jul-2019

 ----------------------------------------------------------------------
 #t hf aug-cc-pvdz iop(5/13=1,5/36=2,99/5=2) pseudo=read geom=check gue
 ss=(read,tcheck) scf=(maxcycle=1)
 ----------------------------------------------------------------------
 -----
 title
 -----
 Structure from the checkpoint file:  "BDE49_nonexpt_203_mol2.chk"
 Charge =  0 Multiplicity = 2

                         Standard orientation:
 ---------------------------------------------------------------------
 Center     Atomic      Atomic             Coordinates (Angstroms)
 Number     Number       Type             X           Y           Z
 ---------------------------------------------------------------------
      1         17           0        0.000000    0.000000    1.692792
      2          5           0        0.000000    0.000000   -0.001929
      3          7           0        0.000000    0.000000   -1.263856
      4          8           0        0.000000    0.000000   -2.490102
 ---------------------------------------------------------------------

 SCF Done:  E(UHF) =  -613.675762782     A.U. after    2 cycles

 Unable to determine electronic state:  an orbital has unidentified symmetry.
 Alpha  occ. eigenvalues -- -105.62504 -20.65529 -15.58651 -10.67460  -7.84356
 Alpha  occ. eigenvalues --   -7.84086  -7.84004  -7.70969  -1.60896  -1.13739
 Alpha  occ. eigenvalues --   -1.11151  -0.78658  -0.73609  -0.68780  -0.67045
 Alpha  occ. eigenvalues --   -0.56011  -0.55203  -0.44043  -0.40416
 Alpha virt. eigenvalues --    0.03853   0.05419   0.05560   0.05705   0.12752
 Alpha virt. eigenvalues --    0.12992   0.13413   0.15163   0.16458   0.17246
 Alpha virt. eigenvalues --    0.17390   0.21126   0.21710   0.21750   0.23835

  Beta  occ. eigenvalues -- -105.62486 -20.62047 -15.58861 -10.67441  -7.84412
  Beta  occ. eigenvalues --   -7.83992  -7.83951  -7.70535  -1.53242  -1.12982
  Beta  occ. eigenvalues --   -1.07592  -0.74937  -0.67340  -0.66700  -0.58938
  Beta  occ. eigenvalues --   -0.54867  -0.53080  -0.38470
  Beta virt. eigenvalues --    0.03726   0.03946   0.05535   0.05553   0.05731
  Beta virt. eigenvalues --    0.12802   0.13402   0.13808   0.15877   0.17446
  Beta virt. eigenvalues --    0.17605   0.19678   0.21769   0.21901   0.24123

 Mulliken charges and spin densities:
               1          2
     1  Cl  -0.105625   0.004960
     2  B    0.062110   0.222278
     3  N    0.875024  -0.071358
     4  O   -0.831509   0.844120
 Sum of Mulliken charges =   0.00000   1.00000

 Dipole moment (field-independent basis, Debye):
    X=             -0.0000    Y=             -0.0000    Z=              2.3925  Tot=              2.3925
                          Isotropic Fermi Contact Couplings
        Atom                 a.u.       MegaHertz       Gauss      10(-4) cm-1
     1  Cl(35)             0.01125       4.93192       1.75983       1.64511
     2  B(11)              0.02431      34.87589      12.44458      11.63334
     3  N(14)             -0.10126     -32.71817     -11.67466     -10.91361
     4  O(17)              0.25174    -152.60275     -54.45245     -50.90280
 --------------------------------------------------------
       Center         ----  Spin Dipole Couplings  ----
                      3XX-RR        3YY-RR        3ZZ-RR
 --------------------------------------------------------

 Normal termination of Gaussian 16 at Tue Apr  8 23:57:22 2025.
