 Gaussian 16, Revision C.01,

 ----------------------------------------------------------------------
 #t hf aug-cc-pvdz symm=none int=(grid=ultrafine) guess=(read,tcheck) s
 table=(opt,rrhf)
 ----------------------------------------------------------------------
 -----
 title
 -----
 Symbolic Z-matrix:
 Charge =  0 Multiplicity = 1

 SCF Done:  E(RHF) =  -849.957301689     A.U. after   15 cycles
 Normal termination of Gaussian 16 at Wed Apr  9 00:12:25 2025.
 Gaussian 16:  ES64L-G16RevC.01  3-Jul-2019

 ----------------------------------------------------------------------
 #t hf aug-cc-pvdz iop(5/13=1,5/36=2,99/5=2) pseudo=read geom=check gue
 ss=(read,tcheck) scf=(maxcycle=1)
 ----------------------------------------------------------------------
 -----
 title
 -----
 Structure from the checkpoint file:  "BDE49_nonexpt_2368_mol1.chk"
 Charge =  0 Multiplicity = 1

                         Standard orientation:
 ---------------------------------------------------------------------
 Center     Atomic      Atomic             Coordinates (Angstroms)
 Number     Number       Type             X           Y           Z
 ---------------------------------------------------------------------
      1         14           0       -1.998044   -0.987610   -0.132827
      2         14           0       -2.580551    1.285100   -0.391453
      3          6           0       -0.484722   -1.258875    0.993434
      4          1           0       -1.726735   -1.575692   -1.469363
      5          1           0       -3.159061   -1.711227    0.451259
      6          6           0        0.768406   -0.570765    0.508844
      7          6           0        1.586537   -1.165526   -0.460238
      8          6           0        1.132617    0.690537    0.996253
      9          6           0        2.730167   -0.522104   -0.925589
     10          6           0        3.079461    0.733627   -0.432854
     11          6           0        2.275524    1.337057    0.531195
     12          1           0        1.326504   -2.144798   -0.849635
     13          1           0        3.351123   -1.004390   -1.672547
     14          1           0        3.970465    1.234448   -0.793797
     15          1           0        2.539611    2.311575    0.926940
     16          1           0        0.519378    1.167110    1.754783
     17          1           0       -2.724155    1.938160    0.934439
     18          1           0       -3.883262    1.381400   -1.096172
     19          1           0       -0.326825   -2.340280    1.063558
     20          1           0       -0.747458   -0.915121    1.998575
     21          1           0       -1.567192    2.030241   -1.174390
 ---------------------------------------------------------------------

 SCF Done:  E(RHF) =  -850.308746917     A.U. after    2 cycles

 The electronic state is 1-A.
 Alpha  occ. eigenvalues --  -69.52605 -69.52213 -11.25615 -11.24501 -11.24481
 Alpha  occ. eigenvalues --  -11.24029 -11.23998 -11.23950 -11.23558  -6.19732
 Alpha  occ. eigenvalues --   -6.19413  -3.95065  -3.95058  -3.95052  -3.94771
 Alpha  occ. eigenvalues --   -3.94765  -3.94750  -1.15845  -1.05050  -1.01645
 Alpha  occ. eigenvalues --   -0.94087  -0.83684  -0.81361  -0.76635  -0.71049
 Alpha  occ. eigenvalues --   -0.68111  -0.65423  -0.64262  -0.59916  -0.58927
 Alpha  occ. eigenvalues --   -0.56242  -0.53641  -0.50748  -0.50221  -0.49354
 Alpha  occ. eigenvalues --   -0.48885  -0.46921  -0.46320  -0.40541  -0.34731
 Alpha  occ. eigenvalues --   -0.32991
 Alpha virt. eigenvalues --    0.03242   0.03438   0.03585   0.04288   0.04892
 Alpha virt. eigenvalues --    0.04960   0.05728   0.06884   0.07599   0.07720
 Alpha virt. eigenvalues --    0.08063   0.09165   0.09392   0.09634   0.10018

 Mulliken charges:
               1
     1  Si   0.713004
     2  Si   0.157547
     3  C   -1.089123
     4  H   -0.098281
     5  H   -0.162144
     6  C    1.388812
     7  C    0.263028
     8  C    0.484786
     9  C    0.033464
    10  C    0.128010
    11  C   -0.033588
    12  H   -0.333859
    13  H   -0.235859
    14  H   -0.217530
    15  H   -0.246260
    16  H   -0.337901
    17  H   -0.068904
    18  H   -0.180323
    19  H   -0.068297
    20  H   -0.027616
    21  H   -0.068966
 Sum of Mulliken charges =  -0.00000

 Dipole moment (field-independent basis, Debye):
    X=              0.4101    Y=             -0.3283    Z=              0.3776  Tot=              0.6469

 Test job not archived.
 1\1\GINC-SE455\SP\RHF\Aug-CC-pVDZ\C7H12Si2\OHZDE\09-Apr-2025\0\\#t hf
 aug-cc-pvdz iop(5/13=1,5/36=2,99/5=2) pseudo=read geom=check guess=(re
 ad,tcheck) scf=(maxcycle=1)\\title\\0,1\Si,0,-1.998044,-0.98761,-0.132
 827\Si,0,-2.580551,1.2851,-0.391453\C,0,-0.484722,-1.258875,0.993434\H
 ,0,-1.726735,-1.575692,-1.469363\H,0,-3.159061,-1.711227,0.451259\C,0,
 0.768406,-0.570765,0.508844\C,0,1.586537,-1.165526,-0.460238\C,0,1.132
 617,0.690537,0.996253\C,0,2.730167,-0.522104,-0.925589\C,0,3.079461,0.
 733627,-0.432854\C,0,2.275524,1.337057,0.531195\H,0,1.326504,-2.144798

 Normal termination of Gaussian 16 at Wed Apr  9 00:12:38 2025.
