 Gaussian 16, Revision C.01,

 ----------------------------------------------------------------------
 #t hf aug-cc-pvdz symm=none int=(grid=ultrafine) guess=(read,tcheck) s
 table=(opt,rrhf)
 ----------------------------------------------------------------------
 -----
 title
 -----
 Symbolic Z-matrix:
 Charge =  0 Multiplicity = 1

 SCF Done:  E(RHF) =  -252.536550922     A.U. after   12 cycles
 Normal termination of Gaussian 16 at Wed Apr  9 00:37:11 2025.
 Gaussian 16:  ES64L-G16RevC.01  3-Jul-2019

 ----------------------------------------------------------------------
 #t hf aug-cc-pvdz iop(5/13=1,5/36=2,99/5=2) pseudo=read geom=check gue
 ss=(read,tcheck) scf=(maxcycle=1)
 ----------------------------------------------------------------------
 -----
 title
 -----
 Structure from the checkpoint file:  "BDE49_nonexpt_538_mol1.chk"
 Charge =  0 Multiplicity = 1

                         Standard orientation:
 ---------------------------------------------------------------------
 Center     Atomic      Atomic             Coordinates (Angstroms)
 Number     Number       Type             X           Y           Z
 ---------------------------------------------------------------------
      1          1           0       -0.132742    2.682918    0.000000
      2          7           0       -0.109070    0.770275    1.218708
      3          7           0       -0.109070    0.770275   -1.218708
      4          6           0       -0.109070   -0.688081    1.271308
      5          6           0        0.530350   -1.259465    0.000000
      6          6           0       -0.109070   -0.688081   -1.271308
      7          5           0       -0.120233    1.489153    0.000000
      8          1           0       -0.150125    1.246768    2.103535
      9          1           0       -0.150125    1.246768   -2.103535
     10          1           0        0.455014   -1.032332   -2.144953
     11          1           0       -1.130689   -1.082882   -1.378085
     12          1           0        0.442302   -2.350039    0.000000
     13          1           0        1.596920   -1.011841    0.000000
     14          1           0       -1.130689   -1.082882    1.378085
     15          1           0        0.455014   -1.032332    2.144953
 ---------------------------------------------------------------------

 SCF Done:  E(RHF) =  -252.806403811     A.U. after    2 cycles

 The electronic state is 1-A'.
 Alpha  occ. eigenvalues --  -15.46663 -15.46642 -11.25861 -11.25841 -11.22884
 Alpha  occ. eigenvalues --   -7.56833  -1.20450  -1.14831  -1.02263  -0.90007
 Alpha  occ. eigenvalues --   -0.82060  -0.75429  -0.68063  -0.64728  -0.62501
 Alpha  occ. eigenvalues --   -0.62381  -0.59358  -0.54727  -0.52047  -0.47955
 Alpha  occ. eigenvalues --   -0.47723  -0.43552  -0.38545
 Alpha virt. eigenvalues --    0.03456   0.04172   0.04456   0.04646   0.05363
 Alpha virt. eigenvalues --    0.05554   0.06405   0.06426   0.06586   0.09240
 Alpha virt. eigenvalues --    0.09929   0.12243   0.13234   0.13859   0.14102

 Mulliken charges:
               1
     1  H    0.281787
     2  N    0.531588
     3  N    0.531588
     4  C   -0.515087
     5  C   -0.412254
     6  C   -0.515087
     7  B   -0.505105
     8  H    0.000040
     9  H    0.000040
    10  H    0.061832
    11  H    0.098083
    12  H    0.136360
    13  H    0.146301
    14  H    0.098083
    15  H    0.061832
 Sum of Mulliken charges =  -0.00000

 Dipole moment (field-independent basis, Debye):
    X=             -0.0012    Y=             -1.2730    Z=             -0.0000  Tot=              1.2730

 Test job not archived.
 1\1\GINC-SE212\SP\RHF\Aug-CC-pVDZ\C3H9B1N2\OHZDE\09-Apr-2025\0\\#t hf
 aug-cc-pvdz iop(5/13=1,5/36=2,99/5=2) pseudo=read geom=check guess=(re
 ad,tcheck) scf=(maxcycle=1)\\title\\0,1\H,0,0.,2.674516,-0.250271\N,0,
 1.218708,0.777957,-0.001616\N,0,-1.218708,0.777957,-0.001616\C,0,1.271
 308,-0.665567,0.205845\C,0,0.,-1.322102,-0.345789\C,0,-1.271308,-0.665
 567,0.205845\B,0,0.,1.491112,-0.092832\H,0,2.103535,1.255444,-0.028763
 \H,0,-2.103535,1.255444,-0.028763\H,0,-2.144953,-1.086562,-0.30353\H,0
 ,-1.378085,-0.911021,1.273237\H,0,0.,-2.389059,-0.103495\H,0,0.,-1.228

 Normal termination of Gaussian 16 at Wed Apr  9 00:37:15 2025.
