 Gaussian 16, Revision C.01,

 ----------------------------------------------------------------------
 #t hf aug-cc-pvdz symm=none int=(grid=ultrafine) guess=(read,tcheck) s
 table=(opt,rrhf)
 ----------------------------------------------------------------------
 -----
 title
 -----
 Symbolic Z-matrix:
 Charge =  0 Multiplicity = 1

 SCF Done:  E(RHF) =  -755.873985864     A.U. after   14 cycles
 Normal termination of Gaussian 16 at Tue Apr  8 23:39:19 2025.
 Gaussian 16:  ES64L-G16RevC.01  3-Jul-2019

 ----------------------------------------------------------------------
 #t hf aug-cc-pvdz iop(5/13=1,5/36=2,99/5=2) pseudo=read geom=check gue
 ss=(read,tcheck) scf=(maxcycle=1)
 ----------------------------------------------------------------------
 -----
 title
 -----
 Structure from the checkpoint file:  "BDE49_nonexpt_1601_mol1.chk"
 Charge =  0 Multiplicity = 1

                         Standard orientation:
 ---------------------------------------------------------------------
 Center     Atomic      Atomic             Coordinates (Angstroms)
 Number     Number       Type             X           Y           Z
 ---------------------------------------------------------------------
      1          8           0        0.536584   -0.140719   -0.911803
      2         15           0       -0.709687   -0.055781    0.124744
      3          8           0       -0.468694   -0.545171    1.481770
      4          8           0       -1.207091    1.445919    0.000638
      5          8           0        1.645984    0.623597   -0.325910
      6          6           0        2.588561   -0.327166    0.165201
      7          1           0        3.408950    0.295056    0.530491
      8          1           0        2.942102   -0.973681   -0.641937
      9          1           0        2.163723   -0.910631    0.984563
     10          1           0       -1.402575    1.825315    0.865187
     11          8           0       -1.781233   -0.840583   -0.752464
     12          1           0       -1.802665   -1.780696   -0.538527
 ---------------------------------------------------------------------

 SCF Done:  E(RHF) =  -756.327480162     A.U. after    2 cycles

 The electronic state is 1-A.
 Alpha  occ. eigenvalues --  -84.46933 -20.64589 -20.63599 -20.60583 -20.60416
 Alpha  occ. eigenvalues --  -20.51928 -11.30294  -6.91818  -4.46005  -4.45335
 Alpha  occ. eigenvalues --   -4.45142  -1.61789  -1.54379  -1.49100  -1.40621
 Alpha  occ. eigenvalues --   -1.32675  -0.94323  -0.87080  -0.74527  -0.73481
 Alpha  occ. eigenvalues --   -0.69082  -0.67955  -0.67022  -0.63715  -0.61934
 Alpha  occ. eigenvalues --   -0.58323  -0.55784  -0.55269  -0.53784  -0.51358
 Alpha  occ. eigenvalues --   -0.48890  -0.47406  -0.45710
 Alpha virt. eigenvalues --    0.03457   0.04385   0.04584   0.05787   0.06825
 Alpha virt. eigenvalues --    0.09518   0.10114   0.11145   0.12349   0.14318
 Alpha virt. eigenvalues --    0.14728   0.16211   0.17233   0.18348   0.19420

 Mulliken charges:
               1
     1  O   -1.035865
     2  P    4.286457
     3  O   -1.374360
     4  O   -1.285630
     5  O   -0.718848
     6  C    0.380232
     7  H    0.063832
     8  H    0.146607
     9  H    0.124554
    10  H    0.331050
    11  O   -1.259258
    12  H    0.341228
 Sum of Mulliken charges =  -0.00000

 Dipole moment (field-independent basis, Debye):
    X=              0.6358    Y=             -0.7624    Z=              0.2052  Tot=              1.0137

 Test job not archived.
 1\1\GINC-SE250\SP\RHF\Aug-CC-pVDZ\C1H5O5P1\OHZDE\08-Apr-2025\0\\#t hf
 aug-cc-pvdz iop(5/13=1,5/36=2,99/5=2) pseudo=read geom=check guess=(re
 ad,tcheck) scf=(maxcycle=1)\\title\\0,1\O,0,0.536584,-0.140719,-0.9118
 03\P,0,-0.709687,-0.055781,0.124744\O,0,-0.468694,-0.545171,1.48177\O,
 0,-1.207091,1.445919,0.000638\O,0,1.645984,0.623597,-0.32591\C,0,2.588
 561,-0.327166,0.165201\H,0,3.40895,0.295056,0.530491\H,0,2.942102,-0.9
 73681,-0.641937\H,0,2.163723,-0.910631,0.984563\H,0,-1.402575,1.825315
 ,0.865187\O,0,-1.781233,-0.840583,-0.752464\H,0,-1.802665,-1.780696,-0

 Normal termination of Gaussian 16 at Tue Apr  8 23:39:24 2025.
