 Gaussian 16, Revision C.01,

 ----------------------------------------------------------------------
 #t hf aug-cc-pvdz symm=none int=(grid=ultrafine) guess=(read,tcheck) s
 table=(opt,rrhf)
 ----------------------------------------------------------------------
 -----
 title
 -----
 Symbolic Z-matrix:
 Charge =  0 Multiplicity = 1

 SCF Done:  E(RHF) =  -330.933614883     A.U. after   15 cycles
 Normal termination of Gaussian 16 at Wed Apr  9 00:30:18 2025.
 Gaussian 16:  ES64L-G16RevC.01  3-Jul-2019

 ----------------------------------------------------------------------
 #t hf aug-cc-pvdz iop(5/13=1,5/36=2,99/5=2) pseudo=read geom=check gue
 ss=(read,tcheck) scf=(maxcycle=1)
 ----------------------------------------------------------------------
 -----
 title
 -----
 Structure from the checkpoint file:  "BDE49_nonexpt_326_mol1.chk"
 Charge =  0 Multiplicity = 1

                         Standard orientation:
 ---------------------------------------------------------------------
 Center     Atomic      Atomic             Coordinates (Angstroms)
 Number     Number       Type             X           Y           Z
 ---------------------------------------------------------------------
      1          6           0        2.270032   -0.299765    0.000001
      2          6           0        1.832800    1.023426    0.000000
      3          6           0        0.467909    1.299501   -0.000003
      4          6           0        1.342525   -1.343156   -0.000001
      5          6           0       -0.018419   -1.060188   -0.000004
      6          6           0       -0.484670    0.267218   -0.000005
      7          1           0        3.332313   -0.519461    0.000004
      8          1           0        2.553877    1.833456    0.000002
      9          1           0        0.130705    2.331482   -0.000004
     10          1           0        1.685762   -2.372011    0.000000
     11          1           0       -0.739781   -1.870216   -0.000006
     12          5           0       -2.000474    0.600002   -0.000011
     13          8           0       -2.903044   -0.418363    0.000012
     14          1           0       -3.814920   -0.116070    0.000025
     15          1           0       -2.382297    1.737494    0.000007
 ---------------------------------------------------------------------

 SCF Done:  E(RHF) =  -331.272700726     A.U. after    2 cycles

 The electronic state is 1-A.
 Alpha  occ. eigenvalues --  -20.56264 -11.24916 -11.24643 -11.24343 -11.24014
 Alpha  occ. eigenvalues --  -11.23961 -11.21537  -7.61572  -1.46289  -1.14953
 Alpha  occ. eigenvalues --   -1.01523  -1.01430  -0.83903  -0.83100  -0.76146
 Alpha  occ. eigenvalues --   -0.70730  -0.66393  -0.63633  -0.62298  -0.59592
 Alpha  occ. eigenvalues --   -0.58878  -0.53895  -0.51726  -0.50337  -0.49753
 Alpha  occ. eigenvalues --   -0.45946  -0.34640  -0.34354
 Alpha virt. eigenvalues --    0.03242   0.03641   0.03784   0.04715   0.05008
 Alpha virt. eigenvalues --    0.05246   0.07340   0.07429   0.08285   0.08502
 Alpha virt. eigenvalues --    0.10744   0.10825   0.12368   0.13051   0.14204

 Mulliken charges:
               1
     1  C    0.255497
     2  C    0.221839
     3  C    0.028023
     4  C    0.238101
     5  C    0.452878
     6  C    0.337185
     7  H   -0.211218
     8  H   -0.214406
     9  H   -0.327425
    10  H   -0.216619
    11  H   -0.276283
    12  B    0.383872
    13  O   -1.088804
    14  H    0.451931
    15  H   -0.034572
 Sum of Mulliken charges =  -0.00000

 Dipole moment (field-independent basis, Debye):
    X=             -0.4793    Y=              0.5049    Z=             -0.0000  Tot=              0.6962

 Test job not archived.
 1\1\GINC-SE162\SP\RHF\Aug-CC-pVDZ\C6H7B1O1\OHZDE\09-Apr-2025\0\\#t hf
 aug-cc-pvdz iop(5/13=1,5/36=2,99/5=2) pseudo=read geom=check guess=(re
 ad,tcheck) scf=(maxcycle=1)\\title\\0,1\C,0,-2.270032,-0.299765,-0.000
 001\C,0,-1.8328,1.023426,0.\C,0,-0.467909,1.299501,0.000003\C,0,-1.342
 525,-1.343156,0.000001\C,0,0.018419,-1.060188,0.000004\C,0,0.48467,0.2
 67218,0.000005\H,0,-3.332313,-0.519461,-0.000004\H,0,-2.553877,1.83345
 6,-0.000002\H,0,-0.130705,2.331482,0.000004\H,0,-1.685762,-2.372011,0.
 \H,0,0.739781,-1.870216,0.000006\B,0,2.000474,0.600002,0.000011\O,0,2.

 Normal termination of Gaussian 16 at Wed Apr  9 00:30:24 2025.
