 Gaussian 16, Revision C.01,

 ----------------------------------------------------------------------
 #t hf aug-cc-pvdz symm=none int=(grid=ultrafine) guess=(read,tcheck) s
 table=(opt,rrhf)
 ----------------------------------------------------------------------
 -----
 title
 -----
 Symbolic Z-matrix:
 Charge =  0 Multiplicity = 1

 SCF Done:  E(RHF) =  -1009.74827036     A.U. after   14 cycles
 Normal termination of Gaussian 16 at Tue Apr  8 22:56:40 2025.
 Gaussian 16:  ES64L-G16RevC.01  3-Jul-2019

 ----------------------------------------------------------------------
 #t hf aug-cc-pvdz iop(5/13=1,5/36=2,99/5=2) pseudo=read geom=check gue
 ss=(read,tcheck) scf=(maxcycle=1)
 ----------------------------------------------------------------------
 -----
 title
 -----
 Structure from the checkpoint file:  "BDE49_expt_1872_mol1.chk"
 Charge =  0 Multiplicity = 1

                         Standard orientation:
 ---------------------------------------------------------------------
 Center     Atomic      Atomic             Coordinates (Angstroms)
 Number     Number       Type             X           Y           Z
 ---------------------------------------------------------------------
      1          6           0       -2.698669    0.138992    0.084123
      2          8           0       -1.446858    0.612744   -0.289881
      3          9           0       -3.135164   -0.796674   -0.753748
      4          9           0       -3.512781    1.183262    0.038268
      5          9           0       -2.683910   -0.353686    1.319273
      6          6           0       -0.407997   -0.268595   -0.323114
      7          8           0        0.641781    0.530266   -0.716725
      8          8           0       -0.402349   -1.422878   -0.084106
      9          8           0        1.808662   -0.290822   -0.883155
     10          6           0        2.714244    0.073770    0.107242
     11          9           0        3.755840   -0.719248   -0.090165
     12          9           0        3.085926    1.346406   -0.000246
     13          9           0        2.217271   -0.115557    1.328998
 ---------------------------------------------------------------------

 SCF Done:  E(RHF) =  -1010.67553950     A.U. after    2 cycles

 The electronic state is 1-A.
 Alpha  occ. eigenvalues --  -26.55040 -26.54793 -26.54683 -26.54641 -26.54637
 Alpha  occ. eigenvalues --  -26.54493 -20.72436 -20.71474 -20.68180 -20.60668
 Alpha  occ. eigenvalues --  -11.61916 -11.61180 -11.51562  -1.78357  -1.77882
 Alpha  occ. eigenvalues --   -1.70654  -1.66563  -1.66344  -1.66136  -1.65876
 Alpha  occ. eigenvalues --   -1.61926  -1.54855  -1.41654  -1.04154  -0.98377
 Alpha  occ. eigenvalues --   -0.93371  -0.88385  -0.87351  -0.87055  -0.86886
 Alpha  occ. eigenvalues --   -0.86050  -0.82885  -0.78524  -0.76157  -0.74362
 Alpha  occ. eigenvalues --   -0.73215  -0.72414  -0.71743  -0.71512  -0.68486
 Alpha  occ. eigenvalues --   -0.68164  -0.67673  -0.67515  -0.66495  -0.65906
 Alpha  occ. eigenvalues --   -0.65867  -0.65099  -0.63965  -0.59069  -0.57308
 Alpha  occ. eigenvalues --   -0.54125  -0.52927
 Alpha virt. eigenvalues --    0.07244   0.07616   0.07864   0.08326   0.09165
 Alpha virt. eigenvalues --    0.09475   0.09911   0.12974   0.13654   0.14187
 Alpha virt. eigenvalues --    0.14630   0.15364   0.18249   0.19477   0.19755

 Mulliken charges:
               1
     1  C    2.847493
     2  O   -1.313238
     3  F   -0.673070
     4  F   -0.665635
     5  F   -0.667390
     6  C    2.017763
     7  O   -0.795642
     8  O   -0.813319
     9  O   -0.927395
    10  C    3.001788
    11  F   -0.659185
    12  F   -0.665484
    13  F   -0.686686
 Sum of Mulliken charges =  -0.00000

 Dipole moment (field-independent basis, Debye):
    X=             -0.0208    Y=              0.9663    Z=             -0.1273  Tot=              0.9749

 Test job not archived.
 1\1\GINC-SE423\SP\RHF\Aug-CC-pVDZ\C3F6O4\OHZDE\08-Apr-2025\0\\#t hf au
 g-cc-pvdz iop(5/13=1,5/36=2,99/5=2) pseudo=read geom=check guess=(read
 ,tcheck) scf=(maxcycle=1)\\title\\0,1\C,0,-2.698669,0.138992,0.084123\
 O,0,-1.446858,0.612744,-0.289881\F,0,-3.135164,-0.796674,-0.753748\F,0
 ,-3.512781,1.183262,0.038268\F,0,-2.68391,-0.353686,1.319273\C,0,-0.40
 7997,-0.268595,-0.323114\O,0,0.641781,0.530266,-0.716725\O,0,-0.402349
 ,-1.422878,-0.084106\O,0,1.808662,-0.290822,-0.883155\C,0,2.714244,0.0
 7377,0.107242\F,0,3.75584,-0.719248,-0.090165\F,0,3.085926,1.346406,-0

 Normal termination of Gaussian 16 at Tue Apr  8 22:56:46 2025.
