 Gaussian 16, Revision C.01,

 ----------------------------------------------------------------------
 #t hf aug-cc-pvdz symm=none int=(grid=ultrafine) guess=(read,tcheck) s
 table=(opt,rrhf)
 ----------------------------------------------------------------------
 -----
 title
 -----
 Symbolic Z-matrix:
 Charge =  0 Multiplicity = 1

 SCF Done:  E(RHF) =  -762.383084006     A.U. after   13 cycles
 Normal termination of Gaussian 16 at Tue Apr  8 23:27:47 2025.
 Gaussian 16:  ES64L-G16RevC.01  3-Jul-2019

 ----------------------------------------------------------------------
 #t hf aug-cc-pvdz iop(5/13=1,5/36=2,99/5=2) pseudo=read geom=check gue
 ss=(read,tcheck) scf=(maxcycle=1)
 ----------------------------------------------------------------------
 -----
 title
 -----
 Structure from the checkpoint file:  "BDE49_nonexpt_1285_mol1.chk"
 Charge =  0 Multiplicity = 1

                         Standard orientation:
 ---------------------------------------------------------------------
 Center     Atomic      Atomic             Coordinates (Angstroms)
 Number     Number       Type             X           Y           Z
 ---------------------------------------------------------------------
      1          6           0        1.581221   -0.041178   -0.044095
      2         15           0       -1.300501   -0.062169    0.053396
      3          8           0       -1.427989   -0.038677    1.521100
      4          6           0        2.739819   -0.405133   -0.993100
      5          1           0        2.643528    0.109053   -1.954435
      6          1           0        2.769474   -1.481564   -1.187623
      7          6           0        1.787046   -0.751700    1.307240
      8          1           0        1.856652   -1.835685    1.170742
      9          1           0        0.960577   -0.548748    1.990110
     10          1           0        2.716975   -0.415058    1.775101
     11          1           0        3.699558   -0.118484   -0.553418
     12          6           0        1.566130    1.484515    0.167517
     13          1           0        2.540603    1.822172    0.531744
     14          1           0        0.820338    1.775481    0.911542
     15          1           0        1.350352    2.017231   -0.762976
     16          6           0        0.268197   -0.536037   -0.712165
     17          1           0        0.265748   -1.629232   -0.752943
     18          1           0        0.208052   -0.180599   -1.746129
     19          8           0       -2.283817   -1.082750   -0.708586
     20          1           0       -3.160432   -1.115154   -0.305854
     21          8           0       -1.658684    1.372874   -0.606479
     22          1           0       -1.854472    2.018744    0.082538
 ---------------------------------------------------------------------

 SCF Done:  E(RHF) =  -762.869833580     A.U. after    2 cycles

 The electronic state is 1-A.
 Alpha  occ. eigenvalues --  -84.42178 -20.58787 -20.58437 -20.49855 -11.25737
 Alpha  occ. eigenvalues --  -11.25013 -11.22885 -11.22681 -11.21768  -6.87471
 Alpha  occ. eigenvalues --   -4.41571  -4.40949  -4.40330  -1.52551  -1.46800
 Alpha  occ. eigenvalues --   -1.38172  -1.11937  -0.98166  -0.94027  -0.93477
 Alpha  occ. eigenvalues --   -0.83381  -0.74857  -0.72520  -0.67261  -0.64546
 Alpha  occ. eigenvalues --   -0.63360  -0.62890  -0.61352  -0.59660  -0.57815
 Alpha  occ. eigenvalues --   -0.55686  -0.54036  -0.53441  -0.52395  -0.52275
 Alpha  occ. eigenvalues --   -0.50430  -0.48247  -0.47861  -0.47129  -0.45055
 Alpha  occ. eigenvalues --   -0.43036
 Alpha virt. eigenvalues --    0.03496   0.03690   0.03869   0.04310   0.05294
 Alpha virt. eigenvalues --    0.06073   0.06349   0.06587   0.07647   0.08524
 Alpha virt. eigenvalues --    0.09533   0.09641   0.09981   0.10923   0.12615

 Mulliken charges:
               1
     1  C   -3.027000
     2  P    4.690000
     3  O   -1.591472
     4  C    0.321271
     5  H    0.192374
     6  H    0.219183
     7  C    0.283073
     8  H    0.180383
     9  H    0.195967
    10  H    0.222233
    11  H    0.172229
    12  C    0.153299
    13  H    0.182665
    14  H    0.136535
    15  H    0.219441
    16  C   -0.507913
    17  H    0.061855
    18  H    0.067031
    19  O   -1.451832
    20  H    0.359385
    21  O   -1.414019
    22  H    0.335311
 Sum of Mulliken charges =   0.00000

 Dipole moment (field-independent basis, Debye):
    X=              0.2909    Y=              0.4894    Z=             -1.6358  Tot=              1.7320

 Test job not archived.
 1\1\GINC-SE252\SP\RHF\Aug-CC-pVDZ\C5H13O3P1\OHZDE\08-Apr-2025\0\\#t hf
  aug-cc-pvdz iop(5/13=1,5/36=2,99/5=2) pseudo=read geom=check guess=(r
 ead,tcheck) scf=(maxcycle=1)\\title\\0,1\C,0,1.581221,-0.041178,-0.044
 095\P,0,-1.300501,-0.062169,0.053396\O,0,-1.427989,-0.038677,1.5211\C,
 0,2.739819,-0.405133,-0.9931\H,0,2.643528,0.109053,-1.954435\H,0,2.769
 474,-1.481564,-1.187623\C,0,1.787046,-0.7517,1.30724\H,0,1.856652,-1.8
 35685,1.170742\H,0,0.960577,-0.548748,1.99011\H,0,2.716975,-0.415058,1
 .775101\H,0,3.699558,-0.118484,-0.553418\C,0,1.56613,1.484515,0.167517

 Normal termination of Gaussian 16 at Tue Apr  8 23:28:00 2025.
