 Gaussian 16, Revision C.01,

 ----------------------------------------------------------------------
 #t hf aug-cc-pvdz symm=none int=(grid=ultrafine) guess=(read,tcheck) s
 table=(opt,rrhf)
 ----------------------------------------------------------------------
 -----
 title
 -----
 Symbolic Z-matrix:
 Charge =  0 Multiplicity = 1

 SCF Done:  E(RHF) =  -270.055892092     A.U. after   13 cycles

 1\1\GINC-SE457\Stability\RHF\Aug-CC-pVDZ\C5H10O1\OHZDE\08-Apr-2025\0\\
 #t hf aug-cc-pvdz symm=none int=(grid=ultrafine) guess=(read,tcheck) s
 table=(opt,rrhf)\\title\\0,1\C,0,0.839651,0.8374,0.000012\C,0,2.21667,
 0.218679,0.000021\O,0,2.442837,-0.964824,-0.000028\H,0,3.054241,0.9532
 01,-0.000032\C,0,-0.313125,-0.164065,0.000008\H,0,0.789245,1.508892,-0
 .869964\H,0,0.789238,1.508894,0.869986\C,0,-1.691866,0.504773,0.\H,0,-
 0.217399,-0.81931,0.872348\H,0,-0.217391,-0.819314,-0.872327\C,0,-2.84
 4357,-0.502775,-0.000003\H,0,-1.779218,1.159148,-0.876299\H,0,-1.77922

 Normal termination of Gaussian 16 at Tue Apr  8 22:34:44 2025.
 Gaussian 16:  ES64L-G16RevC.01  3-Jul-2019

 ----------------------------------------------------------------------
 #t hf aug-cc-pvdz iop(5/13=1,5/36=2,99/5=2) pseudo=read geom=check gue
 ss=(read,tcheck) scf=(maxcycle=1)
 ----------------------------------------------------------------------
 -----
 title
 -----
 Structure from the checkpoint file:  "BDE49_expt_1085_mol1.chk"
 Charge =  0 Multiplicity = 1

                         Standard orientation:
 ---------------------------------------------------------------------
 Center     Atomic      Atomic             Coordinates (Angstroms)
 Number     Number       Type             X           Y           Z
 ---------------------------------------------------------------------
      1          6           0        0.839651    0.837400    0.000012
      2          6           0        2.216670    0.218679    0.000021
      3          8           0        2.442837   -0.964824   -0.000028
      4          1           0        3.054241    0.953201   -0.000032
      5          6           0       -0.313125   -0.164065    0.000008
      6          1           0        0.789245    1.508892   -0.869964
      7          1           0        0.789238    1.508894    0.869986
      8          6           0       -1.691866    0.504773    0.000000
      9          1           0       -0.217399   -0.819310    0.872348
     10          1           0       -0.217391   -0.819314   -0.872327
     11          6           0       -2.844357   -0.502775   -0.000003
     12          1           0       -1.779218    1.159148   -0.876299
     13          1           0       -1.779226    1.159152    0.876296
     14          1           0       -2.804706   -1.148601   -0.882634
     15          1           0       -3.814596    0.001053   -0.000009
     16          1           0       -2.804715   -1.148597    0.882631
 ---------------------------------------------------------------------

 SCF Done:  E(RHF) =  -270.344222924     A.U. after    2 cycles

 The electronic state is 1-A.
 Alpha  occ. eigenvalues --  -20.54588 -11.34191 -11.25137 -11.23426 -11.23336
 Alpha  occ. eigenvalues --  -11.22613  -1.47696  -1.09237  -1.01800  -0.91210
 Alpha  occ. eigenvalues --   -0.81734  -0.77633  -0.67970  -0.66143  -0.63442
 Alpha  occ. eigenvalues --   -0.60218  -0.59321  -0.54294  -0.53100  -0.49685
 Alpha  occ. eigenvalues --   -0.49667  -0.48548  -0.47667  -0.41415
 Alpha virt. eigenvalues --    0.03171   0.03592   0.03860   0.04491   0.05565
 Alpha virt. eigenvalues --    0.06210   0.07128   0.07379   0.08755   0.10035
 Alpha virt. eigenvalues --    0.10933   0.11675   0.11984   0.13815   0.15388

 Mulliken charges:
               1
     1  C   -0.484609
     2  C    1.057234
     3  O   -1.149917
     4  H    0.112133
     5  C   -0.217382
     6  H    0.200214
     7  H    0.200224
     8  C   -0.225958
     9  H    0.118308
    10  H    0.118312
    11  C   -0.398325
    12  H    0.111825
    13  H    0.111825
    14  H    0.162264
    15  H    0.121589
    16  H    0.162263
 Sum of Mulliken charges =   0.00000

 Dipole moment (field-independent basis, Debye):
    X=             -1.2029    Y=              2.6685    Z=              0.0001  Tot=              2.9271

 Test job not archived.
 1\1\GINC-SE457\SP\RHF\Aug-CC-pVDZ\C5H10O1\OHZDE\08-Apr-2025\0\\#t hf a
 ug-cc-pvdz iop(5/13=1,5/36=2,99/5=2) pseudo=read geom=check guess=(rea
 d,tcheck) scf=(maxcycle=1)\\title\\0,1\C,0,0.839651,0.8374,0.000012\C,
 0,2.21667,0.218679,0.000021\O,0,2.442837,-0.964824,-0.000028\H,0,3.054
 241,0.953201,-0.000032\C,0,-0.313125,-0.164065,0.000008\H,0,0.789245,1
 .508892,-0.869964\H,0,0.789238,1.508894,0.869986\C,0,-1.691866,0.50477
 3,0.\H,0,-0.217399,-0.81931,0.872348\H,0,-0.217391,-0.819314,-0.872327
 \C,0,-2.844357,-0.502775,-0.000003\H,0,-1.779218,1.159148,-0.876299\H,

 Normal termination of Gaussian 16 at Tue Apr  8 22:34:48 2025.
