 Gaussian 16, Revision C.01,

 ----------------------------------------------------------------------
 #t hf aug-cc-pvdz symm=none int=(grid=ultrafine) guess=(read,tcheck) s
 table=(opt,rrhf)
 ----------------------------------------------------------------------
 -----
 title
 -----
 Symbolic Z-matrix:
 Charge =  0 Multiplicity = 1

 SCF Done:  E(RHF) =  -1052.49477819     A.U. after   14 cycles
 Normal termination of Gaussian 16 at Tue Apr  8 23:39:33 2025.
 Gaussian 16:  ES64L-G16RevC.01  3-Jul-2019

 ----------------------------------------------------------------------
 #t hf aug-cc-pvdz iop(5/13=1,5/36=2,99/5=2) pseudo=read geom=check gue
 ss=(read,tcheck) scf=(maxcycle=1)
 ----------------------------------------------------------------------
 -----
 title
 -----
 Structure from the checkpoint file:  "BDE49_nonexpt_1615_mol1.chk"
 Charge =  0 Multiplicity = 1

                         Standard orientation:
 ---------------------------------------------------------------------
 Center     Atomic      Atomic             Coordinates (Angstroms)
 Number     Number       Type             X           Y           Z
 ---------------------------------------------------------------------
      1          8           0       -0.249386    0.631965   -0.642666
      2         15           0       -1.655805    0.085591    0.033947
      3          8           0       -2.540707    1.241416    0.068058
      4          8           0       -1.228740   -0.656218    1.360616
      5          8           0        0.744879   -0.441348   -0.730106
      6          6           0        1.851561   -0.005635   -0.040003
      7          9           0        2.729301   -0.996711   -0.128199
      8          9           0        1.580215    0.229240    1.258994
      9          9           0        2.372553    1.105717   -0.549433
     10          1           0       -0.732467   -0.098732    1.972919
     11          8           0       -2.099030   -1.181224   -0.799744
     12          1           0       -2.694581   -0.952249   -1.523625
 ---------------------------------------------------------------------

 SCF Done:  E(RHF) =  -1053.20588341     A.U. after    2 cycles

 The electronic state is 1-A.
 Alpha  occ. eigenvalues --  -84.49370 -26.54570 -26.54412 -26.53961 -20.70168
 Alpha  occ. eigenvalues --  -20.68597 -20.62799 -20.62777 -20.53643 -11.60639
 Alpha  occ. eigenvalues --   -6.94256  -4.48471  -4.47701  -4.47577  -1.77336
 Alpha  occ. eigenvalues --   -1.66267  -1.65905  -1.65287  -1.57395  -1.51233
 Alpha  occ. eigenvalues --   -1.43453  -1.37597  -0.97963  -0.90460  -0.86581
 Alpha  occ. eigenvalues --   -0.86366  -0.85830  -0.77585  -0.74387  -0.73859
 Alpha  occ. eigenvalues --   -0.72169  -0.69566  -0.68870  -0.67617  -0.66993
 Alpha  occ. eigenvalues --   -0.66107  -0.65541  -0.64828  -0.61276  -0.59114
 Alpha  occ. eigenvalues --   -0.57130  -0.55801  -0.53811  -0.49332  -0.48875
 Alpha virt. eigenvalues --    0.03351   0.04489   0.07629   0.08090   0.09353
 Alpha virt. eigenvalues --    0.09782   0.10506   0.11788   0.12641   0.14540
 Alpha virt. eigenvalues --    0.15949   0.17111   0.18014   0.19259   0.20605

 Mulliken charges:
               1
     1  O   -1.024048
     2  P    4.136463
     3  O   -1.305821
     4  O   -1.277492
     5  O   -0.975066
     6  C    2.986900
     7  F   -0.664367
     8  F   -0.707481
     9  F   -0.661800
    10  H    0.382048
    11  O   -1.265713
    12  H    0.376377
 Sum of Mulliken charges =  -0.00000

 Dipole moment (field-independent basis, Debye):
    X=              0.5289    Y=             -1.5406    Z=              0.0294  Tot=              1.6292

 Test job not archived.
 1\1\GINC-SE460\SP\RHF\Aug-CC-pVDZ\C1H2F3O5P1\OHZDE\08-Apr-2025\0\\#t h
 f aug-cc-pvdz iop(5/13=1,5/36=2,99/5=2) pseudo=read geom=check guess=(
 read,tcheck) scf=(maxcycle=1)\\title\\0,1\O,0,0.249386,-0.631965,-0.64
 2666\P,0,1.655805,-0.085591,0.033947\O,0,2.540707,-1.241416,0.068058\O
 ,0,1.22874,0.656218,1.360616\O,0,-0.744879,0.441348,-0.730106\C,0,-1.8
 51561,0.005635,-0.040003\F,0,-2.729301,0.996711,-0.128199\F,0,-1.58021
 5,-0.22924,1.258994\F,0,-2.372553,-1.105717,-0.549433\H,0,0.732467,0.0
 98732,1.972919\O,0,2.09903,1.181224,-0.799744\H,0,2.694581,0.952249,-1

 Normal termination of Gaussian 16 at Tue Apr  8 23:39:40 2025.
