 Gaussian 16, Revision C.01,

 ----------------------------------------------------------------------
 #t hf aug-cc-pvdz symm=none int=(grid=ultrafine) guess=(read,tcheck) s
 table=opt
 ----------------------------------------------------------------------
 -----
 title
 -----
 Symbolic Z-matrix:
 Charge =  0 Multiplicity = 2

 SCF Done:  E(UHF) =  -518.430603190     A.U. after   15 cycles
 Normal termination of Gaussian 16 at Tue Apr  8 23:59:07 2025.
 Gaussian 16:  ES64L-G16RevC.01  3-Jul-2019

 ----------------------------------------------------------------------
 #t hf aug-cc-pvdz iop(5/13=1,5/36=2,99/5=2) pseudo=read geom=check gue
 ss=(read,tcheck) scf=(maxcycle=1)
 ----------------------------------------------------------------------
 -----
 title
 -----
 Structure from the checkpoint file:  "BDE49_nonexpt_2072_mol2.chk"
 Charge =  0 Multiplicity = 2

                         Standard orientation:
 ---------------------------------------------------------------------
 Center     Atomic      Atomic             Coordinates (Angstroms)
 Number     Number       Type             X           Y           Z
 ---------------------------------------------------------------------
      1         14           0        1.803244   -0.357833    0.047446
      2          6           0        0.005933    0.243757    0.374576
      3          8           0       -0.847188   -0.627480   -0.330545
      4          8           0       -0.167555    1.602957   -0.004532
      5          6           0       -2.228317   -0.494107    0.014344
      6          1           0       -2.393124   -0.758638    1.066818
      7          1           0       -2.778990   -1.186594   -0.621353
      8          1           0       -2.579587    0.526622   -0.160097
      9          1           0        0.058954    1.674952   -0.939752
     10          1           0       -0.234995    0.232779    1.445359
     11          1           0        2.173574    0.042307   -1.337489
     12          1           0        1.961004   -1.823479    0.229374
 ---------------------------------------------------------------------

 SCF Done:  E(UHF) =  -518.693599040     A.U. after    2 cycles

 The electronic state is 2-A.
 Alpha  occ. eigenvalues --  -69.54071 -20.56225 -20.55851 -11.33569 -11.28591
 Alpha  occ. eigenvalues --   -6.21253  -3.97216  -3.96295  -3.96278  -1.49969
 Alpha  occ. eigenvalues --   -1.43297  -0.97132  -0.88002  -0.76005  -0.69874
 Alpha  occ. eigenvalues --   -0.67538  -0.63450  -0.59739  -0.58969  -0.54597
 Alpha  occ. eigenvalues --   -0.49855  -0.47843  -0.44370  -0.42907  -0.34040
 Alpha virt. eigenvalues --    0.03725   0.04195   0.04281   0.05084   0.06266
 Alpha virt. eigenvalues --    0.07014   0.07151   0.08117   0.09097   0.09748
 Alpha virt. eigenvalues --    0.12345   0.13907   0.14655   0.15268   0.15837

  Beta  occ. eigenvalues --  -69.53504 -20.56235 -20.55753 -11.33513 -11.28560
  Beta  occ. eigenvalues --   -6.20395  -3.95903  -3.95894  -3.95012  -1.49818
  Beta  occ. eigenvalues --   -1.43200  -0.96766  -0.87689  -0.73363  -0.69163
  Beta  occ. eigenvalues --   -0.67429  -0.62098  -0.59456  -0.58873  -0.54457
  Beta  occ. eigenvalues --   -0.49061  -0.47672  -0.44160  -0.42171
  Beta virt. eigenvalues --    0.02450   0.03832   0.04271   0.04735   0.05432
  Beta virt. eigenvalues --    0.06470   0.07104   0.07937   0.08801   0.09430
  Beta virt. eigenvalues --    0.09961   0.12511   0.14166   0.14828   0.15873

 Mulliken charges and spin densities:
               1          2
     1  Si   0.715409   0.995131
     2  C    1.212785  -0.021447
     3  O   -1.299258  -0.020984
     4  O   -1.130446   0.000862
     5  C    0.183022   0.007000
     6  H    0.142465  -0.001032
     7  H   -0.015934  -0.000677
     8  H    0.186921  -0.000373
     9  H    0.272732  -0.001567
    10  H    0.083535   0.008579
    11  H   -0.211281   0.004741
    12  H   -0.139949   0.029767
 Sum of Mulliken charges =  -0.00000   1.00000

 Dipole moment (field-independent basis, Debye):
    X=             -0.6752    Y=             -0.3638    Z=             -0.0459  Tot=              0.7684
                          Isotropic Fermi Contact Couplings
        Atom                 a.u.       MegaHertz       Gauss      10(-4) cm-1
     1  Si(29)             0.57680    -512.61669    -182.91438    -170.99052
     2  C(13)              0.02197      24.70053       8.81376       8.23921
     3  O(17)              0.04855     -29.43028     -10.50146      -9.81689
     4  O(17)             -0.00191       1.15817       0.41326       0.38632
     5  C(13)              0.00561       6.31121       2.25200       2.10519
     6  H(1)              -0.00022      -0.98615      -0.35188      -0.32894
     7  H(1)               0.00000       0.01337       0.00477       0.00446
     8  H(1)              -0.00018      -0.79479      -0.28360      -0.26511

 Normal termination of Gaussian 16 at Tue Apr  8 23:59:11 2025.
