 Gaussian 16, Revision C.01,

 ----------------------------------------------------------------------
 #t hf aug-cc-pvdz symm=none int=(grid=ultrafine) guess=(read,tcheck) s
 table=(opt,rrhf)
 ----------------------------------------------------------------------
 -----
 title
 -----
 Symbolic Z-matrix:
 Charge =  0 Multiplicity = 1

 SCF Done:  E(RHF) =  -749.148289227     A.U. after   13 cycles
 Normal termination of Gaussian 16 at Wed Apr  9 00:10:52 2025.
 Gaussian 16:  ES64L-G16RevC.01  3-Jul-2019

 ----------------------------------------------------------------------
 #t hf aug-cc-pvdz iop(5/13=1,5/36=2,99/5=2) pseudo=read geom=check gue
 ss=(read,tcheck) scf=(maxcycle=1)
 ----------------------------------------------------------------------
 -----
 title
 -----
 Structure from the checkpoint file:  "BDE49_nonexpt_2369_mol1.chk"
 Charge =  0 Multiplicity = 1

                         Standard orientation:
 ---------------------------------------------------------------------
 Center     Atomic      Atomic             Coordinates (Angstroms)
 Number     Number       Type             X           Y           Z
 ---------------------------------------------------------------------
      1         14           0        2.120308    0.327390    0.298481
      2         14           0        0.223038   -0.868676   -0.418258
      3          1           0        2.267188    1.577960   -0.478073
      4          1           0        3.334685   -0.504357    0.113908
      5          1           0        1.988723    0.655021    1.738488
      6          6           0       -1.332660    0.220493   -0.072970
      7          1           0        0.129030   -2.187296    0.266857
      8          1           0        0.257450   -1.105182   -1.879738
      9          8           0       -1.355704    1.351880   -0.533099
     10          7           0       -2.349494   -0.291804    0.677111
     11          1           0       -2.330986   -1.234366    1.028086
     12          1           0       -3.164881    0.280843    0.850184
 ---------------------------------------------------------------------

 SCF Done:  E(RHF) =  -749.385115884     A.U. after    2 cycles

 The electronic state is 1-A.
 Alpha  occ. eigenvalues --  -69.54194 -69.53193 -20.51837 -15.53707 -11.35289
 Alpha  occ. eigenvalues --   -6.21417  -6.20389  -3.96753  -3.96735  -3.96717
 Alpha  occ. eigenvalues --   -3.95746  -3.95741  -3.95733  -1.45950  -1.22460
 Alpha  occ. eigenvalues --   -0.86951  -0.80059  -0.76089  -0.70930  -0.65152
 Alpha  occ. eigenvalues --   -0.59311  -0.56947  -0.51304  -0.49369  -0.48395
 Alpha  occ. eigenvalues --   -0.44373  -0.42269  -0.40046
 Alpha virt. eigenvalues --    0.02653   0.03938   0.04434   0.05608   0.06349
 Alpha virt. eigenvalues --    0.06897   0.07052   0.07801   0.08886   0.09245
 Alpha virt. eigenvalues --    0.09631   0.10147   0.10458   0.11404   0.12928

 Mulliken charges:
               1
     1  Si   0.344519
     2  Si   0.691208
     3  H   -0.093438
     4  H   -0.129494
     5  H   -0.101137
     6  C    0.046218
     7  H   -0.165232
     8  H   -0.160525
     9  O   -1.108224
    10  N    0.621815
    11  H    0.013695
    12  H    0.040595
 Sum of Mulliken charges =  -0.00000

 Dipole moment (field-independent basis, Debye):
    X=             -0.5247    Y=             -2.9194    Z=              1.5809  Tot=              3.3612

 Test job not archived.
 1\1\GINC-SE457\SP\RHF\Aug-CC-pVDZ\C1H7N1O1Si2\OHZDE\09-Apr-2025\0\\#t
 hf aug-cc-pvdz iop(5/13=1,5/36=2,99/5=2) pseudo=read geom=check guess=
 (read,tcheck) scf=(maxcycle=1)\\title\\0,1\Si,0,2.120308,0.32739,0.298
 481\Si,0,0.223038,-0.868676,-0.418258\H,0,2.267188,1.57796,-0.478073\H
 ,0,3.334685,-0.504357,0.113908\H,0,1.988723,0.655021,1.738488\C,0,-1.3
 3266,0.220493,-0.07297\H,0,0.12903,-2.187296,0.266857\H,0,0.25745,-1.1
 05182,-1.879738\O,0,-1.355704,1.35188,-0.533099\N,0,-2.349494,-0.29180
 4,0.677111\H,0,-2.330986,-1.234366,1.028086\H,0,-3.164881,0.280843,0.8

 Normal termination of Gaussian 16 at Wed Apr  9 00:10:55 2025.
