 Gaussian 16, Revision C.01,

 ----------------------------------------------------------------------
 #t hf aug-cc-pvdz symm=none int=(grid=ultrafine) guess=(read,tcheck) s
 table=(opt,rrhf)
 ----------------------------------------------------------------------
 -----
 title
 -----
 Symbolic Z-matrix:
 Charge =  0 Multiplicity = 1

 SCF Done:  E(RHF) =  -312.591758983     A.U. after   13 cycles
 Normal termination of Gaussian 16 at Wed Apr  9 00:38:50 2025.
 Gaussian 16:  ES64L-G16RevC.01  3-Jul-2019

 ----------------------------------------------------------------------
 #t hf aug-cc-pvdz iop(5/13=1,5/36=2,99/5=2) pseudo=read geom=check gue
 ss=(read,tcheck) scf=(maxcycle=1)
 ----------------------------------------------------------------------
 -----
 title
 -----
 Structure from the checkpoint file:  "BDE49_nonexpt_567_mol1.chk"
 Charge =  0 Multiplicity = 1

                         Standard orientation:
 ---------------------------------------------------------------------
 Center     Atomic      Atomic             Coordinates (Angstroms)
 Number     Number       Type             X           Y           Z
 ---------------------------------------------------------------------
      1          6           0       -0.730179   -0.023405    0.000006
      2          5           0        1.743778    0.805428   -0.000014
      3          8           0        2.286851   -0.462503   -0.000016
      4          6           0       -0.629366   -0.900031    1.262451
      5          1           0       -0.708325   -0.282701    2.161427
      6          1           0        0.327469   -1.423026    1.288344
      7          6           0       -0.629384   -0.900038   -1.262437
      8          1           0        0.327451   -1.423032   -1.288341
      9          1           0       -0.708355   -0.282712   -2.161415
     10          1           0       -1.432441   -1.642972   -1.281989
     11          1           0       -1.432423   -1.642966    1.282018
     12          6           0       -2.068909    0.729457    0.000013
     13          1           0       -2.906309    0.028065    0.000021
     14          1           0       -2.159606    1.363014   -0.888069
     15          1           0       -2.159594    1.363018    0.888093
     16          7           0        0.352927    0.987005   -0.000005
     17          1           0        3.245446   -0.443424   -0.000024
     18          1           0        2.447625    1.775413   -0.000023
     19          1           0        0.021903    1.939273   -0.000005
 ---------------------------------------------------------------------

 SCF Done:  E(RHF) =  -312.925736895     A.U. after    2 cycles

 The electronic state is 1-A.
 Alpha  occ. eigenvalues --  -20.54394 -15.47514 -11.27036 -11.22447 -11.21211
 Alpha  occ. eigenvalues --  -11.21185  -7.60489  -1.44509  -1.19097  -1.04236
 Alpha  occ. eigenvalues --   -0.93738  -0.92838  -0.79141  -0.75798  -0.66474
 Alpha  occ. eigenvalues --   -0.65264  -0.61758  -0.61391  -0.58331  -0.56157
 Alpha  occ. eigenvalues --   -0.54348  -0.53490  -0.52247  -0.51042  -0.48650
 Alpha  occ. eigenvalues --   -0.47724  -0.46184  -0.40931
 Alpha virt. eigenvalues --    0.03302   0.03827   0.04350   0.04492   0.05453
 Alpha virt. eigenvalues --    0.05545   0.05840   0.06291   0.06469   0.09076
 Alpha virt. eigenvalues --    0.09423   0.09873   0.10122   0.10962   0.12060

 Mulliken charges:
               1
     1  C   -3.882763
     2  B    0.085687
     3  O   -1.054686
     4  C    0.299112
     5  H    0.165025
     6  H    0.161838
     7  C    0.299114
     8  H    0.161838
     9  H    0.165025
    10  H    0.214056
    11  H    0.214058
    12  C    0.442156
    13  H    0.161884
    14  H    0.200106
    15  H    0.200105
    16  N    1.472304
    17  H    0.513891
    18  H    0.083635
    19  H    0.097616
 Sum of Mulliken charges =  -0.00000

 Dipole moment (field-independent basis, Debye):
    X=              0.0691    Y=              0.5248    Z=              0.0000  Tot=              0.5293

 Test job not archived.
 1\1\GINC-SE212\SP\RHF\Aug-CC-pVDZ\C4H12B1N1O1\OHZDE\09-Apr-2025\0\\#t
 hf aug-cc-pvdz iop(5/13=1,5/36=2,99/5=2) pseudo=read geom=check guess=
 (read,tcheck) scf=(maxcycle=1)\\title\\0,1\C,0,-0.730179,-0.023405,0.0
 00006\B,0,1.743778,0.805428,-0.000014\O,0,2.286851,-0.462503,-0.000016
 \C,0,-0.629366,-0.900031,1.262451\H,0,-0.708325,-0.282701,2.161427\H,0
 ,0.327469,-1.423026,1.288344\C,0,-0.629384,-0.900038,-1.262437\H,0,0.3
 27451,-1.423032,-1.288341\H,0,-0.708355,-0.282712,-2.161415\H,0,-1.432
 441,-1.642972,-1.281989\H,0,-1.432423,-1.642966,1.282018\C,0,-2.068909

 Normal termination of Gaussian 16 at Wed Apr  9 00:38:58 2025.
