 Gaussian 16, Revision C.01,

 ----------------------------------------------------------------------
 #t hf aug-cc-pvdz symm=none int=(grid=ultrafine) guess=(read,tcheck) s
 table=(opt,rrhf)
 ----------------------------------------------------------------------
 -----
 title
 -----
 Symbolic Z-matrix:
 Charge =  0 Multiplicity = 1

 SCF Done:  E(RHF) =  -1132.00287874     A.U. after   13 cycles
 Normal termination of Gaussian 16 at Tue Apr  8 23:50:19 2025.
 Gaussian 16:  ES64L-G16RevC.01  3-Jul-2019

 ----------------------------------------------------------------------
 #t hf aug-cc-pvdz iop(5/13=1,5/36=2,99/5=2) pseudo=read geom=check gue
 ss=(read,tcheck) scf=(maxcycle=1)
 ----------------------------------------------------------------------
 -----
 title
 -----
 Structure from the checkpoint file:  "BDE49_nonexpt_187_mol1.chk"
 Charge =  0 Multiplicity = 1

                         Standard orientation:
 ---------------------------------------------------------------------
 Center     Atomic      Atomic             Coordinates (Angstroms)
 Number     Number       Type             X           Y           Z
 ---------------------------------------------------------------------
      1         17           0       -1.157357   -1.521641   -0.020571
      2         17           0       -1.157249    1.521698   -0.020578
      3          5           0       -0.298662   -0.000002   -0.006648
      4          6           0        1.286332   -0.000060    0.110874
      5          8           0        1.837891   -0.000022    1.184296
      6          8           0        1.940856   -0.000048   -1.066865
      7          1           0        2.893644   -0.000047   -0.871918
 ---------------------------------------------------------------------

 SCF Done:  E(RHF) =  -1132.35764018     A.U. after    2 cycles

 The electronic state is 1-A.
 Alpha  occ. eigenvalues -- -105.60038-105.60037 -20.62453 -20.56573 -11.40630
 Alpha  occ. eigenvalues --  -10.65066 -10.65036  -7.81960  -7.81939  -7.81653
 Alpha  occ. eigenvalues --   -7.81648  -7.81609  -7.81597  -7.74811  -1.56912
 Alpha  occ. eigenvalues --   -1.47540  -1.13529  -1.08383  -0.91353  -0.76127
 Alpha  occ. eigenvalues --   -0.72777  -0.67474  -0.65680  -0.60679  -0.60039
 Alpha  occ. eigenvalues --   -0.55059  -0.52249  -0.50378  -0.49445  -0.48576
 Alpha  occ. eigenvalues --   -0.45002
 Alpha virt. eigenvalues --    0.03519   0.04986   0.05488   0.05573   0.05892
 Alpha virt. eigenvalues --    0.07490   0.11036   0.11436   0.12753   0.13145
 Alpha virt. eigenvalues --    0.14117   0.14634   0.16034   0.17556   0.18289

 Mulliken charges:
               1
     1  Cl  -0.268878
     2  Cl  -0.268875
     3  B    0.593196
     4  C    1.686630
     5  O   -1.031612
     6  O   -1.032771
     7  H    0.322311
 Sum of Mulliken charges =  -0.00000

 Dipole moment (field-independent basis, Debye):
    X=              0.4007    Y=             -0.0001    Z=             -1.5135  Tot=              1.5656

 Test job not archived.
 1\1\GINC-SE455\SP\RHF\Aug-CC-pVDZ\C1H1B1Cl2O2\OHZDE\08-Apr-2025\0\\#t
 hf aug-cc-pvdz iop(5/13=1,5/36=2,99/5=2) pseudo=read geom=check guess=
 (read,tcheck) scf=(maxcycle=1)\\title\\0,1\Cl,0,-1.157358,-1.52164,-0.
 020571\Cl,0,-1.157248,1.521699,-0.020578\B,0,-0.298662,-0.000002,-0.00
 6648\C,0,1.286332,-0.000061,0.110874\O,0,1.837891,-0.000023,1.184296\O
 ,0,1.940856,-0.000049,-1.066865\H,0,2.893644,-0.000048,-0.871918\\Vers
 ion=ES64L-G16RevC.01\State=1-A\HF=-1132.3576402\RMSD=7.288e-03\Dipole=
 0.1576296,-0.0000202,-0.5954611\Quadrupole=2.7157895,0.0768338,-2.7926

 Normal termination of Gaussian 16 at Tue Apr  8 23:50:22 2025.
