 Gaussian 16, Revision C.01,

 ----------------------------------------------------------------------
 #t hf aug-cc-pvdz symm=none int=(grid=ultrafine) guess=(read,tcheck) s
 table=(opt,rrhf)
 ----------------------------------------------------------------------
 -----
 title
 -----
 Symbolic Z-matrix:
 Charge =  0 Multiplicity = 1

 SCF Done:  E(RHF) =  -708.550044987     A.U. after   15 cycles
 Normal termination of Gaussian 16 at Tue Apr  8 23:43:19 2025.
 Gaussian 16:  ES64L-G16RevC.01  3-Jul-2019

 ----------------------------------------------------------------------
 #t hf aug-cc-pvdz iop(5/13=1,5/36=2,99/5=2) pseudo=read geom=check gue
 ss=(read,tcheck) scf=(maxcycle=1)
 ----------------------------------------------------------------------
 -----
 title
 -----
 Structure from the checkpoint file:  "BDE49_nonexpt_157_mol1.chk"
 Charge =  0 Multiplicity = 1

                         Standard orientation:
 ---------------------------------------------------------------------
 Center     Atomic      Atomic             Coordinates (Angstroms)
 Number     Number       Type             X           Y           Z
 ---------------------------------------------------------------------
      1          5           0        0.708368    1.695046   -0.434761
      2          5           0       -0.708360    1.695037    0.434813
      3          6           0       -1.974612    0.836171    0.208688
      4          6           0       -3.131239    1.028181    0.995474
      5          6           0       -2.031786   -0.169786   -0.781509
      6          6           0       -3.168261   -0.941831   -0.981599
      7          6           0       -4.274806   -0.704300   -0.175983
      8          6           0       -4.280559    0.269439    0.813668
      9          1           0       -1.162976   -0.350471   -1.405336
     10          1           0       -3.216210   -1.714140   -1.739279
     11          6           0        1.974616    0.836166   -0.208663
     12          6           0        3.131308    1.028320   -0.995318
     13          6           0        2.031720   -0.169950    0.781377
     14          6           0        3.168187   -0.942013    0.981438
     15          6           0        4.274799   -0.704336    0.175954
     16          6           0        4.280623    0.269564   -0.813538
     17          1           0        1.162860   -0.350747    1.405101
     18          1           0        3.216083   -1.714446    1.738995
     19          9           0       -5.383235   -1.447652   -0.361954
     20          9           0        5.383222   -1.447705    0.361899
     21          1           0       -3.120062    1.792568    1.764313
     22          1           0        3.120186    1.792831   -1.764035
     23          1           0        5.169821    0.414248   -1.414616
     24          1           0       -5.169708    0.414014    1.414845
     25          1           0       -0.779660    2.504951    1.323947
     26          1           0        0.779808    2.505239   -1.323629
 ---------------------------------------------------------------------

 SCF Done:  E(RHF) =  -709.247767361     A.U. after    2 cycles

 The electronic state is 1-A.
 Alpha  occ. eigenvalues --  -26.48704 -26.48704 -11.35379 -11.35378 -11.27027
 Alpha  occ. eigenvalues --  -11.27025 -11.26878 -11.26878 -11.25681 -11.25681
 Alpha  occ. eigenvalues --  -11.25624 -11.25623 -11.23065 -11.23063  -7.57658
 Alpha  occ. eigenvalues --   -7.57567  -1.61716  -1.61714  -1.17046  -1.16983
 Alpha  occ. eigenvalues --   -1.04211  -1.04171  -1.02837  -1.02543  -0.87010
 Alpha  occ. eigenvalues --   -0.86901  -0.85925  -0.85215  -0.76629  -0.75632
 Alpha  occ. eigenvalues --   -0.74241  -0.71015  -0.70876  -0.69769  -0.68231
 Alpha  occ. eigenvalues --   -0.68230  -0.65553  -0.63924  -0.62227  -0.62207
 Alpha  occ. eigenvalues --   -0.61719  -0.60585  -0.60563  -0.57462  -0.52067
 Alpha  occ. eigenvalues --   -0.52040  -0.51932  -0.51801  -0.49142  -0.48472
 Alpha  occ. eigenvalues --   -0.42519  -0.36798  -0.36694  -0.35771  -0.35712
 Alpha virt. eigenvalues --    0.02870   0.02960   0.03288   0.03413   0.04347
 Alpha virt. eigenvalues --    0.04634   0.04758   0.04988   0.05733   0.05906
 Alpha virt. eigenvalues --    0.05916   0.07072   0.07840   0.08197   0.08944

 Mulliken charges:
               1
     1  B   -0.420965
     2  B   -0.421133
     3  C   -0.273559
     4  C    0.450740
     5  C    1.012895
     6  C   -0.130314
     7  C    1.313660
     8  C   -0.029667
     9  H   -0.356131
    10  H   -0.204804
    11  C   -0.273580
    12  C    0.450758
    13  C    1.012776
    14  C   -0.130222
    15  C    1.313632
    16  C   -0.029654
    17  H   -0.356116
    18  H   -0.204804
    19  F   -0.979109
    20  F   -0.979110
    21  H   -0.326621
    22  H   -0.326631
    23  H   -0.181219
    24  H   -0.181219
    25  H    0.125231
    26  H    0.125164
 Sum of Mulliken charges =   0.00000

 Dipole moment (field-independent basis, Debye):
    X=             -0.0001    Y=              0.3845    Z=             -0.0001  Tot=              0.3845

 Test job not archived.
 1\1\GINC-SE368\SP\RHF\Aug-CC-pVDZ\C12H10B2F2\OHZDE\08-Apr-2025\0\\#t h
 f aug-cc-pvdz iop(5/13=1,5/36=2,99/5=2) pseudo=read geom=check guess=(
 read,tcheck) scf=(maxcycle=1)\\title\\0,1\B,0,0.708368,1.695046,-0.434
 761\B,0,-0.70836,1.695037,0.434813\C,0,-1.974612,0.836171,0.208688\C,0
 ,-3.131239,1.028181,0.995474\C,0,-2.031786,-0.169786,-0.781509\C,0,-3.
 168261,-0.941831,-0.981599\C,0,-4.274806,-0.7043,-0.175983\C,0,-4.2805
 59,0.269439,0.813668\H,0,-1.162976,-0.350471,-1.405336\H,0,-3.21621,-1
 .71414,-1.739279\C,0,1.974616,0.836166,-0.208663\C,0,3.131308,1.02832,

 Normal termination of Gaussian 16 at Tue Apr  8 23:43:41 2025.
