 Gaussian 16, Revision C.01,

 ----------------------------------------------------------------------
 #t hf aug-cc-pvdz symm=none int=(grid=ultrafine) guess=(read,tcheck) s
 table=(opt,rrhf)
 ----------------------------------------------------------------------
 -----
 title
 -----
 Symbolic Z-matrix:
 Charge =  0 Multiplicity = 1

 SCF Done:  E(RHF) =  -725.792289943     A.U. after   13 cycles
 Normal termination of Gaussian 16 at Tue Apr  8 22:42:32 2025.
 Gaussian 16:  ES64L-G16RevC.01  3-Jul-2019

 ----------------------------------------------------------------------
 #t hf aug-cc-pvdz iop(5/13=1,5/36=2,99/5=2) pseudo=read geom=check gue
 ss=(read,tcheck) scf=(maxcycle=1)
 ----------------------------------------------------------------------
 -----
 title
 -----
 Structure from the checkpoint file:  "BDE49_expt_1449_mol1.chk"
 Charge =  0 Multiplicity = 1

                         Standard orientation:
 ---------------------------------------------------------------------
 Center     Atomic      Atomic             Coordinates (Angstroms)
 Number     Number       Type             X           Y           Z
 ---------------------------------------------------------------------
      1          8           0       -0.468219   -0.329548    0.000000
      2          6           0        0.616563    0.427300    0.000000
      3          6           0       -1.737618    0.400685    0.000000
      4          8           0        0.694610    1.612036    0.000000
      5         17           0        2.051043   -0.638278    0.000000
      6          6           0       -2.842074   -0.632224    0.000000
      7          1           0       -1.761316    1.038784   -0.885247
      8          1           0       -1.761316    1.038785    0.885246
      9          1           0       -2.782764   -1.266450   -0.886447
     10          1           0       -3.811930   -0.128414    0.000000
     11          1           0       -2.782764   -1.266449    0.886448
 ---------------------------------------------------------------------

 SCF Done:  E(RHF) =  -726.135602767     A.U. after    2 cycles

 The electronic state is 1-A.
 Alpha  occ. eigenvalues -- -105.58815 -20.62300 -20.57279 -11.46431 -11.32348
 Alpha  occ. eigenvalues --  -11.25258 -10.63646  -7.80590  -7.80185  -7.80164
 Alpha  occ. eigenvalues --   -1.58282  -1.49771  -1.11081  -1.05182  -0.89533
 Alpha  occ. eigenvalues --   -0.81823  -0.72756  -0.71524  -0.70419  -0.62675
 Alpha  occ. eigenvalues --   -0.59377  -0.57829  -0.54535  -0.54362  -0.49602
 Alpha  occ. eigenvalues --   -0.48633  -0.48009  -0.46420
 Alpha virt. eigenvalues --    0.03223   0.04325   0.04347   0.05374   0.07383
 Alpha virt. eigenvalues --    0.08127   0.10615   0.11492   0.12280   0.13010
 Alpha virt. eigenvalues --    0.14465   0.14529   0.15060   0.15558   0.16281

 Mulliken charges:
               1
     1  O   -0.937653
     2  C    1.140532
     3  C    0.432549
     4  O   -0.879682
     5  Cl  -0.044220
     6  C   -0.487453
     7  H    0.121137
     8  H    0.121137
     9  H    0.175685
    10  H    0.182281
    11  H    0.175686
 Sum of Mulliken charges =  -0.00000

 Dipole moment (field-independent basis, Debye):
    X=             -3.2328    Y=             -0.7390    Z=              0.0000  Tot=              3.3162

 Test job not archived.
 1\1\GINC-SE329\SP\RHF\Aug-CC-pVDZ\C3H5Cl1O2\OHZDE\08-Apr-2025\0\\#t hf
  aug-cc-pvdz iop(5/13=1,5/36=2,99/5=2) pseudo=read geom=check guess=(r
 ead,tcheck) scf=(maxcycle=1)\\title\\0,1\O,0,-0.468219,-0.329548,0.\C,
 0,0.616563,0.4273,0.\C,0,-1.737618,0.400685,0.\O,0,0.69461,1.612036,0.
 \Cl,0,2.051043,-0.638278,0.\C,0,-2.842074,-0.632224,0.\H,0,-1.761316,1
 .038784,-0.885247\H,0,-1.761316,1.038785,0.885246\H,0,-2.782764,-1.266
 45,-0.886447\H,0,-3.81193,-0.128413,0.\H,0,-2.782764,-1.266449,0.88644
 8\\Version=ES64L-G16RevC.01\State=1-A\HF=-726.1356028\RMSD=7.749e-03\D

 Normal termination of Gaussian 16 at Tue Apr  8 22:42:36 2025.
