 Gaussian 16, Revision C.01,

 ----------------------------------------------------------------------
 #t hf aug-cc-pvdz symm=none int=(grid=ultrafine) guess=(read,tcheck) s
 table=(opt,rrhf)
 ----------------------------------------------------------------------
 -----
 title
 -----
 Symbolic Z-matrix:
 Charge =  0 Multiplicity = 1

 SCF Done:  E(RHF) =  -496.924061264     A.U. after   13 cycles
 Normal termination of Gaussian 16 at Wed Apr  9 00:07:31 2025.
 Gaussian 16:  ES64L-G16RevC.01  3-Jul-2019

 ----------------------------------------------------------------------
 #t hf aug-cc-pvdz iop(5/13=1,5/36=2,99/5=2) pseudo=read geom=check gue
 ss=(read,tcheck) scf=(maxcycle=1)
 ----------------------------------------------------------------------
 -----
 title
 -----
 Structure from the checkpoint file:  "BDE49_nonexpt_2261_mol1.chk"
 Charge =  0 Multiplicity = 1

                         Standard orientation:
 ---------------------------------------------------------------------
 Center     Atomic      Atomic             Coordinates (Angstroms)
 Number     Number       Type             X           Y           Z
 ---------------------------------------------------------------------
      1         14           0       -1.662679   -0.409724    0.065832
      2          8           0       -0.522955    0.695180   -0.434589
      3          6           0        0.697204    0.995229    0.203686
      4          6           0        1.703989   -0.068058    0.041187
      5          1           0        0.562014    1.176468    1.278109
      6          1           0        1.091342    1.912722   -0.240219
      7          7           0        2.485007   -0.906296   -0.080624
      8          1           0       -2.847899   -0.140657   -0.766153
      9          1           0       -1.957494   -0.195162    1.503682
     10          1           0       -1.189025   -1.797627   -0.125232
 ---------------------------------------------------------------------

 SCF Done:  E(RHF) =  -497.161664337     A.U. after    2 cycles

 The electronic state is 1-A.
 Alpha  occ. eigenvalues --  -69.57617 -20.57318 -15.52801 -11.36303 -11.29126
 Alpha  occ. eigenvalues --   -6.24244  -3.99751  -3.99593  -3.99564  -1.48052
 Alpha  occ. eigenvalues --   -1.24504  -1.02787  -0.79594  -0.73706  -0.69108
 Alpha  occ. eigenvalues --   -0.66054  -0.62075  -0.55026  -0.54920  -0.51721
 Alpha  occ. eigenvalues --   -0.50613  -0.48219  -0.46855
 Alpha virt. eigenvalues --    0.03017   0.03807   0.04617   0.05156   0.06084
 Alpha virt. eigenvalues --    0.07348   0.08707   0.09097   0.09357   0.11229
 Alpha virt. eigenvalues --    0.12817   0.13482   0.14175   0.14609   0.15111

 Mulliken charges:
               1
     1  Si   1.405079
     2  O   -1.526681
     3  C    0.887817
     4  C   -1.285946
     5  H    0.221227
     6  H    0.086561
     7  N    0.737091
     8  H   -0.143907
     9  H   -0.208176
    10  H   -0.173066
 Sum of Mulliken charges =   0.00000

 Dipole moment (field-independent basis, Debye):
    X=             -2.7036    Y=              2.6985    Z=              1.2630  Tot=              4.0232

 Test job not archived.
 1\1\GINC-SE367\SP\RHF\Aug-CC-pVDZ\C2H5N1O1Si1\OHZDE\09-Apr-2025\0\\#t
 hf aug-cc-pvdz iop(5/13=1,5/36=2,99/5=2) pseudo=read geom=check guess=
 (read,tcheck) scf=(maxcycle=1)\\title\\0,1\Si,0,-1.662679,-0.409724,0.
 065832\O,0,-0.522955,0.69518,-0.434589\C,0,0.697204,0.995229,0.203686\
 C,0,1.703989,-0.068058,0.041187\H,0,0.562014,1.176468,1.278109\H,0,1.0
 91342,1.912722,-0.240219\N,0,2.485007,-0.906296,-0.080624\H,0,-2.84789
 9,-0.140657,-0.766153\H,0,-1.957494,-0.195162,1.503682\H,0,-1.189025,-
 1.797627,-0.125232\\Version=ES64L-G16RevC.01\State=1-A\HF=-497.1616643

 Normal termination of Gaussian 16 at Wed Apr  9 00:07:34 2025.
