 Gaussian 16, Revision C.01,

 ----------------------------------------------------------------------
 #t hf aug-cc-pvdz symm=none int=(grid=ultrafine) guess=(read,tcheck) s
 table=(opt,rrhf)
 ----------------------------------------------------------------------
 -----
 title
 -----
 Symbolic Z-matrix:
 Charge =  0 Multiplicity = 1

 SCF Done:  E(RHF) =  -799.230557385     A.U. after   16 cycles
 Normal termination of Gaussian 16 at Wed Apr  9 00:06:08 2025.
 Gaussian 16:  ES64L-G16RevC.01  3-Jul-2019

 ----------------------------------------------------------------------
 #t hf aug-cc-pvdz iop(5/13=1,5/36=2,99/5=2) pseudo=read geom=check gue
 ss=(read,tcheck) scf=(maxcycle=1)
 ----------------------------------------------------------------------
 -----
 title
 -----
 Structure from the checkpoint file:  "BDE49_nonexpt_2208_mol1.chk"
 Charge =  0 Multiplicity = 1

                         Standard orientation:
 ---------------------------------------------------------------------
 Center     Atomic      Atomic             Coordinates (Angstroms)
 Number     Number       Type             X           Y           Z
 ---------------------------------------------------------------------
      1          6           0       -1.560524    0.006809    0.000030
      2          6           0       -1.054461    1.305125    0.000020
      3          6           0        0.317051    1.494511    0.000009
      4          6           0       -0.720549   -1.100837    0.000027
      5          6           0        0.654235   -0.908632    0.000017
      6          6           0        1.178708    0.389988    0.000007
      7          1           0       -1.150617   -2.092545    0.000035
      8          1           0        1.314895   -1.767687    0.000015
      9          8           0        2.511180    0.644297   -0.000004
     10         14           0        3.832665   -0.377792   -0.000001
     11          7           0       -3.018411   -0.197724    0.000042
     12          8           0       -3.731953    0.797819   -0.000066
     13          8           0       -3.431460   -1.351104   -0.000059
     14          1           0       -1.740140    2.140761    0.000021
     15          1           0        0.746935    2.487828    0.000002
     16          1           0        4.996934    0.521678   -0.000010
     17          1           0        3.817335   -1.233392   -1.206477
     18          1           0        3.817341   -1.233376    1.206487
 ---------------------------------------------------------------------

 SCF Done:  E(RHF) =  -799.763141021     A.U. after    2 cycles

 The electronic state is 1-A.
 Alpha  occ. eigenvalues --  -69.58862 -20.58886 -20.58613 -20.58579 -15.79032
 Alpha  occ. eigenvalues --  -11.35313 -11.30861 -11.28988 -11.28746 -11.27247
 Alpha  occ. eigenvalues --  -11.26704  -6.25457  -4.00961  -4.00802  -4.00781
 Alpha  occ. eigenvalues --   -1.66547  -1.50781  -1.50215  -1.20407  -1.10529
 Alpha  occ. eigenvalues --   -1.06131  -0.97922  -0.89384  -0.85784  -0.80382
 Alpha  occ. eigenvalues --   -0.79675  -0.74985  -0.74234  -0.70897  -0.69197
 Alpha  occ. eigenvalues --   -0.66485  -0.64017  -0.63284  -0.61182  -0.58186
 Alpha  occ. eigenvalues --   -0.53916  -0.53738  -0.49693  -0.49538  -0.49522
 Alpha  occ. eigenvalues --   -0.48303  -0.44878  -0.38512  -0.36232
 Alpha virt. eigenvalues --    0.02550   0.02902   0.03268   0.03849   0.04731
 Alpha virt. eigenvalues --    0.05025   0.06035   0.06789   0.07661   0.08398
 Alpha virt. eigenvalues --    0.08497   0.09899   0.11050   0.11474   0.12588

 Mulliken charges:
               1
     1  C   -0.161401
     2  C    0.482830
     3  C    0.482269
     4  C    0.085547
     5  C    0.490652
     6  C    0.965892
     7  H   -0.203197
     8  H   -0.342198
     9  O   -2.237805
    10  Si   1.289014
    11  N    2.968694
    12  O   -1.470621
    13  O   -1.475998
    14  H   -0.198251
    15  H   -0.259838
    16  H   -0.161234
    17  H   -0.127179
    18  H   -0.127178
 Sum of Mulliken charges =   0.00000

 Dipole moment (field-independent basis, Debye):
    X=              5.5865    Y=             -0.0550    Z=              0.0002  Tot=              5.5867

 Test job not archived.
 1\1\GINC-SE435\SP\RHF\Aug-CC-pVDZ\C6H7N1O3Si1\OHZDE\09-Apr-2025\0\\#t
 hf aug-cc-pvdz iop(5/13=1,5/36=2,99/5=2) pseudo=read geom=check guess=
 (read,tcheck) scf=(maxcycle=1)\\title\\0,1\C,0,-1.560524,0.006809,0.00
 003\C,0,-1.054461,1.305125,0.00002\C,0,0.317051,1.494511,0.000009\C,0,
 -0.720549,-1.100837,0.000027\C,0,0.654235,-0.908632,0.000017\C,0,1.178
 708,0.389988,0.000007\H,0,-1.150617,-2.092545,0.000035\H,0,1.314895,-1
 .767687,0.000015\O,0,2.51118,0.644297,-0.000004\Si,0,3.832665,-0.37779
 2,-0.000001\N,0,-3.018411,-0.197724,0.000042\O,0,-3.731953,0.797819,-0

 Normal termination of Gaussian 16 at Wed Apr  9 00:06:19 2025.
