 Gaussian 16, Revision C.01,

 ----------------------------------------------------------------------
 #t hf aug-cc-pvdz symm=none int=(grid=ultrafine) guess=(read,tcheck) s
 table=(opt,rrhf)
 ----------------------------------------------------------------------
 -----
 title
 -----
 Symbolic Z-matrix:
 Charge =  0 Multiplicity = 1

 SCF Done:  E(RHF) =  -744.985002889     A.U. after   14 cycles
 Normal termination of Gaussian 16 at Tue Apr  8 22:50:02 2025.
 Gaussian 16:  ES64L-G16RevC.01  3-Jul-2019

 ----------------------------------------------------------------------
 #t hf aug-cc-pvdz iop(5/13=1,5/36=2,99/5=2) pseudo=read geom=check gue
 ss=(read,tcheck) scf=(maxcycle=1)
 ----------------------------------------------------------------------
 -----
 title
 -----
 Structure from the checkpoint file:  "BDE49_expt_1723_mol1.chk"
 Charge =  0 Multiplicity = 1

                         Standard orientation:
 ---------------------------------------------------------------------
 Center     Atomic      Atomic             Coordinates (Angstroms)
 Number     Number       Type             X           Y           Z
 ---------------------------------------------------------------------
      1          6           0        1.088004    0.535681    0.751410
      2          6           0       -0.324431    0.770827    0.210672
      3         17           0        2.159696   -0.322872   -0.439409
      4          1           0        1.111480   -0.043189    1.673243
      5          1           0        1.527752    1.514178    0.910368
      6          7           0       -1.157523   -0.304858    0.083228
      7          6           0       -2.488118   -0.094475   -0.475153
      8          8           0       -0.659278    1.913041   -0.059711
      9          1           0       -2.620158    0.966795   -0.666760
     10          1           0       -3.253090   -0.437612    0.229186
     11          1           0       -2.601265   -0.652537   -1.410982
     12          6           0       -0.821785   -1.687879    0.385963
     13          1           0       -1.580395   -2.113981    1.051027
     14          1           0        0.145859   -1.770914    0.871095
     15          1           0       -0.790154   -2.289154   -0.529482
 ---------------------------------------------------------------------

 SCF Done:  E(RHF) =  -745.356639023     A.U. after    2 cycles

 The electronic state is 1-A.
 Alpha  occ. eigenvalues -- -105.57239 -20.51661 -15.53761 -11.37209 -11.32292
 Alpha  occ. eigenvalues --  -11.28578 -11.26977 -10.61992  -7.78936  -7.78557
 Alpha  occ. eigenvalues --   -7.78548  -1.46667  -1.26268  -1.11590  -0.99423
 Alpha  occ. eigenvalues --   -0.98672  -0.92447  -0.77321  -0.72039  -0.68826
 Alpha  occ. eigenvalues --   -0.68171  -0.62722  -0.60484  -0.58699  -0.58314
 Alpha  occ. eigenvalues --   -0.57533  -0.55452  -0.52621  -0.47669  -0.45913
 Alpha  occ. eigenvalues --   -0.42383  -0.40513
 Alpha virt. eigenvalues --    0.03062   0.04110   0.04572   0.04716   0.05739
 Alpha virt. eigenvalues --    0.06422   0.07172   0.07739   0.09180   0.10333
 Alpha virt. eigenvalues --    0.12152   0.12814   0.13718   0.14054   0.14713

 Mulliken charges:
               1
     1  C   -0.531909
     2  C    0.643312
     3  Cl  -0.040997
     4  H    0.290224
     5  H    0.158505
     6  N    0.745791
     7  C   -0.320657
     8  O   -1.264164
     9  H   -0.002600
    10  H    0.190947
    11  H    0.214718
    12  C   -0.433731
    13  H    0.159550
    14  H   -0.004690
    15  H    0.195700
 Sum of Mulliken charges =  -0.00000

 Dipole moment (field-independent basis, Debye):
    X=             -1.0750    Y=             -2.9218    Z=              1.7469  Tot=              3.5699

 Test job not archived.
 1\1\GINC-SE457\SP\RHF\Aug-CC-pVDZ\C4H8Cl1N1O1\OHZDE\08-Apr-2025\0\\#t
 hf aug-cc-pvdz iop(5/13=1,5/36=2,99/5=2) pseudo=read geom=check guess=
 (read,tcheck) scf=(maxcycle=1)\\title\\0,1\C,0,1.088004,0.535681,0.751
 41\C,0,-0.324431,0.770827,0.210672\Cl,0,2.159696,-0.322873,-0.439409\H
 ,0,1.11148,-0.043189,1.673243\H,0,1.527752,1.514177,0.910368\N,0,-1.15
 7523,-0.304858,0.083228\C,0,-2.488118,-0.094475,-0.475153\O,0,-0.65927
 7,1.913041,-0.059711\H,0,-2.620158,0.966795,-0.66676\H,0,-3.25309,-0.4
 37611,0.229186\H,0,-2.601265,-0.652537,-1.410982\C,0,-0.821785,-1.6878

 Normal termination of Gaussian 16 at Tue Apr  8 22:50:07 2025.
