 Gaussian 16, Revision C.01,

 ----------------------------------------------------------------------
 #t hf aug-cc-pvdz symm=none int=(grid=ultrafine) guess=(read,tcheck) s
 table=(opt,rrhf)
 ----------------------------------------------------------------------
 -----
 title
 -----
 Symbolic Z-matrix:
 Charge =  0 Multiplicity = 1

 SCF Done:  E(RHF) =  -631.819809127     A.U. after   10 cycles

 1\1\GINC-SE339\Stability\RHF\Aug-CC-pVDZ\B2H8Si2\OHZDE\09-Apr-2025\0\\
 #t hf aug-cc-pvdz symm=none int=(grid=ultrafine) guess=(read,tcheck) s
 table=(opt,rrhf)\\title\\0,1\Si,0,-0.939628,-0.753203,0.\Si,0,0.939627
 ,0.753202,0.\B,0,2.428215,-0.563906,0.000001\H,0,0.831796,1.606876,1.2
 08647\H,0,0.831797,1.606875,-1.208648\H,0,2.842391,-1.008826,1.024189\
 H,0,2.84239,-1.008827,-1.024188\B,0,-2.428214,0.563907,0.\H,0,-0.83179
 8,-1.606878,1.208647\H,0,-0.831797,-1.606876,-1.208649\H,0,-2.842382,1
 .008834,1.024188\H,0,-2.842381,1.008836,-1.024188\\Version=ES64L-G16Re

 Normal termination of Gaussian 16 at Wed Apr  9 00:13:36 2025.
 Gaussian 16:  ES64L-G16RevC.01  3-Jul-2019

 ----------------------------------------------------------------------
 #t hf aug-cc-pvdz iop(5/13=1,5/36=2,99/5=2) pseudo=read geom=check gue
 ss=(read,tcheck) scf=(maxcycle=1)
 ----------------------------------------------------------------------
 -----
 title
 -----
 Structure from the checkpoint file:  "BDE49_nonexpt_2452_mol1.chk"
 Charge =  0 Multiplicity = 1

                         Standard orientation:
 ---------------------------------------------------------------------
 Center     Atomic      Atomic             Coordinates (Angstroms)
 Number     Number       Type             X           Y           Z
 ---------------------------------------------------------------------
      1         14           0       -0.939628    0.753203    0.000000
      2         14           0        0.939627   -0.753202    0.000000
      3          5           0        2.428215    0.563906   -0.000001
      4          1           0        0.831796   -1.606876   -1.208647
      5          1           0        0.831797   -1.606875    1.208648
      6          1           0        2.842391    1.008826   -1.024189
      7          1           0        2.842390    1.008827    1.024188
      8          5           0       -2.428214   -0.563907    0.000000
      9          1           0       -0.831798    1.606878   -1.208647
     10          1           0       -0.831797    1.606876    1.208649
     11          1           0       -2.842382   -1.008834   -1.024188
     12          1           0       -2.842381   -1.008836    1.024188
 ---------------------------------------------------------------------

 SCF Done:  E(RHF) =  -631.942901742     A.U. after    2 cycles

 The electronic state is 1-A.
 Alpha  occ. eigenvalues --  -69.51407 -69.51407  -7.61038  -7.61024  -6.18805
 Alpha  occ. eigenvalues --   -6.18795  -3.94172  -3.94115  -3.94108  -3.94105
 Alpha  occ. eigenvalues --   -3.94103  -3.94095  -0.80189  -0.74374  -0.66801
 Alpha  occ. eigenvalues --   -0.65000  -0.53203  -0.51575  -0.47866  -0.46797
 Alpha  occ. eigenvalues --   -0.45210  -0.44019  -0.36824
 Alpha virt. eigenvalues --    0.01301   0.03435   0.03780   0.03801   0.04353
 Alpha virt. eigenvalues --    0.04839   0.05134   0.05803   0.07248   0.08409
 Alpha virt. eigenvalues --    0.08786   0.09323   0.09597   0.10264   0.10740

 Mulliken charges:
               1
     1  Si   0.327288
     2  Si   0.327287
     3  B   -0.997129
     4  H   -0.080051
     5  H   -0.080051
     6  H    0.414973
     7  H    0.414970
     8  B   -0.997133
     9  H   -0.080051
    10  H   -0.080051
    11  H    0.414974
    12  H    0.414973
 Sum of Mulliken charges =  -0.00000

 Dipole moment (field-independent basis, Debye):
    X=             -0.0000    Y=              0.0000    Z=             -0.0000  Tot=              0.0000

 Test job not archived.
 1\1\GINC-SE339\SP\RHF\Aug-CC-pVDZ\B2H8Si2\OHZDE\09-Apr-2025\0\\#t hf a
 ug-cc-pvdz iop(5/13=1,5/36=2,99/5=2) pseudo=read geom=check guess=(rea
 d,tcheck) scf=(maxcycle=1)\\title\\0,1\Si,0,-0.939628,-0.753203,0.\Si,
 0,0.939627,0.753202,0.\B,0,2.428215,-0.563906,0.000001\H,0,0.831796,1.
 606876,1.208647\H,0,0.831797,1.606875,-1.208648\H,0,2.842391,-1.008826
 ,1.024189\H,0,2.84239,-1.008827,-1.024188\B,0,-2.428214,0.563907,0.\H,
 0,-0.831798,-1.606878,1.208647\H,0,-0.831797,-1.606876,-1.208649\H,0,-
 2.842382,1.008834,1.024188\H,0,-2.842381,1.008836,-1.024188\\Version=E

 Normal termination of Gaussian 16 at Wed Apr  9 00:13:40 2025.
