 Gaussian 16, Revision C.01,

 ----------------------------------------------------------------------
 #t hf aug-cc-pvdz symm=none int=(grid=ultrafine) guess=(read,tcheck) s
 table=(opt,rrhf)
 ----------------------------------------------------------------------
 -----
 title
 -----
 Symbolic Z-matrix:
 Charge =  0 Multiplicity = 1

 SCF Done:  E(RHF) =  -648.283963843     A.U. after   15 cycles
 Normal termination of Gaussian 16 at Wed Apr  9 00:44:05 2025.
 Gaussian 16:  ES64L-G16RevC.01  3-Jul-2019

 ----------------------------------------------------------------------
 #t hf aug-cc-pvdz iop(5/13=1,5/36=2,99/5=2) pseudo=read geom=check gue
 ss=(read,tcheck) scf=(maxcycle=1)
 ----------------------------------------------------------------------
 -----
 title
 -----
 Structure from the checkpoint file:  "BDE49_nonexpt_759_mol1.chk"
 Charge =  0 Multiplicity = 1

                         Standard orientation:
 ---------------------------------------------------------------------
 Center     Atomic      Atomic             Coordinates (Angstroms)
 Number     Number       Type             X           Y           Z
 ---------------------------------------------------------------------
      1          6           0        2.217803   -0.012145    0.045257
      2          7           0        0.856154   -0.279857   -0.115958
      3          6           0       -0.145297    0.671709    0.030436
      4          5           0       -2.209637   -1.533718    0.464441
      5          8           0        3.060108   -0.863224   -0.070682
      6          1           0        2.411773    1.042252    0.282191
      7          8           0        0.065029    1.821411    0.330910
      8          1           0        0.616239   -1.240477   -0.328819
      9         15           0       -1.874572    0.084668   -0.374046
     10          1           0       -1.366866   -2.373222    0.485926
     11          1           0       -3.311542   -1.772356    0.835467
     12          1           0       -2.612050    1.078500    0.289447
 ---------------------------------------------------------------------

 SCF Done:  E(RHF) =  -648.628066831     A.U. after    2 cycles

 The electronic state is 1-A.
 Alpha  occ. eigenvalues --  -84.29633 -20.55782 -20.55396 -15.57344 -11.40850
 Alpha  occ. eigenvalues --  -11.38920  -7.64381  -6.77270  -4.29952  -4.29915
 Alpha  occ. eigenvalues --   -4.28907  -1.51101  -1.49616  -1.27942  -0.98666
 Alpha  occ. eigenvalues --   -0.89482  -0.86994  -0.74399  -0.73402  -0.68746
 Alpha  occ. eigenvalues --   -0.65693  -0.65136  -0.60778  -0.55970  -0.55206
 Alpha  occ. eigenvalues --   -0.50973  -0.47633  -0.46134  -0.42566  -0.36443
 Alpha virt. eigenvalues --    0.01979   0.03102   0.03876   0.04412   0.05747
 Alpha virt. eigenvalues --    0.06280   0.07551   0.08130   0.08488   0.09083
 Alpha virt. eigenvalues --    0.10361   0.10935   0.11570   0.12105   0.12777

 Mulliken charges:
               1
     1  C    0.662427
     2  N    0.726336
     3  C   -0.118277
     4  B   -0.289069
     5  O   -1.039826
     6  H    0.107611
     7  O   -1.151868
     8  H    0.114642
     9  P   -0.035649
    10  H    0.329527
    11  H    0.328909
    12  H    0.365235
 Sum of Mulliken charges =  -0.00000

 Dipole moment (field-independent basis, Debye):
    X=             -3.2406    Y=             -0.8511    Z=             -0.0920  Tot=              3.3517

 Test job not archived.
 1\1\GINC-SE069\SP\RHF\Aug-CC-pVDZ\C2H5B1N1O2P1\OHZDE\09-Apr-2025\0\\#t
  hf aug-cc-pvdz iop(5/13=1,5/36=2,99/5=2) pseudo=read geom=check guess
 =(read,tcheck) scf=(maxcycle=1)\\title\\0,1\C,0,2.217803,-0.012145,0.0
 45257\N,0,0.856154,-0.279857,-0.115958\C,0,-0.145297,0.671709,0.030436
 \B,0,-2.209637,-1.533718,0.464441\O,0,3.060108,-0.863225,-0.070682\H,0
 ,2.411773,1.042252,0.282191\O,0,0.065029,1.821411,0.33091\H,0,0.616239
 ,-1.240477,-0.328819\P,0,-1.874572,0.084668,-0.374046\H,0,-1.366866,-2
 .373222,0.485926\H,0,-3.311542,-1.772355,0.835467\H,0,-2.61205,1.0785,

 Normal termination of Gaussian 16 at Wed Apr  9 00:44:09 2025.
