 Gaussian 16, Revision C.01,

 ----------------------------------------------------------------------
 #t hf aug-cc-pvdz symm=none int=(grid=ultrafine) guess=(read,tcheck) s
 table=(opt,rrhf)
 ----------------------------------------------------------------------
 -----
 title
 -----
 Symbolic Z-matrix:
 Charge =  0 Multiplicity = 1

 SCF Done:  E(RHF) =  -1078.66917104     A.U. after   14 cycles
 Normal termination of Gaussian 16 at Tue Apr  8 23:47:00 2025.
 Gaussian 16:  ES64L-G16RevC.01  3-Jul-2019

 ----------------------------------------------------------------------
 #t hf aug-cc-pvdz iop(5/13=1,5/36=2,99/5=2) pseudo=read geom=check gue
 ss=(read,tcheck) scf=(maxcycle=1)
 ----------------------------------------------------------------------
 -----
 title
 -----
 Structure from the checkpoint file:  "BDE49_nonexpt_1770_mol1.chk"
 Charge =  0 Multiplicity = 1

                         Standard orientation:
 ---------------------------------------------------------------------
 Center     Atomic      Atomic             Coordinates (Angstroms)
 Number     Number       Type             X           Y           Z
 ---------------------------------------------------------------------
      1          6           0       -0.468139    1.555817    0.067657
      2          6           0       -1.802018    1.730820   -0.293663
      3          6           0       -2.663783    0.638460   -0.354109
      4          6           0       -2.163181   -0.618175   -0.046981
      5          6           0       -0.840971   -0.818434    0.314684
      6          6           0        0.030236    0.279807    0.374182
      7          1           0        0.186397    2.419443    0.112066
      8          1           0       -2.176193    2.720597   -0.528185
      9         14           0        1.816917    0.043522    0.849912
     10          9           0       -2.994401   -1.681705   -0.099110
     11          1           0       -3.705508    0.745154   -0.630000
     12          1           0       -0.511629   -1.825397    0.544908
     13         17           0        2.990905   -0.371422   -0.828223
     14          1           0        1.964377   -1.109446    1.758077
     15          1           0        2.357088    1.280099    1.445533
 ---------------------------------------------------------------------

 SCF Done:  E(RHF) =  -1079.10446809     A.U. after    2 cycles

 The electronic state is 1-A.
 Alpha  occ. eigenvalues -- -105.55616 -69.58544 -26.48408 -11.34738 -11.26964
 Alpha  occ. eigenvalues --  -11.26930 -11.26821 -11.26638 -11.25898 -10.60604
 Alpha  occ. eigenvalues --   -7.77491  -7.77187  -7.77185  -6.25206  -4.00631
 Alpha  occ. eigenvalues --   -4.00501  -4.00491  -1.61325  -1.17742  -1.05750
 Alpha  occ. eigenvalues --   -1.04206  -1.03299  -0.87692  -0.85716  -0.77282
 Alpha  occ. eigenvalues --   -0.72002  -0.70773  -0.70280  -0.68074  -0.63790
 Alpha  occ. eigenvalues --   -0.60700  -0.59277  -0.54938  -0.54715  -0.53720
 Alpha  occ. eigenvalues --   -0.51823  -0.50816  -0.45626  -0.45575  -0.37391
 Alpha  occ. eigenvalues --   -0.36003
 Alpha virt. eigenvalues --    0.03027   0.03616   0.04052   0.04764   0.05174
 Alpha virt. eigenvalues --    0.05735   0.06768   0.08266   0.08626   0.08944
 Alpha virt. eigenvalues --    0.09972   0.10107   0.11087   0.12691   0.13171

 Mulliken charges:
               1
     1  C    0.355268
     2  C    0.701133
     3  C    0.025852
     4  C    1.345095
     5  C    0.145637
     6  C   -0.856822
     7  H   -0.299499
     8  H   -0.200393
     9  Si   1.093356
    10  F   -0.994555
    11  H   -0.177927
    12  H   -0.251673
    13  Cl  -0.601241
    14  H   -0.141528
    15  H   -0.142704
 Sum of Mulliken charges =  -0.00000

 Dipole moment (field-independent basis, Debye):
    X=             -1.0980    Y=              1.7970    Z=              1.1180  Tot=              2.3843

 Test job not archived.
 1\1\GINC-SE250\SP\RHF\Aug-CC-pVDZ\C6H6Cl1F1Si1\OHZDE\08-Apr-2025\0\\#t
  hf aug-cc-pvdz iop(5/13=1,5/36=2,99/5=2) pseudo=read geom=check guess
 =(read,tcheck) scf=(maxcycle=1)\\title\\0,1\C,0,-0.468139,1.555817,0.0
 67657\C,0,-1.802018,1.73082,-0.293663\C,0,-2.663783,0.63846,-0.354109\
 C,0,-2.163181,-0.618175,-0.046981\C,0,-0.840971,-0.818434,0.314684\C,0
 ,0.030236,0.279807,0.374182\H,0,0.186397,2.419443,0.112066\H,0,-2.1761
 93,2.720597,-0.528185\Si,0,1.816917,0.043522,0.849912\F,0,-2.994401,-1
 .681705,-0.09911\H,0,-3.705508,0.745154,-0.63\H,0,-0.511629,-1.825397,

 Normal termination of Gaussian 16 at Tue Apr  8 23:47:07 2025.
