 Gaussian 16, Revision C.01,

 ----------------------------------------------------------------------
 #t hf aug-cc-pvdz symm=none int=(grid=ultrafine) guess=(read,tcheck) s
 table=(opt,rrhf)
 ----------------------------------------------------------------------
 -----
 title
 -----
 Symbolic Z-matrix:
 Charge =  0 Multiplicity = 1

 SCF Done:  E(RHF) =  -667.583529576     A.U. after   14 cycles
 Normal termination of Gaussian 16 at Tue Apr  8 23:06:26 2025.
 Gaussian 16:  ES64L-G16RevC.01  3-Jul-2019

 ----------------------------------------------------------------------
 #t hf aug-cc-pvdz iop(5/13=1,5/36=2,99/5=2) pseudo=read geom=check gue
 ss=(read,tcheck) scf=(maxcycle=1)
 ----------------------------------------------------------------------
 -----
 title
 -----
 Structure from the checkpoint file:  "BDE49_expt_389_mol1.chk"
 Charge =  0 Multiplicity = 1

                         Standard orientation:
 ---------------------------------------------------------------------
 Center     Atomic      Atomic             Coordinates (Angstroms)
 Number     Number       Type             X           Y           Z
 ---------------------------------------------------------------------
      1          8           0        0.035419    1.211169   -0.498793
      2          6           0       -1.283895    1.239734    0.025465
      3          6           0       -1.885015   -0.148629   -0.190294
      4          1           0       -1.821109    2.016175   -0.522259
      5          1           0       -1.283991    1.494083    1.093048
      6         16           0       -0.512344   -1.286049    0.227429
      7          1           0       -2.192174   -0.292523   -1.227057
      8          1           0       -2.730088   -0.337876    0.472666
      9          6           0        0.771683    0.087767   -0.030404
     10          6           0        1.760324   -0.290286   -1.125724
     11          1           0        2.452459    0.540174   -1.293934
     12          1           0        1.230036   -0.501196   -2.054286
     13          1           0        2.338189   -1.172146   -0.841297
     14          6           0        1.467590    0.397317    1.295857
     15          1           0        0.752409    0.729042    2.049543
     16          1           0        2.210410    1.185824    1.141650
     17          1           0        1.973899   -0.489550    1.683996
 ---------------------------------------------------------------------

 SCF Done:  E(RHF) =  -667.930337174     A.U. after    2 cycles

 The electronic state is 1-A.
 Alpha  occ. eigenvalues --  -93.93478 -20.55638 -11.32898 -11.29816 -11.26939
 Alpha  occ. eigenvalues --  -11.23169 -11.22925  -8.21598  -6.19385  -6.19275
 Alpha  occ. eigenvalues --   -6.19044  -1.47887  -1.08360  -1.06993  -0.95173
 Alpha  occ. eigenvalues --   -0.93183  -0.83182  -0.76565  -0.68423  -0.66727
 Alpha  occ. eigenvalues --   -0.63429  -0.60119  -0.59751  -0.56513  -0.54757
 Alpha  occ. eigenvalues --   -0.54005  -0.51698  -0.50261  -0.47223  -0.43898
 Alpha  occ. eigenvalues --   -0.41869  -0.34749
 Alpha virt. eigenvalues --    0.03610   0.04018   0.04215   0.04534   0.05847
 Alpha virt. eigenvalues --    0.06005   0.06190   0.07516   0.08886   0.09287
 Alpha virt. eigenvalues --    0.09640   0.11535   0.12946   0.13033   0.14310

 Mulliken charges:
               1
     1  O   -1.526344
     2  C    0.444250
     3  C   -0.739697
     4  H   -0.024818
     5  H    0.200986
     6  S    0.415653
     7  H    0.118356
     8  H    0.170119
     9  C    0.320304
    10  C   -0.207613
    11  H    0.205670
    12  H    0.163803
    13  H    0.216677
    14  C   -0.324779
    15  H    0.119244
    16  H    0.222841
    17  H    0.225346
 Sum of Mulliken charges =  -0.00000

 Dipole moment (field-independent basis, Debye):
    X=             -0.5815    Y=              1.0537    Z=              0.3090  Tot=              1.2426

 Test job not archived.
 1\1\GINC-SE036\SP\RHF\Aug-CC-pVDZ\C5H10O1S1\OHZDE\08-Apr-2025\0\\#t hf
  aug-cc-pvdz iop(5/13=1,5/36=2,99/5=2) pseudo=read geom=check guess=(r
 ead,tcheck) scf=(maxcycle=1)\\title\\0,1\O,0,0.035419,1.211169,-0.4987
 93\C,0,-1.283895,1.239734,0.025465\C,0,-1.885015,-0.148629,-0.190294\H
 ,0,-1.821109,2.016175,-0.522259\H,0,-1.283991,1.494083,1.093048\S,0,-0
 .512344,-1.286049,0.227429\H,0,-2.192174,-0.292523,-1.227057\H,0,-2.73
 0088,-0.337876,0.472666\C,0,0.771683,0.087767,-0.030404\C,0,1.760324,-
 0.290286,-1.125724\H,0,2.452459,0.540174,-1.293934\H,0,1.230036,-0.501

 Normal termination of Gaussian 16 at Tue Apr  8 23:06:33 2025.
