 Gaussian 16, Revision C.01,

 ----------------------------------------------------------------------
 #t hf aug-cc-pvdz symm=none int=(grid=ultrafine) guess=(read,tcheck) s
 table=(opt,rrhf)
 ----------------------------------------------------------------------
 -----
 title
 -----
 Symbolic Z-matrix:
 Charge =  0 Multiplicity = 1

 SCF Done:  E(RHF) =  -675.032763692     A.U. after   16 cycles
 Normal termination of Gaussian 16 at Wed Apr  9 00:54:13 2025.
 Gaussian 16:  ES64L-G16RevC.01  3-Jul-2019

 ----------------------------------------------------------------------
 #t hf aug-cc-pvdz iop(5/13=1,5/36=2,99/5=2) pseudo=read geom=check gue
 ss=(read,tcheck) scf=(maxcycle=1)
 ----------------------------------------------------------------------
 -----
 title
 -----
 Structure from the checkpoint file:  "BDE49_nonexpt_965_mol1.chk"
 Charge =  0 Multiplicity = 1

                         Standard orientation:
 ---------------------------------------------------------------------
 Center     Atomic      Atomic             Coordinates (Angstroms)
 Number     Number       Type             X           Y           Z
 ---------------------------------------------------------------------
      1          6           0        0.972849    0.282347   -0.137414
      2          6           0       -0.483840    0.069104   -0.087556
      3          6           0       -1.315658    0.956517    0.609885
      4          1           0       -0.889981    1.814956    1.109081
      5          6           0       -2.684608    0.725853    0.660456
      6          1           0       -3.321935    1.411370    1.206375
      7          6           0       -3.237083   -0.378160    0.012760
      8          1           0       -4.306636   -0.549957    0.051389
      9          6           0       -2.414015   -1.260981   -0.682694
     10          1           0       -2.839474   -2.119585   -1.188518
     11          6           0       -1.041607   -1.045755   -0.730201
     12          1           0       -0.401417   -1.732889   -1.267785
     13          7           0        1.734758   -0.958561   -0.160607
     14          7           0        1.672895    1.344349   -0.251925
     15          9           0        1.538536   -1.528712    1.116588
     16          9           0        3.085536   -0.668261   -0.163155
     17          9           0        0.834777    2.461644   -0.386124
 ---------------------------------------------------------------------

 SCF Done:  E(RHF) =  -675.674840088     A.U. after    2 cycles

 The electronic state is 1-A.
 Alpha  occ. eigenvalues --  -26.52786 -26.52514 -26.49443 -15.74331 -15.63205
 Alpha  occ. eigenvalues --  -11.37933 -11.29081 -11.28029 -11.27827 -11.27605
 Alpha  occ. eigenvalues --  -11.26903 -11.26824  -1.69085  -1.61254  -1.60029
 Alpha  occ. eigenvalues --   -1.28445  -1.18644  -1.14387  -1.06303  -1.04919
 Alpha  occ. eigenvalues --   -0.91554  -0.87168  -0.85429  -0.79761  -0.79259
 Alpha  occ. eigenvalues --   -0.78530  -0.74795  -0.71493  -0.69813  -0.68274
 Alpha  occ. eigenvalues --   -0.67206  -0.66674  -0.65572  -0.63239  -0.62867
 Alpha  occ. eigenvalues --   -0.62544  -0.57104  -0.55915  -0.54311  -0.53334
 Alpha  occ. eigenvalues --   -0.52795  -0.49274  -0.37851  -0.37422
 Alpha virt. eigenvalues --    0.02704   0.03211   0.03477   0.03996   0.05902
 Alpha virt. eigenvalues --    0.06230   0.08224   0.08867   0.10126   0.10337
 Alpha virt. eigenvalues --    0.11268   0.11775   0.12192   0.13025   0.13211

 Mulliken charges:
               1
     1  C   -3.088570
     2  C    2.423736
     3  C   -0.029171
     4  H   -0.220084
     5  C    0.238021
     6  H   -0.221580
     7  C   -0.019901
     8  H   -0.200459
     9  C    0.179629
    10  H   -0.226988
    11  C   -0.145283
    12  H   -0.311835
    13  N    2.014546
    14  N    1.634593
    15  F   -0.673102
    16  F   -0.671852
    17  F   -0.681701
 Sum of Mulliken charges =  -0.00000

 Dipole moment (field-independent basis, Debye):
    X=             -4.4270    Y=             -1.2802    Z=              0.1816  Tot=              4.6119

 Test job not archived.
 1\1\GINC-SE015\SP\RHF\Aug-CC-pVDZ\C7H5F3N2\OHZDE\09-Apr-2025\0\\#t hf
 aug-cc-pvdz iop(5/13=1,5/36=2,99/5=2) pseudo=read geom=check guess=(re
 ad,tcheck) scf=(maxcycle=1)\\title\\0,1\C,0,0.972849,0.282347,-0.13741
 4\C,0,-0.48384,0.069104,-0.087556\C,0,-1.315658,0.956517,0.609885\H,0,
 -0.889981,1.814956,1.109081\C,0,-2.684608,0.725853,0.660456\H,0,-3.321
 935,1.41137,1.206375\C,0,-3.237083,-0.37816,0.01276\H,0,-4.306636,-0.5
 49957,0.051389\C,0,-2.414015,-1.260981,-0.682694\H,0,-2.839474,-2.1195
 85,-1.188518\C,0,-1.041607,-1.045755,-0.730201\H,0,-0.401417,-1.732889

 Normal termination of Gaussian 16 at Wed Apr  9 00:54:27 2025.
