 Gaussian 16, Revision C.01,

 ----------------------------------------------------------------------
 #t hf aug-cc-pvdz symm=none int=(grid=ultrafine) guess=(read,tcheck) s
 table=(opt,rrhf)
 ----------------------------------------------------------------------
 -----
 title
 -----
 Symbolic Z-matrix:
 Charge =  0 Multiplicity = 1

 SCF Done:  E(RHF) =  -1212.99144087     A.U. after   15 cycles
 Normal termination of Gaussian 16 at Wed Apr  9 00:14:41 2025.
 Gaussian 16:  ES64L-G16RevC.01  3-Jul-2019

 ----------------------------------------------------------------------
 #t hf aug-cc-pvdz iop(5/13=1,5/36=2,99/5=2) pseudo=read geom=check gue
 ss=(read,tcheck) scf=(maxcycle=1)
 ----------------------------------------------------------------------
 -----
 title
 -----
 Structure from the checkpoint file:  "BDE49_nonexpt_245_mol1.chk"
 Charge =  0 Multiplicity = 1

                         Standard orientation:
 ---------------------------------------------------------------------
 Center     Atomic      Atomic             Coordinates (Angstroms)
 Number     Number       Type             X           Y           Z
 ---------------------------------------------------------------------
      1         17           0       -2.538726    1.505803    0.003223
      2         17           0       -2.538695   -1.505829    0.003212
      3          5           0       -1.600328   -0.000003    0.000715
      4          6           0       -0.062119    0.000010   -0.002413
      5          6           0        0.672237   -1.202919   -0.005566
      6          1           0        0.144234   -2.148971   -0.007484
      7          6           0        2.059483   -1.201307   -0.010303
      8          1           0        2.596424   -2.144265   -0.016618
      9          6           0        2.778998    0.000041   -0.009958
     10          6           0        4.285722   -0.000013    0.016673
     11          6           0        0.672203    1.202939   -0.005549
     12          1           0        0.144187    2.148984   -0.007454
     13          6           0        2.059469    1.201355   -0.010283
     14          1           0        2.596390    2.144321   -0.016580
     15          1           0        4.693970   -0.884578   -0.476790
     16          1           0        4.652628   -0.002406    1.049133
     17          1           0        4.694000    0.886743   -0.472782
 ---------------------------------------------------------------------

 SCF Done:  E(RHF) =  -1213.44655522     A.U. after    2 cycles

 The electronic state is 1-A.
 Alpha  occ. eigenvalues -- -105.56736-105.56736 -11.27375 -11.26390 -11.26387
 Alpha  occ. eigenvalues --  -11.24951 -11.24856 -11.24854 -11.23757 -10.61762
 Alpha  occ. eigenvalues --  -10.61732  -7.78654  -7.78631  -7.78363  -7.78360
 Alpha  occ. eigenvalues --   -7.78334  -7.78327  -7.70841  -1.17221  -1.10373
 Alpha  occ. eigenvalues --   -1.05788  -1.05059  -1.02760  -0.95392  -0.84850
 Alpha  occ. eigenvalues --   -0.82869  -0.73671  -0.67177  -0.67117  -0.64311
 Alpha  occ. eigenvalues --   -0.61056  -0.59717  -0.59156  -0.57494  -0.55438
 Alpha  occ. eigenvalues --   -0.53447  -0.52086  -0.50773  -0.49963  -0.47159
 Alpha  occ. eigenvalues --   -0.47031  -0.45451  -0.35924  -0.35379
 Alpha virt. eigenvalues --    0.03023   0.03399   0.03833   0.03842   0.04805
 Alpha virt. eigenvalues --    0.05426   0.05534   0.05935   0.07217   0.08050
 Alpha virt. eigenvalues --    0.08231   0.09251   0.10315   0.11041   0.12938

 Mulliken charges:
               1
     1  Cl  -0.381885
     2  Cl  -0.381881
     3  B    0.488632
     4  C    0.749580
     5  C   -0.239501
     6  H   -0.361988
     7  C    0.584667
     8  H   -0.292269
     9  C    0.360618
    10  C   -0.740030
    11  C   -0.239711
    12  H   -0.361923
    13  C    0.583508
    14  H   -0.292258
    15  H    0.121185
    16  H    0.283116
    17  H    0.120140
 Sum of Mulliken charges =  -0.00000

 Dipole moment (field-independent basis, Debye):
    X=              3.5687    Y=             -0.0002    Z=              0.0348  Tot=              3.5689

 Test job not archived.
 1\1\GINC-SE459\SP\RHF\Aug-CC-pVDZ\C7H7B1Cl2\OHZDE\09-Apr-2025\0\\#t hf
  aug-cc-pvdz iop(5/13=1,5/36=2,99/5=2) pseudo=read geom=check guess=(r
 ead,tcheck) scf=(maxcycle=1)\\title\\0,1\Cl,0,-2.538726,1.505803,0.003
 223\Cl,0,-2.538695,-1.505829,0.003212\B,0,-1.600328,-0.000003,0.000715
 \C,0,-0.062119,0.00001,-0.002413\C,0,0.672237,-1.202919,-0.005566\H,0,
 0.144234,-2.148971,-0.007484\C,0,2.059483,-1.201307,-0.010303\H,0,2.59
 6424,-2.144265,-0.016618\C,0,2.778998,0.000041,-0.009958\C,0,4.285722,
 -0.000013,0.016673\C,0,0.672203,1.202939,-0.005549\H,0,0.144187,2.1489

 Normal termination of Gaussian 16 at Wed Apr  9 00:14:51 2025.
