 Gaussian 16, Revision C.01,

 ----------------------------------------------------------------------
 #t hf aug-cc-pvdz symm=none int=(grid=ultrafine) guess=(read,tcheck) s
 table=(opt,rrhf)
 ----------------------------------------------------------------------
 -----
 title
 -----
 Symbolic Z-matrix:
 Charge =  0 Multiplicity = 1

 SCF Done:  E(RHF) =  -767.126420471     A.U. after   14 cycles
 Normal termination of Gaussian 16 at Wed Apr  9 00:11:53 2025.
 Gaussian 16:  ES64L-G16RevC.01  3-Jul-2019

 ----------------------------------------------------------------------
 #t hf aug-cc-pvdz iop(5/13=1,5/36=2,99/5=2) pseudo=read geom=check gue
 ss=(read,tcheck) scf=(maxcycle=1)
 ----------------------------------------------------------------------
 -----
 title
 -----
 Structure from the checkpoint file:  "BDE49_nonexpt_2384_mol1.chk"
 Charge =  0 Multiplicity = 1

                         Standard orientation:
 ---------------------------------------------------------------------
 Center     Atomic      Atomic             Coordinates (Angstroms)
 Number     Number       Type             X           Y           Z
 ---------------------------------------------------------------------
      1         14           0       -1.092499   -0.839583   -0.489581
      2         14           0        1.102972   -0.854404    0.394873
      3          6           0        1.914701    0.860235    0.261092
      4          1           0        1.959538   -1.804577   -0.359520
      5          1           0        1.040495   -1.270601    1.818974
      6          7           0        2.919147    1.171386   -0.460512
      7          1           0        1.480074    1.679820    0.848398
      8          1           0        3.270193    0.357793   -0.976922
      9          6           0       -2.210553    0.352341    0.484213
     10          1           0       -1.648943   -2.214481   -0.419407
     11          1           0       -1.080931   -0.378842   -1.900653
     12          7           0       -2.704813    1.450544    0.064829
     13          1           0       -2.454748    0.088289    1.521975
     14          1           0       -2.437523    1.629454   -0.908976
 ---------------------------------------------------------------------

 SCF Done:  E(RHF) =  -767.383851704     A.U. after    2 cycles

 The electronic state is 1-A.
 Alpha  occ. eigenvalues --  -69.54907 -69.54902 -15.51931 -15.51813 -11.29013
 Alpha  occ. eigenvalues --  -11.28873  -6.22131  -6.22118  -3.97476  -3.97468
 Alpha  occ. eigenvalues --   -3.97461  -3.97448  -3.97440  -3.97393  -1.22011
 Alpha  occ. eigenvalues --   -1.21879  -0.87321  -0.85780  -0.79076  -0.74219
 Alpha  occ. eigenvalues --   -0.65240  -0.64617  -0.61373  -0.59586  -0.52199
 Alpha  occ. eigenvalues --   -0.51111  -0.49905  -0.48556  -0.44713  -0.43366
 Alpha  occ. eigenvalues --   -0.40972
 Alpha virt. eigenvalues --    0.03123   0.03453   0.03965   0.04098   0.05789
 Alpha virt. eigenvalues --    0.06128   0.06562   0.06759   0.07454   0.07637
 Alpha virt. eigenvalues --    0.07861   0.08544   0.09152   0.09514   0.10246

 Mulliken charges:
               1
     1  Si   0.654781
     2  Si   0.686024
     3  C   -1.002273
     4  H   -0.188422
     5  H   -0.141783
     6  N    0.512922
     7  H    0.037746
     8  H    0.091355
     9  C   -0.978473
    10  H   -0.117613
    11  H   -0.154064
    12  N    0.517044
    13  H   -0.007165
    14  H    0.089920
 Sum of Mulliken charges =   0.00000

 Dipole moment (field-independent basis, Debye):
    X=             -0.1203    Y=             -3.6401    Z=              0.0684  Tot=              3.6428

 Test job not archived.
 1\1\GINC-SE361\SP\RHF\Aug-CC-pVDZ\C2H8N2Si2\OHZDE\09-Apr-2025\0\\#t hf
  aug-cc-pvdz iop(5/13=1,5/36=2,99/5=2) pseudo=read geom=check guess=(r
 ead,tcheck) scf=(maxcycle=1)\\title\\0,1\Si,0,-1.092499,-0.839583,-0.4
 89581\Si,0,1.102972,-0.854404,0.394873\C,0,1.914701,0.860235,0.261092\
 H,0,1.959538,-1.804577,-0.35952\H,0,1.040495,-1.270601,1.818974\N,0,2.
 919147,1.171386,-0.460512\H,0,1.480074,1.67982,0.848398\H,0,3.270193,0
 .357793,-0.976922\C,0,-2.210553,0.352341,0.484213\H,0,-1.648943,-2.214
 481,-0.419407\H,0,-1.080931,-0.378842,-1.900653\N,0,-2.704813,1.450544

 Normal termination of Gaussian 16 at Wed Apr  9 00:11:57 2025.
