 Gaussian 16, Revision C.01,

 ----------------------------------------------------------------------
 #t hf aug-cc-pvdz symm=none int=(grid=ultrafine) guess=(read,tcheck) s
 table=opt
 ----------------------------------------------------------------------
 -----
 title
 -----
 Symbolic Z-matrix:
 Charge =  0 Multiplicity = 2

 SCF Done:  E(UHF) =  -551.011973931     A.U. after   23 cycles
 Normal termination of Gaussian 16 at Tue Apr  8 23:43:15 2025.
 Gaussian 16:  ES64L-G16RevC.01  3-Jul-2019

 ----------------------------------------------------------------------
 #t hf aug-cc-pvdz iop(5/13=1,5/36=2,99/5=2) pseudo=read geom=check gue
 ss=(read,tcheck) scf=(maxcycle=1)
 ----------------------------------------------------------------------
 -----
 title
 -----
 Structure from the checkpoint file:  "BDE49_nonexpt_1704_mol2.chk"
 Charge =  0 Multiplicity = 2

                         Standard orientation:
 ---------------------------------------------------------------------
 Center     Atomic      Atomic             Coordinates (Angstroms)
 Number     Number       Type             X           Y           Z
 ---------------------------------------------------------------------
      1         16           0        1.496322   -0.269237    0.080647
      2          8           0        0.224790    0.621389   -0.450268
      3          6           0       -1.003026    0.579470    0.328654
      4          6           0       -1.869729   -0.591937   -0.095300
      5          1           0       -1.486350    1.535024    0.114955
      6          1           0       -0.744352    0.530976    1.388882
      7          1           0       -2.082587   -0.547350   -1.165454
      8          1           0       -2.818370   -0.568409    0.448210
      9          1           0       -1.371289   -1.538764    0.125078
 ---------------------------------------------------------------------

 SCF Done:  E(UHF) =  -551.225425913     A.U. after    2 cycles

 The electronic state is 2-A.
 Alpha  occ. eigenvalues --  -94.01080 -20.60073 -11.30426 -11.23962  -8.28536
 Alpha  occ. eigenvalues --   -6.27548  -6.26006  -6.25577  -1.49790  -1.05230
 Alpha  occ. eigenvalues --   -0.96286  -0.84403  -0.67346  -0.66730  -0.62938
 Alpha  occ. eigenvalues --   -0.56750  -0.55030  -0.52709  -0.50041  -0.40701
 Alpha  occ. eigenvalues --   -0.38031
 Alpha virt. eigenvalues --    0.03666   0.04461   0.04701   0.05835   0.07304
 Alpha virt. eigenvalues --    0.08330   0.10510   0.11932   0.12216   0.14248
 Alpha virt. eigenvalues --    0.15047   0.15740   0.16502   0.17361   0.17738

  Beta  occ. eigenvalues --  -94.00249 -20.59206 -11.30474 -11.23948  -8.27584
  Beta  occ. eigenvalues --   -6.25651  -6.25080  -6.23752  -1.47574  -1.04329
  Beta  occ. eigenvalues --   -0.91305  -0.82202  -0.66821  -0.64326  -0.60043
  Beta  occ. eigenvalues --   -0.55910  -0.54672  -0.49594  -0.47073  -0.36067
  Beta virt. eigenvalues --    0.01696   0.03695   0.04678   0.04841   0.05888
  Beta virt. eigenvalues --    0.07484   0.08683   0.10885   0.12215   0.12700
  Beta virt. eigenvalues --    0.14351   0.15777   0.16331   0.16738   0.17461

 Mulliken charges and spin densities:
               1          2
     1  S    0.469198   0.929998
     2  O   -1.216723   0.086280
     3  C    0.464655  -0.030138
     4  C   -0.429409   0.021561
     5  H    0.041722   0.003350
     6  H    0.163171  -0.007022
     7  H    0.196058   0.000209
     8  H    0.178687  -0.000906
     9  H    0.132641  -0.003332
 Sum of Mulliken charges =  -0.00000   1.00000

 Dipole moment (field-independent basis, Debye):
    X=             -1.8587    Y=             -0.0910    Z=              0.9034  Tot=              2.0686
                          Isotropic Fermi Contact Couplings
        Atom                 a.u.       MegaHertz       Gauss      10(-4) cm-1
     1  S(33)              0.19196      65.93399      23.52689      21.99321
     2  O(17)              0.08345     -50.58588     -18.05030     -16.87363
     3  C(13)             -0.00752      -8.45058      -3.01538      -2.81881
     4  C(13)             -0.00029      -0.32488      -0.11592      -0.10837
     5  H(1)               0.00043       1.93697       0.69116       0.64610
     6  H(1)               0.00039       1.75874       0.62756       0.58665
     7  H(1)              -0.00006      -0.27855      -0.09939      -0.09292
     8  H(1)              -0.00045      -2.02426      -0.72231      -0.67522

 Normal termination of Gaussian 16 at Tue Apr  8 23:43:18 2025.
