 Gaussian 16, Revision C.01,

 ----------------------------------------------------------------------
 #t hf aug-cc-pvdz symm=none int=(grid=ultrafine) guess=(read,tcheck) s
 table=(opt,rrhf)
 ----------------------------------------------------------------------
 -----
 title
 -----
 Symbolic Z-matrix:
 Charge =  0 Multiplicity = 1

 SCF Done:  E(RHF) =  -799.049967772     A.U. after   15 cycles
 Normal termination of Gaussian 16 at Wed Apr  9 00:23:47 2025.
 Gaussian 16:  ES64L-G16RevC.01  3-Jul-2019

 ----------------------------------------------------------------------
 #t hf aug-cc-pvdz iop(5/13=1,5/36=2,99/5=2) pseudo=read geom=check gue
 ss=(read,tcheck) scf=(maxcycle=1)
 ----------------------------------------------------------------------
 -----
 title
 -----
 Structure from the checkpoint file:  "BDE49_nonexpt_2683_mol1.chk"
 Charge =  0 Multiplicity = 1

                         Standard orientation:
 ---------------------------------------------------------------------
 Center     Atomic      Atomic             Coordinates (Angstroms)
 Number     Number       Type             X           Y           Z
 ---------------------------------------------------------------------
      1          9           0       -2.305787    0.614458    0.860156
      2         16           0       -1.835043   -0.310817   -0.428452
      3          8           0       -0.338701   -0.811934    0.072733
      4          6           0        0.742099    0.048077   -0.127206
      5          8           0        0.686819    1.153080   -0.568652
      6          8           0        1.808610   -0.622323    0.281244
      7          6           0        3.054696    0.101956    0.183166
      8          1           0        3.012284    1.006715    0.789984
      9          1           0        3.255531    0.366999   -0.855171
     10          1           0        3.810367   -0.581547    0.560660
 ---------------------------------------------------------------------

 SCF Done:  E(RHF) =  -799.490427950     A.U. after    2 cycles

 The electronic state is 1-A.
 Alpha  occ. eigenvalues --  -94.10320 -26.49025 -20.64861 -20.62386 -20.56645
 Alpha  occ. eigenvalues --  -11.47003 -11.32073  -8.36922  -6.34670  -6.34441
 Alpha  occ. eigenvalues --   -6.34000  -1.61989  -1.59306  -1.51683  -1.49475
 Alpha  occ. eigenvalues --   -1.04336  -0.97011  -0.82872  -0.77908  -0.73528
 Alpha  occ. eigenvalues --   -0.72852  -0.67947  -0.67654  -0.66048  -0.63501
 Alpha  occ. eigenvalues --   -0.61466  -0.56560  -0.56505  -0.52683  -0.49105
 Alpha  occ. eigenvalues --   -0.48940  -0.40120
 Alpha virt. eigenvalues --    0.03280   0.05121   0.05358   0.06392   0.06681
 Alpha virt. eigenvalues --    0.07964   0.10356   0.12769   0.12885   0.13906
 Alpha virt. eigenvalues --    0.14206   0.15148   0.16025   0.17115   0.17748

 Mulliken charges:
               1
     1  F   -0.668499
     2  S    1.275505
     3  O   -1.230550
     4  C    2.065856
     5  O   -0.844239
     6  O   -1.099407
     7  C    0.156537
     8  H    0.169014
     9  H    0.168755
    10  H    0.007027
 Sum of Mulliken charges =  -0.00000

 Dipole moment (field-independent basis, Debye):
    X=              2.5442    Y=             -0.9230    Z=             -0.4883  Tot=              2.7502

 Test job not archived.
 1\1\GINC-SE126\SP\RHF\Aug-CC-pVDZ\C2H3F1O3S1\OHZDE\09-Apr-2025\0\\#t h
 f aug-cc-pvdz iop(5/13=1,5/36=2,99/5=2) pseudo=read geom=check guess=(
 read,tcheck) scf=(maxcycle=1)\\title\\0,1\F,0,-2.305787,0.614458,0.860
 156\S,0,-1.835043,-0.310817,-0.428452\O,0,-0.338701,-0.811934,0.072733
 \C,0,0.742099,0.048077,-0.127206\O,0,0.686819,1.15308,-0.568652\O,0,1.
 80861,-0.622323,0.281244\C,0,3.054696,0.101956,0.183166\H,0,3.012284,1
 .006715,0.789984\H,0,3.255531,0.366999,-0.855171\H,0,3.810367,-0.58154
 7,0.56066\\Version=ES64L-G16RevC.01\State=1-A\HF=-799.490428\RMSD=6.31

 Normal termination of Gaussian 16 at Wed Apr  9 00:23:51 2025.
