 Gaussian 16, Revision C.01,

 ----------------------------------------------------------------------
 #t hf aug-cc-pvdz symm=none int=(grid=ultrafine) guess=(read,tcheck) s
 table=opt
 ----------------------------------------------------------------------
 -----
 title
 -----
 Symbolic Z-matrix:
 Charge =  0 Multiplicity = 2

 SCF Done:  E(UHF) =  -1454.45056846     A.U. after   21 cycles
 Normal termination of Gaussian 16 at Tue Apr  8 23:48:32 2025.
 Gaussian 16:  ES64L-G16RevC.01  3-Jul-2019

 ----------------------------------------------------------------------
 #t hf aug-cc-pvdz iop(5/13=1,5/36=2,99/5=2) pseudo=read geom=check gue
 ss=(read,tcheck) scf=(maxcycle=1)
 ----------------------------------------------------------------------
 -----
 title
 -----
 Structure from the checkpoint file:  "BDE49_nonexpt_1785_mol2.chk"
 Charge =  0 Multiplicity = 2

                         Standard orientation:
 ---------------------------------------------------------------------
 Center     Atomic      Atomic             Coordinates (Angstroms)
 Number     Number       Type             X           Y           Z
 ---------------------------------------------------------------------
      1         14           0        0.853920    0.162101    0.562053
      2          6           0       -0.802694   -0.646485   -0.140351
      3         17           0        2.368390   -1.224040    0.268454
      4         17           0        1.245865    1.823966   -0.657000
      5          7           0       -1.998102   -0.076053    0.164079
      6          6           0       -2.142515    1.140486    0.944402
      7          8           0       -0.660973   -1.643837   -0.822953
      8          1           0       -1.199609    1.397241    1.431196
      9          1           0       -2.892920    0.993884    1.726848
     10          1           0       -2.448194    1.982982    0.315190
     11          6           0       -3.221254   -0.633128   -0.410223
     12          1           0       -3.935439   -0.865546    0.385191
     13          1           0       -2.966500   -1.541670   -0.950673
     14          1           0       -3.681282    0.082786   -1.099112
 ---------------------------------------------------------------------

 SCF Done:  E(UHF) =  -1454.88243619     A.U. after    2 cycles

 The electronic state is 2-A.
 Alpha  occ. eigenvalues -- -105.57667-105.57116 -69.64558 -20.53175 -15.54968
 Alpha  occ. eigenvalues --  -11.37182 -11.30043 -11.28020 -10.62597 -10.62076
 Alpha  occ. eigenvalues --   -7.79557  -7.79201  -7.79143  -7.79064  -7.78656
 Alpha  occ. eigenvalues --   -7.78601  -6.30781  -4.06415  -4.05776  -4.05606
 Alpha  occ. eigenvalues --   -1.47890  -1.27466  -1.08718  -1.05159  -1.00746
 Alpha  occ. eigenvalues --   -0.98362  -0.81317  -0.75434  -0.69179  -0.68946
 Alpha  occ. eigenvalues --   -0.67313  -0.59996  -0.59015  -0.58854  -0.57515
 Alpha  occ. eigenvalues --   -0.56848  -0.55403  -0.52758  -0.50137  -0.48660
 Alpha  occ. eigenvalues --   -0.47128  -0.44277  -0.41611  -0.36283
 Alpha virt. eigenvalues --    0.02815   0.03986   0.04116   0.04885   0.05499
 Alpha virt. eigenvalues --    0.06468   0.06606   0.07313   0.08198   0.09220
 Alpha virt. eigenvalues --    0.09790   0.11970   0.12346   0.12751   0.13652

  Beta  occ. eigenvalues -- -105.57571-105.57009 -69.63995 -20.52962 -15.54958
  Beta  occ. eigenvalues --  -11.36821 -11.30007 -11.28005 -10.62494 -10.61960
  Beta  occ. eigenvalues --   -7.79347  -7.79090  -7.78978  -7.78797  -7.78547
  Beta  occ. eigenvalues --   -7.78440  -6.29869  -4.05414  -4.05307  -4.04442
  Beta  occ. eigenvalues --   -1.47341  -1.27331  -1.07697  -1.04346  -1.00625
  Beta  occ. eigenvalues --   -0.97989  -0.79889  -0.74087  -0.69103  -0.68676
  Beta  occ. eigenvalues --   -0.64989  -0.59584  -0.58961  -0.57916  -0.56878
  Beta  occ. eigenvalues --   -0.56261  -0.54617  -0.50880  -0.49303  -0.47754
  Beta  occ. eigenvalues --   -0.46960  -0.41598  -0.41038
  Beta virt. eigenvalues --   -0.00456   0.03041   0.04119   0.04224   0.05268
  Beta virt. eigenvalues --    0.05820   0.06535   0.06737   0.07390   0.08415
  Beta virt. eigenvalues --    0.09643   0.10646   0.12277   0.12959   0.13276

 Mulliken charges and spin densities:
               1          2
     1  Si   1.293178   0.761058
     2  C   -0.221303   0.148787
     3  Cl  -0.502130   0.043210
     4  Cl  -0.538854   0.045119
     5  N    0.978157  -0.034605
     6  C   -0.392649   0.009390
     7  O   -1.096903   0.044335
     8  H   -0.012435  -0.019258
     9  H    0.156971   0.001472
    10  H    0.180361  -0.001638
    11  C   -0.237920   0.003409
    12  H    0.181833  -0.000119
    13  H    0.006961  -0.000644
    14  H    0.204734  -0.000515
 Sum of Mulliken charges =  -0.00000   1.00000

 Dipole moment (field-independent basis, Debye):
    X=             -3.5172    Y=              2.2211    Z=              2.3746  Tot=              4.7899
                          Isotropic Fermi Contact Couplings
        Atom                 a.u.       MegaHertz       Gauss      10(-4) cm-1
     1  Si(29)             0.85110    -756.39794    -269.90159    -252.30719
     2  C(13)              0.07829      88.01678      31.40658      29.35924
     3  Cl(35)             0.06047      26.51283       9.46044       8.84373
     4  Cl(35)             0.04991      21.88514       7.80916       7.30010
     5  N(14)              0.00293       0.94536       0.33733       0.31534
     6  C(13)              0.00475       5.33773       1.90463       1.78047
     7  O(17)              0.02173     -13.17143      -4.69989      -4.39352
     8  H(1)              -0.00037      -1.65379      -0.59011      -0.55164

 Normal termination of Gaussian 16 at Tue Apr  8 23:48:40 2025.
