 Gaussian 16, Revision C.01,

 ----------------------------------------------------------------------
 #t hf aug-cc-pvdz symm=none int=(grid=ultrafine) guess=(read,tcheck) s
 table=(opt,rrhf)
 ----------------------------------------------------------------------
 -----
 title
 -----
 Symbolic Z-matrix:
 Charge =  0 Multiplicity = 1

 SCF Done:  E(RHF) =  -838.660405047     A.U. after   16 cycles
 Normal termination of Gaussian 16 at Wed Apr  9 00:12:09 2025.
 Gaussian 16:  ES64L-G16RevC.01  3-Jul-2019

 ----------------------------------------------------------------------
 #t hf aug-cc-pvdz iop(5/13=1,5/36=2,99/5=2) pseudo=read geom=check gue
 ss=(read,tcheck) scf=(maxcycle=1)
 ----------------------------------------------------------------------
 -----
 title
 -----
 Structure from the checkpoint file:  "BDE49_nonexpt_2406_mol1.chk"
 Charge =  0 Multiplicity = 1

                         Standard orientation:
 ---------------------------------------------------------------------
 Center     Atomic      Atomic             Coordinates (Angstroms)
 Number     Number       Type             X           Y           Z
 ---------------------------------------------------------------------
      1         14           0       -1.047846   -0.867599   -0.548459
      2         14           0        1.047845   -0.867599    0.548459
      3          7           0        2.016558    0.673708    0.051093
      4          8           0        1.550633    1.284003   -0.883917
      5          1           0        1.929098   -1.975403    0.105686
      6          1           0        0.984223   -0.866194    2.026088
      7          7           0       -2.016558    0.673709   -0.051094
      8          1           0       -1.929099   -1.975403   -0.105685
      9          1           0       -0.984224   -0.866195   -2.026088
     10          8           0       -1.550632    1.284003    0.883917
 ---------------------------------------------------------------------

 SCF Done:  E(RHF) =  -838.963188861     A.U. after    2 cycles

 The electronic state is 1-A.
 Alpha  occ. eigenvalues --  -69.58009 -69.58009 -20.63392 -20.63390 -15.62812
 Alpha  occ. eigenvalues --  -15.62811  -6.25028  -6.25018  -4.00376  -4.00352
 Alpha  occ. eigenvalues --   -4.00321  -4.00298  -4.00291  -4.00254  -1.59420
 Alpha  occ. eigenvalues --   -1.59292  -0.99474  -0.99101  -0.81230  -0.76343
 Alpha  occ. eigenvalues --   -0.68933  -0.68768  -0.67681  -0.64213  -0.61630
 Alpha  occ. eigenvalues --   -0.61153  -0.52792  -0.51704  -0.46661  -0.40052
 Alpha  occ. eigenvalues --   -0.39330
 Alpha virt. eigenvalues --    0.03216   0.03596   0.04202   0.04272   0.04985
 Alpha virt. eigenvalues --    0.05320   0.06542   0.06933   0.07071   0.08407
 Alpha virt. eigenvalues --    0.09167   0.09321   0.09523   0.11723   0.12661

 Mulliken charges:
               1
     1  Si   0.660475
     2  Si   0.660475
     3  N    0.475458
     4  O   -0.867765
     5  H   -0.143883
     6  H   -0.124285
     7  N    0.475458
     8  H   -0.143883
     9  H   -0.124285
    10  O   -0.867765
 Sum of Mulliken charges =   0.00000

 Dipole moment (field-independent basis, Debye):
    X=             -0.0000    Y=             -3.9634    Z=              0.0000  Tot=              3.9634

 Test job not archived.
 1\1\GINC-SE094\SP\RHF\Aug-CC-pVDZ\H4N2O2Si2\OHZDE\09-Apr-2025\0\\#t hf
  aug-cc-pvdz iop(5/13=1,5/36=2,99/5=2) pseudo=read geom=check guess=(r
 ead,tcheck) scf=(maxcycle=1)\\title\\0,1\Si,0,1.047846,-0.867599,0.548
 459\Si,0,-1.047845,-0.867599,-0.548459\N,0,-2.016558,0.673708,-0.05109
 3\O,0,-1.550633,1.284003,0.883917\H,0,-1.929098,-1.975403,-0.105686\H,
 0,-0.984223,-0.866194,-2.026088\N,0,2.016558,0.673709,0.051094\H,0,1.9
 29099,-1.975403,0.105685\H,0,0.984224,-0.866195,2.026088\O,0,1.550632,
 1.284003,-0.883917\\Version=ES64L-G16RevC.01\State=1-A\HF=-838.9631889

 Normal termination of Gaussian 16 at Wed Apr  9 00:12:13 2025.
