 Gaussian 16, Revision C.01,

 ----------------------------------------------------------------------
 #t hf aug-cc-pvdz symm=none int=(grid=ultrafine) guess=(read,tcheck) s
 table=(opt,rrhf)
 ----------------------------------------------------------------------
 -----
 title
 -----
 Symbolic Z-matrix:
 Charge =  0 Multiplicity = 1

 SCF Done:  E(RHF) =  -694.586301503     A.U. after   14 cycles
 Normal termination of Gaussian 16 at Wed Apr  9 00:04:18 2025.
 Gaussian 16:  ES64L-G16RevC.01  3-Jul-2019

 ----------------------------------------------------------------------
 #t hf aug-cc-pvdz iop(5/13=1,5/36=2,99/5=2) pseudo=read geom=check gue
 ss=(read,tcheck) scf=(maxcycle=1)
 ----------------------------------------------------------------------
 -----
 title
 -----
 Structure from the checkpoint file:  "BDE49_nonexpt_2185_mol1.chk"
 Charge =  0 Multiplicity = 1

                         Standard orientation:
 ---------------------------------------------------------------------
 Center     Atomic      Atomic             Coordinates (Angstroms)
 Number     Number       Type             X           Y           Z
 ---------------------------------------------------------------------
      1          6           0        2.246316   -0.000002    0.109016
      2          6           0        1.583756    1.211656   -0.013244
      3          6           0        0.213811    1.209262   -0.261901
      4          6           0        1.583750   -1.211657   -0.013251
      5          6           0        0.213804   -1.209254   -0.261908
      6          6           0       -0.471521    0.000006   -0.383768
      7          9           0        3.578064   -0.000006    0.349996
      8          1           0        2.138102    2.136792    0.082821
      9          1           0       -0.328330    2.140292   -0.373076
     10          1           0        2.138091   -2.136796    0.082810
     11          1           0       -0.328340   -2.140281   -0.373088
     12          8           0       -1.817547    0.000011   -0.673098
     13         14           0       -3.081102   -0.000005    0.404367
     14          1           0       -4.299312   -0.000029   -0.424799
     15          1           0       -3.033257    1.204678    1.264666
     16          1           0       -3.033216   -1.204678    1.264677
 ---------------------------------------------------------------------

 SCF Done:  E(RHF) =  -695.018610347     A.U. after    2 cycles

 The electronic state is 1-A.
 Alpha  occ. eigenvalues --  -69.57155 -26.47456 -20.56343 -11.33467 -11.31759
 Alpha  occ. eigenvalues --  -11.26035 -11.26033 -11.25830 -11.25814  -6.23735
 Alpha  occ. eigenvalues --   -3.99242  -3.99086  -3.99061  -1.60269  -1.47829
 Alpha  occ. eigenvalues --   -1.16724  -1.04207  -1.01828  -0.87755  -0.85412
 Alpha  occ. eigenvalues --   -0.77854  -0.74532  -0.71812  -0.68299  -0.67163
 Alpha  occ. eigenvalues --   -0.63986  -0.62239  -0.61608  -0.60815  -0.58543
 Alpha  occ. eigenvalues --   -0.54994  -0.52085  -0.51053  -0.48528  -0.45835
 Alpha  occ. eigenvalues --   -0.36783  -0.33681
 Alpha virt. eigenvalues --    0.03231   0.03644   0.04100   0.04714   0.05204
 Alpha virt. eigenvalues --    0.05947   0.07272   0.08128   0.08544   0.09344
 Alpha virt. eigenvalues --    0.09423   0.09804   0.11704   0.12419   0.13364

 Mulliken charges:
               1
     1  C    1.123709
     2  C    0.146119
     3  C    0.133553
     4  C    0.146108
     5  C    0.133559
     6  C    1.632569
     7  F   -0.980483
     8  H   -0.176621
     9  H   -0.254799
    10  H   -0.176622
    11  H   -0.254800
    12  O   -2.181325
    13  Si   1.169742
    14  H   -0.132871
    15  H   -0.163919
    16  H   -0.163919
 Sum of Mulliken charges =  -0.00000

 Dipole moment (field-independent basis, Debye):
    X=             -1.4844    Y=             -0.0000    Z=              0.4802  Tot=              1.5601

 Test job not archived.
 1\1\GINC-SE403\SP\RHF\Aug-CC-pVDZ\C6H7F1O1Si1\OHZDE\09-Apr-2025\0\\#t
 hf aug-cc-pvdz iop(5/13=1,5/36=2,99/5=2) pseudo=read geom=check guess=
 (read,tcheck) scf=(maxcycle=1)\\title\\0,1\C,0,2.246316,-0.000002,0.10
 9016\C,0,1.583756,1.211656,-0.013244\C,0,0.213811,1.209262,-0.261901\C
 ,0,1.58375,-1.211657,-0.013251\C,0,0.213804,-1.209254,-0.261908\C,0,-0
 .471521,0.000006,-0.383768\F,0,3.578064,-0.000006,0.349996\H,0,2.13810
 2,2.136792,0.082821\H,0,-0.32833,2.140292,-0.373076\H,0,2.138091,-2.13
 6796,0.08281\H,0,-0.32834,-2.140281,-0.373088\O,0,-1.817547,0.000011,-

 Normal termination of Gaussian 16 at Wed Apr  9 00:04:25 2025.
