 Gaussian 16, Revision C.01,

 ----------------------------------------------------------------------
 #t hf aug-cc-pvdz symm=none int=(grid=ultrafine) guess=(read,tcheck) s
 table=(opt,rrhf)
 ----------------------------------------------------------------------
 -----
 title
 -----
 Symbolic Z-matrix:
 Charge =  0 Multiplicity = 1

 SCF Done:  E(RHF) =  -832.926155609     A.U. after   14 cycles
 Normal termination of Gaussian 16 at Tue Apr  8 23:40:01 2025.
 Gaussian 16:  ES64L-G16RevC.01  3-Jul-2019

 ----------------------------------------------------------------------
 #t hf aug-cc-pvdz iop(5/13=1,5/36=2,99/5=2) pseudo=read geom=check gue
 ss=(read,tcheck) scf=(maxcycle=1)
 ----------------------------------------------------------------------
 -----
 title
 -----
 Structure from the checkpoint file:  "BDE49_nonexpt_1607_mol1.chk"
 Charge =  0 Multiplicity = 1

                         Standard orientation:
 ---------------------------------------------------------------------
 Center     Atomic      Atomic             Coordinates (Angstroms)
 Number     Number       Type             X           Y           Z
 ---------------------------------------------------------------------
      1          6           0        2.404012   -0.829242   -0.028223
      2          6           0        1.190597    0.060584   -0.012142
      3          8           0        0.040375   -0.664195   -0.113824
      4          8           0        1.201681    1.266406    0.074908
      5         15           0       -1.478724   -0.032903    0.115053
      6          8           0       -1.917021   -0.160809    1.499278
      7          6           0        3.722015   -0.060612   -0.005768
      8          1           0        2.320339   -1.474397   -0.908833
      9          1           0        2.312214   -1.500583    0.832678
     10          1           0        3.815474    0.588129   -0.878581
     11          1           0        4.562779   -0.757107   -0.004858
     12          1           0        3.795206    0.568103    0.883021
     13          8           0       -2.306337   -0.859862   -0.953134
     14          1           0       -2.910671   -1.478983   -0.526906
     15          8           0       -1.401969    1.382519   -0.568572
     16          1           0       -0.548059    1.811541   -0.354758
 ---------------------------------------------------------------------

 SCF Done:  E(RHF) =  -833.460690352     A.U. after    2 cycles

 The electronic state is 1-A.
 Alpha  occ. eigenvalues --  -84.47676 -20.62036 -20.60994 -20.59607 -20.57675
 Alpha  occ. eigenvalues --  -20.51725 -11.43433 -11.27835 -11.25017  -6.92464
 Alpha  occ. eigenvalues --   -4.46635  -4.46033  -4.45842  -1.59652  -1.54075
 Alpha  occ. eigenvalues --   -1.49044  -1.48441  -1.40341  -1.09202  -0.95497
 Alpha  occ. eigenvalues --   -0.87978  -0.81931  -0.74274  -0.73401  -0.72495
 Alpha  occ. eigenvalues --   -0.69261  -0.67393  -0.65373  -0.62701  -0.59898
 Alpha  occ. eigenvalues --   -0.58101  -0.56770  -0.56349  -0.55133  -0.53284
 Alpha  occ. eigenvalues --   -0.52901  -0.51813  -0.48085  -0.47075  -0.46632
 Alpha virt. eigenvalues --    0.03005   0.03764   0.04314   0.04497   0.05518
 Alpha virt. eigenvalues --    0.06811   0.07264   0.09647   0.09964   0.10812
 Alpha virt. eigenvalues --    0.11581   0.12625   0.13169   0.13774   0.14703

 Mulliken charges:
               1
     1  C   -0.611740
     2  C    1.965447
     3  O   -1.936229
     4  O   -1.202783
     5  P    4.168703
     6  O   -1.343472
     7  C   -0.274407
     8  H    0.217566
     9  H    0.239980
    10  H    0.170823
    11  H    0.134081
    12  H    0.179907
    13  O   -1.215871
    14  H    0.369698
    15  O   -1.411132
    16  H    0.549428
 Sum of Mulliken charges =  -0.00000

 Dipole moment (field-independent basis, Debye):
    X=              2.7415    Y=             -2.3480    Z=             -1.8773  Tot=              4.0685

 Test job not archived.
 1\1\GINC-SE342\SP\RHF\Aug-CC-pVDZ\C3H7O5P1\OHZDE\08-Apr-2025\0\\#t hf
 aug-cc-pvdz iop(5/13=1,5/36=2,99/5=2) pseudo=read geom=check guess=(re
 ad,tcheck) scf=(maxcycle=1)\\title\\0,1\C,0,2.404012,-0.829242,-0.0282
 23\C,0,1.190597,0.060584,-0.012142\O,0,0.040375,-0.664195,-0.113824\O,
 0,1.201681,1.266406,0.074908\P,0,-1.478724,-0.032903,0.115053\O,0,-1.9
 17021,-0.160809,1.499278\C,0,3.722015,-0.060612,-0.005768\H,0,2.320339
 ,-1.474397,-0.908833\H,0,2.312214,-1.500583,0.832678\H,0,3.815474,0.58
 8129,-0.878581\H,0,4.562779,-0.757107,-0.004858\H,0,3.795206,0.568103,

 Normal termination of Gaussian 16 at Tue Apr  8 23:40:08 2025.
