 Gaussian 16, Revision C.01,

 ----------------------------------------------------------------------
 #t hf aug-cc-pvdz symm=none int=(grid=ultrafine) guess=(read,tcheck) s
 table=(opt,rrhf)
 ----------------------------------------------------------------------
 -----
 title
 -----
 Symbolic Z-matrix:
 Charge =  0 Multiplicity = 1

 SCF Done:  E(RHF) =  -784.657675390     A.U. after   15 cycles
 Normal termination of Gaussian 16 at Wed Apr  9 00:05:06 2025.
 Gaussian 16:  ES64L-G16RevC.01  3-Jul-2019

 ----------------------------------------------------------------------
 #t hf aug-cc-pvdz iop(5/13=1,5/36=2,99/5=2) pseudo=read geom=check gue
 ss=(read,tcheck) scf=(maxcycle=1)
 ----------------------------------------------------------------------
 -----
 title
 -----
 Structure from the checkpoint file:  "BDE49_nonexpt_2177_mol1.chk"
 Charge =  0 Multiplicity = 1

                         Standard orientation:
 ---------------------------------------------------------------------
 Center     Atomic      Atomic             Coordinates (Angstroms)
 Number     Number       Type             X           Y           Z
 ---------------------------------------------------------------------
      1         14           0       -1.841047    0.015070   -0.073667
      2          8           0       -1.850333    1.545969   -0.658539
      3          8           0       -1.535531   -1.132782   -1.216674
      4          1           0       -2.529700    1.777582   -1.296769
      5          6           0        0.871167    0.006074    0.682174
      6          6           0        1.528793   -1.200150    0.404828
      7          6           0        2.803068   -1.210628   -0.159802
      8          6           0        1.527048    1.203137    0.367669
      9          6           0        2.800364    1.194379   -0.195338
     10          6           0        3.444941   -0.012187   -0.462559
     11          1           0        1.029551    2.147104    0.561937
     12          1           0        3.290936    2.133872   -0.425411
     13          1           0        4.437551   -0.017834   -0.898196
     14          1           0        1.042919   -2.139526    0.650367
     15          1           0        3.296256   -2.156548   -0.355847
     16          6           0       -0.526191    0.008835    1.258949
     17          1           0       -0.684060    0.884771    1.894625
     18          1           0       -0.683309   -0.874909    1.885125
     19          1           0       -0.635515   -1.190408   -1.549861
     20          8           0       -3.342907   -0.346959    0.482835
     21          1           0       -3.654955   -1.241672    0.328862
 ---------------------------------------------------------------------

 SCF Done:  E(RHF) =  -785.193448548     A.U. after    2 cycles

 The electronic state is 1-A.
 Alpha  occ. eigenvalues --  -69.59131 -20.54729 -20.54575 -20.54541 -11.25669
 Alpha  occ. eigenvalues --  -11.24652 -11.24499 -11.24155 -11.24058 -11.23894
 Alpha  occ. eigenvalues --  -11.22609  -6.25220  -4.00728  -4.00717  -4.00520
 Alpha  occ. eigenvalues --   -1.46049  -1.42630  -1.42226  -1.15876  -1.05030
 Alpha  occ. eigenvalues --   -1.01695  -0.94076  -0.83717  -0.81428  -0.77191
 Alpha  occ. eigenvalues --   -0.71372  -0.70799  -0.69842  -0.65389  -0.64341
 Alpha  occ. eigenvalues --   -0.60300  -0.59833  -0.58953  -0.57744  -0.55243
 Alpha  occ. eigenvalues --   -0.54846  -0.52873  -0.51873  -0.51123  -0.50200
 Alpha  occ. eigenvalues --   -0.49924  -0.48518  -0.46273  -0.34848  -0.33210
 Alpha virt. eigenvalues --    0.03223   0.03440   0.03687   0.04488   0.04991
 Alpha virt. eigenvalues --    0.05207   0.06604   0.06727   0.07913   0.08097
 Alpha virt. eigenvalues --    0.08313   0.09788   0.09869   0.10628   0.10713

 Mulliken charges:
               1
     1  Si   4.095132
     2  O   -1.574107
     3  O   -1.614629
     4  H    0.416091
     5  C    1.259307
     6  C    0.313968
     7  C   -0.025554
     8  C    0.283395
     9  C    0.101090
    10  C    0.140135
    11  H   -0.313210
    12  H   -0.230600
    13  H   -0.215529
    14  H   -0.343094
    15  H   -0.242759
    16  C   -1.171952
    17  H   -0.071185
    18  H   -0.089530
    19  H    0.447940
    20  O   -1.566647
    21  H    0.401738
 Sum of Mulliken charges =   0.00000

 Dipole moment (field-independent basis, Debye):
    X=              0.5173    Y=             -0.8536    Z=             -0.6246  Tot=              1.1774

 Test job not archived.
 1\1\GINC-SE398\SP\RHF\Aug-CC-pVDZ\C7H10O3Si1\OHZDE\09-Apr-2025\0\\#t h
 f aug-cc-pvdz iop(5/13=1,5/36=2,99/5=2) pseudo=read geom=check guess=(
 read,tcheck) scf=(maxcycle=1)\\title\\0,1\Si,0,-1.841047,0.01507,-0.07
 3667\O,0,-1.850333,1.545969,-0.658539\O,0,-1.535531,-1.132782,-1.21667
 4\H,0,-2.5297,1.777582,-1.296769\C,0,0.871167,0.006074,0.682174\C,0,1.
 528793,-1.20015,0.404828\C,0,2.803068,-1.210628,-0.159802\C,0,1.527048
 ,1.203137,0.367669\C,0,2.800364,1.194379,-0.195338\C,0,3.444941,-0.012
 187,-0.462559\H,0,1.029551,2.147104,0.561937\H,0,3.290936,2.133872,-0.

 Normal termination of Gaussian 16 at Wed Apr  9 00:05:19 2025.
