 Gaussian 16, Revision C.01,

 ----------------------------------------------------------------------
 #t hf aug-cc-pvdz symm=none int=(grid=ultrafine) guess=(read,tcheck) s
 table=(opt,rrhf)
 ----------------------------------------------------------------------
 -----
 title
 -----
 Symbolic Z-matrix:
 Charge =  0 Multiplicity = 1

 SCF Done:  E(RHF) =  -505.438305811     A.U. after   11 cycles
 Normal termination of Gaussian 16 at Tue Apr  8 23:54:23 2025.
 Gaussian 16:  ES64L-G16RevC.01  3-Jul-2019

 ----------------------------------------------------------------------
 #t hf aug-cc-pvdz iop(5/13=1,5/36=2,99/5=2) pseudo=read geom=check gue
 ss=(read,tcheck) scf=(maxcycle=1)
 ----------------------------------------------------------------------
 -----
 title
 -----
 Structure from the checkpoint file:  "BDE49_nonexpt_1960_mol1.chk"
 Charge =  0 Multiplicity = 1

                         Standard orientation:
 ---------------------------------------------------------------------
 Center     Atomic      Atomic             Coordinates (Angstroms)
 Number     Number       Type             X           Y           Z
 ---------------------------------------------------------------------
      1         14           0       -1.829808    0.000001   -0.270104
      2          6           0       -0.356400   -0.000010    0.906466
      3          5           0        1.022453   -0.000001    0.163496
      4          1           0       -1.811326    1.201100   -1.139571
      5          1           0       -3.104822   -0.000020    0.488796
      6          8           0        1.589274   -1.208472   -0.155909
      7          8           0        1.589263    1.208479   -0.155899
      8          1           0       -1.811311   -1.201068   -1.139613
      9          1           0        2.421415   -1.162050   -0.635281
     10          1           0        2.421406    1.162067   -0.635271
     11          1           0       -0.450103   -0.887328    1.540280
     12          1           0       -0.450105    0.887297    1.540298
 ---------------------------------------------------------------------

 SCF Done:  E(RHF) =  -505.692531149     A.U. after    2 cycles

 The electronic state is 1-A.
 Alpha  occ. eigenvalues --  -69.52112 -20.56274 -20.56272 -11.19864  -7.64207
 Alpha  occ. eigenvalues --   -6.19147  -3.94524  -3.94521  -3.94516  -1.48405
 Alpha  occ. eigenvalues --   -1.44318  -0.96080  -0.76811  -0.74245  -0.71098
 Alpha  occ. eigenvalues --   -0.63925  -0.57876  -0.56164  -0.52563  -0.52503
 Alpha  occ. eigenvalues --   -0.50026  -0.46784  -0.46260  -0.44914
 Alpha virt. eigenvalues --    0.02246   0.04227   0.04523   0.04726   0.06475
 Alpha virt. eigenvalues --    0.06651   0.07526   0.08769   0.08892   0.09867
 Alpha virt. eigenvalues --    0.09918   0.10887   0.12180   0.12348   0.15205

 Mulliken charges:
               1
     1  Si   0.890176
     2  C   -0.619818
     3  B    1.952611
     4  H   -0.186164
     5  H   -0.224282
     6  O   -1.166749
     7  O   -1.166752
     8  H   -0.186166
     9  H    0.474634
    10  H    0.474633
    11  H   -0.121066
    12  H   -0.121057
 Sum of Mulliken charges =  -0.00000

 Dipole moment (field-independent basis, Debye):
    X=              2.4729    Y=              0.0000    Z=             -0.5919  Tot=              2.5428

 Test job not archived.
 1\1\GINC-SE404\SP\RHF\Aug-CC-pVDZ\C1H7B1O2Si1\OHZDE\08-Apr-2025\0\\#t
 hf aug-cc-pvdz iop(5/13=1,5/36=2,99/5=2) pseudo=read geom=check guess=
 (read,tcheck) scf=(maxcycle=1)\\title\\0,1\Si,0,-1.829808,0.000001,-0.
 270104\C,0,-0.3564,-0.00001,0.906466\B,0,1.022453,-0.000001,0.163496\H
 ,0,-1.811326,1.2011,-1.139571\H,0,-3.104822,-0.00002,0.488796\O,0,1.58
 9274,-1.208472,-0.155909\O,0,1.589263,1.208479,-0.155899\H,0,-1.811311
 ,-1.201068,-1.139613\H,0,2.421415,-1.16205,-0.635281\H,0,2.421406,1.16
 2067,-0.635271\H,0,-0.450103,-0.887328,1.54028\H,0,-0.450105,0.887297,

 Normal termination of Gaussian 16 at Tue Apr  8 23:54:27 2025.
