 Gaussian 16, Revision C.01,

 ----------------------------------------------------------------------
 #t hf aug-cc-pvdz symm=none int=(grid=ultrafine) guess=(read,tcheck) s
 table=(opt,rrhf)
 ----------------------------------------------------------------------
 -----
 title
 -----
 Symbolic Z-matrix:
 Charge =  0 Multiplicity = 1

 SCF Done:  E(RHF) =  -908.496850452     A.U. after   13 cycles
 Normal termination of Gaussian 16 at Tue Apr  8 23:40:12 2025.
 Gaussian 16:  ES64L-G16RevC.01  3-Jul-2019

 ----------------------------------------------------------------------
 #t hf aug-cc-pvdz iop(5/13=1,5/36=2,99/5=2) pseudo=read geom=check gue
 ss=(read,tcheck) scf=(maxcycle=1)
 ----------------------------------------------------------------------
 -----
 title
 -----
 Structure from the checkpoint file:  "BDE49_nonexpt_1626_mol1.chk"
 Charge =  0 Multiplicity = 1

                         Standard orientation:
 ---------------------------------------------------------------------
 Center     Atomic      Atomic             Coordinates (Angstroms)
 Number     Number       Type             X           Y           Z
 ---------------------------------------------------------------------
      1         15           0       -1.778890   -0.144226    0.003167
      2         15           0        0.416099   -0.025422    0.125650
      3          8           0        0.987972   -0.499440    1.393777
      4          8           0        0.757505    1.479561   -0.314198
      5          1           0       -1.871554    0.716176   -1.119411
      6          1           0       -1.972397    0.893360    0.948660
      7          1           0        1.687611    1.702336   -0.168634
      8          8           0        0.928366   -0.857681   -1.164758
      9          1           0        1.207460   -1.746659   -0.911437
 ---------------------------------------------------------------------

 SCF Done:  E(RHF) =  -908.810305133     A.U. after    2 cycles

 The electronic state is 1-A.
 Alpha  occ. eigenvalues --  -84.43756 -84.30010 -20.60085 -20.59717 -20.50982
 Alpha  occ. eigenvalues --   -6.89042  -6.77269  -4.43077  -4.42360  -4.41275
 Alpha  occ. eigenvalues --   -4.29521  -4.29378  -4.28892  -1.53758  -1.47829
 Alpha  occ. eigenvalues --   -1.39290  -0.93007  -0.82365  -0.73600  -0.67722
 Alpha  occ. eigenvalues --   -0.64022  -0.60790  -0.56144  -0.55141  -0.53335
 Alpha  occ. eigenvalues --   -0.49311  -0.46264  -0.43299  -0.37863
 Alpha virt. eigenvalues --    0.03306   0.04915   0.04988   0.07053   0.08233
 Alpha virt. eigenvalues --    0.09452   0.09932   0.10415   0.11645   0.12959
 Alpha virt. eigenvalues --    0.15018   0.17825   0.18629   0.18948   0.19533

 Mulliken charges:
               1
     1  P   -0.968240
     2  P    3.111502
     3  O   -1.400238
     4  O   -1.252179
     5  H    0.525280
     6  H    0.531155
     7  H    0.341721
     8  O   -1.206150
     9  H    0.317148
 Sum of Mulliken charges =  -0.00000

 Dipole moment (field-independent basis, Debye):
    X=             -0.4926    Y=              0.4485    Z=             -1.9872  Tot=              2.0959

 Test job not archived.
 1\1\GINC-SE109\SP\RHF\Aug-CC-pVDZ\H4O3P2\OHZDE\08-Apr-2025\0\\#t hf au
 g-cc-pvdz iop(5/13=1,5/36=2,99/5=2) pseudo=read geom=check guess=(read
 ,tcheck) scf=(maxcycle=1)\\title\\0,1\P,0,-1.77889,-0.144227,0.003167\
 P,0,0.416099,-0.025422,0.12565\O,0,0.987972,-0.49944,1.393777\O,0,0.75
 7504,1.479561,-0.314198\H,0,-1.871554,0.716175,-1.119411\H,0,-1.972397
 ,0.893359,0.94866\H,0,1.68761,1.702337,-0.168634\O,0,0.928366,-0.85768
 1,-1.164758\H,0,1.207461,-1.746659,-0.911437\\Version=ES64L-G16RevC.01
 \State=1-A\HF=-908.8103051\RMSD=2.233e-02\Dipole=-0.1937908,0.1764373,

 Normal termination of Gaussian 16 at Tue Apr  8 23:40:16 2025.
