 Gaussian 16, Revision C.01,

 ----------------------------------------------------------------------
 #t hf aug-cc-pvdz symm=none int=(grid=ultrafine) guess=(read,tcheck) s
 table=(opt,rrhf)
 ----------------------------------------------------------------------
 -----
 title
 -----
 Symbolic Z-matrix:
 Charge =  0 Multiplicity = 1

 SCF Done:  E(RHF) =  -836.321621529     A.U. after   16 cycles
 Normal termination of Gaussian 16 at Tue Apr  8 23:19:00 2025.
 Gaussian 16:  ES64L-G16RevC.01  3-Jul-2019

 ----------------------------------------------------------------------
 #t hf aug-cc-pvdz iop(5/13=1,5/36=2,99/5=2) pseudo=read geom=check gue
 ss=(read,tcheck) scf=(maxcycle=1)
 ----------------------------------------------------------------------
 -----
 title
 -----
 Structure from the checkpoint file:  "BDE49_nonexpt_1077_mol1.chk"
 Charge =  0 Multiplicity = 1

                         Standard orientation:
 ---------------------------------------------------------------------
 Center     Atomic      Atomic             Coordinates (Angstroms)
 Number     Number       Type             X           Y           Z
 ---------------------------------------------------------------------
      1         17           0       -2.395391    0.312299   -0.441093
      2          8           0       -1.381575   -0.532424    0.726104
      3          8           0       -0.200579   -0.980533    0.102395
      4          6           0        0.793754   -0.006951    0.200855
      5          8           0        0.664493    1.085155    0.652801
      6          8           0        1.869190   -0.580546   -0.318934
      7          6           0        3.053174    0.248764   -0.330938
      8          1           0        2.876368    1.146633   -0.923210
      9          1           0        3.825040   -0.367489   -0.783427
     10          1           0        3.326451    0.527689    0.686788
 ---------------------------------------------------------------------

 SCF Done:  E(RHF) =  -836.759338348     A.U. after    2 cycles

 The electronic state is 1-A.
 Alpha  occ. eigenvalues -- -105.64064 -20.71194 -20.68321 -20.62550 -20.56633
 Alpha  occ. eigenvalues --  -11.46823 -11.32277 -10.68272  -7.85246  -7.84694
 Alpha  occ. eigenvalues --   -7.84654  -1.67691  -1.57503  -1.49852  -1.34105
 Alpha  occ. eigenvalues --   -1.04437  -0.99662  -0.84109  -0.78756  -0.73674
 Alpha  occ. eigenvalues --   -0.73454  -0.67573  -0.66876  -0.63903  -0.59227
 Alpha  occ. eigenvalues --   -0.58655  -0.56569  -0.50618  -0.50039  -0.49430
 Alpha  occ. eigenvalues --   -0.49092  -0.46559
 Alpha virt. eigenvalues --    0.03251   0.04061   0.05197   0.05406   0.07590
 Alpha virt. eigenvalues --    0.09868   0.11542   0.11866   0.13592   0.14608
 Alpha virt. eigenvalues --    0.14918   0.15756   0.15898   0.16887   0.18114

 Mulliken charges:
               1
     1  Cl   0.382286
     2  O   -0.502812
     3  O   -0.675471
     4  C    2.233142
     5  O   -0.856722
     6  O   -1.121902
     7  C    0.182701
     8  H    0.172568
     9  H    0.013242
    10  H    0.172969
 Sum of Mulliken charges =  -0.00000

 Dipole moment (field-independent basis, Debye):
    X=              2.5544    Y=              0.0027    Z=             -1.0756  Tot=              2.7717

 Test job not archived.
 1\1\GINC-SE250\SP\RHF\Aug-CC-pVDZ\C2H3Cl1O4\OHZDE\08-Apr-2025\0\\#t hf
  aug-cc-pvdz iop(5/13=1,5/36=2,99/5=2) pseudo=read geom=check guess=(r
 ead,tcheck) scf=(maxcycle=1)\\title\\0,1\Cl,0,-2.395391,0.312299,-0.44
 1093\O,0,-1.381575,-0.532424,0.726104\O,0,-0.200579,-0.980533,0.102395
 \C,0,0.793754,-0.006951,0.200855\O,0,0.664493,1.085155,0.652801\O,0,1.
 86919,-0.580546,-0.318934\C,0,3.053174,0.248764,-0.330938\H,0,2.876368
 ,1.146633,-0.92321\H,0,3.82504,-0.367489,-0.783427\H,0,3.326451,0.5276
 89,0.686788\\Version=ES64L-G16RevC.01\State=1-A\HF=-836.7593383\RMSD=7

 Normal termination of Gaussian 16 at Tue Apr  8 23:19:04 2025.
