 Gaussian 16, Revision C.01,

 ----------------------------------------------------------------------
 #t hf aug-cc-pvdz symm=none int=(grid=ultrafine) guess=(read,tcheck) s
 table=(opt,rrhf)
 ----------------------------------------------------------------------
 -----
 title
 -----
 Symbolic Z-matrix:
 Charge =  0 Multiplicity = 1

 SCF Done:  E(RHF) =  -1563.09786013     A.U. after   13 cycles
 Normal termination of Gaussian 16 at Tue Apr  8 23:26:35 2025.
 Gaussian 16:  ES64L-G16RevC.01  3-Jul-2019

 ----------------------------------------------------------------------
 #t hf aug-cc-pvdz iop(5/13=1,5/36=2,99/5=2) pseudo=read geom=check gue
 ss=(read,tcheck) scf=(maxcycle=1)
 ----------------------------------------------------------------------
 -----
 title
 -----
 Structure from the checkpoint file:  "BDE49_nonexpt_1281_mol1.chk"
 Charge =  0 Multiplicity = 1

                         Standard orientation:
 ---------------------------------------------------------------------
 Center     Atomic      Atomic             Coordinates (Angstroms)
 Number     Number       Type             X           Y           Z
 ---------------------------------------------------------------------
      1          6           0       -0.649770   -0.001331    0.348202
      2         15           0        1.179068   -0.137236    0.029295
      3          8           0        1.758426   -1.259700    0.758870
      4          8           0        1.758496    1.288807    0.428127
      5          6           0       -0.966735   -0.016962    1.832094
      6          1           0       -0.565311   -0.930195    2.272648
      7          1           0       -2.044637    0.027034    1.990029
      8          1           0       -0.497553    0.843718    2.312767
      9         17           0       -1.292478    1.527011   -0.409519
     10         17           0       -1.432623   -1.421398   -0.469838
     11          8           0        1.329396   -0.105551   -1.561384
     12          1           0        1.162125   -0.959819   -1.978728
     13          1           0        1.514559    2.003697   -0.173742
 ---------------------------------------------------------------------

 SCF Done:  E(RHF) =  -1563.59905397     A.U. after    2 cycles

 The electronic state is 1-A.
 Alpha  occ. eigenvalues -- -105.59651-105.59559 -84.45395 -20.61398 -20.61204
 Alpha  occ. eigenvalues --  -20.51935 -11.40327 -11.27091 -10.64434 -10.64342
 Alpha  occ. eigenvalues --   -7.81373  -7.81283  -7.80991  -7.80974  -7.80893
 Alpha  occ. eigenvalues --   -7.80876  -6.90630  -4.44869  -4.44158  -4.43274
 Alpha  occ. eigenvalues --   -1.55795  -1.49418  -1.40826  -1.18904  -1.06482
 Alpha  occ. eigenvalues --   -1.01585  -0.90501  -0.81384  -0.77420  -0.71146
 Alpha  occ. eigenvalues --   -0.66686  -0.65174  -0.63478  -0.61391  -0.59197
 Alpha  occ. eigenvalues --   -0.57785  -0.56321  -0.55415  -0.54043  -0.50395
 Alpha  occ. eigenvalues --   -0.49199  -0.48552  -0.47962  -0.46548  -0.44361
 Alpha virt. eigenvalues --    0.03449   0.04409   0.04776   0.06096   0.06693
 Alpha virt. eigenvalues --    0.07483   0.08852   0.09501   0.10570   0.11441
 Alpha virt. eigenvalues --    0.12718   0.13642   0.14769   0.15201   0.16429

 Mulliken charges:
               1
     1  C   -1.298107
     2  P    4.455414
     3  O   -1.504152
     4  O   -1.330115
     5  C    0.005243
     6  H    0.216339
     7  H    0.173661
     8  H    0.205852
     9  Cl  -0.130394
    10  Cl  -0.089904
    11  O   -1.379084
    12  H    0.355702
    13  H    0.319546
 Sum of Mulliken charges =  -0.00000

 Dipole moment (field-independent basis, Debye):
    X=             -1.5286    Y=              1.8333    Z=             -1.0742  Tot=              2.6175

 Test job not archived.
 1\1\GINC-SE344\SP\RHF\Aug-CC-pVDZ\C2H5Cl2O3P1\OHZDE\08-Apr-2025\0\\#t
 hf aug-cc-pvdz iop(5/13=1,5/36=2,99/5=2) pseudo=read geom=check guess=
 (read,tcheck) scf=(maxcycle=1)\\title\\0,1\C,0,-0.64977,-0.001331,0.34
 8202\P,0,1.179068,-0.137235,0.029295\O,0,1.758427,-1.259699,0.75887\O,
 0,1.758495,1.288808,0.428127\C,0,-0.966735,-0.016962,1.832094\H,0,-0.5
 6531,-0.930195,2.272648\H,0,-2.044637,0.027033,1.990029\H,0,-0.497554,
 0.843718,2.312767\Cl,0,-1.292479,1.52701,-0.409519\Cl,0,-1.432622,-1.4
 21399,-0.469838\O,0,1.329396,-0.10555,-1.561384\H,0,1.162126,-0.959818

 Normal termination of Gaussian 16 at Tue Apr  8 23:26:41 2025.
