 Gaussian 16, Revision C.01,

 ----------------------------------------------------------------------
 #t hf aug-cc-pvdz symm=none int=(grid=ultrafine) guess=(read,tcheck) s
 table=(opt,rrhf)
 ----------------------------------------------------------------------
 -----
 title
 -----
 Symbolic Z-matrix:
 Charge =  0 Multiplicity = 1

 SCF Done:  E(RHF) =  -348.142999755     A.U. after   14 cycles

 1\1\GINC-SE072\Stability\RHF\Aug-CC-pVDZ\C7H14O1\OHZDE\08-Apr-2025\0\\
 #t hf aug-cc-pvdz symm=none int=(grid=ultrafine) guess=(read,tcheck) s
 table=(opt,rrhf)\\title\\0,1\C,0,2.481903,-0.041485,0.673762\C,0,1.192
 821,-0.849769,0.504205\C,0,-0.000004,-0.043733,0.000036\H,0,0.880281,-
 1.27863,1.466581\H,0,1.346385,-1.7114,-0.157798\O,0,0.000009,1.167814,
 0.000075\C,0,-1.192809,-0.849711,-0.504272\C,0,-2.481886,-0.041408,-0.
 673784\H,0,-1.346397,-1.711418,0.157626\H,0,-0.880235,-1.278462,-1.466
 687\C,0,3.126831,0.362236,-0.655846\H,0,3.191447,-0.633294,1.261191\H,

 Normal termination of Gaussian 16 at Tue Apr  8 23:01:57 2025.
 Gaussian 16:  ES64L-G16RevC.01  3-Jul-2019

 ----------------------------------------------------------------------
 #t hf aug-cc-pvdz iop(5/13=1,5/36=2,99/5=2) pseudo=read geom=check gue
 ss=(read,tcheck) scf=(maxcycle=1)
 ----------------------------------------------------------------------
 -----
 title
 -----
 Structure from the checkpoint file:  "BDE49_expt_226_mol1.chk"
 Charge =  0 Multiplicity = 1

                         Standard orientation:
 ---------------------------------------------------------------------
 Center     Atomic      Atomic             Coordinates (Angstroms)
 Number     Number       Type             X           Y           Z
 ---------------------------------------------------------------------
      1          6           0        2.481903    0.041485   -0.673762
      2          6           0        1.192821    0.849769   -0.504205
      3          6           0       -0.000004    0.043733   -0.000036
      4          1           0        0.880281    1.278630   -1.466581
      5          1           0        1.346385    1.711400    0.157798
      6          8           0        0.000009   -1.167814   -0.000075
      7          6           0       -1.192809    0.849711    0.504272
      8          6           0       -2.481886    0.041408    0.673784
      9          1           0       -1.346397    1.711418   -0.157626
     10          1           0       -0.880235    1.278462    1.466687
     11          6           0        3.126831   -0.362236    0.655846
     12          1           0        3.191447    0.633294   -1.261191
     13          1           0        2.255650   -0.855817   -1.255838
     14          1           0        3.373132    0.517091    1.260398
     15          1           0        4.053248   -0.917992    0.488790
     16          1           0        2.458063   -1.000445    1.237356
     17          6           0       -3.126865   -0.362157   -0.655847
     18          1           0       -3.191407    0.633150    1.261308
     19          1           0       -2.255611   -0.855962    1.255746
     20          1           0       -3.373187    0.517241   -1.260287
     21          1           0       -4.053276   -0.917931   -0.488821
     22          1           0       -2.458119   -1.000298   -1.237457
 ---------------------------------------------------------------------

 SCF Done:  E(RHF) =  -348.518399634     A.U. after    2 cycles

 The electronic state is 1-A.
 Alpha  occ. eigenvalues --  -20.53042 -11.33418 -11.24418 -11.24405 -11.23061
 Alpha  occ. eigenvalues --  -11.23056 -11.22002 -11.22001  -1.46623  -1.08606
 Alpha  occ. eigenvalues --   -1.06449  -0.98443  -0.93529  -0.84531  -0.80355
 Alpha  occ. eigenvalues --   -0.73057  -0.68030  -0.64694  -0.62984  -0.61142
 Alpha  occ. eigenvalues --   -0.60122  -0.57700  -0.56458  -0.55232  -0.51827
 Alpha  occ. eigenvalues --   -0.50361  -0.48941  -0.48838  -0.48390  -0.48171
 Alpha  occ. eigenvalues --   -0.47498  -0.39967
 Alpha virt. eigenvalues --    0.03194   0.03272   0.03721   0.04300   0.05232
 Alpha virt. eigenvalues --    0.05369   0.05423   0.06467   0.06973   0.08200
 Alpha virt. eigenvalues --    0.08628   0.08977   0.09274   0.09789   0.13085

 Mulliken charges:
               1
     1  C   -0.251891
     2  C   -0.579041
     3  C    1.509978
     4  H    0.236340
     5  H    0.180899
     6  O   -1.460679
     7  C   -0.579081
     8  C   -0.251893
     9  H    0.180910
    10  H    0.236337
    11  C   -0.346448
    12  H    0.134329
    13  H    0.165631
    14  H    0.163378
    15  H    0.112167
    16  H    0.160000
    17  C   -0.346445
    18  H    0.134329
    19  H    0.165631
    20  H    0.163380
    21  H    0.112167
    22  H    0.160002
 Sum of Mulliken charges =  -0.00000

 Dipole moment (field-independent basis, Debye):
    X=             -0.0000    Y=              2.6767    Z=              0.0001  Tot=              2.6767

 Test job not archived.
 1\1\GINC-SE072\SP\RHF\Aug-CC-pVDZ\C7H14O1\OHZDE\08-Apr-2025\0\\#t hf a
 ug-cc-pvdz iop(5/13=1,5/36=2,99/5=2) pseudo=read geom=check guess=(rea
 d,tcheck) scf=(maxcycle=1)\\title\\0,1\C,0,2.481903,-0.041485,0.673762
 \C,0,1.192821,-0.849769,0.504205\C,0,-0.000004,-0.043733,0.000036\H,0,
 0.880281,-1.27863,1.466581\H,0,1.346385,-1.7114,-0.157798\O,0,0.000009
 ,1.167814,0.000075\C,0,-1.192809,-0.849711,-0.504272\C,0,-2.481886,-0.
 041408,-0.673784\H,0,-1.346397,-1.711418,0.157626\H,0,-0.880235,-1.278
 462,-1.466687\C,0,3.126831,0.362236,-0.655846\H,0,3.191447,-0.633294,1

 Normal termination of Gaussian 16 at Tue Apr  8 23:02:07 2025.
