 Gaussian 16, Revision C.01,

 ----------------------------------------------------------------------
 #t hf aug-cc-pvdz symm=none int=(grid=ultrafine) guess=(read,tcheck) s
 table=opt
 ----------------------------------------------------------------------
 -----
 title
 -----
 Symbolic Z-matrix:
 Charge =  0 Multiplicity = 2

 SCF Done:  E(UHF) =  -666.962130808     A.U. after   18 cycles
 Normal termination of Gaussian 16 at Tue Apr  8 23:05:43 2025.
 Gaussian 16:  ES64L-G16RevC.01  3-Jul-2019

 ----------------------------------------------------------------------
 #t hf aug-cc-pvdz iop(5/13=1,5/36=2,99/5=2) pseudo=read geom=check gue
 ss=(read,tcheck) scf=(maxcycle=1)
 ----------------------------------------------------------------------
 -----
 title
 -----
 Structure from the checkpoint file:  "BDE49_expt_386_mol2.chk"
 Charge =  0 Multiplicity = 2

                         Standard orientation:
 ---------------------------------------------------------------------
 Center     Atomic      Atomic             Coordinates (Angstroms)
 Number     Number       Type             X           Y           Z
 ---------------------------------------------------------------------
      1          8           0       -0.130192    1.279932   -0.176106
      2          6           0       -1.551284    1.203733   -0.066332
      3          6           0       -1.882405   -0.130135    0.605456
      4          1           0       -1.999673    1.252037   -1.065109
      5          1           0       -1.872603    2.062878    0.523326
      6         16           0       -0.665814   -1.291166   -0.129579
      7          1           0       -2.895772   -0.463201    0.383507
      8          1           0       -1.736290   -0.085971    1.685657
      9          6           0        0.379570    0.082928   -0.628001
     10          6           0        1.871613   -0.017491   -0.596851
     11          6           0        2.488352    0.101988    0.811660
     12          1           0        2.272962    0.775417   -1.238170
     13          1           0        2.163786   -0.967218   -1.054711
     14          1           0        2.212703    1.054287    1.269206
     15          1           0        3.579415    0.048206    0.762599
     16          1           0        2.134946   -0.703371    1.460206
 ---------------------------------------------------------------------

 SCF Done:  E(UHF) =  -667.303314376     A.U. after    2 cycles

 The electronic state is 2-A.
 Alpha  occ. eigenvalues --  -93.94878 -20.57295 -11.31070 -11.30530 -11.27792
 Alpha  occ. eigenvalues --  -11.23825 -11.22400  -8.23020  -6.20807  -6.20683
 Alpha  occ. eigenvalues --   -6.20510  -1.50258  -1.09560  -1.07510  -0.98606
 Alpha  occ. eigenvalues --   -0.87950  -0.84618  -0.77125  -0.69803  -0.67655
 Alpha  occ. eigenvalues --   -0.63257  -0.61285  -0.58667  -0.57864  -0.54172
 Alpha  occ. eigenvalues --   -0.52053  -0.50423  -0.49807  -0.48047  -0.45983
 Alpha  occ. eigenvalues --   -0.39964  -0.29423
 Alpha virt. eigenvalues --    0.03426   0.04089   0.04184   0.04583   0.05841
 Alpha virt. eigenvalues --    0.05949   0.06266   0.07504   0.08484   0.10016
 Alpha virt. eigenvalues --    0.11718   0.12280   0.12507   0.13162   0.14194

  Beta  occ. eigenvalues --  -93.94828 -20.56878 -11.30544 -11.28438 -11.27793
  Beta  occ. eigenvalues --  -11.24000 -11.22205  -8.22956  -6.20816  -6.20686
  Beta  occ. eigenvalues --   -6.20250  -1.48860  -1.08765  -1.05922  -0.97634
  Beta  occ. eigenvalues --   -0.86764  -0.84338  -0.74659  -0.68311  -0.67280
  Beta  occ. eigenvalues --   -0.62164  -0.58649  -0.58031  -0.55859  -0.52978
  Beta  occ. eigenvalues --   -0.51189  -0.50030  -0.48075  -0.46718  -0.45079
  Beta  occ. eigenvalues --   -0.36319
  Beta virt. eigenvalues --    0.03429   0.04092   0.04181   0.04594   0.05801
  Beta virt. eigenvalues --    0.05954   0.06192   0.07517   0.08497   0.10071
  Beta virt. eigenvalues --    0.11352   0.12274   0.12515   0.12824   0.13601

 Mulliken charges and spin densities:
               1          2
     1  O   -1.370342   0.035787
     2  C    0.566199  -0.019614
     3  C   -0.778454   0.004313
     4  H    0.167452  -0.008771
     5  H    0.006020   0.000407
     6  S    0.435770  -0.011300
     7  H    0.181955   0.001797
     8  H    0.138591  -0.002971
     9  C    0.640237   1.143835
    10  C   -0.448517  -0.190611
    11  C   -0.432753   0.059302
    12  H    0.217553  -0.000038
    13  H    0.184690  -0.001094
    14  H    0.184240  -0.003898
    15  H    0.118813   0.000997
    16  H    0.188546  -0.008140
 Sum of Mulliken charges =  -0.00000   1.00000

 Dipole moment (field-independent basis, Debye):
    X=             -1.1479    Y=              0.8919    Z=              0.6644  Tot=              1.5983
                          Isotropic Fermi Contact Couplings
        Atom                 a.u.       MegaHertz       Gauss      10(-4) cm-1
     1  O(17)              0.03918     -23.74851      -8.47406      -7.92165
     2  C(13)             -0.00187      -2.09822      -0.74870      -0.69989
     3  C(13)             -0.00097      -1.09304      -0.39003      -0.36460
     4  H(1)               0.00015       0.67568       0.24110       0.22538
     5  H(1)              -0.00067      -2.99010      -1.06694      -0.99739
     6  S(33)              0.05834      20.03857       7.15026       6.68415
     7  H(1)              -0.00067      -2.98792      -1.06616      -0.99666
     8  H(1)               0.00109       4.88988       1.74483       1.63109

 Normal termination of Gaussian 16 at Tue Apr  8 23:05:50 2025.
