 Gaussian 16, Revision C.01,

 ----------------------------------------------------------------------
 #t hf aug-cc-pvdz symm=none int=(grid=ultrafine) guess=(read,tcheck) s
 table=(opt,rrhf)
 ----------------------------------------------------------------------
 -----
 title
 -----
 Symbolic Z-matrix:
 Charge =  0 Multiplicity = 1

 SCF Done:  E(RHF) =  -952.365661049     A.U. after   13 cycles
 Normal termination of Gaussian 16 at Tue Apr  8 23:53:29 2025.
 Gaussian 16:  ES64L-G16RevC.01  3-Jul-2019

 ----------------------------------------------------------------------
 #t hf aug-cc-pvdz iop(5/13=1,5/36=2,99/5=2) pseudo=read geom=check gue
 ss=(read,tcheck) scf=(maxcycle=1)
 ----------------------------------------------------------------------
 -----
 title
 -----
 Structure from the checkpoint file:  "BDE49_nonexpt_1935_mol1.chk"
 Charge =  0 Multiplicity = 1

                         Standard orientation:
 ---------------------------------------------------------------------
 Center     Atomic      Atomic             Coordinates (Angstroms)
 Number     Number       Type             X           Y           Z
 ---------------------------------------------------------------------
      1         14           0       -2.219158    0.045866    0.019516
      2          6           0       -0.620321   -0.920887   -0.346180
      3         16           0        0.877139   -0.061672    0.112355
      4          8           0        0.657200    0.684192    1.329949
      5          8           0        0.955240    1.030885   -1.098075
      6          8           0        1.996243   -0.945063   -0.031698
      7          1           0       -3.314097   -0.658632   -0.684723
      8          1           0       -2.105870    1.423346   -0.501662
      9          1           0       -2.481783    0.057675    1.470342
     10          1           0        0.903812    1.909985   -0.695819
     11          1           0       -0.520000   -1.167676   -1.404868
     12          1           0       -0.595606   -1.854846    0.221504
 ---------------------------------------------------------------------

 SCF Done:  E(RHF) =  -952.728449576     A.U. after    2 cycles

 The electronic state is 1-A.
 Alpha  occ. eigenvalues --  -94.24403 -69.55949 -20.62397 -20.55974 -20.55451
 Alpha  occ. eigenvalues --  -11.29014  -8.49149  -6.47275  -6.47153  -6.46951
 Alpha  occ. eigenvalues --   -6.22990  -3.98390  -3.98361  -3.98347  -1.61677
 Alpha  occ. eigenvalues --   -1.49220  -1.46398  -1.07315  -0.88878  -0.77140
 Alpha  occ. eigenvalues --   -0.75409  -0.71512  -0.69663  -0.64421  -0.63616
 Alpha  occ. eigenvalues --   -0.56756  -0.55029  -0.52054  -0.51355  -0.50795
 Alpha  occ. eigenvalues --   -0.49264  -0.48239  -0.46566
 Alpha virt. eigenvalues --    0.02912   0.03806   0.03987   0.04577   0.06767
 Alpha virt. eigenvalues --    0.07613   0.08074   0.08722   0.08902   0.11353
 Alpha virt. eigenvalues --    0.12564   0.13484   0.13946   0.15044   0.15384

 Mulliken charges:
               1
     1  Si   1.038265
     2  C   -1.063381
     3  S    3.920933
     4  O   -1.487330
     5  O   -1.217128
     6  O   -1.452087
     7  H   -0.185181
     8  H   -0.175791
     9  H   -0.126908
    10  H    0.332418
    11  H    0.201489
    12  H    0.214702
 Sum of Mulliken charges =  -0.00000

 Dipole moment (field-independent basis, Debye):
    X=             -3.5137    Y=              0.4672    Z=             -1.6380  Tot=              3.9048

 Test job not archived.
 1\1\GINC-SE396\SP\RHF\Aug-CC-pVDZ\C1H6O3S1Si1\OHZDE\08-Apr-2025\0\\#t
 hf aug-cc-pvdz iop(5/13=1,5/36=2,99/5=2) pseudo=read geom=check guess=
 (read,tcheck) scf=(maxcycle=1)\\title\\0,1\Si,0,-2.219158,0.045866,0.0
 19516\C,0,-0.620321,-0.920887,-0.34618\S,0,0.877139,-0.061672,0.112355
 \O,0,0.6572,0.684192,1.329949\O,0,0.95524,1.030885,-1.098075\O,0,1.996
 243,-0.945063,-0.031698\H,0,-3.314097,-0.658632,-0.684723\H,0,-2.10587
 ,1.423346,-0.501662\H,0,-2.481783,0.057675,1.470342\H,0,0.903812,1.909
 985,-0.695819\H,0,-0.52,-1.167676,-1.404868\H,0,-0.595606,-1.854846,0.

 Normal termination of Gaussian 16 at Tue Apr  8 23:53:33 2025.
