 Gaussian 16, Revision C.01,

 ----------------------------------------------------------------------
 #t hf aug-cc-pvdz symm=none int=(grid=ultrafine) guess=(read,tcheck) s
 table=(opt,rrhf)
 ----------------------------------------------------------------------
 -----
 title
 -----
 Symbolic Z-matrix:
 Charge =  0 Multiplicity = 1

 SCF Done:  E(RHF) =  -356.259544954     A.U. after   13 cycles
 Normal termination of Gaussian 16 at Wed Apr  9 00:34:53 2025.
 Gaussian 16:  ES64L-G16RevC.01  3-Jul-2019

 ----------------------------------------------------------------------
 #t hf aug-cc-pvdz iop(5/13=1,5/36=2,99/5=2) pseudo=read geom=check gue
 ss=(read,tcheck) scf=(maxcycle=1)
 ----------------------------------------------------------------------
 -----
 title
 -----
 Structure from the checkpoint file:  "BDE49_nonexpt_444_mol1.chk"
 Charge =  0 Multiplicity = 1

                         Standard orientation:
 ---------------------------------------------------------------------
 Center     Atomic      Atomic             Coordinates (Angstroms)
 Number     Number       Type             X           Y           Z
 ---------------------------------------------------------------------
      1          5           0       -1.082617   -0.000001   -0.043848
      2          9           0       -1.778668    1.137467   -0.007785
      3          9           0       -1.778674   -1.137464   -0.007787
      4          7           0        0.305930   -0.000001   -0.230113
      5          6           0        1.373989   -0.000003    0.432669
      6          6           0        2.735952    0.000001   -0.192875
      7          1           0        2.661603    0.000005   -1.279855
      8          1           0        3.299924   -0.878583    0.138792
      9          1           0        3.299922    0.878583    0.138800
     10          1           0        1.366563   -0.000005    1.533680
 ---------------------------------------------------------------------

 SCF Done:  E(RHF) =  -356.600010543     A.U. after    2 cycles

 The electronic state is 1-A.
 Alpha  occ. eigenvalues --  -26.46339 -26.46339 -15.49956 -11.33350 -11.25598
 Alpha  occ. eigenvalues --   -7.72077  -1.61381  -1.57479  -1.24159  -1.02530
 Alpha  occ. eigenvalues --   -0.87475  -0.78130  -0.75366  -0.73234  -0.68582
 Alpha  occ. eigenvalues --   -0.64609  -0.62087  -0.62012  -0.61375  -0.60471
 Alpha  occ. eigenvalues --   -0.57118  -0.49054  -0.44790
 Alpha virt. eigenvalues --    0.03083   0.04183   0.04789   0.05536   0.06252
 Alpha virt. eigenvalues --    0.06509   0.06721   0.08671   0.09177   0.12810
 Alpha virt. eigenvalues --    0.14113   0.14186   0.15415   0.15538   0.16164

 Mulliken charges:
               1
     1  B    1.293929
     2  F   -0.645857
     3  F   -0.645858
     4  N    0.722654
     5  C   -0.773095
     6  C   -0.485228
     7  H    0.153024
     8  H    0.231202
     9  H    0.231202
    10  H   -0.081974
 Sum of Mulliken charges =  -0.00000

 Dipole moment (field-independent basis, Debye):
    X=              3.6637    Y=             -0.0000    Z=              1.4739  Tot=              3.9490

 Test job not archived.
 1\1\GINC-SE084\SP\RHF\Aug-CC-pVDZ\C2H4B1F2N1\OHZDE\09-Apr-2025\0\\#t h
 f aug-cc-pvdz iop(5/13=1,5/36=2,99/5=2) pseudo=read geom=check guess=(
 read,tcheck) scf=(maxcycle=1)\\title\\0,1\B,0,1.082617,0.000001,-0.043
 848\F,0,1.778668,-1.137467,-0.007785\F,0,1.778674,1.137464,-0.007787\N
 ,0,-0.30593,0.000001,-0.230113\C,0,-1.373989,0.000003,0.432669\C,0,-2.
 735952,-0.000001,-0.192875\H,0,-2.661603,-0.000005,-1.279855\H,0,-3.29
 9924,0.878583,0.138792\H,0,-3.299922,-0.878583,0.1388\H,0,-1.366563,0.
 000005,1.53368\\Version=ES64L-G16RevC.01\State=1-A\HF=-356.6000105\RMS

 Normal termination of Gaussian 16 at Wed Apr  9 00:34:58 2025.
