 Gaussian 16, Revision C.01,

 ----------------------------------------------------------------------
 #t hf aug-cc-pvdz symm=none int=(grid=ultrafine) guess=(read,tcheck) s
 table=(opt,rrhf)
 ----------------------------------------------------------------------
 -----
 title
 -----
 Symbolic Z-matrix:
 Charge =  0 Multiplicity = 1

 SCF Done:  E(RHF) =  -752.307556217     A.U. after   14 cycles
 Normal termination of Gaussian 16 at Wed Apr  9 00:12:08 2025.
 Gaussian 16:  ES64L-G16RevC.01  3-Jul-2019

 ----------------------------------------------------------------------
 #t hf aug-cc-pvdz iop(5/13=1,5/36=2,99/5=2) pseudo=read geom=check gue
 ss=(read,tcheck) scf=(maxcycle=1)
 ----------------------------------------------------------------------
 -----
 title
 -----
 Structure from the checkpoint file:  "BDE49_nonexpt_2382_mol1.chk"
 Charge =  0 Multiplicity = 1

                         Standard orientation:
 ---------------------------------------------------------------------
 Center     Atomic      Atomic             Coordinates (Angstroms)
 Number     Number       Type             X           Y           Z
 ---------------------------------------------------------------------
      1         14           0        2.319015    0.195947   -0.479506
      2         14           0        0.505211   -0.410585    0.904796
      3          6           0       -1.173015   -0.409084   -0.052577
      4          1           0        0.468797    0.469834    2.098083
      5          1           0        0.720903   -1.800316    1.378180
      6          1           0        2.359092   -0.680631   -1.675430
      7          1           0        3.601074    0.052844    0.253097
      8          7           0       -1.893689    0.598147   -0.343610
      9          1           0        2.188774    1.601843   -0.932807
     10          6           0       -1.656324   -1.772106   -0.504922
     11          1           0       -0.900098   -2.273957   -1.119008
     12          1           0       -2.574161   -1.659766   -1.083748
     13          1           0       -1.845884   -2.423010    0.355044
     14          6           0       -1.505682    1.943440    0.029540
     15          1           0       -1.457343    2.557221   -0.874916
     16          1           0       -0.546005    2.025776    0.559123
     17          1           0       -2.288364    2.374569    0.661349
 ---------------------------------------------------------------------

 SCF Done:  E(RHF) =  -752.560231681     A.U. after    2 cycles

 The electronic state is 1-A.
 Alpha  occ. eigenvalues --  -69.53478 -69.53188 -15.49979 -11.27713 -11.25835
 Alpha  occ. eigenvalues --  -11.23437  -6.20673  -6.20374  -3.96008  -3.95992
 Alpha  occ. eigenvalues --   -3.95988  -3.95727  -3.95726  -3.95715  -1.22754
 Alpha  occ. eigenvalues --   -1.01616  -0.93131  -0.80892  -0.74251  -0.69777
 Alpha  occ. eigenvalues --   -0.63730  -0.61910  -0.60933  -0.57381  -0.54914
 Alpha  occ. eigenvalues --   -0.51795  -0.50665  -0.49594  -0.48009  -0.44511
 Alpha  occ. eigenvalues --   -0.41494  -0.39265
 Alpha virt. eigenvalues --    0.03511   0.03569   0.04346   0.04558   0.05753
 Alpha virt. eigenvalues --    0.06044   0.06333   0.06614   0.07317   0.08619
 Alpha virt. eigenvalues --    0.08786   0.09009   0.09599   0.09665   0.10280

 Mulliken charges:
               1
     1  Si   0.232071
     2  Si   0.450158
     3  C   -0.911138
     4  H   -0.078335
     5  H   -0.162549
     6  H   -0.064741
     7  H   -0.106622
     8  N    0.724876
     9  H   -0.058565
    10  C   -0.572149
    11  H    0.221428
    12  H    0.159564
    13  H    0.205109
    14  C   -0.303293
    15  H    0.118608
    16  H    0.042279
    17  H    0.103300
 Sum of Mulliken charges =  -0.00000

 Dipole moment (field-independent basis, Debye):
    X=              1.2931    Y=             -0.4282    Z=              0.7139  Tot=              1.5379

 Test job not archived.
 1\1\GINC-SE393\SP\RHF\Aug-CC-pVDZ\C3H11N1Si2\OHZDE\09-Apr-2025\0\\#t h
 f aug-cc-pvdz iop(5/13=1,5/36=2,99/5=2) pseudo=read geom=check guess=(
 read,tcheck) scf=(maxcycle=1)\\title\\0,1\Si,0,2.319015,0.195947,-0.47
 9506\Si,0,0.505211,-0.410585,0.904796\C,0,-1.173015,-0.409084,-0.05257
 7\H,0,0.468797,0.469834,2.098083\H,0,0.720903,-1.800316,1.37818\H,0,2.
 359092,-0.680631,-1.67543\H,0,3.601074,0.052844,0.253097\N,0,-1.893689
 ,0.598147,-0.34361\H,0,2.188774,1.601843,-0.932807\C,0,-1.656324,-1.77
 2106,-0.504922\H,0,-0.900098,-2.273957,-1.119008\H,0,-2.574161,-1.6597

 Normal termination of Gaussian 16 at Wed Apr  9 00:12:14 2025.
