 Gaussian 16, Revision C.01,

 ----------------------------------------------------------------------
 #t hf aug-cc-pvdz symm=none int=(grid=ultrafine) guess=(read,tcheck) s
 table=(opt,rrhf)
 ----------------------------------------------------------------------
 -----
 title
 -----
 Symbolic Z-matrix:
 Charge =  0 Multiplicity = 1

 SCF Done:  E(RHF) =  -733.358840192     A.U. after   12 cycles
 Normal termination of Gaussian 16 at Tue Apr  8 22:48:54 2025.
 Gaussian 16:  ES64L-G16RevC.01  3-Jul-2019

 ----------------------------------------------------------------------
 #t hf aug-cc-pvdz iop(5/13=1,5/36=2,99/5=2) pseudo=read geom=check gue
 ss=(read,tcheck) scf=(maxcycle=1)
 ----------------------------------------------------------------------
 -----
 title
 -----
 Structure from the checkpoint file:  "BDE49_expt_1662_mol1.chk"
 Charge =  0 Multiplicity = 1

                         Standard orientation:
 ---------------------------------------------------------------------
 Center     Atomic      Atomic             Coordinates (Angstroms)
 Number     Number       Type             X           Y           Z
 ---------------------------------------------------------------------
      1          6           0       -2.868895    0.702504    0.395243
      2          6           0       -1.508026    1.075400   -0.171927
      3          1           0       -3.641300    1.403574    0.084358
      4          1           0       -2.855707    0.639924    1.483163
      5         17           0       -3.443901   -0.931288   -0.181841
      6          6           0       -0.345986    0.206275    0.318556
      7          1           0       -1.327549    2.120924    0.113271
      8          1           0       -1.558421    1.056549   -1.265567
      9          6           0        1.008310    0.638208   -0.255079
     10          1           0       -0.538394   -0.838077    0.052651
     11          1           0       -0.305822    0.243822    1.414855
     12          6           0        2.178903   -0.223066    0.231866
     13          1           0        1.198097    1.687432    0.006401
     14          1           0        0.964056    0.601079   -1.351030
     15          6           0        3.534893    0.201956   -0.343180
     16          1           0        1.988949   -1.272090   -0.028813
     17          1           0        2.224620   -0.186513    1.328061
     18          6           0        4.698668   -0.663441    0.148535
     19          1           0        3.724334    1.250509   -0.083091
     20          1           0        3.489412    0.164364   -1.438308
     21          1           0        4.792112   -0.618693    1.238129
     22          1           0        5.649648   -0.335123   -0.279644
     23          1           0        4.555070   -1.712798   -0.127227
 ---------------------------------------------------------------------

 SCF Done:  E(RHF) =  -733.743411593     A.U. after    2 cycles

 The electronic state is 1-A.
 Alpha  occ. eigenvalues -- -105.54771 -11.30375 -11.24549 -11.23103 -11.22891
 Alpha  occ. eigenvalues --  -11.22721 -11.22584 -11.22251 -10.59571  -7.76504
 Alpha  occ. eigenvalues --   -7.76151  -7.76141  -1.12080  -1.08305  -1.03506
 Alpha  occ. eigenvalues --   -0.97815  -0.91196  -0.84183  -0.79901  -0.79370
 Alpha  occ. eigenvalues --   -0.66841  -0.64465  -0.63185  -0.60788  -0.59115
 Alpha  occ. eigenvalues --   -0.57543  -0.55054  -0.54108  -0.52779  -0.50327
 Alpha  occ. eigenvalues --   -0.49444  -0.47893  -0.47274  -0.46855  -0.46215
 Alpha  occ. eigenvalues --   -0.43688  -0.43414
 Alpha virt. eigenvalues --    0.03035   0.03306   0.03560   0.04247   0.04857
 Alpha virt. eigenvalues --    0.05232   0.05907   0.06668   0.07502   0.07803
 Alpha virt. eigenvalues --    0.08435   0.09348   0.10227   0.10745   0.11167

 Mulliken charges:
               1
     1  C   -0.391095
     2  C   -0.239525
     3  H    0.191181
     4  H    0.224810
     5  Cl  -0.092712
     6  C   -0.228207
     7  H    0.170717
     8  H    0.109609
     9  C   -0.209164
    10  H    0.149475
    11  H    0.116967
    12  C   -0.290837
    13  H    0.097775
    14  H    0.106806
    15  C   -0.202785
    16  H    0.110963
    17  H    0.112210
    18  C   -0.409836
    19  H    0.119911
    20  H    0.119308
    21  H    0.159772
    22  H    0.112670
    23  H    0.161986
 Sum of Mulliken charges =  -0.00000

 Dipole moment (field-independent basis, Debye):
    X=              1.1639    Y=              2.0881    Z=              0.6013  Tot=              2.4650

 Test job not archived.
 1\1\GINC-SE455\SP\RHF\Aug-CC-pVDZ\C7H15Cl1\OHZDE\08-Apr-2025\0\\#t hf
 aug-cc-pvdz iop(5/13=1,5/36=2,99/5=2) pseudo=read geom=check guess=(re
 ad,tcheck) scf=(maxcycle=1)\\title\\0,1\C,0,-2.868895,0.702504,0.39524
 3\C,0,-1.508026,1.0754,-0.171927\H,0,-3.6413,1.403574,0.084358\H,0,-2.
 855707,0.639924,1.483163\Cl,0,-3.443901,-0.931288,-0.181841\C,0,-0.345
 986,0.206275,0.318556\H,0,-1.327549,2.120924,0.113271\H,0,-1.558421,1.
 056549,-1.265567\C,0,1.00831,0.638208,-0.255079\H,0,-0.538394,-0.83807
 7,0.052651\H,0,-0.305822,0.243822,1.414855\C,0,2.178903,-0.223066,0.23

 Normal termination of Gaussian 16 at Tue Apr  8 22:49:05 2025.
