 Gaussian 16, Revision C.01,

 ----------------------------------------------------------------------
 #t hf aug-cc-pvdz symm=none int=(grid=ultrafine) guess=(read,tcheck) s
 table=(opt,rrhf)
 ----------------------------------------------------------------------
 -----
 title
 -----
 Symbolic Z-matrix:
 Charge =  0 Multiplicity = 1

 SCF Done:  E(RHF) =  -1081.23780162     A.U. after   16 cycles
 Normal termination of Gaussian 16 at Wed Apr  9 00:30:49 2025.
 Gaussian 16:  ES64L-G16RevC.01  3-Jul-2019

 ----------------------------------------------------------------------
 #t hf aug-cc-pvdz iop(5/13=1,5/36=2,99/5=2) pseudo=read geom=check gue
 ss=(read,tcheck) scf=(maxcycle=1)
 ----------------------------------------------------------------------
 -----
 title
 -----
 Structure from the checkpoint file:  "BDE49_nonexpt_342_mol1.chk"
 Charge =  0 Multiplicity = 1

                         Standard orientation:
 ---------------------------------------------------------------------
 Center     Atomic      Atomic             Coordinates (Angstroms)
 Number     Number       Type             X           Y           Z
 ---------------------------------------------------------------------
      1          6           0       -0.034998   -0.008327    0.169983
      2          7           0       -0.692724    1.331272   -0.259062
      3          5           0        1.557049   -0.153202   -0.143207
      4          7           0       -0.794337   -1.077007   -0.656359
      5         17           0       -0.330740   -0.178511    1.902320
      6          8           0       -0.616323   -0.931947   -1.854127
      7          8           0        1.980991   -1.432920   -0.110719
      8          8           0       -1.881847    1.322410   -0.458885
      9          8           0        2.365225    0.895186   -0.362187
     10          8           0        0.043519    2.307247   -0.314311
     11          8           0       -1.435588   -1.927154   -0.097908
     12          1           0        1.884241    1.736794   -0.370141
     13          1           0        2.924694   -1.528571   -0.280133
 ---------------------------------------------------------------------

 SCF Done:  E(RHF) =  -1081.90374804     A.U. after    2 cycles

 The electronic state is 1-A.
 Alpha  occ. eigenvalues -- -105.63894 -20.65079 -20.64312 -20.63932 -20.62620
 Alpha  occ. eigenvalues --  -20.60309 -20.59885 -15.84736 -15.83419 -11.45629
 Alpha  occ. eigenvalues --  -10.68645  -7.85614  -7.85158  -7.85148  -7.71368
 Alpha  occ. eigenvalues --   -1.73230  -1.71555  -1.57020  -1.55915  -1.52849
 Alpha  occ. eigenvalues --   -1.49165  -1.24253  -1.09322  -1.03989  -0.90523
 Alpha  occ. eigenvalues --   -0.87333  -0.84694  -0.80509  -0.79908  -0.79816
 Alpha  occ. eigenvalues --   -0.78428  -0.76262  -0.73831  -0.67511  -0.61858
 Alpha  occ. eigenvalues --   -0.61008  -0.60099  -0.56630  -0.55129  -0.54295
 Alpha  occ. eigenvalues --   -0.53612  -0.52327  -0.50972  -0.50866  -0.49765
 Alpha  occ. eigenvalues --   -0.48207
 Alpha virt. eigenvalues --    0.00718   0.02543   0.03155   0.04708   0.04734
 Alpha virt. eigenvalues --    0.05839   0.07371   0.08418   0.09329   0.12023
 Alpha virt. eigenvalues --    0.13024   0.13784   0.14257   0.14747   0.15034

 Mulliken charges:
               1
     1  C   -0.822082
     2  N    2.905858
     3  B    1.898003
     4  N    2.974922
     5  Cl   0.149387
     6  O   -1.475205
     7  O   -1.254088
     8  O   -1.441954
     9  O   -1.234755
    10  O   -1.444436
    11  O   -1.375613
    12  H    0.659907
    13  H    0.460056
 Sum of Mulliken charges =  -0.00000

 Dipole moment (field-independent basis, Debye):
    X=              3.0161    Y=              0.3321    Z=              1.5801  Tot=              3.4211

 Test job not archived.
 1\1\GINC-SE460\SP\RHF\Aug-CC-pVDZ\C1H2B1Cl1N2O6\OHZDE\09-Apr-2025\0\\#
 t hf aug-cc-pvdz iop(5/13=1,5/36=2,99/5=2) pseudo=read geom=check gues
 s=(read,tcheck) scf=(maxcycle=1)\\title\\0,1\C,0,-0.034998,-0.008327,0
 .169983\N,0,-0.692722,1.331273,-0.259062\B,0,1.557049,-0.153205,-0.143
 207\N,0,-0.794339,-1.077005,-0.656359\Cl,0,-0.33074,-0.17851,1.90232\O
 ,0,-0.616325,-0.931946,-1.854127\O,0,1.980988,-1.432924,-0.110719\O,0,
 -1.881845,1.322414,-0.458885\O,0,2.365226,0.895182,-0.362187\O,0,0.043
 523,2.307247,-0.314311\O,0,-1.435592,-1.927151,-0.097908\H,0,1.884244,

 Normal termination of Gaussian 16 at Wed Apr  9 00:30:56 2025.
