 Gaussian 16, Revision C.01,

 ----------------------------------------------------------------------
 #t hf aug-cc-pvdz symm=none int=(grid=ultrafine) guess=(read,tcheck) s
 table=opt
 ----------------------------------------------------------------------
 -----
 title
 -----
 Symbolic Z-matrix:
 Charge =  0 Multiplicity = 2

 SCF Done:  E(UHF) =  -445.624527023     A.U. after   15 cycles

 1\1\GINC-SE366\Stability\UHF\Aug-CC-pVDZ\C4H9Si1\OHZDE\08-Apr-2025\0\\
 #t hf aug-cc-pvdz symm=none int=(grid=ultrafine) guess=(read,tcheck) s
 table=opt\\title\\0,2\Si,0,-1.333717,-0.035433,-0.094248\C,0,-0.02768,
 -1.414272,0.10128\C,0,-0.086602,1.407134,-0.158832\C,0,1.239086,0.7521
 21,0.304808\H,0,-0.379695,2.255799,0.46379\H,0,0.012278,1.780866,-1.18
 3176\C,0,1.302555,-0.694584,-0.22822\H,0,1.266464,0.727973,1.400508\H,
 0,2.110309,1.329429,-0.021547\H,0,1.440828,-0.668113,-1.315658\H,0,2.1
 63781,-1.228361,0.185702\H,0,-0.192579,-2.292111,-0.526206\H,0,-0.0350

 Normal termination of Gaussian 16 at Tue Apr  8 23:41:30 2025.
 Gaussian 16:  ES64L-G16RevC.01  3-Jul-2019

 ----------------------------------------------------------------------
 #t hf aug-cc-pvdz iop(5/13=1,5/36=2,99/5=2) pseudo=read geom=check gue
 ss=(read,tcheck) scf=(maxcycle=1)
 ----------------------------------------------------------------------
 -----
 title
 -----
 Structure from the checkpoint file:  "BDE49_nonexpt_1655_mol2.chk"
 Charge =  0 Multiplicity = 2

                         Standard orientation:
 ---------------------------------------------------------------------
 Center     Atomic      Atomic             Coordinates (Angstroms)
 Number     Number       Type             X           Y           Z
 ---------------------------------------------------------------------
      1         14           0       -1.333717   -0.035433   -0.094248
      2          6           0       -0.027679   -1.414272    0.101280
      3          6           0       -0.086603    1.407134   -0.158832
      4          6           0        1.239086    0.752122    0.304808
      5          1           0       -0.379696    2.255799    0.463790
      6          1           0        0.012277    1.780866   -1.183176
      7          6           0        1.302555   -0.694583   -0.228220
      8          1           0        1.266464    0.727974    1.400508
      9          1           0        2.110309    1.329430   -0.021547
     10          1           0        1.440828   -0.668112   -1.315658
     11          1           0        2.163782   -1.228360    0.185702
     12          1           0       -0.192578   -2.292111   -0.526206
     13          1           0       -0.035054   -1.757407    1.142760
     14          1           0       -2.278450    0.045586    1.059076
 ---------------------------------------------------------------------

 SCF Done:  E(UHF) =  -445.827855215     A.U. after    2 cycles

 The electronic state is 2-A.
 Alpha  occ. eigenvalues --  -69.52047 -11.23337 -11.23295 -11.21721 -11.21693
 Alpha  occ. eigenvalues --   -6.19207  -3.95125  -3.94231  -3.94204  -1.08576
 Alpha  occ. eigenvalues --   -0.96290  -0.88415  -0.77812  -0.68783  -0.63706
 Alpha  occ. eigenvalues --   -0.61892  -0.58455  -0.53066  -0.49986  -0.48542
 Alpha  occ. eigenvalues --   -0.47192  -0.44837  -0.41869  -0.31793
 Alpha virt. eigenvalues --    0.03669   0.03901   0.03993   0.04039   0.06103
 Alpha virt. eigenvalues --    0.06299   0.06499   0.06709   0.07155   0.09730
 Alpha virt. eigenvalues --    0.10341   0.10747   0.13929   0.14443   0.14567

  Beta  occ. eigenvalues --  -69.51503 -11.23308 -11.23282 -11.21643 -11.21631
  Beta  occ. eigenvalues --   -6.18382  -3.93882  -3.93829  -3.93006  -1.08281
  Beta  occ. eigenvalues --   -0.96033  -0.87668  -0.77654  -0.66374  -0.63473
  Beta  occ. eigenvalues --   -0.59901  -0.58141  -0.52176  -0.49804  -0.48363
  Beta  occ. eigenvalues --   -0.47060  -0.43826  -0.40994
  Beta virt. eigenvalues --    0.02864   0.03809   0.03981   0.04034   0.05741
  Beta virt. eigenvalues --    0.06204   0.06514   0.06546   0.06802   0.07933
  Beta virt. eigenvalues --    0.09794   0.10676   0.11218   0.14202   0.14601

 Mulliken charges and spin densities:
               1          2
     1  Si   0.874830   0.954131
     2  C   -0.451845  -0.026874
     3  C   -0.444758  -0.021400
     4  C   -0.428896   0.021592
     5  H    0.091203  -0.003736
     6  H    0.137296   0.001779
     7  C   -0.340344   0.009942
     8  H    0.098858  -0.001728
     9  H    0.124046   0.004970
    10  H    0.116032  -0.001109
    11  H    0.127707   0.001014
    12  H    0.090678   0.000990
    13  H    0.096940  -0.001544
    14  H   -0.091746   0.061973
 Sum of Mulliken charges =  -0.00000   1.00000

 Dipole moment (field-independent basis, Debye):
    X=              0.7929    Y=              0.0195    Z=              0.0922  Tot=              0.7985
                          Isotropic Fermi Contact Couplings
        Atom                 a.u.       MegaHertz       Gauss      10(-4) cm-1
     1  Si(29)             0.56410    -501.32974    -178.88692    -167.22560
     2  C(13)              0.01525      17.14606       6.11814       5.71931
     3  C(13)              0.01275      14.33613       5.11549       4.78202
     4  C(13)              0.00983      11.05140       3.94341       3.68635
     5  H(1)               0.00152       6.78608       2.42144       2.26359
     6  H(1)               0.00323      14.42763       5.14814       4.81254
     7  C(13)              0.00236       2.65485       0.94731       0.88556
     8  H(1)              -0.00023      -1.03547      -0.36948      -0.34540

 Normal termination of Gaussian 16 at Tue Apr  8 23:41:35 2025.
