 Gaussian 16, Revision C.01,

 ----------------------------------------------------------------------
 #t hf aug-cc-pvdz symm=none int=(grid=ultrafine) guess=(read,tcheck) s
 table=(opt,rrhf)
 ----------------------------------------------------------------------
 -----
 title
 -----
 Symbolic Z-matrix:
 Charge =  0 Multiplicity = 1

 SCF Done:  E(RHF) =  -1021.68296262     A.U. after   14 cycles
 Normal termination of Gaussian 16 at Wed Apr  9 00:39:41 2025.
 Gaussian 16:  ES64L-G16RevC.01  3-Jul-2019

 ----------------------------------------------------------------------
 #t hf aug-cc-pvdz iop(5/13=1,5/36=2,99/5=2) pseudo=read geom=check gue
 ss=(read,tcheck) scf=(maxcycle=1)
 ----------------------------------------------------------------------
 -----
 title
 -----
 Structure from the checkpoint file:  "BDE49_nonexpt_627_mol1.chk"
 Charge =  0 Multiplicity = 1

                         Standard orientation:
 ---------------------------------------------------------------------
 Center     Atomic      Atomic             Coordinates (Angstroms)
 Number     Number       Type             X           Y           Z
 ---------------------------------------------------------------------
      1          8           0        1.109572    0.597697   -0.504327
      2          5           0        2.198623   -0.194406   -0.074056
      3          8           0        2.127869   -1.519675    0.154231
      4          8           0        3.359275    0.484991    0.088226
      5          8           0       -0.083041   -0.232193   -0.679169
      6          6           0       -1.074238    0.319938    0.096887
      7         17           0       -2.491385   -0.722639   -0.166500
      8          9           0       -1.350638    1.576446   -0.256372
      9          9           0       -0.743228    0.328725    1.397003
     10          1           0        1.252466   -1.880681   -0.015607
     11          1           0        3.288777    1.424845   -0.102307
 ---------------------------------------------------------------------

 SCF Done:  E(RHF) =  -1022.28830825     A.U. after    2 cycles

 The electronic state is 1-A.
 Alpha  occ. eigenvalues -- -105.61611 -26.53396 -26.53258 -20.69205 -20.66029
 Alpha  occ. eigenvalues --  -20.57900 -20.57863 -11.57221 -10.66504  -7.83455
 Alpha  occ. eigenvalues --   -7.83010  -7.83000  -7.70241  -1.73337  -1.64275
 Alpha  occ. eigenvalues --   -1.64076  -1.50449  -1.47320  -1.37563  -1.13358
 Alpha  occ. eigenvalues --   -0.94027  -0.83548  -0.83143  -0.81706  -0.80305
 Alpha  occ. eigenvalues --   -0.75288  -0.71661  -0.69923  -0.68980  -0.66600
 Alpha  occ. eigenvalues --   -0.65280  -0.61500  -0.60251  -0.58336  -0.57014
 Alpha  occ. eigenvalues --   -0.55292  -0.52458  -0.51639  -0.51290  -0.50876
 Alpha virt. eigenvalues --    0.03983   0.04901   0.05601   0.05965   0.07972
 Alpha virt. eigenvalues --    0.09136   0.10130   0.10763   0.11286   0.11709
 Alpha virt. eigenvalues --    0.14067   0.14803   0.15858   0.17287   0.18818

 Mulliken charges:
               1
     1  O   -0.632796
     2  B    2.052357
     3  O   -1.158873
     4  O   -1.237911
     5  O   -0.839782
     6  C    2.231571
     7  Cl  -0.110526
     8  F   -0.636441
     9  F   -0.656515
    10  H    0.551761
    11  H    0.437155
 Sum of Mulliken charges =  -0.00000

 Dipole moment (field-independent basis, Debye):
    X=             -0.8602    Y=              0.5792    Z=             -0.4813  Tot=              1.1433

 Test job not archived.
 1\1\GINC-SE103\SP\RHF\Aug-CC-pVDZ\C1H2B1Cl1F2O4\OHZDE\09-Apr-2025\0\\#
 t hf aug-cc-pvdz iop(5/13=1,5/36=2,99/5=2) pseudo=read geom=check gues
 s=(read,tcheck) scf=(maxcycle=1)\\title\\0,1\O,0,1.109572,0.597697,-0.
 504327\B,0,2.198623,-0.194406,-0.074056\O,0,2.127869,-1.519675,0.15423
 1\O,0,3.359275,0.484991,0.088226\O,0,-0.083041,-0.232193,-0.679169\C,0
 ,-1.074238,0.319938,0.096887\Cl,0,-2.491385,-0.722639,-0.1665\F,0,-1.3
 50638,1.576446,-0.256372\F,0,-0.743228,0.328725,1.397003\H,0,1.252466,
 -1.880681,-0.015607\H,0,3.288777,1.424845,-0.102307\\Version=ES64L-G16

 Normal termination of Gaussian 16 at Wed Apr  9 00:39:46 2025.
