 Gaussian 16, Revision C.01,

 ----------------------------------------------------------------------
 #t hf aug-cc-pvdz symm=none int=(grid=ultrafine) guess=(read,tcheck) s
 table=opt
 ----------------------------------------------------------------------
 -----
 title
 -----
 Symbolic Z-matrix:
 Charge =  0 Multiplicity = 2

 SCF Done:  E(UHF) =  -1015.31794116     A.U. after   20 cycles
 Normal termination of Gaussian 16 at Tue Apr  8 23:48:58 2025.
 Gaussian 16:  ES64L-G16RevC.01  3-Jul-2019

 ----------------------------------------------------------------------
 #t hf aug-cc-pvdz iop(5/13=1,5/36=2,99/5=2) pseudo=read geom=check gue
 ss=(read,tcheck) scf=(maxcycle=1)
 ----------------------------------------------------------------------
 -----
 title
 -----
 Structure from the checkpoint file:  "BDE49_nonexpt_1812_mol2.chk"
 Charge =  0 Multiplicity = 2

                         Standard orientation:
 ---------------------------------------------------------------------
 Center     Atomic      Atomic             Coordinates (Angstroms)
 Number     Number       Type             X           Y           Z
 ---------------------------------------------------------------------
      1          6           0       -0.266313    0.944229   -0.020985
      2          8           0       -0.688740    2.045860   -0.284076
      3         14           0        1.597320    0.699579    0.356411
      4          8           0       -1.017085   -0.157694    0.110193
      5         17           0        2.292889   -1.185892   -0.178911
      6          6           0       -2.451431   -0.001341   -0.104158
      7          6           0       -3.090053   -1.356817    0.108077
      8          1           0       -2.607889    0.376979   -1.116569
      9          1           0       -2.823468    0.749257    0.596575
     10          1           0       -2.689049   -2.090222   -0.594311
     11          1           0       -4.169626   -1.284415   -0.047577
     12          1           0       -2.912060   -1.717237    1.123289
     13          1           0        2.353882    1.709943   -0.416223
 ---------------------------------------------------------------------

 SCF Done:  E(UHF) =  -1015.69038817     A.U. after    2 cycles

 The electronic state is 2-A.
 Alpha  occ. eigenvalues -- -105.57176 -69.60610 -20.60020 -20.55531 -11.39131
 Alpha  occ. eigenvalues --  -11.30806 -11.24274 -10.62149  -7.79074  -7.78777
 Alpha  occ. eigenvalues --   -7.78685  -6.27345  -4.03168  -4.02405  -4.02253
 Alpha  occ. eigenvalues --   -1.55133  -1.46503  -1.07004  -1.05268  -0.90069
 Alpha  occ. eigenvalues --   -0.82159  -0.76804  -0.69453  -0.69199  -0.65474
 Alpha  occ. eigenvalues --   -0.60088  -0.57109  -0.56570  -0.54804  -0.52915
 Alpha  occ. eigenvalues --   -0.52040  -0.50791  -0.49073  -0.46734  -0.43913
 Alpha  occ. eigenvalues --   -0.36204
 Alpha virt. eigenvalues --    0.03575   0.04217   0.04400   0.04875   0.05577
 Alpha virt. eigenvalues --    0.05996   0.06689   0.07582   0.08488   0.09741
 Alpha virt. eigenvalues --    0.11865   0.12119   0.12750   0.13500   0.14093

  Beta  occ. eigenvalues -- -105.57084 -69.60024 -20.60031 -20.55228 -11.39093
  Beta  occ. eigenvalues --  -11.30804 -11.24274 -10.62049  -7.78931  -7.78634
  Beta  occ. eigenvalues --   -7.78507  -6.26431  -4.02025  -4.01875  -4.01007
  Beta  occ. eigenvalues --   -1.54963  -1.45983  -1.06236  -1.05130  -0.89685
  Beta  occ. eigenvalues --   -0.81293  -0.75001  -0.69156  -0.69014  -0.63866
  Beta  occ. eigenvalues --   -0.59573  -0.56984  -0.56152  -0.53881  -0.52377
  Beta  occ. eigenvalues --   -0.51829  -0.48963  -0.48314  -0.45934  -0.42755
  Beta virt. eigenvalues --    0.00458   0.03608   0.04484   0.04544   0.05130
  Beta virt. eigenvalues --    0.05674   0.06256   0.07088   0.07662   0.08769
  Beta virt. eigenvalues --    0.10744   0.12121   0.12599   0.13397   0.14141

 Mulliken charges and spin densities:
               1          2
     1  C    1.060079  -0.032964
     2  O   -1.001236   0.069804
     3  Si   0.927484   0.850070
     4  O   -1.064278  -0.001339
     5  Cl  -0.521063   0.037945
     6  C    0.500916   0.010280
     7  C   -0.535836   0.000186
     8  H    0.116380  -0.000341
     9  H    0.114052  -0.000410
    10  H    0.175464  -0.000288
    11  H    0.168332   0.000217
    12  H    0.174146   0.000199
    13  H   -0.114440   0.066639
 Sum of Mulliken charges =   0.00000   1.00000

 Dipole moment (field-independent basis, Debye):
    X=             -1.3176    Y=             -0.7057    Z=              0.5586  Tot=              1.5956
                          Isotropic Fermi Contact Couplings
        Atom                 a.u.       MegaHertz       Gauss      10(-4) cm-1
     1  C(13)              0.02484      27.92880       9.96569       9.31604
     2  O(17)              0.02454     -14.87388      -5.30737      -4.96139
     3  Si(29)             0.72906    -647.93381    -231.19890    -216.12746
     4  O(17)             -0.00122       0.73927       0.26379       0.24660
     5  Cl(35)             0.05335      23.39132       8.34660       7.80250
     6  C(13)              0.00021       0.23660       0.08442       0.07892
     7  C(13)              0.00005       0.05279       0.01884       0.01761
     8  H(1)              -0.00008      -0.37504      -0.13382      -0.12510

 Normal termination of Gaussian 16 at Tue Apr  8 23:49:03 2025.
