 Gaussian 16, Revision C.01,

 ----------------------------------------------------------------------
 #t hf aug-cc-pvdz symm=none int=(grid=ultrafine) guess=(read,tcheck) s
 table=opt
 ----------------------------------------------------------------------
 -----
 title
 -----
 Symbolic Z-matrix:
 Charge =  0 Multiplicity = 2

 SCF Done:  E(UHF) =  -1168.63319953     A.U. after   17 cycles
 Normal termination of Gaussian 16 at Tue Apr  8 23:43:14 2025.
 Gaussian 16:  ES64L-G16RevC.01  3-Jul-2019

 ----------------------------------------------------------------------
 #t hf aug-cc-pvdz iop(5/13=1,5/36=2,99/5=2) pseudo=read geom=check gue
 ss=(read,tcheck) scf=(maxcycle=1)
 ----------------------------------------------------------------------
 -----
 title
 -----
 Structure from the checkpoint file:  "BDE49_nonexpt_1701_mol2.chk"
 Charge =  0 Multiplicity = 2

                         Standard orientation:
 ---------------------------------------------------------------------
 Center     Atomic      Atomic             Coordinates (Angstroms)
 Number     Number       Type             X           Y           Z
 ---------------------------------------------------------------------
      1         16           0        2.204265   -0.275826   -0.000026
      2          8           0        0.595993   -0.750958   -0.000032
      3          6           0       -0.370138    0.248514    0.000011
      4         17           0       -1.949221   -0.563456   -0.000004
      5          9           0       -0.259931    1.028291   -1.081172
      6          9           0       -0.259913    1.028216    1.081246
 ---------------------------------------------------------------------

 SCF Done:  E(UHF) =  -1169.04508735     A.U. after    2 cycles

 The electronic state is 2-A.
 Alpha  occ. eigenvalues -- -105.60580 -94.05656 -26.52885 -26.52882 -20.65478
 Alpha  occ. eigenvalues --  -11.56655 -10.65490  -8.33091  -7.82438  -7.81991
 Alpha  occ. eigenvalues --   -7.81990  -6.32157  -6.30524  -6.30045  -1.72283
 Alpha  occ. eigenvalues --   -1.63753  -1.55467  -1.14296  -1.03266  -0.92301
 Alpha  occ. eigenvalues --   -0.82562  -0.80499  -0.78299  -0.70203  -0.68354
 Alpha  occ. eigenvalues --   -0.65533  -0.62472  -0.62155  -0.57546  -0.50545
 Alpha  occ. eigenvalues --   -0.50255  -0.46417  -0.42774
 Alpha virt. eigenvalues --    0.05087   0.07430   0.09235   0.09380   0.10092
 Alpha virt. eigenvalues --    0.11034   0.12963   0.13036   0.15055   0.15754
 Alpha virt. eigenvalues --    0.16791   0.19971   0.22156   0.23072   0.25376

  Beta  occ. eigenvalues -- -105.60582 -94.04762 -26.52880 -26.52877 -20.64991
  Beta  occ. eigenvalues --  -11.56678 -10.65492  -8.32065  -7.82447  -7.81995
  Beta  occ. eigenvalues --   -7.81991  -6.30116  -6.29518  -6.28087  -1.72201
  Beta  occ. eigenvalues --   -1.63736  -1.54179  -1.13842  -0.98093  -0.90698
  Beta  occ. eigenvalues --   -0.82145  -0.79697  -0.77232  -0.69619  -0.67292
  Beta  occ. eigenvalues --   -0.65316  -0.61663  -0.57259  -0.57029  -0.50396
  Beta  occ. eigenvalues --   -0.50189  -0.40709
  Beta virt. eigenvalues --   -0.01661   0.05758   0.07473   0.09454   0.10260
  Beta virt. eigenvalues --    0.10352   0.11199   0.13032   0.14285   0.15405
  Beta virt. eigenvalues --    0.15853   0.17381   0.20026   0.22258   0.23427

 Mulliken charges and spin densities:
               1          2
     1  S    0.559534   0.980846
     2  O   -1.177156   0.026293
     3  C    1.891633  -0.011004
     4  Cl  -0.079345  -0.001292
     5  F   -0.597333   0.002578
     6  F   -0.597333   0.002578
 Sum of Mulliken charges =  -0.00000   1.00000

 Dipole moment (field-independent basis, Debye):
    X=              0.9027    Y=             -0.0022    Z=             -0.0000  Tot=              0.9027
                          Isotropic Fermi Contact Couplings
        Atom                 a.u.       MegaHertz       Gauss      10(-4) cm-1
     1  S(33)              0.20377      69.99064      24.97440      23.34637
     2  O(17)              0.04869     -29.51542     -10.53184      -9.84529
     3  C(13)             -0.00377      -4.23979      -1.51286      -1.41424
     4  Cl(35)            -0.00117      -0.51424      -0.18350      -0.17153
     5  F(19)             -0.00190      -7.98426      -2.84898      -2.66326
     6  F(19)             -0.00190      -7.98429      -2.84899      -2.66327
 --------------------------------------------------------
       Center         ----  Spin Dipole Couplings  ----

 1\1\GINC-SE345\SP\UHF\Aug-CC-pVDZ\C1Cl1F2O1S1(2)\OHZDE\08-Apr-2025\0\\
 #t hf aug-cc-pvdz iop(5/13=1,5/36=2,99/5=2) pseudo=read geom=check gue
 ss=(read,tcheck) scf=(maxcycle=1)\\title\\0,2\S,0,2.204265,-0.275826,-
 0.000026\O,0,0.595993,-0.750958,-0.000032\C,0,-0.370138,0.248514,0.000
 011\Cl,0,-1.949221,-0.563456,-0.000004\F,0,-0.259931,1.028291,-1.08117
 2\F,0,-0.259913,1.028216,1.081246\\Version=ES64L-G16RevC.01\State=2-A\
 HF=-1169.0450874\S2=0.762198\S2-1=0.\S2A=0.750049\RMSD=4.463e-03\Dipol
 e=0.355131,-0.0008644,-0.0000018\Quadrupole=2.7363905,-2.2849019,-0.45

 Normal termination of Gaussian 16 at Tue Apr  8 23:43:17 2025.
