 Gaussian 16, Revision C.01,

 ----------------------------------------------------------------------
 #t hf aug-cc-pvdz symm=none int=(grid=ultrafine) guess=(read,tcheck) s
 table=(opt,rrhf)
 ----------------------------------------------------------------------
 -----
 title
 -----
 Symbolic Z-matrix:
 Charge =  0 Multiplicity = 1

 SCF Done:  E(RHF) =  -118.276269295     A.U. after   10 cycles
 Normal termination of Gaussian 16 at Tue Apr  8 23:05:44 2025.
 Gaussian 16:  ES64L-G16RevC.01  3-Jul-2019

 ----------------------------------------------------------------------
 #t hf aug-cc-pvdz iop(5/13=1,5/36=2,99/5=2) pseudo=read geom=check gue
 ss=(read,tcheck) scf=(maxcycle=1)
 ----------------------------------------------------------------------
 -----
 title
 -----
 Structure from the checkpoint file:  "BDE49_expt_3_mol1.chk"
 Charge =  0 Multiplicity = 1

                         Standard orientation:
 ---------------------------------------------------------------------
 Center     Atomic      Atomic             Coordinates (Angstroms)
 Number     Number       Type             X           Y           Z
 ---------------------------------------------------------------------
      1          6           0        0.000000    1.276939   -0.259549
      2          6           0        0.000000   -0.000000    0.585518
      3          1           0        0.882737    1.322827   -0.905512
      4          1           0        0.000000    2.173349    0.366818
      5          1           0       -0.882737    1.322827   -0.905512
      6          6           0       -0.000000   -1.276939   -0.259549
      7          1           0       -0.875423    0.000000    1.244950
      8          1           0        0.875423   -0.000000    1.244950
      9          1           0       -0.882737   -1.322827   -0.905512
     10          1           0       -0.000000   -2.173349    0.366818
     11          1           0        0.882737   -1.322827   -0.905512
 ---------------------------------------------------------------------

 SCF Done:  E(RHF) =  -118.414844408     A.U. after    2 cycles

 The electronic state is 1-A1.
 Alpha  occ. eigenvalues --  -11.22656 -11.22047 -11.22041  -1.05362  -0.92569
 Alpha  occ. eigenvalues --   -0.80241  -0.62818  -0.60344  -0.55712  -0.53642
 Alpha  occ. eigenvalues --   -0.48481  -0.48216  -0.47297
 Alpha virt. eigenvalues --    0.04081   0.04257   0.04348   0.04479   0.07216
 Alpha virt. eigenvalues --    0.07485   0.07717   0.08161   0.12248   0.14416
 Alpha virt. eigenvalues --    0.15365   0.15901   0.16871   0.17185   0.17518

 Mulliken charges:
               1
     1  C   -0.316901
     2  C   -0.508474
     3  H    0.156962
     4  H    0.111885
     5  H    0.156962
     6  C   -0.316901
     7  H    0.145330
     8  H    0.145330
     9  H    0.156962
    10  H    0.111885
    11  H    0.156962
 Sum of Mulliken charges =  -0.00000

 Dipole moment (field-independent basis, Debye):
    X=             -0.0000    Y=              0.0000    Z=              0.0861  Tot=              0.0861

 Test job not archived.
 1\1\GINC-SE249\SP\RHF\Aug-CC-pVDZ\C3H8\OHZDE\08-Apr-2025\0\\#t hf aug-
 cc-pvdz iop(5/13=1,5/36=2,99/5=2) pseudo=read geom=check guess=(read,t
 check) scf=(maxcycle=1)\\title\\0,1\C,0,0.,1.276939,-0.259549\C,0,0.,0
 .,0.585518\H,0,0.882737,1.322827,-0.905512\H,0,0.,2.173349,0.366818\H,
 0,-0.882737,1.322827,-0.905512\C,0,0.,-1.276939,-0.259549\H,0,-0.87542
 3,0.,1.24495\H,0,0.875423,0.,1.24495\H,0,-0.882737,-1.322827,-0.905512
 \H,0,0.,-2.173349,0.366818\H,0,0.882737,-1.322827,-0.905512\\Version=E
 S64L-G16RevC.01\State=1-A1\HF=-118.4148444\RMSD=8.729e-03\Dipole=0.,0.

 Normal termination of Gaussian 16 at Tue Apr  8 23:05:47 2025.
