 Gaussian 16, Revision C.01,

 ----------------------------------------------------------------------
 #t hf aug-cc-pvdz symm=none int=(grid=ultrafine) guess=(read,tcheck) s
 table=(opt,rrhf)
 ----------------------------------------------------------------------
 -----
 title
 -----
 Symbolic Z-matrix:
 Charge =  0 Multiplicity = 1

 SCF Done:  E(RHF) =  -357.444392144     A.U. after   12 cycles
 Normal termination of Gaussian 16 at Wed Apr  9 00:30:48 2025.
 Gaussian 16:  ES64L-G16RevC.01  3-Jul-2019

 ----------------------------------------------------------------------
 #t hf aug-cc-pvdz iop(5/13=1,5/36=2,99/5=2) pseudo=read geom=check gue
 ss=(read,tcheck) scf=(maxcycle=1)
 ----------------------------------------------------------------------
 -----
 title
 -----
 Structure from the checkpoint file:  "BDE49_nonexpt_353_mol1.chk"
 Charge =  0 Multiplicity = 1

                         Standard orientation:
 ---------------------------------------------------------------------
 Center     Atomic      Atomic             Coordinates (Angstroms)
 Number     Number       Type             X           Y           Z
 ---------------------------------------------------------------------
      1          9           0       -1.483450    1.141514   -0.000009
      2          9           0       -1.483450   -1.141514   -0.000007
      3          7           0        0.612942    0.000000    0.000006
      4          5           0       -0.780926    0.000000    0.000009
      5          6           0        1.393084   -1.229455    0.000005
      6          1           0        2.036055   -1.284700   -0.886870
      7          1           0        0.727447   -2.090959    0.000007
      8          1           0        2.036059   -1.284698    0.886877
      9          6           0        1.393084    1.229455    0.000003
     10          1           0        0.727447    2.090959    0.000002
     11          1           0        2.036056    1.284698   -0.886872
     12          1           0        2.036058    1.284700    0.886876
 ---------------------------------------------------------------------

 SCF Done:  E(RHF) =  -357.793729838     A.U. after    2 cycles

 The electronic state is 1-A.
 Alpha  occ. eigenvalues --  -26.45884 -26.45883 -15.50611 -11.27260 -11.27258
 Alpha  occ. eigenvalues --   -7.70195  -1.60818  -1.57030  -1.23067  -0.98178
 Alpha  occ. eigenvalues --   -0.91563  -0.77882  -0.73857  -0.72933  -0.68897
 Alpha  occ. eigenvalues --   -0.64301  -0.64269  -0.62156  -0.61835  -0.60321
 Alpha  occ. eigenvalues --   -0.56782  -0.55948  -0.54509  -0.42330
 Alpha virt. eigenvalues --    0.03332   0.04599   0.04704   0.05670   0.06461
 Alpha virt. eigenvalues --    0.06683   0.06692   0.07191   0.08451   0.10222
 Alpha virt. eigenvalues --    0.14174   0.14487   0.14652   0.16292   0.16675

 Mulliken charges:
               1
     1  F   -0.703565
     2  F   -0.703565
     3  N    0.261382
     4  B    1.426647
     5  C   -0.451582
     6  H    0.180340
     7  H   -0.049549
     8  H    0.180341
     9  C   -0.451584
    10  H   -0.049549
    11  H    0.180341
    12  H    0.180342
 Sum of Mulliken charges =  -0.00000

 Dipole moment (field-independent basis, Debye):
    X=              2.6466    Y=             -0.0000    Z=              0.0000  Tot=              2.6466

 Test job not archived.
 1\1\GINC-SE338\SP\RHF\Aug-CC-pVDZ\C2H6B1F2N1\OHZDE\09-Apr-2025\0\\#t h
 f aug-cc-pvdz iop(5/13=1,5/36=2,99/5=2) pseudo=read geom=check guess=(
 read,tcheck) scf=(maxcycle=1)\\title\\0,1\F,0,-1.48345,1.141514,-0.000
 009\F,0,-1.48345,-1.141514,-0.000007\N,0,0.612942,0.,0.000006\B,0,-0.7
 80926,0.,0.000009\C,0,1.393084,-1.229455,0.000005\H,0,2.036055,-1.2847
 ,-0.88687\H,0,0.727447,-2.090959,0.000007\H,0,2.036059,-1.284698,0.886
 877\C,0,1.393084,1.229455,0.000003\H,0,0.727447,2.090959,0.000002\H,0,
 2.036056,1.284698,-0.886872\H,0,2.036058,1.2847,0.886876\\Version=ES64

 Normal termination of Gaussian 16 at Wed Apr  9 00:30:52 2025.
