 Gaussian 16, Revision C.01,

 ----------------------------------------------------------------------
 #t hf aug-cc-pvdz symm=none int=(grid=ultrafine) guess=(read,tcheck) s
 table=(opt,rrhf)
 ----------------------------------------------------------------------
 -----
 title
 -----
 Symbolic Z-matrix:
 Charge =  0 Multiplicity = 1

 SCF Done:  E(RHF) =  -884.009428367     A.U. after   12 cycles
 Normal termination of Gaussian 16 at Wed Apr  9 00:15:42 2025.
 Gaussian 16:  ES64L-G16RevC.01  3-Jul-2019

 ----------------------------------------------------------------------
 #t hf aug-cc-pvdz iop(5/13=1,5/36=2,99/5=2) pseudo=read geom=check gue
 ss=(read,tcheck) scf=(maxcycle=1)
 ----------------------------------------------------------------------
 -----
 title
 -----
 Structure from the checkpoint file:  "BDE49_nonexpt_2489_mol1.chk"
 Charge =  0 Multiplicity = 1

                         Standard orientation:
 ---------------------------------------------------------------------
 Center     Atomic      Atomic             Coordinates (Angstroms)
 Number     Number       Type             X           Y           Z
 ---------------------------------------------------------------------
      1          6           0        2.043669    0.669853    0.772673
      2          6           0        1.600322   -0.785561    0.603446
      3         16           0        0.403705   -1.090470   -0.783785
      4          1           0        1.159259   -1.172075    1.524109
      5          1           0        2.459329   -1.418704    0.367816
      6         14           0       -1.504949   -0.931073    0.212458
      7          6           0       -2.057929    0.816602    0.654788
      8          6           0        2.827433    1.228966   -0.416511
      9          1           0        2.667512    0.717966    1.674531
     10          1           0        1.169446    1.298442    0.969621
     11          1           0        3.731249    0.640230   -0.602924
     12          1           0        3.135070    2.261232   -0.231151
     13          1           0        2.225279    1.215054   -1.327879
     14          6           0       -2.223155    1.772467   -0.537937
     15          1           0       -1.353014    1.233089    1.383512
     16          1           0       -3.010317    0.711075    1.191443
     17          1           0       -1.282270    1.899898   -1.079356
     18          1           0       -2.556003    2.761963   -0.211705
     19          1           0       -2.962104    1.395608   -1.250933
     20          1           0       -1.458272   -1.745979    1.453174
     21          1           0       -2.457183   -1.529227   -0.752859
 ---------------------------------------------------------------------

 SCF Done:  E(RHF) =  -884.327559861     A.U. after    2 cycles

 The electronic state is 1-A.
 Alpha  occ. eigenvalues --  -93.92549 -69.54334 -11.27217 -11.24050 -11.23180
 Alpha  occ. eigenvalues --  -11.22664 -11.22512  -8.20817  -6.21187  -6.18613
 Alpha  occ. eigenvalues --   -6.18478  -6.18300  -3.96572  -3.96500  -3.96452
 Alpha  occ. eigenvalues --   -1.08967  -1.02988  -0.99516  -0.89871  -0.85469
 Alpha  occ. eigenvalues --   -0.79968  -0.69855  -0.63864  -0.62464  -0.61330
 Alpha  occ. eigenvalues --   -0.58526  -0.57720  -0.53713  -0.52292  -0.51208
 Alpha  occ. eigenvalues --   -0.50493  -0.49963  -0.48695  -0.45430  -0.45174
 Alpha  occ. eigenvalues --   -0.41251  -0.35437
 Alpha virt. eigenvalues --    0.03228   0.03548   0.03643   0.04023   0.05370
 Alpha virt. eigenvalues --    0.05532   0.06009   0.06663   0.06851   0.07978
 Alpha virt. eigenvalues --    0.08411   0.08471   0.09501   0.10076   0.10896

 Mulliken charges:
               1
     1  C   -0.427110
     2  C   -0.355971
     3  S   -0.413156
     4  H    0.063290
     5  H    0.226209
     6  Si   1.244379
     7  C   -0.477513
     8  C   -0.427820
     9  H    0.165218
    10  H    0.110398
    11  H    0.146827
    12  H    0.118149
    13  H    0.185366
    14  C   -0.411119
    15  H    0.104230
    16  H    0.066556
    17  H    0.103642
    18  H    0.104926
    19  H    0.142533
    20  H   -0.105479
    21  H   -0.163554
 Sum of Mulliken charges =  -0.00000

 Dipole moment (field-independent basis, Debye):
    X=              0.1299    Y=              1.2209    Z=              1.7711  Tot=              2.1550

 Test job not archived.
 1\1\GINC-SE073\SP\RHF\Aug-CC-pVDZ\C5H14S1Si1\OHZDE\09-Apr-2025\0\\#t h
 f aug-cc-pvdz iop(5/13=1,5/36=2,99/5=2) pseudo=read geom=check guess=(
 read,tcheck) scf=(maxcycle=1)\\title\\0,1\C,0,2.043669,0.669853,0.7726
 73\C,0,1.600322,-0.785561,0.603446\S,0,0.403705,-1.09047,-0.783785\H,0
 ,1.159259,-1.172075,1.524109\H,0,2.459329,-1.418704,0.367816\Si,0,-1.5
 04949,-0.931073,0.212458\C,0,-2.057929,0.816602,0.654788\C,0,2.827433,
 1.228966,-0.416511\H,0,2.667512,0.717966,1.674531\H,0,1.169446,1.29844
 2,0.969621\H,0,3.731249,0.64023,-0.602924\H,0,3.13507,2.261232,-0.2311

 Normal termination of Gaussian 16 at Wed Apr  9 00:15:52 2025.
