 Gaussian 16, Revision C.01,

 ----------------------------------------------------------------------
 #t hf aug-cc-pvdz symm=none int=(grid=ultrafine) guess=(read,tcheck) s
 table=(opt,rrhf)
 ----------------------------------------------------------------------
 -----
 title
 -----
 Symbolic Z-matrix:
 Charge =  0 Multiplicity = 1

 SCF Done:  E(RHF) =  -445.805360117     A.U. after   13 cycles
 Normal termination of Gaussian 16 at Wed Apr  9 00:35:21 2025.
 Gaussian 16:  ES64L-G16RevC.01  3-Jul-2019

 ----------------------------------------------------------------------
 #t hf aug-cc-pvdz iop(5/13=1,5/36=2,99/5=2) pseudo=read geom=check gue
 ss=(read,tcheck) scf=(maxcycle=1)
 ----------------------------------------------------------------------
 -----
 title
 -----
 Structure from the checkpoint file:  "BDE49_nonexpt_461_mol1.chk"
 Charge =  0 Multiplicity = 1

                         Standard orientation:
 ---------------------------------------------------------------------
 Center     Atomic      Atomic             Coordinates (Angstroms)
 Number     Number       Type             X           Y           Z
 ---------------------------------------------------------------------
      1          1           0       -1.037152    2.451638    0.287024
      2          1           0        1.037151    2.451638    0.287024
      3          5           0       -0.000000    1.871659    0.216604
      4         15           0        0.000000    0.138469   -0.335323
      5          6           0       -1.480388   -0.843535    0.156986
      6          6           0        1.480388   -0.843535    0.156986
      7          1           0       -2.367039   -0.224320    0.010647
      8          1           0       -1.434854   -1.151535    1.203927
      9          1           0       -1.574633   -1.732238   -0.470103
     10          1           0        2.367039   -0.224319    0.010647
     11          1           0        1.574633   -1.732238   -0.470103
     12          1           0        1.434854   -1.151535    1.203927
 ---------------------------------------------------------------------

 SCF Done:  E(RHF) =  -445.970500910     A.U. after    2 cycles

 The electronic state is 1-A.
 Alpha  occ. eigenvalues --  -84.25105 -11.24576 -11.24570  -7.58905  -6.72707
 Alpha  occ. eigenvalues --   -4.25385  -4.25192  -4.24342  -1.01613  -0.95043
 Alpha  occ. eigenvalues --   -0.79537  -0.65156  -0.59428  -0.58698  -0.57646
 Alpha  occ. eigenvalues --   -0.56819  -0.50481  -0.45645  -0.44123  -0.29317
 Alpha virt. eigenvalues --    0.02976   0.04050   0.04400   0.05077   0.05914
 Alpha virt. eigenvalues --    0.06394   0.06408   0.07433   0.08322   0.09232
 Alpha virt. eigenvalues --    0.10384   0.11549   0.12653   0.14366   0.15045

 Mulliken charges:
               1
     1  H    0.303419
     2  H    0.303422
     3  B   -0.315850
     4  P    1.099801
     5  C   -0.951346
     6  C   -0.951348
     7  H    0.036562
     8  H    0.104502
     9  H    0.114886
    10  H    0.036564
    11  H    0.114886
    12  H    0.104502
 Sum of Mulliken charges =  -0.00000

 Dipole moment (field-independent basis, Debye):
    X=              0.0000    Y=             -1.9195    Z=              0.7178  Tot=              2.0493

 Test job not archived.
 1\1\GINC-SE097\SP\RHF\Aug-CC-pVDZ\C2H8B1P1\OHZDE\09-Apr-2025\0\\#t hf
 aug-cc-pvdz iop(5/13=1,5/36=2,99/5=2) pseudo=read geom=check guess=(re
 ad,tcheck) scf=(maxcycle=1)\\title\\0,1\H,0,-1.037152,2.451638,0.28702
 4\H,0,1.037151,2.451638,0.287024\B,0,0.,1.871659,0.216604\P,0,0.,0.138
 469,-0.335323\C,0,-1.480388,-0.843535,0.156986\C,0,1.480388,-0.843535,
 0.156986\H,0,-2.367039,-0.22432,0.010647\H,0,-1.434854,-1.151535,1.203
 927\H,0,-1.574633,-1.732238,-0.470103\H,0,2.367039,-0.224319,0.010647\
 H,0,1.574633,-1.732238,-0.470103\H,0,1.434854,-1.151535,1.203927\\Vers

 Normal termination of Gaussian 16 at Wed Apr  9 00:35:25 2025.
