 Gaussian 16, Revision C.01,

 ----------------------------------------------------------------------
 #t hf aug-cc-pvdz symm=none int=(grid=ultrafine) guess=(read,tcheck) s
 table=(opt,rrhf)
 ----------------------------------------------------------------------
 -----
 title
 -----
 Symbolic Z-matrix:
 Charge =  0 Multiplicity = 1

 SCF Done:  E(RHF) =  -465.463222118     A.U. after   14 cycles
 Normal termination of Gaussian 16 at Tue Apr  8 22:38:23 2025.
 Gaussian 16:  ES64L-G16RevC.01  3-Jul-2019

 ----------------------------------------------------------------------
 #t hf aug-cc-pvdz iop(5/13=1,5/36=2,99/5=2) pseudo=read geom=check gue
 ss=(read,tcheck) scf=(maxcycle=1)
 ----------------------------------------------------------------------
 -----
 title
 -----
 Structure from the checkpoint file:  "BDE49_expt_1228_mol1.chk"
 Charge =  0 Multiplicity = 1

                         Standard orientation:
 ---------------------------------------------------------------------
 Center     Atomic      Atomic             Coordinates (Angstroms)
 Number     Number       Type             X           Y           Z
 ---------------------------------------------------------------------
      1          6           0        0.352821    0.001640    0.000003
      2          7           0       -1.008310   -0.713689    0.000015
      3          9           0        1.000814   -0.406082   -1.089318
      4          9           0        1.000797   -0.406011    1.089360
      5          9           0        0.254838    1.322208   -0.000041
      6          8           0       -1.920851    0.049368   -0.000016
 ---------------------------------------------------------------------

 SCF Done:  E(RHF) =  -465.886058567     A.U. after    2 cycles

 The electronic state is 1-A.
 Alpha  occ. eigenvalues --  -26.54479 -26.54476 -26.54445 -20.68484 -15.70208
 Alpha  occ. eigenvalues --  -11.57434  -1.76006  -1.66813  -1.65695  -1.65478
 Alpha  occ. eigenvalues --   -1.12065  -0.95054  -0.85931  -0.85548  -0.85449
 Alpha  occ. eigenvalues --   -0.74882  -0.72597  -0.70690  -0.69172  -0.68204
 Alpha  occ. eigenvalues --   -0.66991  -0.65660  -0.65194  -0.47400
 Alpha virt. eigenvalues --    0.02344   0.08059   0.08748   0.09306   0.09324
 Alpha virt. eigenvalues --    0.14261   0.16185   0.17980   0.20160   0.21269
 Alpha virt. eigenvalues --    0.24277   0.27544   0.27834   0.28476   0.30437

 Mulliken charges:
               1
     1  C    1.968604
     2  N    0.911208
     3  F   -0.669697
     4  F   -0.669697
     5  F   -0.649270
     6  O   -0.891148
 Sum of Mulliken charges =  -0.00000

 Dipole moment (field-independent basis, Debye):
    X=              0.0864    Y=              0.3702    Z=             -0.0000  Tot=              0.3802

 Test job not archived.
 1\1\GINC-SE328\SP\RHF\Aug-CC-pVDZ\C1F3N1O1\OHZDE\08-Apr-2025\0\\#t hf
 aug-cc-pvdz iop(5/13=1,5/36=2,99/5=2) pseudo=read geom=check guess=(re
 ad,tcheck) scf=(maxcycle=1)\\title\\0,1\C,0,0.352821,0.00164,0.000003\
 N,0,-1.00831,-0.713689,0.000015\F,0,1.000814,-0.406082,-1.089318\F,0,1
 .000797,-0.406011,1.08936\F,0,0.254838,1.322208,-0.000041\O,0,-1.92085
 1,0.049368,-0.000016\\Version=ES64L-G16RevC.01\State=1-A\HF=-465.88605
 86\RMSD=1.149e-02\Dipole=0.0339778,0.1456673,-0.0000031\Quadrupole=-0.
 1507431,-0.630879,0.7816221,-0.290799,0.0000039,0.0000413\PG=C01 [X(C1

 Normal termination of Gaussian 16 at Tue Apr  8 22:38:25 2025.
