 Gaussian 16, Revision C.01,

 ----------------------------------------------------------------------
 #t hf aug-cc-pvdz symm=none int=(grid=ultrafine) guess=(read,tcheck) s
 table=(opt,rrhf)
 ----------------------------------------------------------------------
 -----
 title
 -----
 Symbolic Z-matrix:
 Charge =  0 Multiplicity = 1

 SCF Done:  E(RHF) =  -154.925610858     A.U. after   10 cycles
 Normal termination of Gaussian 16 at Tue Apr  8 23:02:40 2025.
 Gaussian 16:  ES64L-G16RevC.01  3-Jul-2019

 ----------------------------------------------------------------------
 #t hf aug-cc-pvdz iop(5/13=1,5/36=2,99/5=2) pseudo=read geom=check gue
 ss=(read,tcheck) scf=(maxcycle=1)
 ----------------------------------------------------------------------
 -----
 title
 -----
 Structure from the checkpoint file:  "BDE49_expt_26_mol1.chk"
 Charge =  0 Multiplicity = 1

                         Standard orientation:
 ---------------------------------------------------------------------
 Center     Atomic      Atomic             Coordinates (Angstroms)
 Number     Number       Type             X           Y           Z
 ---------------------------------------------------------------------
      1          6           0       -0.601406   -0.000334   -0.000213
      2          6           0        0.601406   -0.000402   -0.000459
      3          6           0        2.059792    0.000200    0.000195
      4          6           0       -2.059792    0.000192    0.000163
      5          1           0       -2.455479    1.013520   -0.117699
      6          1           0       -2.455712   -0.404111    0.936687
      7          1           0       -2.456218   -0.608425   -0.818204
      8          1           0        2.455444    1.013550   -0.117596
      9          1           0        2.456404   -0.608396   -0.818097
     10          1           0        2.455560   -0.404078    0.936795
 ---------------------------------------------------------------------

 SCF Done:  E(RHF) =  -155.095004110     A.U. after    2 cycles

 The electronic state is 1-A.
 Alpha  occ. eigenvalues --  -11.25341 -11.25309 -11.22646 -11.22284  -1.06334
 Alpha  occ. eigenvalues --   -1.00356  -0.92291  -0.66253  -0.61174  -0.59634
 Alpha  occ. eigenvalues --   -0.59634  -0.57864  -0.57864  -0.37194  -0.37194
 Alpha virt. eigenvalues --    0.03636   0.03670   0.05308   0.05308   0.06801
 Alpha virt. eigenvalues --    0.06801   0.08287   0.12350   0.13648   0.15106
 Alpha virt. eigenvalues --    0.15109   0.15951   0.16396   0.16399   0.17606

 Mulliken charges:
               1
     1  C   -0.036058
     2  C   -0.036052
     3  C   -0.755693
     4  C   -0.755692
     5  H    0.263972
     6  H    0.263916
     7  H    0.263860
     8  H    0.263984
     9  H    0.263790
    10  H    0.263974
 Sum of Mulliken charges =  -0.00000

 Dipole moment (field-independent basis, Debye):
    X=             -0.0000    Y=              0.0013    Z=              0.0012  Tot=              0.0018

 Test job not archived.
 1\1\GINC-SE016\SP\RHF\Aug-CC-pVDZ\C4H6\OHZDE\08-Apr-2025\0\\#t hf aug-
 cc-pvdz iop(5/13=1,5/36=2,99/5=2) pseudo=read geom=check guess=(read,t
 check) scf=(maxcycle=1)\\title\\0,1\C,0,0.601406,0.000331,-0.000217\C,
 0,-0.601406,0.000396,-0.000464\C,0,-2.059792,-0.000198,0.000197\C,0,2.
 059792,-0.00019,0.000165\H,0,2.455479,-1.014921,-0.104934\H,0,2.455712
 ,0.415868,0.931527\H,0,2.456218,0.598079,-0.825797\H,0,-2.455444,-1.01
 495,-0.104831\H,0,-2.456404,0.598051,-0.825689\H,0,-2.45556,0.415836,0
 .931635\\Version=ES64L-G16RevC.01\State=1-A\HF=-155.0950041\RMSD=2.563

 Normal termination of Gaussian 16 at Tue Apr  8 23:02:42 2025.
