 Gaussian 16, Revision C.01,

 ----------------------------------------------------------------------
 #t hf aug-cc-pvdz symm=none int=(grid=ultrafine) guess=(read,tcheck) s
 table=(opt,rrhf)
 ----------------------------------------------------------------------
 -----
 title
 -----
 Symbolic Z-matrix:
 Charge =  0 Multiplicity = 1

 SCF Done:  E(RHF) =  -477.456672084     A.U. after   15 cycles
 Normal termination of Gaussian 16 at Wed Apr  9 00:53:14 2025.
 Gaussian 16:  ES64L-G16RevC.01  3-Jul-2019

 ----------------------------------------------------------------------
 #t hf aug-cc-pvdz iop(5/13=1,5/36=2,99/5=2) pseudo=read geom=check gue
 ss=(read,tcheck) scf=(maxcycle=1)
 ----------------------------------------------------------------------
 -----
 title
 -----
 Structure from the checkpoint file:  "BDE49_nonexpt_961_mol1.chk"
 Charge =  0 Multiplicity = 1

                         Standard orientation:
 ---------------------------------------------------------------------
 Center     Atomic      Atomic             Coordinates (Angstroms)
 Number     Number       Type             X           Y           Z
 ---------------------------------------------------------------------
      1          9           0       -1.860651   -1.229726    0.943001
      2          7           0       -1.457476   -0.734212   -0.414714
      3          6           0       -2.037027    0.617581   -0.505048
      4          7           0       -1.036754    1.592419   -0.035023
      5          1           0       -1.274262    2.100435    0.807888
      6          6           0       -0.060054   -0.473510   -0.280704
      7          6           0        0.972060   -1.397391   -0.352579
      8          1           0        0.759844   -2.436696   -0.570682
      9          6           0        2.500557    0.402576    0.192729
     10          1           0        3.516444    0.735697    0.373957
     11          6           0        0.168495    0.876362    0.013575
     12          6           0        2.267760   -0.943720   -0.114721
     13          1           0        3.100825   -1.634152   -0.166640
     14          6           0        1.462511    1.331684    0.256579
     15          1           0        1.657383    2.373559    0.481544
     16          1           0       -2.973576    0.655513    0.045915
     17          1           0       -2.227010    0.784236   -1.569813
 ---------------------------------------------------------------------

 SCF Done:  E(RHF) =  -477.933245809     A.U. after    2 cycles

 The electronic state is 1-A.
 Alpha  occ. eigenvalues --  -26.44083 -15.60942 -15.52471 -11.31526 -11.29304
 Alpha  occ. eigenvalues --  -11.27097 -11.26155 -11.26135 -11.25174 -11.24734
 Alpha  occ. eigenvalues --   -1.53636  -1.30058  -1.17108  -1.14989  -1.02415
 Alpha  occ. eigenvalues --   -1.02233  -0.90409  -0.86447  -0.83787  -0.75644
 Alpha  occ. eigenvalues --   -0.71178  -0.71024  -0.68258  -0.66747  -0.63125
 Alpha  occ. eigenvalues --   -0.63024  -0.61012  -0.59000  -0.57251  -0.54683
 Alpha  occ. eigenvalues --   -0.53882  -0.52457  -0.48543  -0.46985  -0.36027
 Alpha  occ. eigenvalues --   -0.33300
 Alpha virt. eigenvalues --    0.03253   0.03581   0.03927   0.05053   0.05062
 Alpha virt. eigenvalues --    0.06186   0.07176   0.07907   0.09352   0.09735
 Alpha virt. eigenvalues --    0.10775   0.11947   0.12839   0.13419   0.14089

 Mulliken charges:
               1
     1  F   -0.723665
     2  N    1.341461
     3  C   -0.348827
     4  N    0.899703
     5  H    0.147029
     6  C   -0.887261
     7  C    0.729869
     8  H   -0.231572
     9  C    0.241850
    10  H   -0.224929
    11  C   -1.957585
    12  C    0.321689
    13  H   -0.228407
    14  C    1.097344
    15  H   -0.248996
    16  H    0.057809
    17  H    0.014488
 Sum of Mulliken charges =   0.00000

 Dipole moment (field-independent basis, Debye):
    X=              1.0826    Y=              1.9856    Z=              0.1296  Tot=              2.2652

 Test job not archived.
 1\1\GINC-SE072\SP\RHF\Aug-CC-pVDZ\C7H7F1N2\OHZDE\09-Apr-2025\0\\#t hf
 aug-cc-pvdz iop(5/13=1,5/36=2,99/5=2) pseudo=read geom=check guess=(re
 ad,tcheck) scf=(maxcycle=1)\\title\\0,1\F,0,-1.860651,-1.229726,0.9430
 01\N,0,-1.457476,-0.734212,-0.414714\C,0,-2.037027,0.617581,-0.505048\
 N,0,-1.036754,1.592419,-0.035023\H,0,-1.274262,2.100435,0.807888\C,0,-
 0.060054,-0.47351,-0.280704\C,0,0.97206,-1.397391,-0.352579\H,0,0.7598
 44,-2.436696,-0.570682\C,0,2.500557,0.402576,0.192729\H,0,3.516444,0.7
 35697,0.373957\C,0,0.168495,0.876362,0.013575\C,0,2.26776,-0.94372,-0.

 Normal termination of Gaussian 16 at Wed Apr  9 00:53:23 2025.
