 Gaussian 16, Revision C.01,

 ----------------------------------------------------------------------
 #t hf aug-cc-pvdz symm=none int=(grid=ultrafine) guess=(read,tcheck) s
 table=opt
 ----------------------------------------------------------------------
 -----
 title
 -----
 Symbolic Z-matrix:
 Charge =  0 Multiplicity = 2

 SCF Done:  E(UHF) =  -559.684586856     A.U. after   15 cycles
 Normal termination of Gaussian 16 at Tue Apr  8 23:40:07 2025.
 Gaussian 16:  ES64L-G16RevC.01  3-Jul-2019

 ----------------------------------------------------------------------
 #t hf aug-cc-pvdz iop(5/13=1,5/36=2,99/5=2) pseudo=read geom=check gue
 ss=(read,tcheck) scf=(maxcycle=1)
 ----------------------------------------------------------------------
 -----
 title
 -----
 Structure from the checkpoint file:  "BDE49_nonexpt_162_mol2.chk"
 Charge =  0 Multiplicity = 2

                         Standard orientation:
 ---------------------------------------------------------------------
 Center     Atomic      Atomic             Coordinates (Angstroms)
 Number     Number       Type             X           Y           Z
 ---------------------------------------------------------------------
      1         17           0        1.064096    0.070301   -0.000001
      2          8           0       -1.701070    0.097184    0.000003
      3          5           0       -0.576324   -0.606815   -0.000006
      4          1           0       -1.599458    1.061487    0.000014
 ---------------------------------------------------------------------

 SCF Done:  E(UHF) =  -559.853520595     A.U. after    2 cycles

 The electronic state is 2-A.
 Alpha  occ. eigenvalues -- -105.57649 -20.60164 -10.62674  -7.79680  -7.79239
 Alpha  occ. eigenvalues --   -7.79214  -7.71252  -1.50879  -1.08195  -0.80628
 Alpha  occ. eigenvalues --   -0.67127  -0.60667  -0.58199  -0.49702  -0.48924
 Alpha  occ. eigenvalues --   -0.37109
 Alpha virt. eigenvalues --    0.03795   0.05103   0.05643   0.05883   0.09002
 Alpha virt. eigenvalues --    0.11183   0.13425   0.15956   0.16479   0.18901
 Alpha virt. eigenvalues --    0.21683   0.22507   0.23501   0.25325   0.26856

  Beta  occ. eigenvalues -- -105.57522 -20.60109 -10.62525  -7.79331  -7.79169
  Beta  occ. eigenvalues --   -7.79032  -7.69011  -1.50537  -1.06960  -0.78547
  Beta  occ. eigenvalues --   -0.66168  -0.58305  -0.57297  -0.49014  -0.48555
  Beta virt. eigenvalues --    0.02969   0.04893   0.05365   0.05748   0.08100
  Beta virt. eigenvalues --    0.12184   0.14260   0.14697   0.16139   0.17086
  Beta virt. eigenvalues --    0.19295   0.21696   0.23258   0.24114   0.26042

 Mulliken charges and spin densities:
               1          2
     1  Cl  -0.244989   0.035313
     2  O   -0.742239  -0.100089
     3  B    0.486658   1.037941
     4  H    0.500570   0.026834
 Sum of Mulliken charges =  -0.00000   1.00000

 Dipole moment (field-independent basis, Debye):
    X=             -0.6460    Y=              1.4929    Z=              0.0000  Tot=              1.6266
                          Isotropic Fermi Contact Couplings
        Atom                 a.u.       MegaHertz       Gauss      10(-4) cm-1
     1  Cl(35)             0.13418      58.83312      20.99312      19.62462
     2  O(17)              0.12223     -74.09560     -26.43915     -24.71563
     3  B(11)              0.44533     638.76404     227.92689     213.06875
     4  H(1)               0.01444      64.55023      23.03313      21.53164
 --------------------------------------------------------
       Center         ----  Spin Dipole Couplings  ----
                      3XX-RR        3YY-RR        3ZZ-RR
 --------------------------------------------------------

 Normal termination of Gaussian 16 at Tue Apr  8 23:40:08 2025.
