 Gaussian 16, Revision C.01,

 ----------------------------------------------------------------------
 #t hf aug-cc-pvdz symm=none int=(grid=ultrafine) guess=(read,tcheck) s
 table=opt
 ----------------------------------------------------------------------
 -----
 title
 -----
 Symbolic Z-matrix:
 Charge =  0 Multiplicity = 2

 SCF Done:  E(UHF) =  -515.087143741     A.U. after   22 cycles
 Normal termination of Gaussian 16 at Tue Apr  8 23:20:49 2025.
 Gaussian 16:  ES64L-G16RevC.01  3-Jul-2019

 ----------------------------------------------------------------------
 #t hf aug-cc-pvdz iop(5/13=1,5/36=2,99/5=2) pseudo=read geom=check gue
 ss=(read,tcheck) scf=(maxcycle=1)
 ----------------------------------------------------------------------
 -----
 title
 -----
 Structure from the checkpoint file:  "BDE49_nonexpt_113_mol2.chk"
 Charge =  0 Multiplicity = 2

                         Standard orientation:
 ---------------------------------------------------------------------
 Center     Atomic      Atomic             Coordinates (Angstroms)
 Number     Number       Type             X           Y           Z
 ---------------------------------------------------------------------
      1          5           0        2.557752   -0.172685    0.000018
      2          7           0        1.221967    0.028967   -0.000014
      3          6           0        0.011974    0.016066   -0.000005
      4         16           0       -1.556056    0.000069   -0.000000
      5          1           0        3.482525    0.563159    0.000042
 ---------------------------------------------------------------------

 SCF Done:  E(UHF) =  -515.253001568     A.U. after    2 cycles

 The electronic state is 2-A.
 Alpha  occ. eigenvalues --  -93.97247 -15.55725 -11.40743  -8.25497  -7.66830
 Alpha  occ. eigenvalues --   -6.23316  -6.23123  -6.22922  -1.29853  -1.09790
 Alpha  occ. eigenvalues --   -0.93948  -0.64779  -0.63800  -0.61899  -0.61379
 Alpha  occ. eigenvalues --   -0.44106  -0.41211  -0.31637
 Alpha virt. eigenvalues --    0.01294   0.04358   0.05221   0.05349   0.05944
 Alpha virt. eigenvalues --    0.07212   0.08031   0.11557   0.12493   0.13862
 Alpha virt. eigenvalues --    0.14530   0.15237   0.15478   0.16784   0.18539

  Beta  occ. eigenvalues --  -93.97158 -15.56774 -11.39977  -8.25397  -7.65018
  Beta  occ. eigenvalues --   -6.23342  -6.22929  -6.22607  -1.30737  -1.09532
  Beta  occ. eigenvalues --   -0.92580  -0.64543  -0.62762  -0.62658  -0.58858
  Beta  occ. eigenvalues --   -0.41685  -0.40950
  Beta virt. eigenvalues --    0.03132   0.03657   0.04485   0.05320   0.06412
  Beta virt. eigenvalues --    0.07052   0.07596   0.09029   0.11749   0.14092
  Beta virt. eigenvalues --    0.14574   0.15310   0.15452   0.15865   0.18899

 Mulliken charges and spin densities:
               1          2
     1  B   -0.488931   0.977823
     2  N    0.751120  -0.315373
     3  C   -0.947808   0.219558
     4  S    0.394817   0.106921
     5  H    0.290801   0.011070
 Sum of Mulliken charges =  -0.00000   1.00000

 Dipole moment (field-independent basis, Debye):
    X=              0.7219    Y=              0.4210    Z=              0.0000  Tot=              0.8357
                          Isotropic Fermi Contact Couplings
        Atom                 a.u.       MegaHertz       Gauss      10(-4) cm-1
     1  B(11)              0.27954     400.96880     143.07564     133.74879
     2  N(14)             -0.10468     -33.82324     -12.06897     -11.28222
     3  C(13)              0.06610      74.31445      26.51724      24.78863
     4  S(33)              0.02867       9.84839       3.51415       3.28507
     5  H(1)               0.00443      19.82080       7.07255       6.61151
 --------------------------------------------------------
       Center         ----  Spin Dipole Couplings  ----
                      3XX-RR        3YY-RR        3ZZ-RR

 Normal termination of Gaussian 16 at Tue Apr  8 23:20:51 2025.
