 Gaussian 16, Revision C.01,

 ----------------------------------------------------------------------
 #t hf aug-cc-pvdz symm=none int=(grid=ultrafine) guess=(read,tcheck) s
 table=(opt,rrhf)
 ----------------------------------------------------------------------
 -----
 title
 -----
 Symbolic Z-matrix:
 Charge =  0 Multiplicity = 1

 SCF Done:  E(RHF) =  -648.760425521     A.U. after   14 cycles
 Normal termination of Gaussian 16 at Tue Apr  8 23:08:43 2025.
 Gaussian 16:  ES64L-G16RevC.01  3-Jul-2019

 ----------------------------------------------------------------------
 #t hf aug-cc-pvdz iop(5/13=1,5/36=2,99/5=2) pseudo=read geom=check gue
 ss=(read,tcheck) scf=(maxcycle=1)
 ----------------------------------------------------------------------
 -----
 title
 -----
 Structure from the checkpoint file:  "BDE49_expt_621_mol1.chk"
 Charge =  0 Multiplicity = 1

                         Standard orientation:
 ---------------------------------------------------------------------
 Center     Atomic      Atomic             Coordinates (Angstroms)
 Number     Number       Type             X           Y           Z
 ---------------------------------------------------------------------
      1          6           0        0.001726    0.839760    0.263635
      2          8           0        1.125927    0.481036   -0.441492
      3          8           0        1.737148   -0.650773    0.221868
      4          1           0        1.380141   -1.383820   -0.303258
      5          1           0        0.161854    0.821807    1.338976
      6          1           0       -0.293936    1.815194   -0.115915
      7         17           0       -1.421354   -0.290226   -0.043801
 ---------------------------------------------------------------------

 SCF Done:  E(RHF) =  -649.023789093     A.U. after    2 cycles

 The electronic state is 1-A.
 Alpha  occ. eigenvalues -- -105.56569 -20.65025 -20.64142 -11.37857 -10.61402
 Alpha  occ. eigenvalues --   -7.78323  -7.77972  -7.77952  -1.62351  -1.33624
 Alpha  occ. eigenvalues --   -1.08077  -0.90458  -0.75913  -0.71220  -0.67864
 Alpha  occ. eigenvalues --   -0.62334  -0.56274  -0.51564  -0.48130  -0.46662
 Alpha  occ. eigenvalues --   -0.45814
 Alpha virt. eigenvalues --    0.03823   0.04655   0.05382   0.08059   0.10626
 Alpha virt. eigenvalues --    0.13308   0.14446   0.15669   0.16010   0.16498
 Alpha virt. eigenvalues --    0.17884   0.19860   0.20774   0.22523   0.25448

 Mulliken charges:
               1
     1  C    0.405151
     2  O   -0.632372
     3  O   -0.467656
     4  H    0.420618
     5  H    0.258136
     6  H    0.159568
     7  Cl  -0.143446
 Sum of Mulliken charges =  -0.00000

 Dipole moment (field-independent basis, Debye):
    X=              0.1280    Y=              0.4531    Z=              0.3249  Tot=              0.5720

 Test job not archived.
 1\1\GINC-SE080\SP\RHF\Aug-CC-pVDZ\C1H3Cl1O2\OHZDE\08-Apr-2025\0\\#t hf
  aug-cc-pvdz iop(5/13=1,5/36=2,99/5=2) pseudo=read geom=check guess=(r
 ead,tcheck) scf=(maxcycle=1)\\title\\0,1\C,0,0.001726,0.83976,0.263635
 \O,0,1.125927,0.481036,-0.441492\O,0,1.737148,-0.650773,0.221868\H,0,1
 .380141,-1.38382,-0.303258\H,0,0.161854,0.821807,1.338976\H,0,-0.29393
 6,1.815194,-0.115915\Cl,0,-1.421354,-0.290226,-0.043801\\Version=ES64L
 -G16RevC.01\State=1-A\HF=-649.0237891\RMSD=6.662e-03\Dipole=0.0503688,
 0.1782518,0.1278184\Quadrupole=-3.9625326,3.9355952,0.0269374,-1.67093

 Normal termination of Gaussian 16 at Tue Apr  8 23:08:45 2025.
