 Gaussian 16, Revision C.01,

 ----------------------------------------------------------------------
 #t hf aug-cc-pvdz symm=none int=(grid=ultrafine) guess=(read,tcheck) s
 table=opt
 ----------------------------------------------------------------------
 -----
 title
 -----
 Symbolic Z-matrix:
 Charge =  0 Multiplicity = 2

 SCF Done:  E(UHF) =  -195.723246023     A.U. after   16 cycles
 Normal termination of Gaussian 16 at Tue Apr  8 22:38:57 2025.
 Gaussian 16:  ES64L-G16RevC.01  3-Jul-2019

 ----------------------------------------------------------------------
 #t hf aug-cc-pvdz iop(5/13=1,5/36=2,99/5=2) pseudo=read geom=check gue
 ss=(read,tcheck) scf=(maxcycle=1)
 ----------------------------------------------------------------------
 -----
 title
 -----
 Structure from the checkpoint file:  "BDE49_expt_1235_mol2.chk"
 Charge =  0 Multiplicity = 2

                         Standard orientation:
 ---------------------------------------------------------------------
 Center     Atomic      Atomic             Coordinates (Angstroms)
 Number     Number       Type             X           Y           Z
 ---------------------------------------------------------------------
      1          6           0        0.000002   -0.001246    0.054363
      2          6           0       -0.000095    1.318053   -0.764114
      3          1           0        0.884311    1.919980   -0.538047
      4          1           0       -0.884576    1.919864   -0.538026
      5          6           0       -1.261156   -0.813238   -0.303753
      6          1           0       -2.169627   -0.254822   -0.058172
      7          1           0       -1.287917   -1.757948    0.246346
      8          1           0       -1.287294   -1.042186   -1.373665
      9          1           0       -0.000094    1.103426   -1.838706
     10          6           0        1.261257   -0.813073   -0.303778
     11          1           0        1.287402   -1.042023   -1.373690
     12          1           0        1.288154   -1.757777    0.246324
     13          1           0        2.169660   -0.254536   -0.058221
     14          6           0       -0.000007    0.325482    1.518831
     15          1           0       -0.928641    0.535065    2.038277
     16          1           0        0.928617    0.535084    2.038289
 ---------------------------------------------------------------------

 SCF Done:  E(UHF) =  -195.942484825     A.U. after    2 cycles

 The electronic state is 2-A.
 Alpha  occ. eigenvalues --  -11.24129 -11.23324 -11.22200 -11.22071 -11.22046
 Alpha  occ. eigenvalues --   -1.10817  -0.93187  -0.93153  -0.93096  -0.73896
 Alpha  occ. eigenvalues --   -0.62646  -0.62337  -0.60693  -0.57139  -0.54931
 Alpha  occ. eigenvalues --   -0.52648  -0.51831  -0.48485  -0.48174  -0.46582
 Alpha  occ. eigenvalues --   -0.35392
 Alpha virt. eigenvalues --    0.03914   0.04001   0.04062   0.04265   0.06391
 Alpha virt. eigenvalues --    0.06684   0.06698   0.06821   0.07498   0.09614
 Alpha virt. eigenvalues --    0.09821   0.12753   0.14053   0.14369   0.14893

  Beta  occ. eigenvalues --  -11.24434 -11.22004 -11.21999 -11.21966 -11.20889
  Beta  occ. eigenvalues --   -1.09580  -0.93050  -0.92607  -0.86681  -0.72634
  Beta  occ. eigenvalues --   -0.61941  -0.61930  -0.59809  -0.56592  -0.54128
  Beta  occ. eigenvalues --   -0.52265  -0.51754  -0.47346  -0.46850  -0.46442
  Beta virt. eigenvalues --    0.03886   0.03995   0.04058   0.04075   0.06407
  Beta virt. eigenvalues --    0.06705   0.06725   0.06834   0.07373   0.09618
  Beta virt. eigenvalues --    0.09824   0.10684   0.12826   0.14173   0.14835

 Mulliken charges and spin densities:
               1          2
     1  C   -1.989298  -0.287761
     2  C    0.095220   0.046548
     3  H    0.170214  -0.013708
     4  H    0.170207  -0.013705
     5  C    0.099006   0.031024
     6  H    0.149085  -0.006810
     7  H    0.191632  -0.003278
     8  H    0.182114  -0.000225
     9  H    0.186635   0.009610
    10  C    0.099010   0.031018
    11  H    0.182118  -0.000226
    12  H    0.191629  -0.003277
    13  H    0.149082  -0.006810
    14  C    0.326007   1.411859
    15  H   -0.101331  -0.097132
    16  H   -0.101330  -0.097128
 Sum of Mulliken charges =  -0.00000   1.00000

 Dipole moment (field-independent basis, Debye):
    X=              0.0000    Y=              0.0889    Z=             -0.1543  Tot=              0.1781
                          Isotropic Fermi Contact Couplings
        Atom                 a.u.       MegaHertz       Gauss      10(-4) cm-1
     1  C(13)             -0.05426     -61.00068     -21.76656     -20.34764
     2  C(13)              0.05526      62.12274      22.16694      20.72191
     3  H(1)              -0.00087      -3.87299      -1.38198      -1.29189
     4  H(1)              -0.00087      -3.87295      -1.38196      -1.29188
     5  C(13)              0.01552      17.44937       6.22637       5.82048
     6  H(1)              -0.00063      -2.80761      -1.00183      -0.93652
     7  H(1)              -0.00060      -2.67873      -0.95584      -0.89353
     8  H(1)               0.00003       0.14525       0.05183       0.04845

 Normal termination of Gaussian 16 at Tue Apr  8 22:39:02 2025.
