 Gaussian 16, Revision C.01,

 ----------------------------------------------------------------------
 #t hf aug-cc-pvdz symm=none int=(grid=ultrafine) guess=(read,tcheck) s
 table=opt
 ----------------------------------------------------------------------
 -----
 title
 -----
 Symbolic Z-matrix:
 Charge =  0 Multiplicity = 2

 SCF Done:  E(UHF) =  -227.186365755     A.U. after   18 cycles
 Normal termination of Gaussian 16 at Tue Apr  8 22:36:24 2025.
 Gaussian 16:  ES64L-G16RevC.01  3-Jul-2019

 ----------------------------------------------------------------------
 #t hf aug-cc-pvdz iop(5/13=1,5/36=2,99/5=2) pseudo=read geom=check gue
 ss=(read,tcheck) scf=(maxcycle=1)
 ----------------------------------------------------------------------
 -----
 title
 -----
 Structure from the checkpoint file:  "BDE49_expt_1127_mol2.chk"
 Charge =  0 Multiplicity = 2

                         Standard orientation:
 ---------------------------------------------------------------------
 Center     Atomic      Atomic             Coordinates (Angstroms)
 Number     Number       Type             X           Y           Z
 ---------------------------------------------------------------------
      1          6           0       -0.694383   -0.325033    0.000002
      2          8           0       -1.831999   -0.004981    0.000002
      3          8           0        0.366424    0.484898   -0.000002
      4          6           0        1.658402   -0.163636   -0.000001
      5          1           0        2.385930    0.644373   -0.000016
      6          1           0        1.777271   -0.775861   -0.894670
      7          1           0        1.777281   -0.775836    0.894684
 ---------------------------------------------------------------------

 SCF Done:  E(UHF) =  -227.407869711     A.U. after    2 cycles

 The electronic state is 2-A.
 Alpha  occ. eigenvalues --  -20.62655 -20.58103 -11.40639 -11.32537  -1.57564
 Alpha  occ. eigenvalues --   -1.50221  -1.00075  -0.83502  -0.71980  -0.71322
 Alpha  occ. eigenvalues --   -0.69521  -0.60001  -0.58962  -0.56398  -0.48085
 Alpha  occ. eigenvalues --   -0.40428
 Alpha virt. eigenvalues --    0.02980   0.04793   0.04858   0.07953   0.10545
 Alpha virt. eigenvalues --    0.11038   0.11580   0.13719   0.15080   0.15894
 Alpha virt. eigenvalues --    0.15927   0.18778   0.21829   0.25732   0.26610

  Beta  occ. eigenvalues --  -20.61822 -20.57111 -11.38518 -11.32553  -1.54839
  Beta  occ. eigenvalues --   -1.47593  -0.99416  -0.78900  -0.69046  -0.68882
  Beta  occ. eigenvalues --   -0.65905  -0.58557  -0.56473  -0.49971  -0.48256
  Beta virt. eigenvalues --    0.02551   0.04684   0.04844   0.06068   0.10045
  Beta virt. eigenvalues --    0.10781   0.11413   0.11771   0.13743   0.15114
  Beta virt. eigenvalues --    0.17167   0.19029   0.21160   0.22202   0.26324

 Mulliken charges and spin densities:
               1          2
     1  C    1.175568   0.758169
     2  O   -0.803904   0.138638
     3  O   -1.048122   0.124817
     4  C    0.296662  -0.006569
     5  H    0.034812   0.002485
     6  H    0.172492  -0.008770
     7  H    0.172492  -0.008770
 Sum of Mulliken charges =   0.00000   1.00000

 Dipole moment (field-independent basis, Debye):
    X=              3.8393    Y=             -0.9123    Z=             -0.0000  Tot=              3.9462
                          Isotropic Fermi Contact Couplings
        Atom                 a.u.       MegaHertz       Gauss      10(-4) cm-1
     1  C(13)              0.44993     505.81072     180.48584     168.72029
     2  O(17)              0.10355     -62.76966     -22.39778     -20.93771
     3  O(17)              0.08162     -49.48037     -17.65583     -16.50487
     4  C(13)              0.00389       4.36833       1.55873       1.45712
     5  H(1)              -0.00056      -2.49646      -0.89080      -0.83273
     6  H(1)              -0.00028      -1.23212      -0.43965      -0.41099
     7  H(1)              -0.00028      -1.23206      -0.43963      -0.41097
 --------------------------------------------------------

 Normal termination of Gaussian 16 at Tue Apr  8 22:36:26 2025.
