 Gaussian 16, Revision C.01,

 ----------------------------------------------------------------------
 #t hf aug-cc-pvdz symm=none int=(grid=ultrafine) guess=(read,tcheck) s
 table=opt
 ----------------------------------------------------------------------
 -----
 title
 -----
 Symbolic Z-matrix:
 Charge =  0 Multiplicity = 2

 SCF Done:  E(UHF) =  -117.645310477     A.U. after   15 cycles
 Normal termination of Gaussian 16 at Tue Apr  8 22:31:21 2025.
 Gaussian 16:  ES64L-G16RevC.01  3-Jul-2019

 ----------------------------------------------------------------------
 #t hf aug-cc-pvdz iop(5/13=1,5/36=2,99/5=2) pseudo=read geom=check gue
 ss=(read,tcheck) scf=(maxcycle=1)
 ----------------------------------------------------------------------
 -----
 title
 -----
 Structure from the checkpoint file:  "BDE49_expt_1038_mol2.chk"
 Charge =  0 Multiplicity = 2

                         Standard orientation:
 ---------------------------------------------------------------------
 Center     Atomic      Atomic             Coordinates (Angstroms)
 Number     Number       Type             X           Y           Z
 ---------------------------------------------------------------------
      1          6           0        1.320556   -0.241813   -0.000000
      2          6           0        0.070895    0.571022   -0.000002
      3          1           0        1.745810   -0.609522    0.926626
      4          1           0        1.745797   -0.609546   -0.926622
      5          6           0       -1.218683   -0.284484    0.000002
      6          1           0        0.051635    1.225689   -0.879017
      7          1           0        0.051636    1.225698    0.879006
      8          1           0       -1.261976   -0.927289   -0.883259
      9          1           0       -2.107531    0.353901   -0.000001
     10          1           0       -1.261975   -0.927281    0.883269
 ---------------------------------------------------------------------

 SCF Done:  E(UHF) =  -117.778330470     A.U. after    2 cycles

 The electronic state is 2-A.
 Alpha  occ. eigenvalues --  -11.23646 -11.23140 -11.22607  -1.06223  -0.92977
 Alpha  occ. eigenvalues --   -0.80302  -0.64162  -0.60098  -0.55756  -0.54175
 Alpha  occ. eigenvalues --   -0.50450  -0.48228  -0.35398
 Alpha virt. eigenvalues --    0.04074   0.04348   0.04354   0.04729   0.07280
 Alpha virt. eigenvalues --    0.07306   0.07864   0.12285   0.12477   0.15266
 Alpha virt. eigenvalues --    0.15547   0.16121   0.17178   0.17266   0.17562

  Beta  occ. eigenvalues --  -11.23464 -11.22346 -11.21215  -1.04053  -0.88773
  Beta  occ. eigenvalues --   -0.77214  -0.63423  -0.59081  -0.54967  -0.51665
  Beta  occ. eigenvalues --   -0.49602  -0.47937
  Beta virt. eigenvalues --    0.03949   0.04371   0.04404   0.04560   0.07261
  Beta virt. eigenvalues --    0.07320   0.07882   0.09493   0.12448   0.14191
  Beta virt. eigenvalues --    0.15627   0.15936   0.16908   0.17294   0.17669

 Mulliken charges and spin densities:
               1          2
     1  C    0.157742   1.361914
     2  C   -0.557703  -0.212870
     3  H   -0.028211  -0.105061
     4  H   -0.028213  -0.105061
     5  C   -0.359776   0.064903
     6  H    0.185617   0.005535
     7  H    0.185613   0.005535
     8  H    0.158791  -0.009540
     9  H    0.127348   0.004184
    10  H    0.158792  -0.009540
 Sum of Mulliken charges =  -0.00000   1.00000

 Dipole moment (field-independent basis, Debye):
    X=             -0.2152    Y=              0.0309    Z=              0.0000  Tot=              0.2174
                          Isotropic Fermi Contact Couplings
        Atom                 a.u.       MegaHertz       Gauss      10(-4) cm-1
     1  C(13)              0.20900     234.95161      83.83658      78.37142
     2  C(13)             -0.05782     -64.99962     -23.19348     -21.68154
     3  H(1)              -0.02403    -107.43060     -38.33391     -35.83499
     4  H(1)              -0.02403    -107.43045     -38.33386     -35.83494
     5  C(13)              0.06542      73.54069      26.24115      24.53053
     6  H(1)               0.00690      30.82432      10.99888      10.28189
     7  H(1)               0.00690      30.82255      10.99825      10.28130
     8  H(1)              -0.00136      -6.06610      -2.16454      -2.02343

 Normal termination of Gaussian 16 at Tue Apr  8 22:31:24 2025.
