 Gaussian 16, Revision C.01,

 ----------------------------------------------------------------------
 #t hf aug-cc-pvdz symm=none int=(grid=ultrafine) guess=(read,tcheck) s
 table=(opt,rrhf)
 ----------------------------------------------------------------------
 -----
 title
 -----
 Symbolic Z-matrix:
 Charge =  0 Multiplicity = 1

 SCF Done:  E(RHF) =  -885.719501896     A.U. after   13 cycles
 Normal termination of Gaussian 16 at Tue Apr  8 22:56:12 2025.
 Gaussian 16:  ES64L-G16RevC.01  3-Jul-2019

 ----------------------------------------------------------------------
 #t hf aug-cc-pvdz iop(5/13=1,5/36=2,99/5=2) pseudo=read geom=check gue
 ss=(read,tcheck) scf=(maxcycle=1)
 ----------------------------------------------------------------------
 -----
 title
 -----
 Structure from the checkpoint file:  "BDE49_expt_1874_mol1.chk"
 Charge =  0 Multiplicity = 1

                         Standard orientation:
 ---------------------------------------------------------------------
 Center     Atomic      Atomic             Coordinates (Angstroms)
 Number     Number       Type             X           Y           Z
 ---------------------------------------------------------------------
      1          8           0        0.906685   -0.567427   -0.934653
      2          8           0        2.151728   -0.868866   -0.302516
      3          6           0        2.840782    0.289942   -0.072345
      4          6           0       -0.048873   -0.343811    0.031602
      5          8           0       -1.183194   -0.189514   -0.698273
      6          8           0        0.103955   -0.299606    1.201132
      7          8           0        2.510313    1.400829   -0.256210
      8          9           0        4.000919   -0.118775    0.417936
      9          6           0       -2.367536    0.095219   -0.024023
     10          9           0       -2.695553   -0.884654    0.812414
     11          9           0       -3.299420    0.206197   -0.957887
     12          9           0       -2.279516    1.235961    0.651177
 ---------------------------------------------------------------------

 SCF Done:  E(RHF) =  -886.536778568     A.U. after    2 cycles

 The electronic state is 1-A.
 Alpha  occ. eigenvalues --  -26.55540 -26.54990 -26.54848 -26.54831 -20.73038
 Alpha  occ. eigenvalues --  -20.72884 -20.68506 -20.61178 -20.61059 -11.62157
 Alpha  occ. eigenvalues --  -11.53150 -11.51931  -1.78157  -1.74802  -1.69510
 Alpha  occ. eigenvalues --   -1.66572  -1.66359  -1.62486  -1.56326  -1.55199
 Alpha  occ. eigenvalues --   -1.42127  -1.04422  -0.95209  -0.91279  -0.87596
 Alpha  occ. eigenvalues --   -0.87364  -0.85181  -0.83827  -0.79369  -0.78794
 Alpha  occ. eigenvalues --   -0.76456  -0.75309  -0.73476  -0.72276  -0.71355
 Alpha  occ. eigenvalues --   -0.68672  -0.68279  -0.67079  -0.66674  -0.66043
 Alpha  occ. eigenvalues --   -0.64415  -0.62295  -0.58860  -0.55846  -0.54903
 Alpha  occ. eigenvalues --   -0.53913  -0.53152
 Alpha virt. eigenvalues --    0.06962   0.07288   0.08071   0.08293   0.09096
 Alpha virt. eigenvalues --    0.09716   0.09813   0.12817   0.13358   0.13679
 Alpha virt. eigenvalues --    0.14451   0.15202   0.15696   0.18269   0.19414

 Mulliken charges:
               1
     1  O   -0.789129
     2  O   -0.629219
     3  C    2.122380
     4  C    2.094420
     5  O   -1.335854
     6  O   -0.825853
     7  O   -0.840842
     8  F   -0.618376
     9  C    2.820971
    10  F   -0.667670
    11  F   -0.665196
    12  F   -0.665632
 Sum of Mulliken charges =  -0.00000

 Dipole moment (field-independent basis, Debye):
    X=             -0.2082    Y=             -1.0721    Z=             -0.8724  Tot=              1.3978

 Test job not archived.
 1\1\GINC-SE073\SP\RHF\Aug-CC-pVDZ\C3F4O5\OHZDE\08-Apr-2025\0\\#t hf au
 g-cc-pvdz iop(5/13=1,5/36=2,99/5=2) pseudo=read geom=check guess=(read
 ,tcheck) scf=(maxcycle=1)\\title\\0,1\O,0,0.906685,-0.567427,-0.934653
 \O,0,2.151728,-0.868866,-0.302516\C,0,2.840782,0.289942,-0.072345\C,0,
 -0.048873,-0.343811,0.031602\O,0,-1.183194,-0.189514,-0.698273\O,0,0.1
 03955,-0.299606,1.201132\O,0,2.510313,1.400829,-0.25621\F,0,4.000919,-
 0.118775,0.417936\C,0,-2.367536,0.095219,-0.024023\F,0,-2.695553,-0.88
 4654,0.812414\F,0,-3.29942,0.206197,-0.957887\F,0,-2.279516,1.235961,0

 Normal termination of Gaussian 16 at Tue Apr  8 22:56:20 2025.
