 Gaussian 16, Revision C.01,

 ----------------------------------------------------------------------
 #t hf aug-cc-pvdz symm=none int=(grid=ultrafine) guess=(read,tcheck) s
 table=(opt,rrhf)
 ----------------------------------------------------------------------
 -----
 title
 -----
 Symbolic Z-matrix:
 Charge =  0 Multiplicity = 1

 SCF Done:  E(RHF) =  -913.366471654     A.U. after   15 cycles
 Normal termination of Gaussian 16 at Tue Apr  8 23:41:01 2025.
 Gaussian 16:  ES64L-G16RevC.01  3-Jul-2019

 ----------------------------------------------------------------------
 #t hf aug-cc-pvdz iop(5/13=1,5/36=2,99/5=2) pseudo=read geom=check gue
 ss=(read,tcheck) scf=(maxcycle=1)
 ----------------------------------------------------------------------
 -----
 title
 -----
 Structure from the checkpoint file:  "BDE49_nonexpt_1629_mol1.chk"
 Charge =  0 Multiplicity = 1

                         Standard orientation:
 ---------------------------------------------------------------------
 Center     Atomic      Atomic             Coordinates (Angstroms)
 Number     Number       Type             X           Y           Z
 ---------------------------------------------------------------------
      1          6           0        2.251509   -1.233965   -0.126161
      2          6           0        0.929806   -1.179395    0.306995
      3          6           0        0.263824    0.049241    0.420280
      4          6           0        2.935596   -0.059755   -0.434735
      5          6           0        2.288977    1.168356   -0.313666
      6          6           0        0.961643    1.223041    0.104814
      7          1           0        2.749964   -2.192921   -0.212986
      8          1           0        0.412170   -2.097935    0.563365
      9          1           0        0.466402    2.184297    0.186216
     10          1           0        3.967616   -0.101377   -0.764018
     11          1           0        2.816082    2.086105   -0.549878
     12         15           0       -1.472970    0.052437    1.036623
     13         15           0       -2.551042   -0.205430   -0.924611
     14          1           0       -2.402554    1.105794   -1.447569
     15          1           0       -3.838202    0.050083   -0.382800
     16          1           0       -1.599437    1.455705    1.182329
 ---------------------------------------------------------------------

 SCF Done:  E(RHF) =  -913.696794433     A.U. after    2 cycles

 The electronic state is 1-A.
 Alpha  occ. eigenvalues --  -84.28346 -84.27883 -11.25807 -11.25331 -11.25191
 Alpha  occ. eigenvalues --  -11.25109 -11.25006 -11.24960  -6.75402  -6.74982
 Alpha  occ. eigenvalues --   -4.28216  -4.27749  -4.27271  -4.27238  -4.27103
 Alpha  occ. eigenvalues --   -4.26539  -1.16201  -1.03452  -1.02444  -0.91358
 Alpha  occ. eigenvalues --   -0.84229  -0.83729  -0.77205  -0.70506  -0.65141
 Alpha  occ. eigenvalues --   -0.64115  -0.60709  -0.56678  -0.52892  -0.51788
 Alpha  occ. eigenvalues --   -0.51203  -0.49620  -0.44614  -0.37495  -0.35670
 Alpha  occ. eigenvalues --   -0.34876  -0.30911
 Alpha virt. eigenvalues --    0.03370   0.03721   0.04006   0.04866   0.05432
 Alpha virt. eigenvalues --    0.05806   0.07281   0.08421   0.09098   0.09273
 Alpha virt. eigenvalues --    0.09579   0.09907   0.10174   0.10841   0.11907

 Mulliken charges:
               1
     1  C    0.388204
     2  C   -0.521896
     3  C    0.905264
     4  C    0.077482
     5  C    0.490273
     6  C   -0.039415
     7  H   -0.211058
     8  H   -0.254621
     9  H   -0.289906
    10  H   -0.208345
    11  H   -0.215537
    12  P   -0.510548
    13  P   -0.808224
    14  H    0.433622
    15  H    0.422693
    16  H    0.342014
 Sum of Mulliken charges =   0.00000

 Dipole moment (field-independent basis, Debye):
    X=              0.7324    Y=              0.6509    Z=             -0.2901  Tot=              1.0218

 Test job not archived.
 1\1\GINC-SE284\SP\RHF\Aug-CC-pVDZ\C6H8P2\OHZDE\08-Apr-2025\0\\#t hf au
 g-cc-pvdz iop(5/13=1,5/36=2,99/5=2) pseudo=read geom=check guess=(read
 ,tcheck) scf=(maxcycle=1)\\title\\0,1\C,0,2.251509,-1.233965,-0.126161
 \C,0,0.929806,-1.179395,0.306995\C,0,0.263824,0.049241,0.42028\C,0,2.9
 35596,-0.059755,-0.434735\C,0,2.288977,1.168356,-0.313666\C,0,0.961643
 ,1.223041,0.104814\H,0,2.749964,-2.192921,-0.212986\H,0,0.41217,-2.097
 935,0.563365\H,0,0.466402,2.184297,0.186216\H,0,3.967616,-0.101377,-0.
 764018\H,0,2.816082,2.086105,-0.549878\P,0,-1.47297,0.052437,1.036623\

 Normal termination of Gaussian 16 at Tue Apr  8 23:41:08 2025.
