 Gaussian 16, Revision C.01,

 ----------------------------------------------------------------------
 #t hf aug-cc-pvdz symm=none int=(grid=ultrafine) guess=(read,tcheck) s
 table=opt
 ----------------------------------------------------------------------
 -----
 title
 -----
 Symbolic Z-matrix:
 Charge =  0 Multiplicity = 2

 SCF Done:  E(UHF) =  -580.727264816     A.U. after   14 cycles
 Normal termination of Gaussian 16 at Tue Apr  8 22:58:36 2025.
 Gaussian 16:  ES64L-G16RevC.01  3-Jul-2019

 ----------------------------------------------------------------------
 #t hf aug-cc-pvdz iop(5/13=1,5/36=2,99/5=2) pseudo=read geom=check gue
 ss=(read,tcheck) scf=(maxcycle=1)
 ----------------------------------------------------------------------
 -----
 title
 -----
 Structure from the checkpoint file:  "BDE49_expt_1939_mol2.chk"
 Charge =  0 Multiplicity = 2

                         Standard orientation:
 ---------------------------------------------------------------------
 Center     Atomic      Atomic             Coordinates (Angstroms)
 Number     Number       Type             X           Y           Z
 ---------------------------------------------------------------------
      1         14           0       -0.035083    1.217959    0.000000
      2         14           0       -0.035083   -1.127023   -0.000000
      3          1           0        0.569933    1.825276    1.212986
      4          1           0        0.569933    1.825276   -1.212986
      5          1           0       -0.746523   -1.611690    1.206397
      6          1           0        1.335495   -1.700279   -0.000000
      7          1           0       -0.746523   -1.611690   -1.206397
 ---------------------------------------------------------------------

 SCF Done:  E(UHF) =  -580.793465418     A.U. after    2 cycles

 The electronic state is 2-A'.
 Alpha  occ. eigenvalues --  -69.53737 -69.53447  -6.21032  -6.20607  -3.97006
 Alpha  occ. eigenvalues --   -3.96081  -3.96073  -3.95967  -3.95961  -3.95922
 Alpha  occ. eigenvalues --   -0.78753  -0.69777  -0.51171  -0.50099  -0.48219
 Alpha  occ. eigenvalues --   -0.43413  -0.33126
 Alpha virt. eigenvalues --    0.03747   0.03989   0.06050   0.06386   0.07276
 Alpha virt. eigenvalues --    0.07372   0.07711   0.08884   0.09163   0.10056
 Alpha virt. eigenvalues --    0.10258   0.13320   0.14941   0.15366   0.16089

  Beta  occ. eigenvalues --  -69.53451 -69.53183  -6.20611  -6.20212  -3.95988
  Beta  occ. eigenvalues --   -3.95954  -3.95951  -3.95673  -3.95666  -3.94818
  Beta  occ. eigenvalues --   -0.76681  -0.66695  -0.50834  -0.49220  -0.48032
  Beta  occ. eigenvalues --   -0.42219
  Beta virt. eigenvalues --    0.01590   0.03872   0.04239   0.06081   0.07104
  Beta virt. eigenvalues --    0.07452   0.07487   0.08317   0.08968   0.10151
  Beta virt. eigenvalues --    0.10315   0.10651   0.14097   0.15750   0.16187

 Mulliken charges and spin densities:
               1          2
     1  Si   0.329049   1.102364
     2  Si   0.389390  -0.072097
     3  H   -0.146238  -0.026894
     4  H   -0.146238  -0.026894
     5  H   -0.135283  -0.003444
     6  H   -0.155398   0.030410
     7  H   -0.135283  -0.003444
 Sum of Mulliken charges =  -0.00000   1.00000

 Dipole moment (field-independent basis, Debye):
    X=              0.0917    Y=             -0.0834    Z=              0.0000  Tot=              0.1239
                          Isotropic Fermi Contact Couplings
        Atom                 a.u.       MegaHertz       Gauss      10(-4) cm-1
     1  Si(29)             0.49705    -441.73776    -157.62302    -147.34786
     2  Si(29)             0.00227      -2.01794      -0.72005      -0.67311
     3  H(1)              -0.00401     -17.94254      -6.40234      -5.98499
     4  H(1)              -0.00401     -17.94254      -6.40234      -5.98499
     5  H(1)              -0.00108      -4.81772      -1.71908      -1.60702
     6  H(1)               0.01073      47.96472      17.11500      15.99931
     7  H(1)              -0.00108      -4.81772      -1.71908      -1.60702
 --------------------------------------------------------

 Normal termination of Gaussian 16 at Tue Apr  8 22:58:38 2025.
