 Gaussian 16, Revision C.01,

 ----------------------------------------------------------------------
 #t hf aug-cc-pvdz symm=none int=(grid=ultrafine) guess=(read,tcheck) s
 table=(opt,rrhf)
 ----------------------------------------------------------------------
 -----
 title
 -----
 Symbolic Z-matrix:
 Charge =  0 Multiplicity = 1

 SCF Done:  E(RHF) =  -600.430066621     A.U. after   12 cycles
 Normal termination of Gaussian 16 at Wed Apr  9 00:10:08 2025.
 Gaussian 16:  ES64L-G16RevC.01  3-Jul-2019

 ----------------------------------------------------------------------
 #t hf aug-cc-pvdz iop(5/13=1,5/36=2,99/5=2) pseudo=read geom=check gue
 ss=(read,tcheck) scf=(maxcycle=1)
 ----------------------------------------------------------------------
 -----
 title
 -----
 Structure from the checkpoint file:  "BDE49_nonexpt_2288_mol1.chk"
 Charge =  0 Multiplicity = 1

                         Standard orientation:
 ---------------------------------------------------------------------
 Center     Atomic      Atomic             Coordinates (Angstroms)
 Number     Number       Type             X           Y           Z
 ---------------------------------------------------------------------
      1         14           0        1.083794   -0.000001    0.013876
      2          8           0       -0.481500   -0.000008    0.570310
      3          6           0        1.417001    1.531381   -1.025962
      4          6           0        1.417010   -1.531374   -1.025972
      5          1           0        2.452483   -1.540826   -1.382024
      6          1           0        0.769697   -1.574893   -1.907618
      7          1           0        1.255424   -2.445536   -0.447180
      8          6           0        2.145279   -0.000002    1.553835
      9          1           0        3.210131    0.000015    1.300441
     10          1           0        1.944679   -0.883687    2.165952
     11          1           0        1.944654    0.883665    2.165970
     12          6           0       -1.686757   -0.000002   -0.203473
     13          1           0        0.769690    1.574901   -1.907609
     14          1           0        2.452475    1.540841   -1.382012
     15          1           0        1.255409    2.445539   -0.447165
     16          6           0       -2.473198   -1.269015    0.114627
     17          1           0       -1.888190   -2.157633   -0.132758
     18          1           0       -3.408558   -1.302194   -0.451791
     19          1           0       -2.709972   -1.302310    1.181451
     20          6           0       -2.473187    1.269020    0.114626
     21          1           0       -1.439243   -0.000004   -1.275374
     22          1           0       -2.709961    1.302317    1.181449
     23          1           0       -3.408546    1.302206   -0.451792
     24          1           0       -1.888171    2.157632   -0.132760
 ---------------------------------------------------------------------

 SCF Done:  E(RHF) =  -600.804537233     A.U. after    2 cycles

 The electronic state is 1-A.
 Alpha  occ. eigenvalues --  -69.52984 -20.51503 -11.28992 -11.22111 -11.22090
 Alpha  occ. eigenvalues --  -11.20585 -11.20584 -11.20267  -6.19609  -3.95076
 Alpha  occ. eigenvalues --   -3.94927  -3.94904  -1.42036  -1.04641  -0.96987
 Alpha  occ. eigenvalues --   -0.93659  -0.92504  -0.92479  -0.80257  -0.70746
 Alpha  occ. eigenvalues --   -0.62338  -0.60604  -0.60089  -0.56816  -0.56499
 Alpha  occ. eigenvalues --   -0.56402  -0.54766  -0.54427  -0.54308  -0.53346
 Alpha  occ. eigenvalues --   -0.52468  -0.51629  -0.51190  -0.46133  -0.45706
 Alpha  occ. eigenvalues --   -0.42424  -0.40566
 Alpha virt. eigenvalues --    0.03272   0.03643   0.03702   0.03950   0.05480
 Alpha virt. eigenvalues --    0.05771   0.05881   0.06346   0.06384   0.08145
 Alpha virt. eigenvalues --    0.08265   0.08845   0.09078   0.09257   0.09473

 Mulliken charges:
               1
     1  Si   3.759804
     2  O   -2.249830
     3  C   -0.676544
     4  C   -0.676543
     5  H   -0.015681
     6  H   -0.024791
     7  H   -0.059006
     8  C   -0.688103
     9  H   -0.057867
    10  H   -0.032049
    11  H   -0.032049
    12  C   -0.081108
    13  H   -0.024792
    14  H   -0.015678
    15  H   -0.059009
    16  C   -0.251498
    17  H    0.153989
    18  H    0.191864
    19  H    0.235274
    20  C   -0.251497
    21  H    0.273991
    22  H    0.235273
    23  H    0.191864
    24  H    0.153988
 Sum of Mulliken charges =  -0.00000

 Dipole moment (field-independent basis, Debye):
    X=             -0.0933    Y=              0.0000    Z=             -0.9860  Tot=              0.9904

 Test job not archived.
 1\1\GINC-SE328\SP\RHF\Aug-CC-pVDZ\C6H16O1Si1\OHZDE\09-Apr-2025\0\\#t h
 f aug-cc-pvdz iop(5/13=1,5/36=2,99/5=2) pseudo=read geom=check guess=(
 read,tcheck) scf=(maxcycle=1)\\title\\0,1\Si,0,1.083794,-0.000001,0.01
 3876\O,0,-0.4815,-0.000008,0.57031\C,0,1.417001,1.531381,-1.025962\C,0
 ,1.41701,-1.531374,-1.025972\H,0,2.452483,-1.540826,-1.382024\H,0,0.76
 9697,-1.574893,-1.907618\H,0,1.255424,-2.445536,-0.44718\C,0,2.145279,
 -0.000002,1.553835\H,0,3.210131,0.000015,1.300441\H,0,1.944679,-0.8836
 87,2.165952\H,0,1.944654,0.883665,2.16597\C,0,-1.686757,-0.000002,-0.2

 Normal termination of Gaussian 16 at Wed Apr  9 00:10:29 2025.
