 Gaussian 16, Revision C.01,

 ----------------------------------------------------------------------
 #t hf aug-cc-pvdz symm=none int=(grid=ultrafine) guess=(read,tcheck) s
 table=(opt,rrhf)
 ----------------------------------------------------------------------
 -----
 title
 -----
 Symbolic Z-matrix:
 Charge =  0 Multiplicity = 1

 SCF Done:  E(RHF) =  -445.803507672     A.U. after   13 cycles
 Normal termination of Gaussian 16 at Wed Apr  9 00:41:53 2025.
 Gaussian 16:  ES64L-G16RevC.01  3-Jul-2019

 ----------------------------------------------------------------------
 #t hf aug-cc-pvdz iop(5/13=1,5/36=2,99/5=2) pseudo=read geom=check gue
 ss=(read,tcheck) scf=(maxcycle=1)
 ----------------------------------------------------------------------
 -----
 title
 -----
 Structure from the checkpoint file:  "BDE49_nonexpt_686_mol1.chk"
 Charge =  0 Multiplicity = 1

                         Standard orientation:
 ---------------------------------------------------------------------
 Center     Atomic      Atomic             Coordinates (Angstroms)
 Number     Number       Type             X           Y           Z
 ---------------------------------------------------------------------
      1          5           0        1.786856    0.936398   -0.124147
      2         15           0        0.772805   -0.584388    0.099067
      3          6           0       -1.854156    0.578843    0.292932
      4          6           0       -0.972469   -0.388066   -0.504000
      5          1           0       -1.422206   -1.384631   -0.529895
      6          1           0       -0.883716   -0.064012   -1.545466
      7          1           0       -1.449070    1.592968    0.267300
      8          1           0       -2.868590    0.605485   -0.117886
      9          1           0       -1.928022    0.276626    1.340907
     10          1           0        2.712934    1.121494    0.598726
     11          1           0        1.628955    1.607644   -1.095014
     12          1           0        0.643115   -0.816405    1.482457
 ---------------------------------------------------------------------

 SCF Done:  E(RHF) =  -445.967291362     A.U. after    2 cycles

 The electronic state is 1-A.
 Alpha  occ. eigenvalues --  -84.25214 -11.25296 -11.23756  -7.60127  -6.72783
 Alpha  occ. eigenvalues --   -4.25457  -4.25327  -4.24535  -1.04856  -0.89681
 Alpha  occ. eigenvalues --   -0.80975  -0.67452  -0.62571  -0.58567  -0.54737
 Alpha  occ. eigenvalues --   -0.52271  -0.50757  -0.46346  -0.43727  -0.31350
 Alpha virt. eigenvalues --    0.03519   0.03814   0.04210   0.04716   0.05212
 Alpha virt. eigenvalues --    0.06208   0.06491   0.07693   0.08747   0.09497
 Alpha virt. eigenvalues --    0.10511   0.12033   0.12359   0.12786   0.13938

 Mulliken charges:
               1
     1  B   -0.490785
     2  P    0.040523
     3  C   -0.429734
     4  C   -0.802263
     5  H    0.133449
     6  H    0.135431
     7  H    0.144116
     8  H    0.118414
     9  H    0.142366
    10  H    0.364989
    11  H    0.329800
    12  H    0.313696
 Sum of Mulliken charges =   0.00000

 Dipole moment (field-independent basis, Debye):
    X=             -1.5509    Y=             -0.0319    Z=              0.1568  Tot=              1.5591

 Test job not archived.
 1\1\GINC-SE090\SP\RHF\Aug-CC-pVDZ\C2H8B1P1\OHZDE\09-Apr-2025\0\\#t hf
 aug-cc-pvdz iop(5/13=1,5/36=2,99/5=2) pseudo=read geom=check guess=(re
 ad,tcheck) scf=(maxcycle=1)\\title\\0,1\B,0,1.786856,0.936397,-0.12414
 7\P,0,0.772805,-0.584388,0.099067\C,0,-1.854156,0.578843,0.292932\C,0,
 -0.972469,-0.388066,-0.504\H,0,-1.422206,-1.384631,-0.529895\H,0,-0.88
 3716,-0.064012,-1.545466\H,0,-1.449069,1.592968,0.2673\H,0,-2.86859,0.
 605486,-0.117886\H,0,-1.928022,0.276626,1.340907\H,0,2.712934,1.121493
 ,0.598726\H,0,1.628956,1.607644,-1.095014\H,0,0.643115,-0.816405,1.482

 Normal termination of Gaussian 16 at Wed Apr  9 00:41:57 2025.
