 Gaussian 16, Revision C.01,

 ----------------------------------------------------------------------
 #t hf aug-cc-pvdz symm=none int=(grid=ultrafine) guess=(read,tcheck) s
 table=opt
 ----------------------------------------------------------------------
 -----
 title
 -----
 Symbolic Z-matrix:
 Charge =  0 Multiplicity = 2

 SCF Done:  E(UHF) =  -809.730961299     A.U. after   15 cycles
 Normal termination of Gaussian 16 at Tue Apr  8 22:42:59 2025.
 Gaussian 16:  ES64L-G16RevC.01  3-Jul-2019

 ----------------------------------------------------------------------
 #t hf aug-cc-pvdz iop(5/13=1,5/36=2,99/5=2) pseudo=read geom=check gue
 ss=(read,tcheck) scf=(maxcycle=1)
 ----------------------------------------------------------------------
 -----
 title
 -----
 Structure from the checkpoint file:  "BDE49_expt_144_mol2.chk"
 Charge =  0 Multiplicity = 2

                         Standard orientation:
 ---------------------------------------------------------------------
 Center     Atomic      Atomic             Coordinates (Angstroms)
 Number     Number       Type             X           Y           Z
 ---------------------------------------------------------------------
      1          6           0        1.325818   -0.139251   -0.023756
      2          6           0        0.003258    0.541672   -0.213389
      3          9           0        1.203231   -1.460118   -0.209957
      4          9           0        1.813564    0.069284    1.216067
      5          9           0        2.231734    0.338428   -0.892827
      6          6           0       -1.333710   -0.120443   -0.025434
      7          9           0        0.030562    1.856145   -0.048710
      8          9           0       -1.484756   -1.144678   -0.878403
      9          9           0       -2.313407    0.765364   -0.236119
     10          9           0       -1.477839   -0.612411    1.225002
 ---------------------------------------------------------------------

 SCF Done:  E(UHF) =  -810.464141754     A.U. after    2 cycles

 The electronic state is 2-A.
 Alpha  occ. eigenvalues --  -26.55196 -26.54340 -26.54125 -26.53949 -26.53855
 Alpha  occ. eigenvalues --  -26.53699 -26.53664 -11.56906 -11.56822 -11.42401
 Alpha  occ. eigenvalues --   -1.75383  -1.74668  -1.69072  -1.65123  -1.64954
 Alpha  occ. eigenvalues --   -1.64606  -1.64502  -1.14629  -1.01833  -0.93529
 Alpha  occ. eigenvalues --   -0.88458  -0.86268  -0.85891  -0.84143  -0.83615
 Alpha  occ. eigenvalues --   -0.81315  -0.77139  -0.73247  -0.72314  -0.71517
 Alpha  occ. eigenvalues --   -0.71309  -0.70624  -0.67626  -0.67443  -0.66870
 Alpha  occ. eigenvalues --   -0.66437  -0.66080  -0.65159  -0.65048  -0.59235
 Alpha  occ. eigenvalues --   -0.47554
 Alpha virt. eigenvalues --    0.07268   0.07390   0.07970   0.08693   0.10500
 Alpha virt. eigenvalues --    0.11154   0.11483   0.12845   0.13727   0.15428
 Alpha virt. eigenvalues --    0.19698   0.21247   0.21794   0.23122   0.24315

  Beta  occ. eigenvalues --  -26.54711 -26.54346 -26.54126 -26.53894 -26.53786
  Beta  occ. eigenvalues --  -26.53484 -26.53480 -11.57169 -11.57080 -11.39609
  Beta  occ. eigenvalues --   -1.75129  -1.74529  -1.67693  -1.64998  -1.64867
  Beta  occ. eigenvalues --   -1.64160  -1.64099  -1.09677  -1.01564  -0.92383
  Beta  occ. eigenvalues --   -0.88087  -0.85772  -0.84206  -0.83844  -0.83474
  Beta  occ. eigenvalues --   -0.80943  -0.72889  -0.72216  -0.71937  -0.71037
  Beta  occ. eigenvalues --   -0.70366  -0.69409  -0.67432  -0.66556  -0.66265
  Beta  occ. eigenvalues --   -0.66002  -0.65487  -0.64973  -0.64868  -0.58283
  Beta virt. eigenvalues --    0.03674   0.07292   0.07756   0.08005   0.09559
  Beta virt. eigenvalues --    0.10535   0.11162   0.11520   0.12935   0.14038
  Beta virt. eigenvalues --    0.15434   0.20629   0.21461   0.21910   0.23383

 Mulliken charges and spin densities:
               1          2
     1  C    2.553634  -0.133996
     2  C   -0.050552   1.224265
     3  F   -0.732886   0.006298
     4  F   -0.693405   0.009533
     5  F   -0.716854  -0.001088
     6  C    2.545751  -0.161636
     7  F   -0.807498   0.045856
     8  F   -0.691700   0.000165
     9  F   -0.721053  -0.002036
    10  F   -0.685438   0.012639
 Sum of Mulliken charges =   0.00000   1.00000

 Dipole moment (field-independent basis, Debye):
    X=             -0.0581    Y=              0.2795    Z=             -0.3296  Tot=              0.4360
                          Isotropic Fermi Contact Couplings
        Atom                 a.u.       MegaHertz       Gauss      10(-4) cm-1
     1  C(13)             -0.05313     -59.73381     -21.31451     -19.92506
     2  C(13)              0.28834     324.14683     115.66365     108.12374
     3  F(19)             -0.00362     -15.24587      -5.44011      -5.08548
     4  F(19)              0.02684     112.90925      40.28883      37.66247
     5  F(19)              0.00997      41.93500      14.96345      13.98801
     6  C(13)             -0.05433     -61.07668     -21.79368     -20.37299
     7  F(19)              0.06569     276.36856      98.61518      92.18663
     8  F(19)              0.00850      35.76358      12.76133      11.92945

 Normal termination of Gaussian 16 at Tue Apr  8 22:43:05 2025.
