 Gaussian 16, Revision C.01,

 ----------------------------------------------------------------------
 #t hf aug-cc-pvdz symm=none int=(grid=ultrafine) guess=(read,tcheck) s
 table=opt
 ----------------------------------------------------------------------
 -----
 title
 -----
 Symbolic Z-matrix:
 Charge =  0 Multiplicity = 2

 SCF Done:  E(UHF) =  -1193.17296014     A.U. after   24 cycles
 Normal termination of Gaussian 16 at Tue Apr  8 23:14:48 2025.
 Gaussian 16:  ES64L-G16RevC.01  3-Jul-2019

 ----------------------------------------------------------------------
 #t hf aug-cc-pvdz iop(5/13=1,5/36=2,99/5=2) pseudo=read geom=check gue
 ss=(read,tcheck) scf=(maxcycle=1)
 ----------------------------------------------------------------------
 -----
 title
 -----
 Structure from the checkpoint file:  "BDE49_expt_845_mol2.chk"
 Charge =  0 Multiplicity = 2

                         Standard orientation:
 ---------------------------------------------------------------------
 Center     Atomic      Atomic             Coordinates (Angstroms)
 Number     Number       Type             X           Y           Z
 ---------------------------------------------------------------------
      1         16           0       -1.707052   -0.313711   -0.086069
      2         16           0        0.130676    0.788290    0.028286
      3          1           0       -1.668509   -0.759932    1.183504
      4         16           0        1.680658   -0.427082   -0.016186
 ---------------------------------------------------------------------

 SCF Done:  E(UHF) =  -1193.34878871     A.U. after    2 cycles

 The electronic state is 2-A.
 Alpha  occ. eigenvalues --  -94.03482 -94.00079 -93.99721  -8.31251  -8.28202
 Alpha  occ. eigenvalues --   -8.27675  -6.28951  -6.28918  -6.28649  -6.27061
 Alpha  occ. eigenvalues --   -6.25680  -6.25453  -6.25319  -6.25266  -6.25064
 Alpha  occ. eigenvalues --   -1.15555  -1.02877  -0.86799  -0.60696  -0.55575
 Alpha  occ. eigenvalues --   -0.53080  -0.51628  -0.40910  -0.39448  -0.37943
 Alpha virt. eigenvalues --    0.03611   0.04674   0.06568   0.09956   0.10085
 Alpha virt. eigenvalues --    0.12084   0.12571   0.12849   0.13182   0.14267
 Alpha virt. eigenvalues --    0.14946   0.17191   0.18407   0.20798   0.23974

  Beta  occ. eigenvalues --  -94.03249 -93.99749 -93.99260  -8.30980  -8.27708
  Beta  occ. eigenvalues --   -8.27262  -6.28799  -6.28565  -6.27896  -6.25545
  Beta  occ. eigenvalues --   -6.25364  -6.25218  -6.25086  -6.24740  -6.23469
  Beta  occ. eigenvalues --   -1.13094  -1.00744  -0.81260  -0.59580  -0.53321
  Beta  occ. eigenvalues --   -0.52141  -0.43408  -0.39688  -0.37777
  Beta virt. eigenvalues --   -0.01100   0.03758   0.04919   0.06859   0.10100
  Beta virt. eigenvalues --    0.10253   0.12280   0.12869   0.13323   0.13402
  Beta virt. eigenvalues --    0.15204   0.15428   0.17832   0.18564   0.21127

 Mulliken charges and spin densities:
               1          2
     1  S   -0.378309  -0.045437
     2  S   -0.038585   0.145768
     3  H    0.426502   0.010448
     4  S   -0.009608   0.889221
 Sum of Mulliken charges =  -0.00000   1.00000

 Dipole moment (field-independent basis, Debye):
    X=             -0.5040    Y=             -0.4158    Z=              0.8541  Tot=              1.0753
                          Isotropic Fermi Contact Couplings
        Atom                 a.u.       MegaHertz       Gauss      10(-4) cm-1
     1  S(33)             -0.00053      -0.18356      -0.06550      -0.06123
     2  S(33)              0.09726      33.40575      11.92000      11.14296
     3  H(1)               0.00389      17.36581       6.19655       5.79261
     4  S(33)              0.18956      65.10824      23.23224      21.71777
 --------------------------------------------------------
       Center         ----  Spin Dipole Couplings  ----
                      3XX-RR        3YY-RR        3ZZ-RR
 --------------------------------------------------------

 Normal termination of Gaussian 16 at Tue Apr  8 23:14:51 2025.
