 Gaussian 16, Revision C.01,

 ----------------------------------------------------------------------
 #t hf aug-cc-pvdz symm=none int=(grid=ultrafine) guess=(read,tcheck) s
 table=(opt,rrhf)
 ----------------------------------------------------------------------
 -----
 title
 -----
 Symbolic Z-matrix:
 Charge =  0 Multiplicity = 1

 SCF Done:  E(RHF) =  -399.667552758     A.U. after   15 cycles
 Normal termination of Gaussian 16 at Tue Apr  8 22:42:25 2025.
 Gaussian 16:  ES64L-G16RevC.01  3-Jul-2019

 ----------------------------------------------------------------------
 #t hf aug-cc-pvdz iop(5/13=1,5/36=2,99/5=2) pseudo=read geom=check gue
 ss=(read,tcheck) scf=(maxcycle=1)
 ----------------------------------------------------------------------
 -----
 title
 -----
 Structure from the checkpoint file:  "BDE49_expt_1404_mol1.chk"
 Charge =  0 Multiplicity = 1

                         Standard orientation:
 ---------------------------------------------------------------------
 Center     Atomic      Atomic             Coordinates (Angstroms)
 Number     Number       Type             X           Y           Z
 ---------------------------------------------------------------------
      1          6           0       -1.709553    1.066150   -0.002872
      2          6           0       -1.650372   -0.339721   -0.007384
      3          6           0       -0.401235   -0.963656   -0.006611
      4          6           0       -0.536044    1.803216    0.003446
      5          6           0        0.718090    1.188970    0.004394
      6          6           0        0.773511   -0.207701   -0.001071
      7          1           0       -2.672443    1.565525   -0.010928
      8          1           0       -0.315934   -2.044497   -0.015445
      9          1           0       -0.590778    2.886515    0.008456
     10          1           0        1.614888    1.791741    0.009928
     11          8           0        1.930158   -0.934787    0.001122
     12          6           0        3.166191   -0.236638    0.003446
     13          1           0        3.940253   -1.002708    0.002889
     14          1           0        3.275578    0.386521    0.898210
     15          1           0        3.277067    0.389408   -0.889029
     16          7           0       -2.821140   -1.096264   -0.074067
     17          1           0       -3.646230   -0.639076    0.284837
     18          1           0       -2.739210   -2.045008    0.260478
 ---------------------------------------------------------------------

 SCF Done:  E(RHF) =  -400.080724711     A.U. after    2 cycles

 The electronic state is 1-A.
 Alpha  occ. eigenvalues --  -20.56846 -15.50850 -11.30521 -11.29187 -11.28564
 Alpha  occ. eigenvalues --  -11.24607 -11.22233 -11.22222 -11.21997  -1.49155
 Alpha  occ. eigenvalues --   -1.22329  -1.12594  -1.02099  -0.99093  -0.94236
 Alpha  occ. eigenvalues --   -0.84280  -0.81808  -0.73355  -0.72486  -0.67464
 Alpha  occ. eigenvalues --   -0.65714  -0.65202  -0.64971  -0.59862  -0.57918
 Alpha  occ. eigenvalues --   -0.55791  -0.53551  -0.52714  -0.50770  -0.48669
 Alpha  occ. eigenvalues --   -0.44586  -0.32650  -0.30699
 Alpha virt. eigenvalues --    0.03244   0.03678   0.03807   0.04973   0.05345
 Alpha virt. eigenvalues --    0.05585   0.07173   0.08244   0.09805   0.10600
 Alpha virt. eigenvalues --    0.10914   0.11915   0.12392   0.13254   0.13559

 Mulliken charges:
               1
     1  C    0.385515
     2  C   -1.035812
     3  C    0.391476
     4  C    0.475559
     5  C   -0.505861
     6  C    2.288647
     7  H   -0.287093
     8  H   -0.318888
     9  H   -0.240941
    10  H   -0.426034
    11  O   -1.918463
    12  C    0.125918
    13  H   -0.050811
    14  H    0.180641
    15  H    0.182453
    16  N    0.717223
    17  H    0.010510
    18  H    0.025959
 Sum of Mulliken charges =   0.00000

 Dipole moment (field-independent basis, Debye):
    X=              0.1713    Y=              0.4436    Z=              1.0207  Tot=              1.1260

 Test job not archived.
 1\1\GINC-SE365\SP\RHF\Aug-CC-pVDZ\C7H9N1O1\OHZDE\08-Apr-2025\0\\#t hf
 aug-cc-pvdz iop(5/13=1,5/36=2,99/5=2) pseudo=read geom=check guess=(re
 ad,tcheck) scf=(maxcycle=1)\\title\\0,1\C,0,-1.709553,1.06615,-0.00287
 2\C,0,-1.650372,-0.339721,-0.007384\C,0,-0.401235,-0.963656,-0.006611\
 C,0,-0.536044,1.803216,0.003446\C,0,0.71809,1.18897,0.004394\C,0,0.773
 511,-0.207701,-0.001071\H,0,-2.672443,1.565525,-0.010928\H,0,-0.315934
 ,-2.044497,-0.015445\H,0,-0.590778,2.886515,0.008456\H,0,1.614888,1.79
 1741,0.009928\O,0,1.930158,-0.934787,0.001122\C,0,3.166191,-0.236638,0

 Normal termination of Gaussian 16 at Tue Apr  8 22:42:32 2025.
