 Gaussian 16, Revision C.01,

 ----------------------------------------------------------------------
 #t hf aug-cc-pvdz symm=none int=(grid=ultrafine) guess=(read,tcheck) s
 table=(opt,rrhf)
 ----------------------------------------------------------------------
 -----
 title
 -----
 Symbolic Z-matrix:
 Charge =  0 Multiplicity = 1

 SCF Done:  E(RHF) =  -303.456640840     A.U. after   12 cycles
 Normal termination of Gaussian 16 at Tue Apr  8 22:52:31 2025.
 Gaussian 16:  ES64L-G16RevC.01  3-Jul-2019

 ----------------------------------------------------------------------
 #t hf aug-cc-pvdz iop(5/13=1,5/36=2,99/5=2) pseudo=read geom=check gue
 ss=(read,tcheck) scf=(maxcycle=1)
 ----------------------------------------------------------------------
 -----
 title
 -----
 Structure from the checkpoint file:  "BDE49_expt_1810_mol1.chk"
 Charge =  0 Multiplicity = 1

                         Standard orientation:
 ---------------------------------------------------------------------
 Center     Atomic      Atomic             Coordinates (Angstroms)
 Number     Number       Type             X           Y           Z
 ---------------------------------------------------------------------
      1          7           0        0.193564    0.000001    0.000034
      2          8           0        0.637059   -1.091328   -0.000011
      3          9           0       -1.283097   -0.000001   -0.000006
      4          8           0        0.637057    1.091328   -0.000011
 ---------------------------------------------------------------------

 SCF Done:  E(RHF) =  -303.734820347     A.U. after    2 cycles

 The electronic state is 1-A.
 Alpha  occ. eigenvalues --  -26.54305 -20.68335 -20.68325 -15.93263  -1.80427
 Alpha  occ. eigenvalues --   -1.64220  -1.60704  -1.00214  -0.88369  -0.86326
 Alpha  occ. eigenvalues --   -0.84342  -0.69146  -0.66607  -0.57920  -0.56299
 Alpha  occ. eigenvalues --   -0.53875
 Alpha virt. eigenvalues --    0.02874   0.06771   0.11493   0.12447   0.14082
 Alpha virt. eigenvalues --    0.14906   0.20046   0.21376   0.21630   0.24939
 Alpha virt. eigenvalues --    0.25258   0.28236   0.32089   0.33628   0.34815

 Mulliken charges:
               1
     1  N    2.259464
     2  O   -0.883632
     3  F   -0.492199
     4  O   -0.883632
 Sum of Mulliken charges =  -0.00000

 Dipole moment (field-independent basis, Debye):
    X=              0.2255    Y=              0.0000    Z=              0.0000  Tot=              0.2255

 Test job not archived.
 1\1\GINC-SE070\SP\RHF\Aug-CC-pVDZ\F1N1O2\OHZDE\08-Apr-2025\0\\#t hf au
 g-cc-pvdz iop(5/13=1,5/36=2,99/5=2) pseudo=read geom=check guess=(read
 ,tcheck) scf=(maxcycle=1)\\title\\0,1\N,0,0.193564,0.,0.000034\O,0,0.6
 37057,-1.091329,-0.000011\F,0,-1.283097,0.000001,-0.000006\O,0,0.63705
 9,1.091327,-0.000011\\Version=ES64L-G16RevC.01\State=1-A\HF=-303.73482
 03\RMSD=1.925e-02\Dipole=0.0887305,0.0000024,0.0000194\Quadrupole=-0.4
 33101,-0.6122121,1.0453131,0.0000026,0.0000016,0.\PG=C01 [X(F1N1O2)]\\
 @

 Normal termination of Gaussian 16 at Tue Apr  8 22:52:33 2025.
