 Gaussian 16, Revision C.01,

 ----------------------------------------------------------------------
 #t hf aug-cc-pvdz symm=none int=(grid=ultrafine) guess=(read,tcheck) s
 table=opt
 ----------------------------------------------------------------------
 -----
 title
 -----
 Symbolic Z-matrix:
 Charge =  0 Multiplicity = 2

 SCF Done:  E(UHF) =  -613.993358388     A.U. after   22 cycles
 Normal termination of Gaussian 16 at Wed Apr  9 00:32:48 2025.
 Gaussian 16:  ES64L-G16RevC.01  3-Jul-2019

 ----------------------------------------------------------------------
 #t hf aug-cc-pvdz iop(5/13=1,5/36=2,99/5=2) pseudo=read geom=check gue
 ss=(read,tcheck) scf=(maxcycle=1)
 ----------------------------------------------------------------------
 -----
 title
 -----
 Structure from the checkpoint file:  "BDE49_nonexpt_388_mol2.chk"
 Charge =  0 Multiplicity = 2

                         Standard orientation:
 ---------------------------------------------------------------------
 Center     Atomic      Atomic             Coordinates (Angstroms)
 Number     Number       Type             X           Y           Z
 ---------------------------------------------------------------------
      1          9           0       -1.672561   -1.084592   -0.000000
      2          5           0       -1.506209    0.204872    0.000002
      3          6           0        1.212223   -0.204890   -0.000001
      4          7           0        1.992255   -1.059549    0.000002
      5         16           0        0.085310    1.086447   -0.000001
 ---------------------------------------------------------------------

 SCF Done:  E(UHF) =  -614.244898470     A.U. after    2 cycles

 The electronic state is 2-A.
 Alpha  occ. eigenvalues --  -94.03618 -26.52855 -15.54344 -11.32281  -8.31844
 Alpha  occ. eigenvalues --   -7.76129  -6.29629  -6.29471  -6.29194  -1.66368
 Alpha  occ. eigenvalues --   -1.26045  -1.12279  -0.83174  -0.75577  -0.73461
 Alpha  occ. eigenvalues --   -0.71063  -0.63458  -0.58770  -0.56963  -0.51844
 Alpha  occ. eigenvalues --   -0.44646  -0.41253
 Alpha virt. eigenvalues --    0.03152   0.04177   0.04574   0.05435   0.07195
 Alpha virt. eigenvalues --    0.09415   0.09703   0.10582   0.12475   0.13510
 Alpha virt. eigenvalues --    0.13574   0.14970   0.16204   0.17447   0.18774

  Beta  occ. eigenvalues --  -94.03527 -26.52568 -15.54230 -11.32231  -8.31695
  Beta  occ. eigenvalues --   -7.73988  -6.29568  -6.29218  -6.29181  -1.65565
  Beta  occ. eigenvalues --   -1.25735  -1.11041  -0.81530  -0.73886  -0.70960
  Beta  occ. eigenvalues --   -0.70540  -0.62676  -0.58075  -0.56951  -0.50194
  Beta  occ. eigenvalues --   -0.44483
  Beta virt. eigenvalues --    0.01262   0.04118   0.04643   0.05144   0.07367
  Beta virt. eigenvalues --    0.09538   0.09626   0.09953   0.10814   0.12532
  Beta virt. eigenvalues --    0.13826   0.14459   0.16548   0.17111   0.17654

 Mulliken charges and spin densities:
               1          2
     1  F   -0.334698  -0.054595
     2  B    0.767422   1.014716
     3  C   -1.513772   0.027479
     4  N    0.664750   0.027163
     5  S    0.416299  -0.014763
 Sum of Mulliken charges =   0.00000   1.00000

 Dipole moment (field-independent basis, Debye):
    X=             -2.9507    Y=              2.6713    Z=             -0.0000  Tot=              3.9803
                          Isotropic Fermi Contact Couplings
        Atom                 a.u.       MegaHertz       Gauss      10(-4) cm-1
     1  F(19)              0.06249     262.93012      93.82001      87.70405
     2  B(11)              0.40482     580.66250     207.19482     193.68816
     3  C(13)              0.03228      36.28583      12.94769      12.10365
     4  N(14)              0.01091       3.52361       1.25731       1.17535
     5  S(33)              0.24024      82.51716      29.44417      27.52476
 --------------------------------------------------------
       Center         ----  Spin Dipole Couplings  ----
                      3XX-RR        3YY-RR        3ZZ-RR

 Normal termination of Gaussian 16 at Wed Apr  9 00:32:54 2025.
