 Gaussian 16, Revision C.01,

 ----------------------------------------------------------------------
 #t hf aug-cc-pvdz symm=none int=(grid=ultrafine) guess=(read,tcheck) s
 table=(opt,rrhf)
 ----------------------------------------------------------------------
 -----
 title
 -----
 Symbolic Z-matrix:
 Charge =  0 Multiplicity = 1

 SCF Done:  E(RHF) =  -639.451834655     A.U. after   12 cycles
 Normal termination of Gaussian 16 at Wed Apr  9 00:11:21 2025.
 Gaussian 16:  ES64L-G16RevC.01  3-Jul-2019

 ----------------------------------------------------------------------
 #t hf aug-cc-pvdz iop(5/13=1,5/36=2,99/5=2) pseudo=read geom=check gue
 ss=(read,tcheck) scf=(maxcycle=1)
 ----------------------------------------------------------------------
 -----
 title
 -----
 Structure from the checkpoint file:  "BDE49_nonexpt_2285_mol1.chk"
 Charge =  0 Multiplicity = 1

                         Standard orientation:
 ---------------------------------------------------------------------
 Center     Atomic      Atomic             Coordinates (Angstroms)
 Number     Number       Type             X           Y           Z
 ---------------------------------------------------------------------
      1          8           0       -0.277076   -0.110997    0.413520
      2          6           0       -1.662279   -0.226035    0.032523
      3          6           0       -1.786906   -1.269646   -1.085153
      4          1           0       -1.376459   -2.226326   -0.753989
      5          1           0       -1.241853   -0.951900   -1.977274
      6          6           0       -2.394459   -0.695599    1.292933
      7          1           0       -3.461278   -0.835479    1.097841
      8          1           0       -2.278275    0.039688    2.092402
      9          1           0       -1.974814   -1.642947    1.638140
     10          6           0       -2.206654    1.132544   -0.429115
     11          1           0       -1.687430    1.480570   -1.326650
     12          1           0       -2.083583    1.881251    0.357145
     13          1           0       -3.271113    1.059413   -0.668142
     14          1           0       -2.834362   -1.420022   -1.361475
     15         14           0        1.055633    0.569605   -0.291023
     16          6           0        2.534600   -0.415321    0.314430
     17          6           0        2.491070   -1.916759   -0.016272
     18          1           0        2.612615   -0.272381    1.399266
     19          1           0        3.437116    0.040857   -0.112680
     20          6           0        1.245767    2.379396    0.169140
     21          1           0        1.299124    2.505102    1.254751
     22          1           0        0.411762    2.982637   -0.198944
     23          1           0        2.166230    2.787548   -0.261624
     24          1           0        1.606731   -2.386730    0.420812
     25          1           0        3.371606   -2.440470    0.367639
     26          1           0        2.453775   -2.086643   -1.096614
     27          1           0        0.961130    0.467859   -1.775375
 ---------------------------------------------------------------------

 SCF Done:  E(RHF) =  -639.868373079     A.U. after    2 cycles

 The electronic state is 1-A.
 Alpha  occ. eigenvalues --  -69.53271 -20.51598 -11.29718 -11.22601 -11.22154
 Alpha  occ. eigenvalues --  -11.22146 -11.21911 -11.20833 -11.20721  -6.19885
 Alpha  occ. eigenvalues --   -3.95362  -3.95214  -3.95184  -1.42157  -1.07206
 Alpha  occ. eigenvalues --   -1.01542  -0.94844  -0.93899  -0.93728  -0.83975
 Alpha  occ. eigenvalues --   -0.78316  -0.68210  -0.63917  -0.62808  -0.61615
 Alpha  occ. eigenvalues --   -0.59748  -0.57714  -0.56352  -0.56222  -0.55754
 Alpha  occ. eigenvalues --   -0.54698  -0.52567  -0.52278  -0.51488  -0.50862
 Alpha  occ. eigenvalues --   -0.50559  -0.48919  -0.46567  -0.44928  -0.41754
 Alpha  occ. eigenvalues --   -0.40427
 Alpha virt. eigenvalues --    0.03369   0.03641   0.03722   0.03783   0.05263
 Alpha virt. eigenvalues --    0.05328   0.05726   0.06091   0.06404   0.07784
 Alpha virt. eigenvalues --    0.07968   0.08422   0.08777   0.09313   0.09599

 Mulliken charges:
               1
     1  O   -2.275868
     2  C   -1.174350
     3  C    0.113963
     4  H    0.242420
     5  H    0.183031
     6  C    0.178704
     7  H    0.232765
     8  H    0.191570
     9  H    0.208894
    10  C    0.079448
    11  H    0.173256
    12  H    0.249730
    13  H    0.165174
    14  H    0.189866
    15  Si   2.555537
    16  C   -0.481718
    17  C   -0.499143
    18  H    0.116853
    19  H    0.026494
    20  C   -0.630654
    21  H    0.132709
    22  H   -0.077728
    23  H    0.002854
    24  H    0.131745
    25  H    0.082626
    26  H    0.124262
    27  H   -0.242441
 Sum of Mulliken charges =   0.00000

 Dipole moment (field-independent basis, Debye):
    X=             -0.5874    Y=              0.3575    Z=             -0.2251  Tot=              0.7235

 Test job not archived.
 1\1\GINC-SE412\SP\RHF\Aug-CC-pVDZ\C7H18O1Si1\OHZDE\09-Apr-2025\0\\#t h
 f aug-cc-pvdz iop(5/13=1,5/36=2,99/5=2) pseudo=read geom=check guess=(
 read,tcheck) scf=(maxcycle=1)\\title\\0,1\O,0,-0.277076,-0.110997,0.41
 352\C,0,-1.662279,-0.226035,0.032523\C,0,-1.786906,-1.269646,-1.085153
 \H,0,-1.376459,-2.226326,-0.753989\H,0,-1.241853,-0.9519,-1.977274\C,0
 ,-2.394459,-0.695599,1.292933\H,0,-3.461278,-0.835479,1.097841\H,0,-2.
 278275,0.039688,2.092402\H,0,-1.974814,-1.642947,1.63814\C,0,-2.206654
 ,1.132544,-0.429115\H,0,-1.68743,1.48057,-1.32665\H,0,-2.083583,1.8812

 Normal termination of Gaussian 16 at Wed Apr  9 00:11:39 2025.
