 Gaussian 16, Revision C.01,

 ----------------------------------------------------------------------
 #t hf aug-cc-pvdz symm=none int=(grid=ultrafine) guess=(read,tcheck) s
 table=(opt,rrhf)
 ----------------------------------------------------------------------
 -----
 title
 -----
 Symbolic Z-matrix:
 Charge =  0 Multiplicity = 1

 SCF Done:  E(RHF) =  -902.145448644     A.U. after   13 cycles
 Normal termination of Gaussian 16 at Wed Apr  9 00:13:49 2025.
 Gaussian 16:  ES64L-G16RevC.01  3-Jul-2019

 ----------------------------------------------------------------------
 #t hf aug-cc-pvdz iop(5/13=1,5/36=2,99/5=2) pseudo=read geom=check gue
 ss=(read,tcheck) scf=(maxcycle=1)
 ----------------------------------------------------------------------
 -----
 title
 -----
 Structure from the checkpoint file:  "BDE49_nonexpt_2413_mol1.chk"
 Charge =  0 Multiplicity = 1

                         Standard orientation:
 ---------------------------------------------------------------------
 Center     Atomic      Atomic             Coordinates (Angstroms)
 Number     Number       Type             X           Y           Z
 ---------------------------------------------------------------------
      1         14           0        2.768543   -0.764508    0.485960
      2         14           0        1.562062    1.047029   -0.415950
      3          1           0        2.116037   -1.230645    1.732516
      4          1           0        4.139152   -0.304202    0.833794
      5          1           0        2.880495   -1.880471   -0.476412
      6          8           0       -0.093890    1.010312   -0.002658
      7          1           0        1.689900    1.124262   -1.888840
      8          1           0        1.974326    2.344388    0.163831
      9          6           0       -0.764982   -0.145955   -0.231823
     10          8           0       -0.192087   -1.128036   -0.683841
     11          7           0       -2.081716   -0.088226    0.086510
     12          6           0       -2.737080    1.094418    0.626174
     13          1           0       -2.020872    1.904248    0.718721
     14          1           0       -3.160923    0.875999    1.612713
     15          1           0       -3.551929    1.409697   -0.034889
     16          6           0       -2.909742   -1.269581   -0.108047
     17          1           0       -2.295450   -2.066491   -0.518223
     18          1           0       -3.729689   -1.049831   -0.800173
     19          1           0       -3.338879   -1.596167    0.845429
 ---------------------------------------------------------------------

 SCF Done:  E(RHF) =  -902.540196860     A.U. after    2 cycles

 The electronic state is 1-A.
 Alpha  occ. eigenvalues --  -69.56260 -69.52080 -20.57495 -20.51670 -15.53602
 Alpha  occ. eigenvalues --  -11.41525 -11.27783 -11.27191  -6.22880  -6.19240
 Alpha  occ. eigenvalues --   -3.98323  -3.98182  -3.98154  -3.94601  -3.94593
 Alpha  occ. eigenvalues --   -3.94584  -1.53182  -1.43257  -1.26254  -0.99088
 Alpha  occ. eigenvalues --   -0.97729  -0.81868  -0.75516  -0.74730  -0.70700
 Alpha  occ. eigenvalues --   -0.69310  -0.66554  -0.61967  -0.61095  -0.58082
 Alpha  occ. eigenvalues --   -0.57369  -0.56828  -0.54904  -0.50859  -0.48518
 Alpha  occ. eigenvalues --   -0.48079  -0.46687  -0.44696  -0.41486  -0.40264
 Alpha virt. eigenvalues --    0.03269   0.04125   0.04329   0.04712   0.04963
 Alpha virt. eigenvalues --    0.05729   0.06047   0.06634   0.07068   0.07940
 Alpha virt. eigenvalues --    0.08535   0.08779   0.09448   0.09791   0.10870

 Mulliken charges:
               1
     1  Si   0.142827
     2  Si   0.928665
     3  H   -0.049616
     4  H   -0.149282
     5  H   -0.028534
     6  O   -1.754542
     7  H   -0.087656
     8  H   -0.120366
     9  C    0.803896
    10  O   -1.060017
    11  N    0.974833
    12  C   -0.251040
    13  H    0.053664
    14  H    0.159143
    15  H    0.158614
    16  C   -0.114820
    17  H    0.018120
    18  H    0.185648
    19  H    0.190464
 Sum of Mulliken charges =   0.00000

 Dipole moment (field-independent basis, Debye):
    X=             -2.3145    Y=              1.3302    Z=              0.8693  Tot=              2.8075

 Test job not archived.
 1\1\GINC-SE105\SP\RHF\Aug-CC-pVDZ\C3H11N1O2Si2\OHZDE\09-Apr-2025\0\\#t
  hf aug-cc-pvdz iop(5/13=1,5/36=2,99/5=2) pseudo=read geom=check guess
 =(read,tcheck) scf=(maxcycle=1)\\title\\0,1\Si,0,2.768543,-0.764508,0.
 48596\Si,0,1.562062,1.047029,-0.41595\H,0,2.116037,-1.230645,1.732516\
 H,0,4.139152,-0.304202,0.833794\H,0,2.880495,-1.880471,-0.476412\O,0,-
 0.09389,1.010312,-0.002658\H,0,1.6899,1.124262,-1.88884\H,0,1.974326,2
 .344388,0.163831\C,0,-0.764982,-0.145955,-0.231823\O,0,-0.192087,-1.12
 8036,-0.683841\N,0,-2.081716,-0.088226,0.08651\C,0,-2.73708,1.094418,0

 Normal termination of Gaussian 16 at Wed Apr  9 00:13:59 2025.
