 Gaussian 16, Revision C.01,

 ----------------------------------------------------------------------
 #t hf aug-cc-pvdz symm=none int=(grid=ultrafine) guess=(read,tcheck) s
 table=(opt,rrhf)
 ----------------------------------------------------------------------
 -----
 title
 -----
 Symbolic Z-matrix:
 Charge =  0 Multiplicity = 1

 SCF Done:  E(RHF) =  -796.809530139     A.U. after   15 cycles
 Normal termination of Gaussian 16 at Tue Apr  8 23:19:52 2025.
 Gaussian 16:  ES64L-G16RevC.01  3-Jul-2019

 ----------------------------------------------------------------------
 #t hf aug-cc-pvdz iop(5/13=1,5/36=2,99/5=2) pseudo=read geom=check gue
 ss=(read,tcheck) scf=(maxcycle=1)
 ----------------------------------------------------------------------
 -----
 title
 -----
 Structure from the checkpoint file:  "BDE49_nonexpt_1127_mol1.chk"
 Charge =  0 Multiplicity = 1

                         Standard orientation:
 ---------------------------------------------------------------------
 Center     Atomic      Atomic             Coordinates (Angstroms)
 Number     Number       Type             X           Y           Z
 ---------------------------------------------------------------------
      1          9           0        2.023403    0.015137   -0.004582
      2          8           0        0.919041   -0.880912   -0.235003
      3         16           0       -0.474267   -0.029243    0.110177
      4          8           0       -1.449991   -0.997813   -0.238239
      5          8           0       -0.347008    0.607160    1.377046
      6          8           0       -0.444775    1.077376   -1.033940
      7          1           0       -0.040488    1.885168   -0.680503
 ---------------------------------------------------------------------

 SCF Done:  E(RHF) =  -797.249989215     A.U. after    2 cycles

 The electronic state is 1-A.
 Alpha  occ. eigenvalues --  -94.32481 -26.56778 -20.74452 -20.67467 -20.61233
 Alpha  occ. eigenvalues --  -20.60876  -8.56728  -6.54857  -6.54695  -6.54661
 Alpha  occ. eigenvalues --   -1.73807  -1.66574  -1.54950  -1.52596  -1.41303
 Alpha  occ. eigenvalues --   -0.96534  -0.84718  -0.79397  -0.76787  -0.75143
 Alpha  occ. eigenvalues --   -0.71595  -0.68478  -0.66484  -0.61745  -0.58941
 Alpha  occ. eigenvalues --   -0.57705  -0.55577  -0.54508  -0.52981
 Alpha virt. eigenvalues --    0.02858   0.07930   0.09128   0.09552   0.11171
 Alpha virt. eigenvalues --    0.12978   0.16399   0.17364   0.17679   0.20240
 Alpha virt. eigenvalues --    0.20717   0.21228   0.23597   0.25670   0.26409

 Mulliken charges:
               1
     1  F   -0.371987
     2  O   -0.517297
     3  S    4.241363
     4  O   -1.252263
     5  O   -1.265599
     6  O   -1.218527
     7  H    0.384310
 Sum of Mulliken charges =  -0.00000

 Dipole moment (field-independent basis, Debye):
    X=              0.9138    Y=              2.4688    Z=             -0.9184  Tot=              2.7881

 Test job not archived.
 1\1\GINC-SE367\SP\RHF\Aug-CC-pVDZ\F1H1O4S1\OHZDE\08-Apr-2025\0\\#t hf
 aug-cc-pvdz iop(5/13=1,5/36=2,99/5=2) pseudo=read geom=check guess=(re
 ad,tcheck) scf=(maxcycle=1)\\title\\0,1\F,0,2.023403,0.015136,-0.00458
 2\O,0,0.919041,-0.880912,-0.235003\S,0,-0.474267,-0.029243,0.110177\O,
 0,-1.449992,-0.997812,-0.238239\O,0,-0.347008,0.60716,1.377046\O,0,-0.
 444775,1.077376,-1.03394\H,0,-0.040487,1.885168,-0.680503\\Version=ES6
 4L-G16RevC.01\State=1-A\HF=-797.2499892\RMSD=6.807e-03\Dipole=0.359521
 ,0.9712941,-0.3613238\Quadrupole=-1.6163977,3.5761398,-1.959742,-0.631

 Normal termination of Gaussian 16 at Tue Apr  8 23:19:55 2025.
