 Gaussian 16, Revision C.01,

 ----------------------------------------------------------------------
 #t hf aug-cc-pvdz symm=none int=(grid=ultrafine) guess=(read,tcheck) s
 table=(opt,rrhf)
 ----------------------------------------------------------------------
 -----
 title
 -----
 Symbolic Z-matrix:
 Charge =  0 Multiplicity = 1

 SCF Done:  E(RHF) =  -1187.91709565     A.U. after   17 cycles
 Normal termination of Gaussian 16 at Tue Apr  8 23:44:57 2025.
 Gaussian 16:  ES64L-G16RevC.01  3-Jul-2019

 ----------------------------------------------------------------------
 #t hf aug-cc-pvdz iop(5/13=1,5/36=2,99/5=2) pseudo=read geom=check gue
 ss=(read,tcheck) scf=(maxcycle=1)
 ----------------------------------------------------------------------
 -----
 title
 -----
 Structure from the checkpoint file:  "BDE49_nonexpt_1605_mol1.chk"
 Charge =  0 Multiplicity = 1

                         Standard orientation:
 ---------------------------------------------------------------------
 Center     Atomic      Atomic             Coordinates (Angstroms)
 Number     Number       Type             X           Y           Z
 ---------------------------------------------------------------------
      1          6           0       -3.124504   -0.079880   -0.000921
      2          6           0       -2.246607   -1.156754   -0.033662
      3          6           0       -0.881344   -0.901648   -0.040866
      4          6           0       -2.688497    1.240385    0.024692
      5          6           0       -1.323073    1.486238    0.015919
      6          6           0       -0.418178    0.418590   -0.017138
      7          1           0       -2.638816   -2.163596   -0.051942
      8          1           0       -0.173355   -1.718252   -0.065883
      9          1           0       -3.413465    2.041406    0.050805
     10          1           0       -0.941687    2.498747    0.035570
     11          6           0        1.032252    0.739530   -0.024869
     12          8           0        1.818485   -0.365220   -0.068718
     13         15           0        3.472726   -0.318843    0.125425
     14          8           0        3.856725   -0.432423    1.525945
     15          8           0        1.477757    1.866575   -0.004893
     16          7           0       -4.585831   -0.349923    0.007198
     17          8           0       -4.941107   -1.518705   -0.016329
     18          8           0       -5.334680    0.614969    0.036466
     19          8           0        3.897311   -1.513997   -0.819907
     20          1           0        4.275811   -2.246279   -0.318885
     21          8           0        3.909522    0.930030   -0.726181
     22          1           0        3.329033    1.691478   -0.531423
 ---------------------------------------------------------------------

 SCF Done:  E(RHF) =  -1188.78417249     A.U. after    2 cycles

 The electronic state is 1-A.
 Alpha  occ. eigenvalues --  -84.48988 -20.63715 -20.62207 -20.60940 -20.60936
 Alpha  occ. eigenvalues --  -20.60923 -20.59041 -20.52951 -15.81183 -11.45547
 Alpha  occ. eigenvalues --  -11.34606 -11.31110 -11.30379 -11.30258 -11.30217
 Alpha  occ. eigenvalues --  -11.30128  -6.93767  -4.47950  -4.47349  -4.47157
 Alpha  occ. eigenvalues --   -1.68955  -1.61241  -1.55466  -1.52708  -1.50411
 Alpha  occ. eigenvalues --   -1.49851  -1.41583  -1.23169  -1.14243  -1.08087
 Alpha  occ. eigenvalues --   -1.03516  -0.94668  -0.90479  -0.88240  -0.84235
 Alpha  occ. eigenvalues --   -0.82332  -0.78532  -0.77052  -0.76459  -0.75336
 Alpha  occ. eigenvalues --   -0.73786  -0.71042  -0.69231  -0.69052  -0.68125
 Alpha  occ. eigenvalues --   -0.67212  -0.66102  -0.63117  -0.60878  -0.58795
 Alpha  occ. eigenvalues --   -0.58224  -0.56713  -0.56418  -0.55116  -0.53463
 Alpha  occ. eigenvalues --   -0.51641  -0.50714  -0.50251  -0.48335  -0.47908
 Alpha  occ. eigenvalues --   -0.46822  -0.41465  -0.39977
 Alpha virt. eigenvalues --   -0.01079   0.02585   0.03215   0.03825   0.04910
 Alpha virt. eigenvalues --    0.06178   0.06407   0.06782   0.07091   0.07485
 Alpha virt. eigenvalues --    0.07881   0.09596   0.09900   0.10689   0.11419

 Mulliken charges:
               1
     1  C   -0.520029
     2  C    0.071477
     3  C    0.316839
     4  C    0.200069
     5  C    0.239067
     6  C    1.464158
     7  H   -0.221524
     8  H   -0.280265
     9  H   -0.212589
    10  H   -0.351800
    11  C    1.947660
    12  O   -2.445104
    13  P    4.122405
    14  O   -1.349674
    15  O   -1.389239
    16  N    3.012205
    17  O   -1.475970
    18  O   -1.473059
    19  O   -1.249724
    20  H    0.385042
    21  O   -1.373008
    22  H    0.583062
 Sum of Mulliken charges =  -0.00000

 Dipole moment (field-independent basis, Debye):
    X=              0.9898    Y=             -0.7669    Z=             -1.7213  Tot=              2.1286

 Test job not archived.
 1\1\GINC-SE253\SP\RHF\Aug-CC-pVDZ\C7H6N1O7P1\OHZDE\08-Apr-2025\0\\#t h
 f aug-cc-pvdz iop(5/13=1,5/36=2,99/5=2) pseudo=read geom=check guess=(
 read,tcheck) scf=(maxcycle=1)\\title\\0,1\C,0,-3.124504,-0.07988,-0.00
 0921\C,0,-2.246607,-1.156754,-0.033662\C,0,-0.881344,-0.901648,-0.0408
 66\C,0,-2.688497,1.240385,0.024692\C,0,-1.323073,1.486238,0.015919\C,0
 ,-0.418178,0.41859,-0.017138\H,0,-2.638816,-2.163596,-0.051942\H,0,-0.
 173355,-1.718252,-0.065883\H,0,-3.413465,2.041406,0.050805\H,0,-0.9416
 87,2.498747,0.03557\C,0,1.032252,0.73953,-0.024869\O,0,1.818485,-0.365

 Normal termination of Gaussian 16 at Tue Apr  8 23:45:17 2025.
