 Gaussian 16, Revision C.01,

 ----------------------------------------------------------------------
 #t hf aug-cc-pvdz symm=none int=(grid=ultrafine) guess=(read,tcheck) s
 table=(opt,rrhf)
 ----------------------------------------------------------------------
 -----
 title
 -----
 Symbolic Z-matrix:
 Charge =  0 Multiplicity = 1

 SCF Done:  E(RHF) =  -798.238567121     A.U. after   13 cycles
 Normal termination of Gaussian 16 at Tue Apr  8 23:40:27 2025.
 Gaussian 16:  ES64L-G16RevC.01  3-Jul-2019

 ----------------------------------------------------------------------
 #t hf aug-cc-pvdz iop(5/13=1,5/36=2,99/5=2) pseudo=read geom=check gue
 ss=(read,tcheck) scf=(maxcycle=1)
 ----------------------------------------------------------------------
 -----
 title
 -----
 Structure from the checkpoint file:  "BDE49_nonexpt_1612_mol1.chk"
 Charge =  0 Multiplicity = 1

                         Standard orientation:
 ---------------------------------------------------------------------
 Center     Atomic      Atomic             Coordinates (Angstroms)
 Number     Number       Type             X           Y           Z
 ---------------------------------------------------------------------
      1          8           0        0.134440    0.143589    0.600204
      2         15           0       -1.252845   -0.222927   -0.070500
      3          8           0       -1.282672   -1.151312   -1.196582
      4          6           0        1.272948    0.610615   -0.207236
      5          6           0        1.440090    2.102855    0.032832
      6          1           0        0.530543    2.638997   -0.241448
      7          1           0        2.267837    2.490405   -0.567227
      8          1           0        1.656196    2.297568    1.086511
      9          6           0        2.486884   -0.221240    0.191872
     10          6           0        2.342132   -1.716076   -0.100438
     11          1           0        2.679449   -0.058549    1.258339
     12          1           0        3.349954    0.184248   -0.348324
     13          1           0        1.515445   -2.149231    0.464835
     14          1           0        3.254914   -2.252517    0.170309
     15          1           0        2.146013   -1.896083   -1.160941
     16          1           0        1.031667    0.417451   -1.257474
     17          8           0       -2.076915   -0.725453    1.196507
     18          1           0       -1.927129   -0.189329    1.984350
     19          8           0       -1.838975    1.236160   -0.432382
     20          1           0       -2.451575    1.180152   -1.175593
 ---------------------------------------------------------------------

 SCF Done:  E(RHF) =  -798.752692567     A.U. after    2 cycles

 The electronic state is 1-A.
 Alpha  occ. eigenvalues --  -84.45429 -20.59300 -20.59263 -20.57874 -20.50224
 Alpha  occ. eigenvalues --  -11.31449 -11.24067 -11.23824 -11.22380  -6.90289
 Alpha  occ. eigenvalues --   -4.44549  -4.43796  -4.43738  -1.55806  -1.47717
 Alpha  occ. eigenvalues --   -1.47150  -1.38760  -1.08770  -1.00114  -0.89203
 Alpha  occ. eigenvalues --   -0.85069  -0.80599  -0.76190  -0.72648  -0.65381
 Alpha  occ. eigenvalues --   -0.65019  -0.63818  -0.61383  -0.60597  -0.58438
 Alpha  occ. eigenvalues --   -0.57484  -0.56068  -0.54628  -0.53329  -0.52087
 Alpha  occ. eigenvalues --   -0.51722  -0.50005  -0.48740  -0.47537  -0.46123
 Alpha  occ. eigenvalues --   -0.45157
 Alpha virt. eigenvalues --    0.03237   0.03720   0.03762   0.04334   0.05554
 Alpha virt. eigenvalues --    0.06120   0.06642   0.06908   0.07575   0.09215
 Alpha virt. eigenvalues --    0.09803   0.10608   0.12283   0.13151   0.13723

 Mulliken charges:
               1
     1  O   -2.027153
     2  P    4.463154
     3  O   -1.378530
     4  C    0.088969
     5  C   -0.359631
     6  H    0.149657
     7  H    0.213393
     8  H    0.218671
     9  C   -0.187172
    10  C   -0.270174
    11  H    0.166682
    12  H    0.187038
    13  H    0.226478
    14  H    0.091970
    15  H    0.178252
    16  H    0.153951
    17  O   -1.246443
    18  H    0.315350
    19  O   -1.337572
    20  H    0.353108
 Sum of Mulliken charges =  -0.00000

 Dipole moment (field-independent basis, Debye):
    X=              1.3679    Y=              3.2334    Z=              1.4192  Tot=              3.7868

 Test job not archived.
 1\1\GINC-SE455\SP\RHF\Aug-CC-pVDZ\C4H11O4P1\OHZDE\08-Apr-2025\0\\#t hf
  aug-cc-pvdz iop(5/13=1,5/36=2,99/5=2) pseudo=read geom=check guess=(r
 ead,tcheck) scf=(maxcycle=1)\\title\\0,1\O,0,0.13444,0.143589,0.600204
 \P,0,-1.252845,-0.222927,-0.0705\O,0,-1.282672,-1.151312,-1.196582\C,0
 ,1.272948,0.610615,-0.207236\C,0,1.44009,2.102855,0.032832\H,0,0.53054
 3,2.638997,-0.241448\H,0,2.267837,2.490405,-0.567227\H,0,1.656196,2.29
 7568,1.086511\C,0,2.486884,-0.22124,0.191872\C,0,2.342132,-1.716076,-0
 .100438\H,0,2.679449,-0.058549,1.258339\H,0,3.349954,0.184248,-0.34832

 Normal termination of Gaussian 16 at Tue Apr  8 23:40:38 2025.
