 Gaussian 16, Revision C.01,

 ----------------------------------------------------------------------
 #t hf aug-cc-pvdz symm=none int=(grid=ultrafine) guess=(read,tcheck) s
 table=(opt,rrhf)
 ----------------------------------------------------------------------
 -----
 title
 -----
 Symbolic Z-matrix:
 Charge =  0 Multiplicity = 1

 SCF Done:  E(RHF) =  -699.942991506     A.U. after   16 cycles
 Normal termination of Gaussian 16 at Tue Apr  8 23:35:43 2025.
 Gaussian 16:  ES64L-G16RevC.01  3-Jul-2019

 ----------------------------------------------------------------------
 #t hf aug-cc-pvdz iop(5/13=1,5/36=2,99/5=2) pseudo=read geom=check gue
 ss=(read,tcheck) scf=(maxcycle=1)
 ----------------------------------------------------------------------
 -----
 title
 -----
 Structure from the checkpoint file:  "BDE49_nonexpt_1492_mol1.chk"
 Charge =  0 Multiplicity = 1

                         Standard orientation:
 ---------------------------------------------------------------------
 Center     Atomic      Atomic             Coordinates (Angstroms)
 Number     Number       Type             X           Y           Z
 ---------------------------------------------------------------------
      1          6           0       -1.054237   -0.783725   -0.086393
      2          6           0       -0.681458    0.671664   -0.383279
      3          6           0        0.814684    0.853504   -0.156951
      4         15           0        1.659364   -0.841671    0.028853
      5          7           0        0.076156   -1.566612    0.064318
      6          1           0       -0.077695   -2.563437    0.142119
      7          6           0       -1.545452    1.695022    0.356678
      8          1           0       -1.405027    1.614802    1.437134
      9          1           0       -2.597227    1.513160    0.134433
     10          1           0       -1.275080    2.705846    0.050222
     11          8           0        1.397217    1.900099   -0.082985
     12          8           0       -2.185665   -1.209151   -0.039815
     13          1           0       -0.833822    0.790655   -1.466401
     14          1           0        1.871658   -0.616040    1.421539
 ---------------------------------------------------------------------

 SCF Done:  E(RHF) =  -700.342718528     A.U. after    2 cycles

 The electronic state is 1-A.
 Alpha  occ. eigenvalues --  -84.33540 -20.57344 -20.53432 -15.54649 -11.38307
 Alpha  occ. eigenvalues --  -11.37333 -11.28366 -11.25043  -6.80309  -4.33111
 Alpha  occ. eigenvalues --   -4.32563  -4.31975  -1.50842  -1.48327  -1.25397
 Alpha  occ. eigenvalues --   -1.09953  -0.95635  -0.92721  -0.82522  -0.78475
 Alpha  occ. eigenvalues --   -0.71007  -0.68213  -0.66245  -0.64113  -0.63191
 Alpha  occ. eigenvalues --   -0.58963  -0.56904  -0.56076  -0.55453  -0.52564
 Alpha  occ. eigenvalues --   -0.47890  -0.44558  -0.41203  -0.36610
 Alpha virt. eigenvalues --    0.02966   0.04078   0.04515   0.04984   0.05803
 Alpha virt. eigenvalues --    0.06406   0.07383   0.07740   0.09205   0.10098
 Alpha virt. eigenvalues --    0.10902   0.11486   0.12143   0.13109   0.13826

 Mulliken charges:
               1
     1  C    0.507379
     2  C   -1.260849
     3  C    1.136927
     4  P    0.376286
     5  N    0.606401
     6  H   -0.036964
     7  C   -0.136527
     8  H    0.214574
     9  H    0.183036
    10  H    0.184491
    11  O   -1.293528
    12  O   -1.277566
    13  H    0.399327
    14  H    0.397013
 Sum of Mulliken charges =  -0.00000

 Dipole moment (field-independent basis, Debye):
    X=              1.3778    Y=             -1.0610    Z=              0.0343  Tot=              1.7393

 Test job not archived.
 1\1\GINC-SE345\SP\RHF\Aug-CC-pVDZ\C4H6N1O2P1\OHZDE\08-Apr-2025\0\\#t h
 f aug-cc-pvdz iop(5/13=1,5/36=2,99/5=2) pseudo=read geom=check guess=(
 read,tcheck) scf=(maxcycle=1)\\title\\0,1\C,0,-1.054237,-0.783725,-0.0
 86393\C,0,-0.681458,0.671664,-0.383279\C,0,0.814684,0.853504,-0.156951
 \P,0,1.659364,-0.841672,0.028853\N,0,0.076155,-1.566612,0.064318\H,0,-
 0.077696,-2.563437,0.142119\C,0,-1.545451,1.695023,0.356678\H,0,-1.405
 026,1.614803,1.437134\H,0,-2.597226,1.513161,0.134433\H,0,-1.275079,2.
 705847,0.050222\O,0,1.397218,1.900098,-0.082985\O,0,-2.185665,-1.20915

 Normal termination of Gaussian 16 at Tue Apr  8 23:35:48 2025.
