 Gaussian 16, Revision C.01,

 ----------------------------------------------------------------------
 #t hf aug-cc-pvdz symm=none int=(grid=ultrafine) guess=(read,tcheck) s
 table=(opt,rrhf)
 ----------------------------------------------------------------------
 -----
 title
 -----
 Symbolic Z-matrix:
 Charge =  0 Multiplicity = 1

 SCF Done:  E(RHF) =  -1075.17218760     A.U. after   12 cycles

 1\1\GINC-SE110\Stability\RHF\Aug-CC-pVDZ\C4H8Cl2\OHZDE\08-Apr-2025\0\\
 #t hf aug-cc-pvdz symm=none int=(grid=ultrafine) guess=(read,tcheck) s
 table=(opt,rrhf)\\title\\0,1\C,0,-1.983199,1.500726,-0.284886\H,0,-1.5
 39367,2.488904,-0.44285\H,0,-2.539505,1.517034,0.655226\H,0,-2.68422,1
 .306319,-1.097227\C,0,-0.882773,0.452661,-0.251961\C,0,0.108782,0.6614
 19,0.889105\H,0,-0.357967,0.412651,-1.205612\Cl,0,-1.648969,-1.216413,
 -0.103814\C,0,1.309035,-0.271408,0.902352\H,0,-0.416819,0.544988,1.843
 998\H,0,0.461563,1.697331,0.840081\Cl,0,2.403314,0.004131,-0.529139\H,

 Normal termination of Gaussian 16 at Tue Apr  8 22:31:01 2025.
 Gaussian 16:  ES64L-G16RevC.01  3-Jul-2019

 ----------------------------------------------------------------------
 #t hf aug-cc-pvdz iop(5/13=1,5/36=2,99/5=2) pseudo=read geom=check gue
 ss=(read,tcheck) scf=(maxcycle=1)
 ----------------------------------------------------------------------
 -----
 title
 -----
 Structure from the checkpoint file:  "BDE49_expt_1031_mol1.chk"
 Charge =  0 Multiplicity = 1

                         Standard orientation:
 ---------------------------------------------------------------------
 Center     Atomic      Atomic             Coordinates (Angstroms)
 Number     Number       Type             X           Y           Z
 ---------------------------------------------------------------------
      1          6           0       -1.983199    1.500726   -0.284886
      2          1           0       -1.539367    2.488904   -0.442850
      3          1           0       -2.539505    1.517034    0.655226
      4          1           0       -2.684220    1.306319   -1.097227
      5          6           0       -0.882773    0.452661   -0.251961
      6          6           0        0.108782    0.661419    0.889105
      7          1           0       -0.357967    0.412651   -1.205612
      8         17           0       -1.648969   -1.216413   -0.103814
      9          6           0        1.309035   -0.271408    0.902352
     10          1           0       -0.416819    0.544988    1.843998
     11          1           0        0.461563    1.697331    0.840081
     12         17           0        2.403314    0.004130   -0.529139
     13          1           0        1.013766   -1.317358    0.857927
     14          1           0        1.927617   -0.101456    1.780998
 ---------------------------------------------------------------------

 SCF Done:  E(RHF) =  -1075.49751319     A.U. after    2 cycles

 The electronic state is 1-A.
 Alpha  occ. eigenvalues -- -105.55723-105.55261 -11.31757 -11.31206 -11.26669
 Alpha  occ. eigenvalues --  -11.24959 -10.60524 -10.60070  -7.77457  -7.77103
 Alpha  occ. eigenvalues --   -7.77089  -7.76994  -7.76657  -7.76642  -1.15319
 Alpha  occ. eigenvalues --   -1.09334  -1.00358  -0.98096  -0.87520  -0.80156
 Alpha  occ. eigenvalues --   -0.67982  -0.65737  -0.62771  -0.60398  -0.57654
 Alpha  occ. eigenvalues --   -0.54553  -0.53806  -0.51880  -0.50078  -0.45281
 Alpha  occ. eigenvalues --   -0.45043  -0.44244  -0.43958
 Alpha virt. eigenvalues --    0.03407   0.03620   0.04525   0.04819   0.06299
 Alpha virt. eigenvalues --    0.06626   0.07321   0.07845   0.10492   0.10924
 Alpha virt. eigenvalues --    0.11745   0.13540   0.14135   0.15352   0.15754

 Mulliken charges:
               1
     1  C   -0.199677
     2  H    0.204580
     3  H    0.226099
     4  H    0.138036
     5  C   -0.674361
     6  C   -0.092124
     7  H    0.204882
     8  Cl  -0.129354
     9  C   -0.435707
    10  H    0.188740
    11  H    0.165588
    12  Cl  -0.082667
    13  H    0.274961
    14  H    0.211003
 Sum of Mulliken charges =  -0.00000

 Dipole moment (field-independent basis, Debye):
    X=             -0.6002    Y=              2.0552    Z=              1.6177  Tot=              2.6835

 Test job not archived.
 1\1\GINC-SE110\SP\RHF\Aug-CC-pVDZ\C4H8Cl2\OHZDE\08-Apr-2025\0\\#t hf a
 ug-cc-pvdz iop(5/13=1,5/36=2,99/5=2) pseudo=read geom=check guess=(rea
 d,tcheck) scf=(maxcycle=1)\\title\\0,1\C,0,-1.983199,1.500726,-0.28488
 6\H,0,-1.539367,2.488904,-0.44285\H,0,-2.539505,1.517034,0.655226\H,0,
 -2.68422,1.306319,-1.097227\C,0,-0.882773,0.452661,-0.251961\C,0,0.108
 782,0.661419,0.889105\H,0,-0.357967,0.412651,-1.205612\Cl,0,-1.648969,
 -1.216413,-0.103814\C,0,1.309035,-0.271408,0.902352\H,0,-0.416819,0.54
 4988,1.843998\H,0,0.461563,1.697331,0.840081\Cl,0,2.403314,0.004131,-0

 Normal termination of Gaussian 16 at Tue Apr  8 22:31:06 2025.
