 Gaussian 16, Revision C.01,

 ----------------------------------------------------------------------
 #t hf aug-cc-pvdz symm=none int=(grid=ultrafine) guess=(read,tcheck) s
 table=(opt,rrhf)
 ----------------------------------------------------------------------
 -----
 title
 -----
 Symbolic Z-matrix:
 Charge =  0 Multiplicity = 1

 SCF Done:  E(RHF) =  -1014.69959934     A.U. after   15 cycles
 Normal termination of Gaussian 16 at Tue Apr  8 23:50:30 2025.
 Gaussian 16:  ES64L-G16RevC.01  3-Jul-2019

 ----------------------------------------------------------------------
 #t hf aug-cc-pvdz iop(5/13=1,5/36=2,99/5=2) pseudo=read geom=check gue
 ss=(read,tcheck) scf=(maxcycle=1)
 ----------------------------------------------------------------------
 -----
 title
 -----
 Structure from the checkpoint file:  "BDE49_nonexpt_1873_mol1.chk"
 Charge =  0 Multiplicity = 1

                         Standard orientation:
 ---------------------------------------------------------------------
 Center     Atomic      Atomic             Coordinates (Angstroms)
 Number     Number       Type             X           Y           Z
 ---------------------------------------------------------------------
      1          6           0       -0.180766   -0.820878    0.813060
      2         14           0        1.156127   -0.992193   -0.534852
      3          6           0       -1.508731   -0.411136    0.278842
      4          8           0       -2.496383   -1.046535    0.171417
      5         17           0       -1.482568    1.344752   -0.314280
      6          6           0        2.414754    0.439724   -0.213856
      7          1           0        0.603098   -0.923216   -1.903425
      8          1           0        1.882023   -2.271649   -0.359081
      9          8           0        2.381054    1.060837    0.823949
     10          1           0        3.195241    0.677747   -0.974026
     11          1           0        0.214521   -0.051765    1.484263
     12          1           0       -0.305903   -1.761881    1.351747
 ---------------------------------------------------------------------

 SCF Done:  E(RHF) =  -1015.06830460     A.U. after    2 cycles

 The electronic state is 1-A.
 Alpha  occ. eigenvalues -- -105.57547 -69.57349 -20.59065 -20.57906 -11.43152
 Alpha  occ. eigenvalues --  -11.35243 -11.27604 -10.62379  -7.79289  -7.78947
 Alpha  occ. eigenvalues --   -7.78926  -6.24416  -3.99774  -3.99760  -3.99749
 Alpha  occ. eigenvalues --   -1.54141  -1.49991  -1.10438  -1.02615  -0.88093
 Alpha  occ. eigenvalues --   -0.79496  -0.74832  -0.69202  -0.68644  -0.67598
 Alpha  occ. eigenvalues --   -0.63968  -0.60556  -0.58454  -0.55722  -0.51534
 Alpha  occ. eigenvalues --   -0.50004  -0.47733  -0.47347  -0.45115  -0.41211
 Alpha virt. eigenvalues --    0.02667   0.03381   0.04284   0.04903   0.06404
 Alpha virt. eigenvalues --    0.06859   0.07170   0.07602   0.08906   0.09869
 Alpha virt. eigenvalues --    0.10751   0.11638   0.12168   0.13330   0.13646

 Mulliken charges:
               1
     1  C   -0.629138
     2  Si   1.232984
     3  C    0.941338
     4  O   -1.086901
     5  Cl  -0.154215
     6  C    0.396400
     7  H   -0.099994
     8  H   -0.145298
     9  O   -0.899136
    10  H    0.027320
    11  H    0.311745
    12  H    0.104895
 Sum of Mulliken charges =  -0.00000

 Dipole moment (field-independent basis, Debye):
    X=              2.7367    Y=             -2.1065    Z=             -0.8159  Tot=              3.5486

 Test job not archived.
 1\1\GINC-SE366\SP\RHF\Aug-CC-pVDZ\C3H5Cl1O2Si1\OHZDE\08-Apr-2025\0\\#t
  hf aug-cc-pvdz iop(5/13=1,5/36=2,99/5=2) pseudo=read geom=check guess
 =(read,tcheck) scf=(maxcycle=1)\\title\\0,1\C,0,-0.180766,-0.820878,0.
 81306\Si,0,1.156127,-0.992193,-0.534852\C,0,-1.508731,-0.411136,0.2788
 42\O,0,-2.496383,-1.046535,0.171417\Cl,0,-1.482568,1.344752,-0.31428\C
 ,0,2.414754,0.439724,-0.213856\H,0,0.603098,-0.923216,-1.903425\H,0,1.
 882023,-2.271649,-0.359081\O,0,2.381054,1.060837,0.823949\H,0,3.195241
 ,0.677747,-0.974026\H,0,0.214521,-0.051765,1.484263\H,0,-0.305903,-1.7

 Normal termination of Gaussian 16 at Tue Apr  8 23:50:34 2025.
