 Gaussian 16, Revision C.01,

 ----------------------------------------------------------------------
 #t hf aug-cc-pvdz symm=none int=(grid=ultrafine) guess=(read,tcheck) s
 table=opt
 ----------------------------------------------------------------------
 -----
 title
 -----
 Symbolic Z-matrix:
 Charge =  0 Multiplicity = 2

 SCF Done:  E(UHF) =  -573.365682927     A.U. after   19 cycles
 Normal termination of Gaussian 16 at Tue Apr  8 23:16:47 2025.
 Gaussian 16:  ES64L-G16RevC.01  3-Jul-2019

 ----------------------------------------------------------------------
 #t hf aug-cc-pvdz iop(5/13=1,5/36=2,99/5=2) pseudo=read geom=check gue
 ss=(read,tcheck) scf=(maxcycle=1)
 ----------------------------------------------------------------------
 -----
 title
 -----
 Structure from the checkpoint file:  "BDE49_nonexpt_1024_mol2.chk"
 Charge =  0 Multiplicity = 2

                         Standard orientation:
 ---------------------------------------------------------------------
 Center     Atomic      Atomic             Coordinates (Angstroms)
 Number     Number       Type             X           Y           Z
 ---------------------------------------------------------------------
      1          8           0       -1.606850   -0.432950   -0.000034
      2          6           0       -0.678526    0.485888   -0.000007
      3         17           0        1.085457   -0.100819    0.000018
      4          1           0       -0.763408    1.131081    0.891137
      5          1           0       -0.763398    1.131114   -0.891125
 ---------------------------------------------------------------------

 SCF Done:  E(UHF) =  -573.551078376     A.U. after    2 cycles

 The electronic state is 2-A.
 Alpha  occ. eigenvalues -- -105.56016 -20.66264 -11.38357 -10.60848  -7.77744
 Alpha  occ. eigenvalues --   -7.77408  -7.77403  -1.56800  -1.07694  -0.90891
 Alpha  occ. eigenvalues --   -0.77370  -0.70800  -0.65904  -0.57630  -0.49559
 Alpha  occ. eigenvalues --   -0.46463  -0.45310
 Alpha virt. eigenvalues --    0.03280   0.04994   0.07812   0.08825   0.12955
 Alpha virt. eigenvalues --    0.14738   0.14890   0.16453   0.16539   0.20278
 Alpha virt. eigenvalues --    0.21276   0.23869   0.27087   0.28671   0.29377

  Beta  occ. eigenvalues -- -105.56037 -20.62261 -11.38714 -10.60872  -7.77805
  Beta  occ. eigenvalues --   -7.77431  -7.77419  -1.44049  -1.06920  -0.88557
  Beta  occ. eigenvalues --   -0.67409  -0.66740  -0.63690  -0.46985  -0.46232
  Beta  occ. eigenvalues --   -0.45739
  Beta virt. eigenvalues --    0.03303   0.04730   0.05267   0.07865   0.08927
  Beta virt. eigenvalues --    0.12937   0.14769   0.15490   0.16478   0.16632
  Beta virt. eigenvalues --    0.20404   0.21162   0.27385   0.28462   0.28858

 Mulliken charges and spin densities:
               1          2
     1  O   -0.649214   1.038316
     2  C    0.301840  -0.176453
     3  Cl  -0.142165  -0.011986
     4  H    0.244774   0.075063
     5  H    0.244766   0.075061
 Sum of Mulliken charges =  -0.00000   1.00000

 Dipole moment (field-independent basis, Debye):
    X=             -1.3556    Y=              1.9319    Z=              0.0000  Tot=              2.3600
                          Isotropic Fermi Contact Couplings
        Atom                 a.u.       MegaHertz       Gauss      10(-4) cm-1
     1  O(17)              0.25656    -155.52539     -55.49533     -51.87769
     2  C(13)             -0.06676     -75.05595     -26.78183     -25.03597
     3  Cl(35)            -0.01784      -7.82088      -2.79069      -2.60877
     4  H(1)               0.03200     143.04999      51.04379      47.71634
     5  H(1)               0.03200     143.04699      51.04272      47.71534
 --------------------------------------------------------
       Center         ----  Spin Dipole Couplings  ----
                      3XX-RR        3YY-RR        3ZZ-RR

 Normal termination of Gaussian 16 at Tue Apr  8 23:16:49 2025.
