 Gaussian 16, Revision C.01,

 ----------------------------------------------------------------------
 #t hf aug-cc-pvdz symm=none int=(grid=ultrafine) guess=(read,tcheck) s
 table=(opt,rrhf)
 ----------------------------------------------------------------------
 -----
 title
 -----
 Symbolic Z-matrix:
 Charge =  0 Multiplicity = 1

 SCF Done:  E(RHF) =  -104.481485216     A.U. after   12 cycles
 Normal termination of Gaussian 16 at Wed Apr  9 00:28:41 2025.
 Gaussian 16:  ES64L-G16RevC.01  3-Jul-2019

 ----------------------------------------------------------------------
 #t hf aug-cc-pvdz iop(5/13=1,5/36=2,99/5=2) pseudo=read geom=check gue
 ss=(read,tcheck) scf=(maxcycle=1)
 ----------------------------------------------------------------------
 -----
 title
 -----
 Structure from the checkpoint file:  "BDE49_nonexpt_307_mol1.chk"
 Charge =  0 Multiplicity = 1

                         Standard orientation:
 ---------------------------------------------------------------------
 Center     Atomic      Atomic             Coordinates (Angstroms)
 Number     Number       Type             X           Y           Z
 ---------------------------------------------------------------------
      1          5           0        1.364066   -0.277066   -0.000001
      2          6           0        0.097664    0.633476   -0.000010
      3          6           0       -1.133199   -0.323351    0.000009
      4          1           0        0.035275    1.273055   -0.886024
      5          1           0        0.035280    1.273082    0.885986
      6          1           0       -1.145095   -0.967409   -0.883534
      7          1           0       -2.061098    0.253782    0.000004
      8          1           0       -1.145089   -0.967384    0.883570
      9          1           0        1.836797   -0.670292   -1.025091
     10          1           0        1.836813   -0.670251    1.025098
 ---------------------------------------------------------------------

 SCF Done:  E(RHF) =  -104.601465408     A.U. after    2 cycles

 The electronic state is 1-A.
 Alpha  occ. eigenvalues --  -11.23601 -11.20880  -7.59013  -1.02645  -0.85151
 Alpha  occ. eigenvalues --   -0.68543  -0.61756  -0.57627  -0.51734  -0.51378
 Alpha  occ. eigenvalues --   -0.45951  -0.45567
 Alpha virt. eigenvalues --    0.03372   0.03847   0.03977   0.04342   0.06714
 Alpha virt. eigenvalues --    0.07009   0.07228   0.08109   0.09362   0.10852
 Alpha virt. eigenvalues --    0.12796   0.13393   0.14749   0.16078   0.17489

 Mulliken charges:
               1
     1  B   -0.371797
     2  C   -0.140090
     3  C   -0.584120
     4  H    0.093515
     5  H    0.093516
     6  H    0.134475
     7  H    0.104114
     8  H    0.134474
     9  H    0.267958
    10  H    0.267956
 Sum of Mulliken charges =  -0.00000

 Dipole moment (field-independent basis, Debye):
    X=             -0.5384    Y=              0.3235    Z=             -0.0000  Tot=              0.6281

 Test job not archived.
 1\1\GINC-SE186\SP\RHF\Aug-CC-pVDZ\C2H7B1\OHZDE\09-Apr-2025\0\\#t hf au
 g-cc-pvdz iop(5/13=1,5/36=2,99/5=2) pseudo=read geom=check guess=(read
 ,tcheck) scf=(maxcycle=1)\\title\\0,1\B,0,1.364066,-0.277066,-0.000001
 \C,0,0.097664,0.633476,-0.00001\C,0,-1.133199,-0.323351,0.000009\H,0,0
 .035275,1.273055,-0.886024\H,0,0.03528,1.273082,0.885986\H,0,-1.145095
 ,-0.967409,-0.883534\H,0,-2.061098,0.253782,0.000004\H,0,-1.145089,-0.
 967384,0.88357\H,0,1.836797,-0.670292,-1.025091\H,0,1.836813,-0.670251
 ,1.025098\\Version=ES64L-G16RevC.01\State=1-A\HF=-104.6014654\RMSD=8.6

 Normal termination of Gaussian 16 at Wed Apr  9 00:28:43 2025.
