 Gaussian 16, Revision C.01,

 ----------------------------------------------------------------------
 #t hf aug-cc-pvdz symm=none int=(grid=ultrafine) guess=(read,tcheck) s
 table=(opt,rrhf)
 ----------------------------------------------------------------------
 -----
 title
 -----
 Symbolic Z-matrix:
 Charge =  0 Multiplicity = 1

 SCF Done:  E(RHF) =  -1391.26557401     A.U. after   19 cycles

 1\1\GINC-SE461\Stability\RHF\Aug-CC-pVDZ\Cl2O1S1\OHZDE\08-Apr-2025\0\\
 #t hf aug-cc-pvdz symm=none int=(grid=ultrafine) guess=(read,tcheck) s
 table=(opt,rrhf)\\title\\0,1\O,0,-0.615361,0.68038,0.626933\S,0,0.5952
 44,0.889597,-0.256139\Cl,0,1.90377,-0.691024,0.050935\Cl,0,-2.174417,-
 0.466423,-0.104891\\Version=ES64L-G16RevC.01\HF=-1391.265574\RMSD=3.80
 2e-09\Dipole=0.4905398,0.4167333,-0.2642431\Quadrupole=-0.7877263,1.39
 45016,-0.6067753,0.477589,0.2120774,-0.6208916\PG=Unknown\\@
 The archive entry for this job was punched.

 Normal termination of Gaussian 16 at Tue Apr  8 23:21:52 2025.
 Gaussian 16:  ES64L-G16RevC.01  3-Jul-2019

 ----------------------------------------------------------------------
 #t hf aug-cc-pvdz iop(5/13=1,5/36=2,99/5=2) pseudo=read geom=check gue
 ss=(read,tcheck) scf=(maxcycle=1)
 ----------------------------------------------------------------------
 -----
 title
 -----
 Structure from the checkpoint file:  "BDE49_nonexpt_1207_mol1.chk"
 Charge =  0 Multiplicity = 1

                         Standard orientation:
 ---------------------------------------------------------------------
 Center     Atomic      Atomic             Coordinates (Angstroms)
 Number     Number       Type             X           Y           Z
 ---------------------------------------------------------------------
      1          8           0       -0.615361    0.680380    0.626933
      2         16           0        0.595244    0.889597   -0.256139
      3         17           0        1.903770   -0.691024    0.050935
      4         17           0       -2.174417   -0.466423   -0.104891
 ---------------------------------------------------------------------

 SCF Done:  E(RHF) =  -1391.54242671     A.U. after    2 cycles

 The electronic state is 1-A.
 Alpha  occ. eigenvalues -- -105.61335-105.61142 -94.11948 -20.71428 -10.66121
 Alpha  occ. eigenvalues --  -10.65339  -8.39119  -7.83042  -7.82598  -7.82565
 Alpha  occ. eigenvalues --   -7.82236  -7.81772  -7.81761  -6.36918  -6.36609
 Alpha  occ. eigenvalues --   -6.36318  -1.57027  -1.13265  -1.03164  -0.93059
 Alpha  occ. eigenvalues --   -0.70027  -0.67902  -0.64816  -0.52755  -0.52366
 Alpha  occ. eigenvalues --   -0.50682  -0.48479  -0.47712  -0.38492
 Alpha virt. eigenvalues --   -0.05345   0.03436   0.07668   0.09317   0.10227
 Alpha virt. eigenvalues --    0.10418   0.13094   0.14459   0.14861   0.15008
 Alpha virt. eigenvalues --    0.15590   0.17322   0.20326   0.24279   0.25060

 Mulliken charges:
               1
     1  O   -0.815148
     2  S    1.119110
     3  Cl  -0.256614
     4  Cl  -0.047348
 Sum of Mulliken charges =  -0.00000

 Dipole moment (field-independent basis, Debye):
    X=              1.3365    Y=              1.1973    Z=             -0.4968  Tot=              1.8619

 Test job not archived.
 1\1\GINC-SE461\SP\RHF\Aug-CC-pVDZ\Cl2O1S1\OHZDE\08-Apr-2025\0\\#t hf a
 ug-cc-pvdz iop(5/13=1,5/36=2,99/5=2) pseudo=read geom=check guess=(rea
 d,tcheck) scf=(maxcycle=1)\\title\\0,1\O,0,-0.615361,0.68038,0.626933\
 S,0,0.595244,0.889597,-0.256139\Cl,0,1.90377,-0.691024,0.050935\Cl,0,-
 2.174417,-0.466423,-0.104891\\Version=ES64L-G16RevC.01\State=1-A\HF=-1
 391.5424267\RMSD=3.894e-03\Dipole=0.5258222,0.4710682,-0.1954604\Quadr
 upole=-1.0793228,1.5263424,-0.4470196,0.2619763,0.1147641,-0.5636436\P
 G=C01 [X(Cl2O1S1)]\\@

 Normal termination of Gaussian 16 at Tue Apr  8 23:21:53 2025.
