 Gaussian 16, Revision C.01,

 ----------------------------------------------------------------------
 #t hf aug-cc-pvdz symm=none int=(grid=ultrafine) guess=(read,tcheck) s
 table=(opt,rrhf)
 ----------------------------------------------------------------------
 -----
 title
 -----
 Symbolic Z-matrix:
 Charge =  0 Multiplicity = 1

 SCF Done:  E(RHF) =  -672.613327646     A.U. after   15 cycles
 Normal termination of Gaussian 16 at Wed Apr  9 00:05:59 2025.
 Gaussian 16:  ES64L-G16RevC.01  3-Jul-2019

 ----------------------------------------------------------------------
 #t hf aug-cc-pvdz iop(5/13=1,5/36=2,99/5=2) pseudo=read geom=check gue
 ss=(read,tcheck) scf=(maxcycle=1)
 ----------------------------------------------------------------------
 -----
 title
 -----
 Structure from the checkpoint file:  "BDE49_nonexpt_2202_mol1.chk"
 Charge =  0 Multiplicity = 1

                         Standard orientation:
 ---------------------------------------------------------------------
 Center     Atomic      Atomic             Coordinates (Angstroms)
 Number     Number       Type             X           Y           Z
 ---------------------------------------------------------------------
      1          6           0       -1.977198    1.870606    0.001610
      2          6           0       -2.129789    0.491074   -0.057211
      3          6           0       -1.029045   -0.377494   -0.068110
      4          6           0       -0.698047    2.420933    0.042145
      5          6           0        0.416009    1.588126    0.020163
      6          6           0        0.256462    0.202761   -0.035410
      7          1           0       -0.562778    3.495578    0.083560
      8          1           0        1.411950    2.016833    0.046668
      9          8           0        1.332184   -0.644660   -0.055603
     10         14           0        2.964358   -0.348467    0.037225
     11          1           0       -3.126419    0.069323   -0.114440
     12          1           0       -2.849565    2.513388    0.005545
     13          6           0       -1.168836   -1.840327   -0.125142
     14          6           0       -2.270334   -2.543346    0.151180
     15          1           0       -0.268097   -2.374148   -0.406957
     16          1           0       -3.195822   -2.081751    0.478062
     17          1           0       -2.273627   -3.623490    0.067595
     18          1           0        3.590992   -1.680710   -0.010331
     19          1           0        3.301067    0.345693    1.300669
     20          1           0        3.418481    0.481101   -1.102055
 ---------------------------------------------------------------------

 SCF Done:  E(RHF) =  -673.037350302     A.U. after    2 cycles

 The electronic state is 1-A.
 Alpha  occ. eigenvalues --  -69.57125 -20.56426 -11.31714 -11.25151 -11.24874
 Alpha  occ. eigenvalues --  -11.24796 -11.24511 -11.24391 -11.23944 -11.23458
 Alpha  occ. eigenvalues --   -6.23711  -3.99217  -3.99065  -3.99041  -1.48084
 Alpha  occ. eigenvalues --   -1.15939  -1.07393  -1.01569  -0.99396  -0.87250
 Alpha  occ. eigenvalues --   -0.85112  -0.77681  -0.76790  -0.70795  -0.68048
 Alpha  occ. eigenvalues --   -0.65580  -0.62989  -0.61990  -0.61074  -0.59515
 Alpha  occ. eigenvalues --   -0.56239  -0.54677  -0.51531  -0.51243  -0.50536
 Alpha  occ. eigenvalues --   -0.47324  -0.47105  -0.41680  -0.33942  -0.30879
 Alpha virt. eigenvalues --    0.03189   0.03457   0.03812   0.04526   0.04946
 Alpha virt. eigenvalues --    0.05616   0.06158   0.06480   0.07301   0.08153
 Alpha virt. eigenvalues --    0.08926   0.09152   0.09430   0.11399   0.11735

 Mulliken charges:
               1
     1  C   -0.159917
     2  C    0.418118
     3  C    1.346410
     4  C   -0.148265
     5  C    0.360903
     6  C    1.108269
     7  H   -0.227294
     8  H   -0.346183
     9  O   -2.394031
    10  Si   1.170388
    11  H   -0.260283
    12  H   -0.233957
    13  C    0.456977
    14  C   -0.161098
    15  H   -0.284493
    16  H   -0.143678
    17  H   -0.159793
    18  H   -0.133283
    19  H   -0.090995
    20  H   -0.117795
 Sum of Mulliken charges =   0.00000

 Dipole moment (field-independent basis, Debye):
    X=              0.5413    Y=              0.7404    Z=              0.0531  Tot=              0.9187

 Test job not archived.
 1\1\GINC-SE367\SP\RHF\Aug-CC-pVDZ\C8H10O1Si1\OHZDE\09-Apr-2025\0\\#t h
 f aug-cc-pvdz iop(5/13=1,5/36=2,99/5=2) pseudo=read geom=check guess=(
 read,tcheck) scf=(maxcycle=1)\\title\\0,1\C,0,-1.977198,1.870606,0.001
 61\C,0,-2.129789,0.491074,-0.057211\C,0,-1.029045,-0.377494,-0.06811\C
 ,0,-0.698047,2.420933,0.042145\C,0,0.416009,1.588126,0.020163\C,0,0.25
 6462,0.202761,-0.03541\H,0,-0.562778,3.495578,0.08356\H,0,1.41195,2.01
 6833,0.046668\O,0,1.332184,-0.64466,-0.055603\Si,0,2.964358,-0.348467,
 0.037225\H,0,-3.126419,0.069323,-0.11444\H,0,-2.849565,2.513388,0.0055

 Normal termination of Gaussian 16 at Wed Apr  9 00:06:10 2025.
