 Gaussian 16, Revision C.01,

 ----------------------------------------------------------------------
 #t hf aug-cc-pvdz symm=none int=(grid=ultrafine) guess=(read,tcheck) s
 table=(opt,rrhf)
 ----------------------------------------------------------------------
 -----
 title
 -----
 Symbolic Z-matrix:
 Charge =  0 Multiplicity = 1

 SCF Done:  E(RHF) =  -463.770168640     A.U. after   15 cycles
 Normal termination of Gaussian 16 at Wed Apr  9 00:55:09 2025.
 Gaussian 16:  ES64L-G16RevC.01  3-Jul-2019

 ----------------------------------------------------------------------
 #t hf aug-cc-pvdz iop(5/13=1,5/36=2,99/5=2) pseudo=read geom=check gue
 ss=(read,tcheck) scf=(maxcycle=1)
 ----------------------------------------------------------------------
 -----
 title
 -----
 Structure from the checkpoint file:  "BDE49_nonexpt_971_mol1.chk"
 Charge =  0 Multiplicity = 1

                         Standard orientation:
 ---------------------------------------------------------------------
 Center     Atomic      Atomic             Coordinates (Angstroms)
 Number     Number       Type             X           Y           Z
 ---------------------------------------------------------------------
      1          9           0        0.928099    2.122546   -0.000000
      2          7           0       -0.087181    1.050485   -0.000000
      3          6           0        0.074033    0.341820    1.220339
      4          6           0        0.074033   -0.995370    1.231997
      5          6           0       -0.011575   -1.849564    0.000000
      6          6           0        0.117452    1.208740    2.444551
      7          6           0       -1.293781   -2.714859    0.000000
      8          1           0        0.070518   -1.499428    2.193505
      9          1           0        1.026938    1.812259    2.460766
     10          1           0       -0.730739    1.899149    2.452272
     11          1           0        0.086245    0.594529    3.345046
     12          1           0       -1.328530   -3.356955    0.885096
     13          1           0       -1.328530   -3.356955   -0.885096
     14          6           0        0.074033   -0.995370   -1.231997
     15          6           0        0.074033    0.341820   -1.220339
     16          6           0        0.117452    1.208740   -2.444551
     17          1           0        1.026938    1.812259   -2.460766
     18          1           0       -0.730739    1.899149   -2.452272
     19          1           0        0.086245    0.594529   -3.345046
     20          1           0        0.070518   -1.499428   -2.193505
     21          1           0       -2.183963   -2.081104    0.000000
     22          1           0        0.838391   -2.550058    0.000000
 ---------------------------------------------------------------------

 SCF Done:  E(RHF) =  -464.246143216     A.U. after    2 cycles

 The electronic state is 1-A'.
 Alpha  occ. eigenvalues --  -26.45564 -15.60511 -11.28253 -11.28243 -11.25456
 Alpha  occ. eigenvalues --  -11.23998 -11.23986 -11.23495 -11.23492 -11.23397
 Alpha  occ. eigenvalues --   -1.55487  -1.23909  -1.09449  -1.08609  -1.00041
 Alpha  occ. eigenvalues --   -0.94919  -0.94025  -0.84107  -0.83917  -0.71798
 Alpha  occ. eigenvalues --   -0.70287  -0.67730  -0.65320  -0.62260  -0.61009
 Alpha  occ. eigenvalues --   -0.60508  -0.58916  -0.57484  -0.56850  -0.56521
 Alpha  occ. eigenvalues --   -0.55596  -0.54281  -0.53577  -0.51214  -0.48960
 Alpha  occ. eigenvalues --   -0.48535  -0.37269  -0.34044
 Alpha virt. eigenvalues --    0.03362   0.03552   0.03837   0.04221   0.04660
 Alpha virt. eigenvalues --    0.05284   0.05838   0.06454   0.06632   0.08026
 Alpha virt. eigenvalues --    0.08572   0.09516   0.11605   0.11995   0.12238

 Mulliken charges:
               1
     1  F   -0.735619
     2  N    1.471725
     3  C   -0.370415
     4  C    0.989156
     5  C   -1.987890
     6  C   -0.666463
     7  C   -0.256258
     8  H   -0.261580
     9  H    0.299627
    10  H    0.256863
    11  H    0.127846
    12  H    0.131586
    13  H    0.131586
    14  C    0.989156
    15  C   -0.370415
    16  C   -0.666463
    17  H    0.299627
    18  H    0.256863
    19  H    0.127846
    20  H   -0.261580
    21  H    0.242693
    22  H    0.252110
 Sum of Mulliken charges =   0.00000

 Dipole moment (field-independent basis, Debye):
    X=             -0.2981    Y=             -2.0665    Z=             -0.0000  Tot=              2.0879

 Test job not archived.
 1\1\GINC-SE090\SP\RHF\Aug-CC-pVDZ\C8H12F1N1\OHZDE\09-Apr-2025\0\\#t hf
  aug-cc-pvdz iop(5/13=1,5/36=2,99/5=2) pseudo=read geom=check guess=(r
 ead,tcheck) scf=(maxcycle=1)\\title\\0,1\F,0,0.928099,2.122546,0.\N,0,
 -0.087181,1.050485,0.\C,0,0.074033,0.34182,1.220339\C,0,0.074033,-0.99
 537,1.231997\C,0,-0.011575,-1.849564,0.\C,0,0.117452,1.20874,2.444551\
 C,0,-1.293781,-2.714859,0.\H,0,0.070518,-1.499428,2.193505\H,0,1.02693
 8,1.812259,2.460766\H,0,-0.730739,1.899149,2.452272\H,0,0.086245,0.594
 529,3.345046\H,0,-1.32853,-3.356955,0.885096\H,0,-1.32853,-3.356955,-0

 Normal termination of Gaussian 16 at Wed Apr  9 00:55:17 2025.
