 Gaussian 16, Revision C.01,

 ----------------------------------------------------------------------
 #t hf aug-cc-pvdz symm=none int=(grid=ultrafine) guess=(read,tcheck) s
 table=(opt,rrhf)
 ----------------------------------------------------------------------
 -----
 title
 -----
 Symbolic Z-matrix:
 Charge =  0 Multiplicity = 1

 SCF Done:  E(RHF) =  -515.723872107     A.U. after   14 cycles
 Normal termination of Gaussian 16 at Wed Apr  9 00:35:46 2025.
 Gaussian 16:  ES64L-G16RevC.01  3-Jul-2019

 ----------------------------------------------------------------------
 #t hf aug-cc-pvdz iop(5/13=1,5/36=2,99/5=2) pseudo=read geom=check gue
 ss=(read,tcheck) scf=(maxcycle=1)
 ----------------------------------------------------------------------
 -----
 title
 -----
 Structure from the checkpoint file:  "BDE49_nonexpt_495_mol1.chk"
 Charge =  0 Multiplicity = 1

                         Standard orientation:
 ---------------------------------------------------------------------
 Center     Atomic      Atomic             Coordinates (Angstroms)
 Number     Number       Type             X           Y           Z
 ---------------------------------------------------------------------
      1          1           0        3.103380    1.042205    0.000014
      2          1           0        3.103440   -1.042127    0.000014
      3          5           0        2.529077    0.000023   -0.000014
      4          7           0        1.123406   -0.000019   -0.000007
      5          6           0       -0.069927   -0.000045   -0.000001
      6         16           0       -1.643530    0.000013    0.000006
 ---------------------------------------------------------------------

 SCF Done:  E(RHF) =  -515.896138452     A.U. after    2 cycles

 The electronic state is 1-A.
 Alpha  occ. eigenvalues --  -93.96270 -15.54998 -11.40332  -8.24556  -7.65563
 Alpha  occ. eigenvalues --   -6.22447  -6.22029  -6.21978  -1.29947  -1.08856
 Alpha  occ. eigenvalues --   -0.92154  -0.64473  -0.63970  -0.62147  -0.61669
 Alpha  occ. eigenvalues --   -0.51489  -0.40431  -0.38490
 Alpha virt. eigenvalues --    0.02047   0.04322   0.04743   0.04845   0.06271
 Alpha virt. eigenvalues --    0.07379   0.08486   0.09589   0.11778   0.12039
 Alpha virt. eigenvalues --    0.14597   0.14842   0.15303   0.15690   0.17574

 Mulliken charges:
               1
     1  H    0.172427
     2  H    0.172422
     3  B   -0.411855
     4  N    0.674009
     5  C   -0.961988
     6  S    0.354987
 Sum of Mulliken charges =  -0.00000

 Dipole moment (field-independent basis, Debye):
    X=              1.1850    Y=             -0.0000    Z=             -0.0000  Tot=              1.1850

 Test job not archived.
 1\1\GINC-SE368\SP\RHF\Aug-CC-pVDZ\C1H2B1N1S1\OHZDE\09-Apr-2025\0\\#t h
 f aug-cc-pvdz iop(5/13=1,5/36=2,99/5=2) pseudo=read geom=check guess=(
 read,tcheck) scf=(maxcycle=1)\\title\\0,1\H,0,3.10338,1.042205,0.00001
 4\H,0,3.10344,-1.042127,0.000014\B,0,2.529077,0.000023,-0.000014\N,0,1
 .123406,-0.000019,-0.000007\C,0,-0.069927,-0.000045,-0.000001\S,0,-1.6
 4353,0.000013,0.000006\\Version=ES64L-G16RevC.01\State=1-A\HF=-515.896
 1385\RMSD=1.723e-02\Dipole=0.4662218,-0.0000002,-0.0000187\Quadrupole=
 1.1882211,-1.2955194,0.1072983,-0.0000427,-0.0000985,0.\PG=C01 [X(C1H2

 Normal termination of Gaussian 16 at Wed Apr  9 00:35:47 2025.
