 Gaussian 16, Revision C.01,

 ----------------------------------------------------------------------
 #t hf aug-cc-pvdz symm=none int=(grid=ultrafine) guess=(read,tcheck) s
 table=(opt,rrhf)
 ----------------------------------------------------------------------
 -----
 title
 -----
 Symbolic Z-matrix:
 Charge =  0 Multiplicity = 1

 SCF Done:  E(RHF) =  -233.331945331     A.U. after   13 cycles
 Normal termination of Gaussian 16 at Wed Apr  9 00:37:24 2025.
 Gaussian 16:  ES64L-G16RevC.01  3-Jul-2019

 ----------------------------------------------------------------------
 #t hf aug-cc-pvdz iop(5/13=1,5/36=2,99/5=2) pseudo=read geom=check gue
 ss=(read,tcheck) scf=(maxcycle=1)
 ----------------------------------------------------------------------
 -----
 title
 -----
 Structure from the checkpoint file:  "BDE49_nonexpt_560_mol1.chk"
 Charge =  0 Multiplicity = 1

                         Standard orientation:
 ---------------------------------------------------------------------
 Center     Atomic      Atomic             Coordinates (Angstroms)
 Number     Number       Type             X           Y           Z
 ---------------------------------------------------------------------
      1          7           0        0.016158   -0.217751   -0.000002
      2          5           0       -1.235756    0.438912   -0.000005
      3          8           0       -2.365253   -0.334607    0.000002
      4          6           0        1.268903    0.391810    0.000000
      5          6           0        2.446749   -0.236084    0.000002
      6          1           0        1.220352    1.476078   -0.000001
      7          1           0        2.523479   -1.318410    0.000003
      8          1           0        3.368163    0.329181    0.000003
      9          1           0       -3.172163    0.183345    0.000007
     10          1           0       -1.273682    1.632692    0.000000
     11          1           0        0.027638   -1.230692   -0.000001
 ---------------------------------------------------------------------

 SCF Done:  E(RHF) =  -233.573429507     A.U. after    2 cycles

 The electronic state is 1-A.
 Alpha  occ. eigenvalues --  -20.55832 -15.50342 -11.28097 -11.21749  -7.62398
 Alpha  occ. eigenvalues --   -1.46056  -1.21880  -1.01040  -0.82696  -0.78618
 Alpha  occ. eigenvalues --   -0.70756  -0.66562  -0.63145  -0.59107  -0.56600
 Alpha  occ. eigenvalues --   -0.53472  -0.50716  -0.50001  -0.33981
 Alpha virt. eigenvalues --    0.03428   0.04188   0.04636   0.05291   0.05584
 Alpha virt. eigenvalues --    0.06047   0.08661   0.09497   0.11064   0.11107
 Alpha virt. eigenvalues --    0.11672   0.13459   0.15146   0.16272   0.16301

 Mulliken charges:
               1
     1  N    0.944948
     2  B    0.593059
     3  O   -1.012013
     4  C   -0.534300
     5  C    0.149193
     6  H   -0.304205
     7  H   -0.147472
     8  H   -0.086209
     9  H    0.485788
    10  H   -0.067948
    11  H   -0.020840
 Sum of Mulliken charges =   0.00000

 Dipole moment (field-independent basis, Debye):
    X=             -1.0038    Y=              0.7162    Z=             -0.0000  Tot=              1.2331

 Test job not archived.
 1\1\GINC-SE125\SP\RHF\Aug-CC-pVDZ\C2H6B1N1O1\OHZDE\09-Apr-2025\0\\#t h
 f aug-cc-pvdz iop(5/13=1,5/36=2,99/5=2) pseudo=read geom=check guess=(
 read,tcheck) scf=(maxcycle=1)\\title\\0,1\N,0,0.016158,-0.217751,-0.00
 0002\B,0,-1.235756,0.438912,-0.000005\O,0,-2.365253,-0.334607,0.000002
 \C,0,1.268903,0.39181,0.\C,0,2.446749,-0.236084,0.000002\H,0,1.220352,
 1.476078,-0.000001\H,0,2.523479,-1.31841,0.000003\H,0,3.368163,0.32918
 1,0.000003\H,0,-3.172163,0.183345,0.000007\H,0,-1.273682,1.632692,0.\H
 ,0,0.027638,-1.230692,-0.000001\\Version=ES64L-G16RevC.01\State=1-A\HF

 Normal termination of Gaussian 16 at Wed Apr  9 00:37:28 2025.
