 Gaussian 16, Revision C.01,

 ----------------------------------------------------------------------
 #t hf aug-cc-pvdz symm=none int=(grid=ultrafine) guess=(read,tcheck) s
 table=(opt,rrhf)
 ----------------------------------------------------------------------
 -----
 title
 -----
 Symbolic Z-matrix:
 Charge =  0 Multiplicity = 1

 SCF Done:  E(RHF) =  -759.601159428     A.U. after   12 cycles
 Normal termination of Gaussian 16 at Wed Apr  9 00:14:05 2025.
 Gaussian 16:  ES64L-G16RevC.01  3-Jul-2019

 ----------------------------------------------------------------------
 #t hf aug-cc-pvdz iop(5/13=1,5/36=2,99/5=2) pseudo=read geom=check gue
 ss=(read,tcheck) scf=(maxcycle=1)
 ----------------------------------------------------------------------
 -----
 title
 -----
 Structure from the checkpoint file:  "BDE49_nonexpt_2457_mol1.chk"
 Charge =  0 Multiplicity = 1

                         Standard orientation:
 ---------------------------------------------------------------------
 Center     Atomic      Atomic             Coordinates (Angstroms)
 Number     Number       Type             X           Y           Z
 ---------------------------------------------------------------------
      1         14           0        2.379208   -0.229368   -0.536971
      2         14           0        0.638676    0.326813    0.962496
      3          5           0       -1.164186    0.512916   -0.011495
      4          1           0        1.002017    1.625308    1.589895
      5          1           0        0.660759   -0.696580    2.044704
      6          1           0        2.135489   -1.561648   -1.146698
      7          1           0        3.695863   -0.270760    0.146088
      8          8           0       -1.973264   -0.526890   -0.314570
      9          6           0       -1.640236    1.941293   -0.469828
     10          1           0        2.458872    0.764368   -1.636895
     11          1           0       -0.864124    2.457220   -1.047672
     12          1           0       -1.823397    2.578383    0.404629
     13          1           0       -2.555455    1.904827   -1.067137
     14          6           0       -1.738716   -1.898575   -0.007519
     15          1           0       -1.623131   -2.451283   -0.942055
     16          1           0       -2.609111   -2.284899    0.525971
     17          1           0       -0.847396   -2.034952    0.609937
 ---------------------------------------------------------------------

 SCF Done:  E(RHF) =  -759.859307306     A.U. after    2 cycles

 The electronic state is 1-A.
 Alpha  occ. eigenvalues --  -69.52357 -69.50852 -20.56015 -11.29880 -11.20295
 Alpha  occ. eigenvalues --   -7.61767  -6.19525  -6.18220  -3.94880  -3.94877
 Alpha  occ. eigenvalues --   -3.94867  -3.93556  -3.93549  -3.93489  -1.47160
 Alpha  occ. eigenvalues --   -0.97592  -0.93200  -0.78248  -0.72638  -0.68569
 Alpha  occ. eigenvalues --   -0.64386  -0.64116  -0.57187  -0.55200  -0.52363
 Alpha  occ. eigenvalues --   -0.51776  -0.49801  -0.48852  -0.47433  -0.46843
 Alpha  occ. eigenvalues --   -0.41840  -0.37935
 Alpha virt. eigenvalues --    0.03356   0.03503   0.04138   0.04197   0.05695
 Alpha virt. eigenvalues --    0.06225   0.06503   0.06762   0.07510   0.08440
 Alpha virt. eigenvalues --    0.08486   0.08816   0.09390   0.09626   0.09933

 Mulliken charges:
               1
     1  Si   0.440421
     2  Si  -0.221940
     3  B    1.248698
     4  H   -0.114628
     5  H   -0.034557
     6  H   -0.111483
     7  H   -0.142093
     8  O   -1.388995
     9  C   -0.469454
    10  H   -0.091061
    11  H    0.071999
    12  H    0.054100
    13  H   -0.086601
    14  C    0.542486
    15  H    0.107370
    16  H    0.073829
    17  H    0.121908
 Sum of Mulliken charges =  -0.00000

 Dipole moment (field-independent basis, Debye):
    X=             -0.6048    Y=             -0.9748    Z=              0.2233  Tot=              1.1687

 Test job not archived.
 1\1\GINC-SE082\SP\RHF\Aug-CC-pVDZ\C2H11B1O1Si2\OHZDE\09-Apr-2025\0\\#t
  hf aug-cc-pvdz iop(5/13=1,5/36=2,99/5=2) pseudo=read geom=check guess
 =(read,tcheck) scf=(maxcycle=1)\\title\\0,1\Si,0,-2.379208,0.229368,-0
 .536971\Si,0,-0.638676,-0.326813,0.962496\B,0,1.164186,-0.512916,-0.01
 1495\H,0,-1.002017,-1.625308,1.589895\H,0,-0.660759,0.69658,2.044704\H
 ,0,-2.135489,1.561648,-1.146698\H,0,-3.695863,0.27076,0.146088\O,0,1.9
 73264,0.52689,-0.31457\C,0,1.640236,-1.941293,-0.469828\H,0,-2.458872,
 -0.764368,-1.636895\H,0,0.864124,-2.45722,-1.047672\H,0,1.823397,-2.57

 Normal termination of Gaussian 16 at Wed Apr  9 00:14:12 2025.
