 Gaussian 16, Revision C.01,

 ----------------------------------------------------------------------
 #t hf aug-cc-pvdz symm=none int=(grid=ultrafine) guess=(read,tcheck) s
 table=(opt,rrhf)
 ----------------------------------------------------------------------
 -----
 title
 -----
 Symbolic Z-matrix:
 Charge =  0 Multiplicity = 1

 SCF Done:  E(RHF) =  -522.395687911     A.U. after   16 cycles
 Normal termination of Gaussian 16 at Tue Apr  8 22:40:38 2025.
 Gaussian 16:  ES64L-G16RevC.01  3-Jul-2019

 ----------------------------------------------------------------------
 #t hf aug-cc-pvdz iop(5/13=1,5/36=2,99/5=2) pseudo=read geom=check gue
 ss=(read,tcheck) scf=(maxcycle=1)
 ----------------------------------------------------------------------
 -----
 title
 -----
 Structure from the checkpoint file:  "BDE49_expt_1277_mol1.chk"
 Charge =  0 Multiplicity = 1

                         Standard orientation:
 ---------------------------------------------------------------------
 Center     Atomic      Atomic             Coordinates (Angstroms)
 Number     Number       Type             X           Y           Z
 ---------------------------------------------------------------------
      1          6           0       -0.322762   -0.186728    0.413546
      2          7           0        1.983129   -0.260327   -0.433413
      3          9           0        1.979496    1.111905   -0.765011
      4          9           0        3.294573   -0.429853    0.070475
      5          6           0       -0.938652    1.064819    0.490157
      6          6           0       -1.067422   -1.286461   -0.021487
      7          6           0       -2.279546    1.212906    0.146554
      8          6           0       -3.015964    0.110931   -0.283282
      9          6           0       -2.407368   -1.139660   -0.368597
     10          1           0       -2.975905   -1.999944   -0.702841
     11          1           0       -0.595165   -2.260817   -0.089324
     12          1           0       -2.748616    2.187873    0.213335
     13          1           0       -4.060429    0.226027   -0.549968
     14          1           0       -0.364486    1.924575    0.816330
     15          6           0        1.130358   -0.349920    0.777909
     16          1           0        1.332520   -1.347561    1.171266
     17          1           0        1.471702    0.398330    1.497111
 ---------------------------------------------------------------------

 SCF Done:  E(RHF) =  -522.906084545     A.U. after    2 cycles

 The electronic state is 1-A.
 Alpha  occ. eigenvalues --  -26.49521 -26.49512 -15.71202 -11.30337 -11.26528
 Alpha  occ. eigenvalues --  -11.25844 -11.25719 -11.25679 -11.25525 -11.25476
 Alpha  occ. eigenvalues --   -1.65356  -1.56771  -1.19179  -1.15307  -1.04204
 Alpha  occ. eigenvalues --   -1.03154  -0.93610  -0.85320  -0.83432  -0.76199
 Alpha  occ. eigenvalues --   -0.75683  -0.75015  -0.71223  -0.67253  -0.65866
 Alpha  occ. eigenvalues --   -0.64425  -0.62585  -0.61301  -0.60223  -0.59480
 Alpha  occ. eigenvalues --   -0.57776  -0.52445  -0.52052  -0.51642  -0.50536
 Alpha  occ. eigenvalues --   -0.36056  -0.35887
 Alpha virt. eigenvalues --    0.03143   0.03467   0.03787   0.04920   0.05165
 Alpha virt. eigenvalues --    0.07363   0.07992   0.08385   0.09191   0.09395
 Alpha virt. eigenvalues --    0.10862   0.12103   0.12599   0.13562   0.13973

 Mulliken charges:
               1
     1  C    1.666061
     2  N    1.331719
     3  F   -0.644722
     4  F   -0.643423
     5  C   -0.054068
     6  C   -0.141715
     7  C    0.229639
     8  C    0.012443
     9  C    0.181992
    10  H   -0.230432
    11  H   -0.283236
    12  H   -0.225882
    13  H   -0.205999
    14  H   -0.282500
    15  C   -0.891812
    16  H    0.037870
    17  H    0.144066
 Sum of Mulliken charges =  -0.00000

 Dipole moment (field-independent basis, Debye):
    X=             -2.5393    Y=             -0.4016    Z=              1.6407  Tot=              3.0498

 Test job not archived.
 1\1\GINC-SE273\SP\RHF\Aug-CC-pVDZ\C7H7F2N1\OHZDE\08-Apr-2025\0\\#t hf
 aug-cc-pvdz iop(5/13=1,5/36=2,99/5=2) pseudo=read geom=check guess=(re
 ad,tcheck) scf=(maxcycle=1)\\title\\0,1\C,0,-0.322762,-0.186728,0.4135
 46\N,0,1.983129,-0.260327,-0.433413\F,0,1.979496,1.111905,-0.765011\F,
 0,3.294573,-0.429853,0.070475\C,0,-0.938652,1.064819,0.490157\C,0,-1.0
 67422,-1.286461,-0.021487\C,0,-2.279546,1.212906,0.146554\C,0,-3.01596
 4,0.110931,-0.283282\C,0,-2.407368,-1.13966,-0.368597\H,0,-2.975905,-1
 .999944,-0.702841\H,0,-0.595165,-2.260817,-0.089324\H,0,-2.748616,2.18

 Normal termination of Gaussian 16 at Tue Apr  8 22:40:47 2025.
