 Gaussian 16, Revision C.01,

 ----------------------------------------------------------------------
 #t hf aug-cc-pvdz symm=none int=(grid=ultrafine) guess=(read,tcheck) s
 table=(opt,rrhf)
 ----------------------------------------------------------------------
 -----
 title
 -----
 Symbolic Z-matrix:
 Charge =  0 Multiplicity = 1

 SCF Done:  E(RHF) =  -1190.07958790     A.U. after   17 cycles
 Normal termination of Gaussian 16 at Tue Apr  8 23:41:25 2025.
 Gaussian 16:  ES64L-G16RevC.01  3-Jul-2019

 ----------------------------------------------------------------------
 #t hf aug-cc-pvdz iop(5/13=1,5/36=2,99/5=2) pseudo=read geom=check gue
 ss=(read,tcheck) scf=(maxcycle=1)
 ----------------------------------------------------------------------
 -----
 title
 -----
 Structure from the checkpoint file:  "BDE49_nonexpt_1619_mol1.chk"
 Charge =  0 Multiplicity = 1

                         Standard orientation:
 ---------------------------------------------------------------------
 Center     Atomic      Atomic             Coordinates (Angstroms)
 Number     Number       Type             X           Y           Z
 ---------------------------------------------------------------------
      1         15           0       -0.571334   -0.203007   -0.829589
      2          7           0       -0.933485    1.455588   -0.009404
      3         15           0        1.487261   -0.419104   -0.004543
      4          6           0       -1.493677   -1.328666    0.318326
      5          6           0       -2.963871   -1.518024   -0.074514
      6          1           0       -1.391982   -0.965728    1.342767
      7          1           0       -0.949284   -2.277948    0.247384
      8          1           0       -3.513874   -0.579912    0.007159
      9          1           0       -3.436268   -2.245998    0.589722
     10          1           0       -3.058919   -1.886747   -1.098784
     11          8           0       -2.001523    1.606745    0.547378
     12          8           0       -0.091759    2.345652   -0.155905
     13          8           0        2.054230   -1.723144   -0.357741
     14          8           0        1.360909   -0.155387    1.581105
     15          1           0        1.669058   -0.913484    2.094395
     16          8           0        2.243434    0.854791   -0.563770
     17          1           0        1.699723    1.663236   -0.476239
 ---------------------------------------------------------------------

 SCF Done:  E(RHF) =  -1190.66731184     A.U. after    2 cycles

 The electronic state is 1-A.
 Alpha  occ. eigenvalues --  -84.45707 -84.36277 -20.62232 -20.61503 -20.61223
 Alpha  occ. eigenvalues --  -20.60400 -20.52907 -15.79646 -11.29018 -11.26018
 Alpha  occ. eigenvalues --   -6.90972  -6.83187  -4.45130  -4.44439  -4.43357
 Alpha  occ. eigenvalues --   -4.35810  -4.35401  -4.34718  -1.68912  -1.55293
 Alpha  occ. eigenvalues --   -1.52817  -1.49204  -1.41165  -1.09962  -1.03253
 Alpha  occ. eigenvalues --   -0.91899  -0.87060  -0.84969  -0.77382  -0.76532
 Alpha  occ. eigenvalues --   -0.74801  -0.74207  -0.67681  -0.65945  -0.65398
 Alpha  occ. eigenvalues --   -0.62643  -0.59489  -0.57831  -0.56831  -0.54657
 Alpha  occ. eigenvalues --   -0.54443  -0.51970  -0.51104  -0.48480  -0.48240
 Alpha  occ. eigenvalues --   -0.47649  -0.44364  -0.39146
 Alpha virt. eigenvalues --    0.02903   0.03167   0.03896   0.04678   0.04862
 Alpha virt. eigenvalues --    0.06187   0.06400   0.07139   0.07447   0.08429
 Alpha virt. eigenvalues --    0.10022   0.10400   0.11739   0.12229   0.13387

 Mulliken charges:
               1
     1  P    0.560310
     2  N    2.087005
     3  P    3.790455
     4  C   -0.637258
     5  C   -0.517658
     6  H    0.152131
     7  H    0.142019
     8  H    0.192994
     9  H    0.149134
    10  H    0.182239
    11  O   -1.231766
    12  O   -1.384954
    13  O   -1.503064
    14  O   -1.405079
    15  H    0.359019
    16  O   -1.490157
    17  H    0.554632
 Sum of Mulliken charges =  -0.00000

 Dipole moment (field-independent basis, Debye):
    X=             -2.3927    Y=             -1.9862    Z=              1.1326  Tot=              3.3095

 Test job not archived.
 1\1\GINC-SE100\SP\RHF\Aug-CC-pVDZ\C2H7N1O5P2\OHZDE\08-Apr-2025\0\\#t h
 f aug-cc-pvdz iop(5/13=1,5/36=2,99/5=2) pseudo=read geom=check guess=(
 read,tcheck) scf=(maxcycle=1)\\title\\0,1\P,0,-0.571334,-0.203007,-0.8
 29589\N,0,-0.933485,1.455588,-0.009404\P,0,1.487261,-0.419104,-0.00454
 3\C,0,-1.493677,-1.328666,0.318326\C,0,-2.963871,-1.518024,-0.074514\H
 ,0,-1.391982,-0.965728,1.342767\H,0,-0.949284,-2.277948,0.247384\H,0,-
 3.513874,-0.579912,0.007159\H,0,-3.436268,-2.245998,0.589722\H,0,-3.05
 8919,-1.886747,-1.098784\O,0,-2.001523,1.606745,0.547378\O,0,-0.091759

 Normal termination of Gaussian 16 at Tue Apr  8 23:41:35 2025.
