 Gaussian 16, Revision C.01,

 ----------------------------------------------------------------------
 #t hf aug-cc-pvdz symm=none int=(grid=ultrafine) guess=(read,tcheck) s
 table=(opt,rrhf)
 ----------------------------------------------------------------------
 -----
 title
 -----
 Symbolic Z-matrix:
 Charge =  0 Multiplicity = 1

 SCF Done:  E(RHF) =  -537.104297397     A.U. after   13 cycles
 Normal termination of Gaussian 16 at Tue Apr  8 23:57:45 2025.
 Gaussian 16:  ES64L-G16RevC.01  3-Jul-2019

 ----------------------------------------------------------------------
 #t hf aug-cc-pvdz iop(5/13=1,5/36=2,99/5=2) pseudo=read geom=check gue
 ss=(read,tcheck) scf=(maxcycle=1)
 ----------------------------------------------------------------------
 -----
 title
 -----
 Structure from the checkpoint file:  "BDE49_nonexpt_2049_mol1.chk"
 Charge =  0 Multiplicity = 1

                         Standard orientation:
 ---------------------------------------------------------------------
 Center     Atomic      Atomic             Coordinates (Angstroms)
 Number     Number       Type             X           Y           Z
 ---------------------------------------------------------------------
      1         14           0        1.958583    0.289699   -0.000000
      2          6           0        0.200902   -0.491048   -0.000003
      3          8           0        0.271765   -1.718452    0.000003
      4          7           0       -0.988319    0.181227   -0.000001
      5          6           0       -1.113000    1.627647   -0.000000
      6          1           0       -0.130596    2.094580   -0.000001
      7          1           0       -1.658808    1.969028    0.886983
      8          1           0       -1.658810    1.969028   -0.886982
      9          6           0       -2.236129   -0.574094   -0.000000
     10          1           0       -1.994421   -1.634320   -0.000001
     11          1           0       -2.828392   -0.332791   -0.889141
     12          1           0       -2.828389   -0.332792    0.889144
     13          1           0        2.622040   -0.227813    1.213365
     14          1           0        2.068648    1.771109   -0.000001
     15          1           0        2.622044   -0.227814   -1.213363
 ---------------------------------------------------------------------

 SCF Done:  E(RHF) =  -537.393345661     A.U. after    2 cycles

 The electronic state is 1-A.
 Alpha  occ. eigenvalues --  -69.54184 -20.50938 -15.53305 -11.34371 -11.28440
 Alpha  occ. eigenvalues --  -11.26679  -6.21260  -3.96641  -3.96616  -3.96603
 Alpha  occ. eigenvalues --   -1.45153  -1.25470  -0.99197  -0.96431  -0.80966
 Alpha  occ. eigenvalues --   -0.75076  -0.67526  -0.67281  -0.66351  -0.58196
 Alpha  occ. eigenvalues --   -0.57466  -0.55437  -0.55300  -0.54730  -0.49222
 Alpha  occ. eigenvalues --   -0.48741  -0.39867  -0.39642
 Alpha virt. eigenvalues --    0.03087   0.03977   0.04143   0.04738   0.05740
 Alpha virt. eigenvalues --    0.06288   0.06450   0.06889   0.07739   0.09361
 Alpha virt. eigenvalues --    0.09594   0.10858   0.12014   0.12869   0.14030

 Mulliken charges:
               1
     1  Si   0.824377
     2  C    0.024548
     3  O   -1.174142
     4  N    0.710338
     5  C   -0.304124
     6  H   -0.042110
     7  H    0.191029
     8  H    0.191030
     9  C   -0.312795
    10  H    0.004707
    11  H    0.193174
    12  H    0.193174
    13  H   -0.153806
    14  H   -0.191594
    15  H   -0.153806
 Sum of Mulliken charges =  -0.00000

 Dipole moment (field-independent basis, Debye):
    X=             -1.4597    Y=              3.3918    Z=             -0.0000  Tot=              3.6926

 Test job not archived.
 1\1\GINC-SE072\SP\RHF\Aug-CC-pVDZ\C3H9N1O1Si1\OHZDE\08-Apr-2025\0\\#t
 hf aug-cc-pvdz iop(5/13=1,5/36=2,99/5=2) pseudo=read geom=check guess=
 (read,tcheck) scf=(maxcycle=1)\\title\\0,1\Si,0,1.958583,0.289699,0.\C
 ,0,0.200902,-0.491048,-0.000003\O,0,0.271765,-1.718452,0.000003\N,0,-0
 .988319,0.181227,-0.000001\C,0,-1.113,1.627647,0.\H,0,-0.130596,2.0945
 8,-0.000001\H,0,-1.658808,1.969028,0.886983\H,0,-1.65881,1.969028,-0.8
 86982\C,0,-2.236129,-0.574094,0.\H,0,-1.994421,-1.63432,-0.000001\H,0,
 -2.828392,-0.332791,-0.889141\H,0,-2.828389,-0.332792,0.889144\H,0,2.6

 Normal termination of Gaussian 16 at Tue Apr  8 23:57:50 2025.
