 Gaussian 16, Revision C.01,

 ----------------------------------------------------------------------
 #t hf aug-cc-pvdz symm=none int=(grid=ultrafine) guess=(read,tcheck) s
 table=opt
 ----------------------------------------------------------------------
 -----
 title
 -----
 Symbolic Z-matrix:
 Charge =  0 Multiplicity = 2

 SCF Done:  E(UHF) =  -453.783289702     A.U. after   23 cycles
 Normal termination of Gaussian 16 at Tue Apr  8 23:02:38 2025.
 Gaussian 16:  ES64L-G16RevC.01  3-Jul-2019

 ----------------------------------------------------------------------
 #t hf aug-cc-pvdz iop(5/13=1,5/36=2,99/5=2) pseudo=read geom=check gue
 ss=(read,tcheck) scf=(maxcycle=1)
 ----------------------------------------------------------------------
 -----
 title
 -----
 Structure from the checkpoint file:  "BDE49_expt_268_mol2.chk"
 Charge =  0 Multiplicity = 2

                         Standard orientation:
 ---------------------------------------------------------------------
 Center     Atomic      Atomic             Coordinates (Angstroms)
 Number     Number       Type             X           Y           Z
 ---------------------------------------------------------------------
      1          6           0        2.834306   -0.335276    0.130811
      2          6           0        1.526756    0.256680   -0.013553
      3          1           0        3.588614    0.240269    0.647078
      4          1           0        3.052338   -1.321801   -0.252586
      5          8           0        1.168216    1.337721    0.374717
      6          8           0        0.703031   -0.641309   -0.694966
      7          6           0       -1.425877   -0.237654    0.171606
      8          8           0       -1.110538   -0.786718    1.179886
      9          6           0       -2.739994    0.421342   -0.156417
     10          1           0       -2.687008    1.464905    0.164011
     11          1           0       -3.528595   -0.079797    0.402760
     12          1           0       -2.950130    0.398024   -1.225135
     13          8           0       -0.591505   -0.076213   -0.925988
 ---------------------------------------------------------------------

 SCF Done:  E(UHF) =  -454.224957368     A.U. after    2 cycles

 The electronic state is 2-A.
 Alpha  occ. eigenvalues --  -20.66400 -20.66140 -20.57445 -20.55508 -11.41001
 Alpha  occ. eigenvalues --  -11.40386 -11.29900 -11.26685  -1.65778  -1.52356
 Alpha  occ. eigenvalues --   -1.49966  -1.36113  -1.06391  -1.02802  -0.85287
 Alpha  occ. eigenvalues --   -0.78900  -0.73682  -0.72388  -0.71952  -0.66379
 Alpha  occ. eigenvalues --   -0.65224  -0.64059  -0.62464  -0.60019  -0.57373
 Alpha  occ. eigenvalues --   -0.55787  -0.52119  -0.49931  -0.47773  -0.45941
 Alpha  occ. eigenvalues --   -0.43492
 Alpha virt. eigenvalues --    0.03617   0.03946   0.05026   0.05662   0.05974
 Alpha virt. eigenvalues --    0.08045   0.09774   0.11001   0.12221   0.12983
 Alpha virt. eigenvalues --    0.13154   0.14024   0.14582   0.15365   0.16136

  Beta  occ. eigenvalues --  -20.66425 -20.66144 -20.56018 -20.55509 -11.41138
  Beta  occ. eigenvalues --  -11.40998 -11.27656 -11.26686  -1.65808  -1.50970
  Beta  occ. eigenvalues --   -1.48504  -1.35900  -1.03968  -0.98586  -0.84441
  Beta  occ. eigenvalues --   -0.78513  -0.72639  -0.72194  -0.71462  -0.65634
  Beta  occ. eigenvalues --   -0.64813  -0.62088  -0.61589  -0.58667  -0.57119
  Beta  occ. eigenvalues --   -0.55584  -0.49518  -0.47629  -0.46458  -0.45289
  Beta virt. eigenvalues --    0.02865   0.03680   0.04031   0.05051   0.05668
  Beta virt. eigenvalues --    0.05979   0.08062   0.10464   0.11406   0.12313
  Beta virt. eigenvalues --    0.13151   0.13558   0.14026   0.14954   0.15385

 Mulliken charges and spin densities:
               1          2
     1  C   -0.181846   1.227600
     2  C    2.105871  -0.397473
     3  H    0.017537  -0.084286
     4  H   -0.002157  -0.091099
     5  O   -1.127745   0.342644
     6  O   -0.799222   0.010027
     7  C    1.828868   0.001561
     8  O   -1.181980   0.001668
     9  C   -0.569546  -0.000904
    10  H    0.280240   0.000118
    11  H    0.216371  -0.000019
    12  H    0.215600  -0.000054
    13  O   -0.801992  -0.009781
 Sum of Mulliken charges =  -0.00000   1.00000

 Dipole moment (field-independent basis, Debye):
    X=              0.2116    Y=             -0.2992    Z=             -1.3698  Tot=              1.4180
                          Isotropic Fermi Contact Couplings
        Atom                 a.u.       MegaHertz       Gauss      10(-4) cm-1
     1  C(13)              0.18216     204.78062      73.07082      68.30746
     2  C(13)             -0.09900    -111.29813     -39.71394     -37.12506
     3  H(1)              -0.02207     -98.63295     -35.19469     -32.90041
     4  H(1)              -0.02241    -100.14897     -35.73564     -33.40610
     5  O(17)              0.10702     -64.87229     -23.14805     -21.63907
     6  O(17)             -0.01321       8.00725       2.85719       2.67093
     7  C(13)              0.00073       0.81662       0.29139       0.27239
     8  O(17)             -0.00026       0.15499       0.05530       0.05170

 Normal termination of Gaussian 16 at Tue Apr  8 23:02:44 2025.
