 Gaussian 16, Revision C.01,

 ----------------------------------------------------------------------
 #t hf aug-cc-pvdz symm=none int=(grid=ultrafine) guess=(read,tcheck) s
 table=(opt,rrhf)
 ----------------------------------------------------------------------
 -----
 title
 -----
 Symbolic Z-matrix:
 Charge =  0 Multiplicity = 1

 SCF Done:  E(RHF) =  -789.701735178     A.U. after   16 cycles
 Normal termination of Gaussian 16 at Tue Apr  8 23:36:35 2025.
 Gaussian 16:  ES64L-G16RevC.01  3-Jul-2019

 ----------------------------------------------------------------------
 #t hf aug-cc-pvdz iop(5/13=1,5/36=2,99/5=2) pseudo=read geom=check gue
 ss=(read,tcheck) scf=(maxcycle=1)
 ----------------------------------------------------------------------
 -----
 title
 -----
 Structure from the checkpoint file:  "BDE49_nonexpt_1516_mol1.chk"
 Charge =  0 Multiplicity = 1

                         Standard orientation:
 ---------------------------------------------------------------------
 Center     Atomic      Atomic             Coordinates (Angstroms)
 Number     Number       Type             X           Y           Z
 ---------------------------------------------------------------------
      1         15           0        0.095198    0.698231   -0.720473
      2          7           0       -1.410950    0.251523   -0.025139
      3          7           0        1.256479   -0.674619   -0.066763
      4          8           0       -2.053810   -0.704491   -0.853936
      5          8           0       -1.464963   -0.159211    1.312894
      6          8           0        2.446207   -0.510615   -0.260070
      7          8           0        0.755716   -1.651647    0.487227
      8          6           0        0.639055    1.921667    0.537071
      9          1           0        1.707727    2.091183    0.397063
     10          1           0        0.434145    1.578803    1.550902
     11          1           0        0.102752    2.853823    0.350117
     12          1           0       -2.964029   -0.383356   -0.898152
     13          1           0       -0.926797   -0.974520    1.339146
 ---------------------------------------------------------------------

 SCF Done:  E(RHF) =  -790.182251668     A.U. after    2 cycles

 The electronic state is 1-A.
 Alpha  occ. eigenvalues --  -84.37905 -20.61934 -20.61154 -20.60464 -20.59887
 Alpha  occ. eigenvalues --  -15.77458 -15.64049 -11.27522  -6.84344  -4.37159
 Alpha  occ. eigenvalues --   -4.36657  -4.36006  -1.67142  -1.56857  -1.51290
 Alpha  occ. eigenvalues --   -1.47077  -1.13039  -1.02307  -0.97650  -0.85331
 Alpha  occ. eigenvalues --   -0.78292  -0.77367  -0.75202  -0.73904  -0.69206
 Alpha  occ. eigenvalues --   -0.65720  -0.64447  -0.60984  -0.59769  -0.51893
 Alpha  occ. eigenvalues --   -0.51082  -0.50288  -0.50071  -0.46207  -0.44980
 Alpha  occ. eigenvalues --   -0.40346
 Alpha virt. eigenvalues --    0.03195   0.04252   0.04762   0.05637   0.05917
 Alpha virt. eigenvalues --    0.06310   0.07694   0.08162   0.10217   0.12038
 Alpha virt. eigenvalues --    0.12937   0.14811   0.15125   0.15653   0.16178

 Mulliken charges:
               1
     1  P    1.132773
     2  N    1.479966
     3  N    2.013397
     4  O   -1.160643
     5  O   -1.222273
     6  O   -1.318593
     7  O   -1.243683
     8  C   -0.904513
     9  H    0.177806
    10  H    0.154896
    11  H    0.160311
    12  H    0.330646
    13  H    0.399909
 Sum of Mulliken charges =  -0.00000

 Dipole moment (field-independent basis, Debye):
    X=             -1.9903    Y=              3.2201    Z=             -0.6134  Tot=              3.8349

 Test job not archived.
 1\1\GINC-SE367\SP\RHF\Aug-CC-pVDZ\C1H5N2O4P1\OHZDE\08-Apr-2025\0\\#t h
 f aug-cc-pvdz iop(5/13=1,5/36=2,99/5=2) pseudo=read geom=check guess=(
 read,tcheck) scf=(maxcycle=1)\\title\\0,1\P,0,0.095198,0.698231,-0.720
 473\N,0,-1.41095,0.251523,-0.025139\N,0,1.256479,-0.674619,-0.066763\O
 ,0,-2.05381,-0.704491,-0.853936\O,0,-1.464963,-0.159211,1.312894\O,0,2
 .446207,-0.510615,-0.26007\O,0,0.755716,-1.651647,0.487227\C,0,0.63905
 5,1.921667,0.537071\H,0,1.707727,2.091183,0.397063\H,0,0.434145,1.5788
 03,1.550902\H,0,0.102752,2.853823,0.350117\H,0,-2.964029,-0.383356,-0.

 Normal termination of Gaussian 16 at Tue Apr  8 23:36:40 2025.
