 Gaussian 16, Revision C.01,

 ----------------------------------------------------------------------
 #t hf aug-cc-pvdz symm=none int=(grid=ultrafine) guess=(read,tcheck) s
 table=opt
 ----------------------------------------------------------------------
 -----
 title
 -----
 Symbolic Z-matrix:
 Charge =  0 Multiplicity = 2

 SCF Done:  E(UHF) =  -787.147468845     A.U. after   14 cycles
 Normal termination of Gaussian 16 at Wed Apr  9 00:21:07 2025.
 Gaussian 16:  ES64L-G16RevC.01  3-Jul-2019

 ----------------------------------------------------------------------
 #t hf aug-cc-pvdz iop(5/13=1,5/36=2,99/5=2) pseudo=read geom=check gue
 ss=(read,tcheck) scf=(maxcycle=1)
 ----------------------------------------------------------------------
 -----
 title
 -----
 Structure from the checkpoint file:  "BDE49_nonexpt_2626_mol2.chk"
 Charge =  0 Multiplicity = 2

                         Standard orientation:
 ---------------------------------------------------------------------
 Center     Atomic      Atomic             Coordinates (Angstroms)
 Number     Number       Type             X           Y           Z
 ---------------------------------------------------------------------
      1         16           0        1.472851   -0.195958   -0.000031
      2         14           0       -0.533537    0.487119    0.000014
      3          9           0       -1.625349   -0.692092    0.000024
      4          1           0       -0.733948    1.272212    1.233535
      5          1           0       -0.734012    1.272278   -1.233456
 ---------------------------------------------------------------------

 SCF Done:  E(UHF) =  -787.325742668     A.U. after    2 cycles

 The electronic state is 2-A.
 Alpha  occ. eigenvalues --  -93.98434 -69.61667 -26.46193  -8.26716  -6.28050
 Alpha  occ. eigenvalues --   -6.25845  -6.24081  -6.23828  -4.03468  -4.03324
 Alpha  occ. eigenvalues --   -4.03229  -1.57364  -1.03257  -0.77279  -0.65849
 Alpha  occ. eigenvalues --   -0.65484  -0.63394  -0.53837  -0.48893  -0.46517
 Alpha  occ. eigenvalues --   -0.42479
 Alpha virt. eigenvalues --    0.04351   0.04898   0.05526   0.05681   0.09058
 Alpha virt. eigenvalues --    0.09996   0.12990   0.13010   0.14495   0.15237
 Alpha virt. eigenvalues --    0.16809   0.19794   0.20158   0.23796   0.25055

  Beta  occ. eigenvalues --  -93.97568 -69.61712 -26.46216  -8.25725  -6.28118
  Beta  occ. eigenvalues --   -6.23584  -6.23295  -6.21970  -4.03530  -4.03407
  Beta  occ. eigenvalues --   -4.03295  -1.57425  -0.94280  -0.76347  -0.65707
  Beta  occ. eigenvalues --   -0.65470  -0.62774  -0.51153  -0.47280  -0.40145
  Beta virt. eigenvalues --   -0.03148   0.04386   0.05014   0.05550   0.05894
  Beta virt. eigenvalues --    0.09241   0.10137   0.13035   0.14464   0.14505
  Beta virt. eigenvalues --    0.15487   0.17204   0.20642   0.22786   0.24363

 Mulliken charges and spin densities:
               1          2
     1  S   -0.531379   1.085716
     2  Si   1.821358  -0.148039
     3  F   -0.822051   0.001179
     4  H   -0.233965   0.030573
     5  H   -0.233964   0.030571
 Sum of Mulliken charges =  -0.00000   1.00000

 Dipole moment (field-independent basis, Debye):
    X=              0.0433    Y=              1.2791    Z=             -0.0000  Tot=              1.2798
                          Isotropic Fermi Contact Couplings
        Atom                 a.u.       MegaHertz       Gauss      10(-4) cm-1
     1  S(33)              0.14491      49.77265      17.76012      16.60237
     2  Si(29)            -0.05586      49.64350      17.71404      16.55929
     3  F(19)             -0.00491     -20.66497      -7.37377      -6.89309
     4  H(1)               0.00840      37.55513      13.40061      12.52704
     5  H(1)               0.00840      37.55278      13.39977      12.52626
 --------------------------------------------------------
       Center         ----  Spin Dipole Couplings  ----
                      3XX-RR        3YY-RR        3ZZ-RR

 Normal termination of Gaussian 16 at Wed Apr  9 00:21:09 2025.
