 Gaussian 16, Revision C.01,

 ----------------------------------------------------------------------
 #t hf aug-cc-pvdz symm=none int=(grid=ultrafine) guess=(read,tcheck) s
 table=(opt,rrhf)
 ----------------------------------------------------------------------
 -----
 title
 -----
 Symbolic Z-matrix:
 Charge =  0 Multiplicity = 1

 SCF Done:  E(RHF) =  -329.300283350     A.U. after   12 cycles
 Normal termination of Gaussian 16 at Wed Apr  9 00:40:01 2025.
 Gaussian 16:  ES64L-G16RevC.01  3-Jul-2019

 ----------------------------------------------------------------------
 #t hf aug-cc-pvdz iop(5/13=1,5/36=2,99/5=2) pseudo=read geom=check gue
 ss=(read,tcheck) scf=(maxcycle=1)
 ----------------------------------------------------------------------
 -----
 title
 -----
 Structure from the checkpoint file:  "BDE49_nonexpt_638_mol1.chk"
 Charge =  0 Multiplicity = 1

                         Standard orientation:
 ---------------------------------------------------------------------
 Center     Atomic      Atomic             Coordinates (Angstroms)
 Number     Number       Type             X           Y           Z
 ---------------------------------------------------------------------
      1          6           0       -1.393653   -0.202772   -0.614786
      2          8           0       -0.128294   -0.779435   -0.262600
      3          5           0        0.966763   -0.000952   -0.028724
      4          8           0        2.155058   -0.593821    0.315881
      5          8           0        0.899856    1.363087   -0.135098
      6          6           0       -2.216026    0.120399    0.623647
      7          1           0       -1.902571   -0.946297   -1.232728
      8          1           0       -1.234969    0.696024   -1.216664
      9          1           0       -2.342856   -0.770521    1.243550
     10          1           0       -3.206955    0.485701    0.337841
     11          1           0       -1.726221    0.893608    1.219958
     12          1           0        1.751461    1.772965    0.039604
     13          1           0        2.073414   -1.551131    0.353438
 ---------------------------------------------------------------------

 SCF Done:  E(RHF) =  -329.637125374     A.U. after    2 cycles

 The electronic state is 1-A.
 Alpha  occ. eigenvalues --  -20.55370 -20.55156 -20.54163 -11.28847 -11.22672
 Alpha  occ. eigenvalues --   -7.65976  -1.49405  -1.44196  -1.43811  -1.02079
 Alpha  occ. eigenvalues --   -0.85828  -0.76978  -0.73875  -0.68881  -0.64107
 Alpha  occ. eigenvalues --   -0.61836  -0.56819  -0.56204  -0.55598  -0.54439
 Alpha  occ. eigenvalues --   -0.52231  -0.49350  -0.47623  -0.44900
 Alpha virt. eigenvalues --    0.03790   0.04225   0.04480   0.04505   0.06511
 Alpha virt. eigenvalues --    0.06880   0.07156   0.07826   0.08530   0.10218
 Alpha virt. eigenvalues --    0.11605   0.13802   0.14613   0.15169   0.16757

 Mulliken charges:
               1
     1  C    0.691158
     2  O   -1.157401
     3  B    1.908925
     4  O   -1.365407
     5  O   -1.154177
     6  C   -0.471151
     7  H   -0.003309
     8  H    0.156926
     9  H    0.181617
    10  H    0.161691
    11  H    0.109125
    12  H    0.439901
    13  H    0.502102
 Sum of Mulliken charges =  -0.00000

 Dipole moment (field-independent basis, Debye):
    X=             -0.4252    Y=             -0.1416    Z=             -0.0441  Tot=              0.4503

 Test job not archived.
 1\1\GINC-SE368\SP\RHF\Aug-CC-pVDZ\C2H7B1O3\OHZDE\09-Apr-2025\0\\#t hf
 aug-cc-pvdz iop(5/13=1,5/36=2,99/5=2) pseudo=read geom=check guess=(re
 ad,tcheck) scf=(maxcycle=1)\\title\\0,1\C,0,-1.393653,-0.202772,-0.614
 786\O,0,-0.128294,-0.779435,-0.2626\B,0,0.966763,-0.000952,-0.028724\O
 ,0,2.155058,-0.593821,0.315881\O,0,0.899856,1.363087,-0.135098\C,0,-2.
 216026,0.120399,0.623647\H,0,-1.902571,-0.946297,-1.232728\H,0,-1.2349
 69,0.696024,-1.216664\H,0,-2.342856,-0.770521,1.24355\H,0,-3.206955,0.
 485701,0.337841\H,0,-1.726221,0.893608,1.219958\H,0,1.751461,1.772965,

 Normal termination of Gaussian 16 at Wed Apr  9 00:40:04 2025.
