 Gaussian 16, Revision C.01,

 ----------------------------------------------------------------------
 #t hf aug-cc-pvdz symm=none int=(grid=ultrafine) guess=(read,tcheck) s
 table=opt
 ----------------------------------------------------------------------
 -----
 title
 -----
 Symbolic Z-matrix:
 Charge =  0 Multiplicity = 2

 SCF Done:  E(UHF) =  -518.562081459     A.U. after   15 cycles
 Normal termination of Gaussian 16 at Tue Apr  8 23:42:28 2025.
 Gaussian 16:  ES64L-G16RevC.01  3-Jul-2019

 ----------------------------------------------------------------------
 #t hf aug-cc-pvdz iop(5/13=1,5/36=2,99/5=2) pseudo=read geom=check gue
 ss=(read,tcheck) scf=(maxcycle=1)
 ----------------------------------------------------------------------
 -----
 title
 -----
 Structure from the checkpoint file:  "BDE49_nonexpt_1678_mol2.chk"
 Charge =  0 Multiplicity = 2

                         Standard orientation:
 ---------------------------------------------------------------------
 Center     Atomic      Atomic             Coordinates (Angstroms)
 Number     Number       Type             X           Y           Z
 ---------------------------------------------------------------------
      1         14           0       -0.634111    0.000844    0.503398
      2          8           0       -0.913272    1.412885   -0.312565
      3          6           0        1.244392   -0.073031    0.713445
      4          6           0        1.997308   -0.050158   -0.630899
      5          1           0        1.490647   -0.975190    1.284467
      6          1           0        1.538884    0.776292    1.339486
      7          1           0        1.712058   -0.899683   -1.256497
      8          1           0        3.080061   -0.093408   -0.477786
      9          1           0        1.769433    0.860975   -1.187860
     10          1           0       -1.751392    1.499951   -0.774380
     11          8           0       -1.207869   -1.212492   -0.487446
     12          1           0       -1.443204   -2.044758   -0.070177
 ---------------------------------------------------------------------

 SCF Done:  E(UHF) =  -518.828595446     A.U. after    2 cycles

 The electronic state is 2-A.
 Alpha  occ. eigenvalues --  -69.57660 -20.55202 -20.54628 -11.22593 -11.22385
 Alpha  occ. eigenvalues --   -6.24018  -3.99752  -3.99195  -3.99006  -1.44893
 Alpha  occ. eigenvalues --   -1.42330  -1.02459  -0.85344  -0.75878  -0.69801
 Alpha  occ. eigenvalues --   -0.61453  -0.60035  -0.59486  -0.55465  -0.53094
 Alpha  occ. eigenvalues --   -0.51584  -0.51518  -0.49679  -0.46254  -0.32119
 Alpha virt. eigenvalues --    0.03323   0.04255   0.04491   0.04858   0.06644
 Alpha virt. eigenvalues --    0.06743   0.07437   0.07609   0.09255   0.09985
 Alpha virt. eigenvalues --    0.13341   0.14002   0.15169   0.16084   0.16779

  Beta  occ. eigenvalues --  -69.57173 -20.54820 -20.54285 -11.22545 -11.22008
  Beta  occ. eigenvalues --   -6.23232  -3.98902  -3.98763  -3.97945  -1.43865
  Beta  occ. eigenvalues --   -1.41328  -1.01759  -0.84447  -0.74820  -0.69417
  Beta  occ. eigenvalues --   -0.60805  -0.58806  -0.56680  -0.54647  -0.52045
  Beta  occ. eigenvalues --   -0.50564  -0.50073  -0.49231  -0.44026
  Beta virt. eigenvalues --    0.02450   0.04309   0.04512   0.04569   0.06679
  Beta virt. eigenvalues --    0.06791   0.07042   0.07599   0.08375   0.09454
  Beta virt. eigenvalues --    0.10184   0.13675   0.14941   0.15699   0.17242

 Mulliken charges and spin densities:
               1          2
     1  Si   2.407013   0.861027
     2  O   -1.380146   0.031636
     3  C   -0.761911   0.164893
     4  C   -0.374336  -0.029928
     5  H    0.107917  -0.011145
     6  H    0.122681  -0.007414
     7  H    0.133839  -0.002320
     8  H    0.116547   0.002076
     9  H    0.145654  -0.002177
    10  H    0.419382  -0.002351
    11  O   -1.335491   0.016578
    12  H    0.398850  -0.020875
 Sum of Mulliken charges =  -0.00000   1.00000

 Dipole moment (field-independent basis, Debye):
    X=             -0.4715    Y=             -1.2328    Z=              0.6427  Tot=              1.4680
                          Isotropic Fermi Contact Couplings
        Atom                 a.u.       MegaHertz       Gauss      10(-4) cm-1
     1  Si(29)             0.68779    -611.25393    -218.11060    -203.89236
     2  O(17)              0.03934     -23.85051      -8.51045      -7.95567
     3  C(13)              0.07799      87.67036      31.28296      29.24368
     4  C(13)              0.00943      10.59912       3.78203       3.53548
     5  H(1)              -0.00213      -9.51291      -3.39444      -3.17316
     6  H(1)              -0.00220      -9.85608      -3.51689      -3.28763
     7  H(1)              -0.00018      -0.81249      -0.28992      -0.27102
     8  H(1)               0.00243      10.86094       3.87545       3.62282

 Normal termination of Gaussian 16 at Tue Apr  8 23:42:33 2025.
