 Gaussian 16, Revision C.01,

 ----------------------------------------------------------------------
 #t hf aug-cc-pvdz symm=none int=(grid=ultrafine) guess=(read,tcheck) s
 table=(opt,rrhf)
 ----------------------------------------------------------------------
 -----
 title
 -----
 Symbolic Z-matrix:
 Charge =  0 Multiplicity = 1

 SCF Done:  E(RHF) =  -670.598355852     A.U. after   15 cycles
 Normal termination of Gaussian 16 at Wed Apr  9 00:04:29 2025.
 Gaussian 16:  ES64L-G16RevC.01  3-Jul-2019

 ----------------------------------------------------------------------
 #t hf aug-cc-pvdz iop(5/13=1,5/36=2,99/5=2) pseudo=read geom=check gue
 ss=(read,tcheck) scf=(maxcycle=1)
 ----------------------------------------------------------------------
 -----
 title
 -----
 Structure from the checkpoint file:  "BDE49_nonexpt_2191_mol1.chk"
 Charge =  0 Multiplicity = 1

                         Standard orientation:
 ---------------------------------------------------------------------
 Center     Atomic      Atomic             Coordinates (Angstroms)
 Number     Number       Type             X           Y           Z
 ---------------------------------------------------------------------
      1          6           0        2.441018    0.417555    0.000001
      2          6           0        1.680437   -0.751835   -0.000001
      3          6           0        0.285319   -0.689141   -0.000002
      4          6           0        1.789940    1.650569    0.000002
      5          6           0        0.404009    1.732374    0.000001
      6          6           0       -0.346498    0.552610   -0.000001
      7          1           0        2.377981    2.561276    0.000004
      8          1           0       -0.112796    2.683010    0.000002
      9          8           0       -1.708070    0.678122   -0.000003
     10         14           0       -2.906381   -0.473225    0.000002
     11          1           0       -0.274384   -1.616773   -0.000004
     12          1           0        3.525172    0.365284    0.000002
     13          8           0        2.239179   -1.998122   -0.000002
     14          1           0        3.198103   -1.913721   -0.000001
     15          1           0       -4.164732    0.292753    0.000004
     16          1           0       -2.817114   -1.329736    1.204348
     17          1           0       -2.817120   -1.329740   -1.204342
 ---------------------------------------------------------------------

 SCF Done:  E(RHF) =  -671.015242177     A.U. after    2 cycles

 The electronic state is 1-A.
 Alpha  occ. eigenvalues --  -69.56854 -20.58627 -20.56357 -11.32084 -11.31879
 Alpha  occ. eigenvalues --  -11.25663 -11.23760 -11.23706 -11.23121  -6.23452
 Alpha  occ. eigenvalues --   -3.98958  -3.98805  -3.98780  -1.49974  -1.47937
 Alpha  occ. eigenvalues --   -1.15162  -1.02466  -1.01140  -0.86863  -0.84781
 Alpha  occ. eigenvalues --   -0.78689  -0.71603  -0.69941  -0.68188  -0.64369
 Alpha  occ. eigenvalues --   -0.62138  -0.61234  -0.59246  -0.58470  -0.55026
 Alpha  occ. eigenvalues --   -0.53722  -0.51493  -0.49612  -0.47581  -0.46087
 Alpha  occ. eigenvalues --   -0.34446  -0.32031
 Alpha virt. eigenvalues --    0.03132   0.03573   0.03876   0.04874   0.05480
 Alpha virt. eigenvalues --    0.05822   0.06620   0.07953   0.09168   0.09587
 Alpha virt. eigenvalues --    0.10647   0.11209   0.11700   0.12663   0.13200

 Mulliken charges:
               1
     1  C   -0.207048
     2  C    1.993614
     3  C   -0.157912
     4  C    0.710123
     5  C   -0.161888
     6  C    1.674336
     7  H   -0.209156
     8  H   -0.248799
     9  O   -2.253181
    10  Si   1.311793
    11  H   -0.291833
    12  H   -0.326311
    13  O   -1.814826
    14  H    0.438399
    15  H   -0.176238
    16  H   -0.140536
    17  H   -0.140537
 Sum of Mulliken charges =  -0.00000

 Dipole moment (field-independent basis, Debye):
    X=              1.1575    Y=              0.0314    Z=              0.0000  Tot=              1.1580

 Test job not archived.
 1\1\GINC-SE069\SP\RHF\Aug-CC-pVDZ\C6H8O2Si1\OHZDE\09-Apr-2025\0\\#t hf
  aug-cc-pvdz iop(5/13=1,5/36=2,99/5=2) pseudo=read geom=check guess=(r
 ead,tcheck) scf=(maxcycle=1)\\title\\0,1\C,0,2.441018,0.417555,0.00000
 1\C,0,1.680437,-0.751835,-0.000001\C,0,0.285319,-0.689141,-0.000002\C,
 0,1.78994,1.650569,0.000002\C,0,0.404009,1.732374,0.000001\C,0,-0.3464
 98,0.55261,-0.000001\H,0,2.377981,2.561276,0.000004\H,0,-0.112796,2.68
 301,0.000002\O,0,-1.70807,0.678122,-0.000003\Si,0,-2.906381,-0.473225,
 0.000002\H,0,-0.274384,-1.616773,-0.000004\H,0,3.525172,0.365283,0.000

 Normal termination of Gaussian 16 at Wed Apr  9 00:04:37 2025.
