 Gaussian 16, Revision C.01,

 ----------------------------------------------------------------------
 #t hf aug-cc-pvdz symm=none int=(grid=ultrafine) guess=(read,tcheck) s
 table=(opt,rrhf)
 ----------------------------------------------------------------------
 -----
 title
 -----
 Symbolic Z-matrix:
 Charge =  0 Multiplicity = 1

 SCF Done:  E(RHF) =  -1195.10262828     A.U. after   13 cycles
 Normal termination of Gaussian 16 at Wed Apr  9 00:32:25 2025.
 Gaussian 16:  ES64L-G16RevC.01  3-Jul-2019

 ----------------------------------------------------------------------
 #t hf aug-cc-pvdz iop(5/13=1,5/36=2,99/5=2) pseudo=read geom=check gue
 ss=(read,tcheck) scf=(maxcycle=1)
 ----------------------------------------------------------------------
 -----
 title
 -----
 Structure from the checkpoint file:  "BDE49_nonexpt_37_mol1.chk"
 Charge =  0 Multiplicity = 1

                         Standard orientation:
 ---------------------------------------------------------------------
 Center     Atomic      Atomic             Coordinates (Angstroms)
 Number     Number       Type             X           Y           Z
 ---------------------------------------------------------------------
      1          5           0       -0.753655    0.010858    0.487295
      2          5           0        0.753655   -0.010858   -0.487295
      3          6           0       -1.338466   -1.378423    0.154791
      4          8           0       -1.712472   -2.402014   -0.135611
      5         17           0       -2.000581    1.291661   -0.062518
      6          6           0        1.338466    1.378423   -0.154792
      7          8           0        1.712470    2.402014    0.135611
      8         17           0        2.000582   -1.291661    0.062518
      9          1           0        0.542675   -0.012367   -1.667119
     10          1           0       -0.542675    0.012366    1.667119
 ---------------------------------------------------------------------

 SCF Done:  E(RHF) =  -1195.51385258     A.U. after    2 cycles

 The electronic state is 1-A.
 Alpha  occ. eigenvalues -- -105.54960-105.54960 -20.72071 -20.72071 -11.46570
 Alpha  occ. eigenvalues --  -11.46570 -10.59809 -10.59808  -7.76706  -7.76706
 Alpha  occ. eigenvalues --   -7.76439  -7.76439  -7.76415  -7.76414  -7.62968
 Alpha  occ. eigenvalues --   -7.62964  -1.66836  -1.66615  -1.06041  -1.04514
 Alpha  occ. eigenvalues --   -0.92562  -0.91165  -0.82624  -0.80643  -0.71078
 Alpha  occ. eigenvalues --   -0.70975  -0.70181  -0.70153  -0.60836  -0.58999
 Alpha  occ. eigenvalues --   -0.55192  -0.51185  -0.50896  -0.46763  -0.45198
 Alpha  occ. eigenvalues --   -0.44535  -0.39172
 Alpha virt. eigenvalues --    0.03190   0.03735   0.04061   0.04461   0.04942
 Alpha virt. eigenvalues --    0.05516   0.06269   0.07232   0.07508   0.07744
 Alpha virt. eigenvalues --    0.09216   0.10641   0.11224   0.12670   0.12695

 Mulliken charges:
               1
     1  B    0.362800
     2  B    0.362801
     3  C    0.688676
     4  O   -0.796899
     5  Cl  -0.614552
     6  C    0.688676
     7  O   -0.796899
     8  Cl  -0.614552
     9  H    0.359975
    10  H    0.359975
 Sum of Mulliken charges =  -0.00000

 Dipole moment (field-independent basis, Debye):
    X=             -0.0000    Y=             -0.0000    Z=             -0.0000  Tot=              0.0000

 Test job not archived.
 1\1\GINC-SE455\SP\RHF\Aug-CC-pVDZ\C2H2B2Cl2O2\OHZDE\09-Apr-2025\0\\#t
 hf aug-cc-pvdz iop(5/13=1,5/36=2,99/5=2) pseudo=read geom=check guess=
 (read,tcheck) scf=(maxcycle=1)\\title\\0,1\B,0,0.753655,0.010857,-0.48
 7295\B,0,-0.753655,-0.010857,0.487295\C,0,1.338464,-1.378425,-0.154791
 \O,0,1.712468,-2.402016,0.135611\Cl,0,2.000583,1.291658,0.062518\C,0,-
 1.338464,1.378425,0.154792\O,0,-1.712467,2.402017,-0.135611\Cl,0,-2.00
 0584,-1.291658,-0.062518\H,0,-0.542675,-0.012366,1.667119\H,0,0.542675
 ,0.012365,-1.667119\\Version=ES64L-G16RevC.01\State=1-A\HF=-1195.51385

 Normal termination of Gaussian 16 at Wed Apr  9 00:32:29 2025.
