 Gaussian 16, Revision C.01,

 ----------------------------------------------------------------------
 #t hf aug-cc-pvdz symm=none int=(grid=ultrafine) guess=(read,tcheck) s
 table=(opt,rrhf)
 ----------------------------------------------------------------------
 -----
 title
 -----
 Symbolic Z-matrix:
 Charge =  0 Multiplicity = 1

 SCF Done:  E(RHF) =  -477.927849078     A.U. after   12 cycles
 Normal termination of Gaussian 16 at Wed Apr  9 00:44:24 2025.
 Gaussian 16:  ES64L-G16RevC.01  3-Jul-2019

 ----------------------------------------------------------------------
 #t hf aug-cc-pvdz iop(5/13=1,5/36=2,99/5=2) pseudo=read geom=check gue
 ss=(read,tcheck) scf=(maxcycle=1)
 ----------------------------------------------------------------------
 -----
 title
 -----
 Structure from the checkpoint file:  "BDE49_nonexpt_767_mol1.chk"
 Charge =  0 Multiplicity = 1

                         Standard orientation:
 ---------------------------------------------------------------------
 Center     Atomic      Atomic             Coordinates (Angstroms)
 Number     Number       Type             X           Y           Z
 ---------------------------------------------------------------------
      1          5           0        0.509589    0.000000    0.016776
      2         15           0       -1.449909    0.000000   -0.121828
      3          7           0        1.195510    1.236588    0.007302
      4          7           0        1.195510   -1.236588    0.007302
      5          1           0        0.725352   -2.124853    0.024130
      6          1           0        2.200525   -1.314190   -0.019356
      7          1           0        0.725352    2.124853    0.024129
      8          1           0        2.200525    1.314190   -0.019356
      9          1           0       -1.694102    1.037244    0.815884
     10          1           0       -1.694102   -1.037244    0.815883
 ---------------------------------------------------------------------

 SCF Done:  E(RHF) =  -478.118621233     A.U. after    2 cycles

 The electronic state is 1-A.
 Alpha  occ. eigenvalues --  -84.24177 -15.48296 -15.48272  -7.60357  -6.71508
 Alpha  occ. eigenvalues --   -4.23973  -4.23883  -4.23192  -1.17699  -1.13564
 Alpha  occ. eigenvalues --   -0.85385  -0.75366  -0.70685  -0.70296  -0.64358
 Alpha  occ. eigenvalues --   -0.51571  -0.48803  -0.43682  -0.43335  -0.33034
 Alpha virt. eigenvalues --    0.02969   0.05004   0.05459   0.05953   0.06483
 Alpha virt. eigenvalues --    0.06591   0.08784   0.09264   0.09760   0.10187
 Alpha virt. eigenvalues --    0.12401   0.13042   0.14279   0.17007   0.17702

 Mulliken charges:
               1
     1  B    0.362999
     2  P   -1.195405
     3  N    0.113230
     4  N    0.113230
     5  H   -0.009483
     6  H   -0.053569
     7  H   -0.009482
     8  H   -0.053569
     9  H    0.366024
    10  H    0.366025
 Sum of Mulliken charges =  -0.00000

 Dipole moment (field-independent basis, Debye):
    X=              1.9310    Y=             -0.0000    Z=              0.3743  Tot=              1.9670

 Test job not archived.
 1\1\GINC-SE105\SP\RHF\Aug-CC-pVDZ\B1H6N2P1\OHZDE\09-Apr-2025\0\\#t hf
 aug-cc-pvdz iop(5/13=1,5/36=2,99/5=2) pseudo=read geom=check guess=(re
 ad,tcheck) scf=(maxcycle=1)\\title\\0,1\B,0,-0.509589,0.,0.016776\P,0,
 1.449909,0.,-0.121828\N,0,-1.19551,-1.236588,0.007302\N,0,-1.19551,1.2
 36588,0.007302\H,0,-0.725352,2.124853,0.02413\H,0,-2.200525,1.31419,-0
 .019356\H,0,-0.725352,-2.124853,0.024129\H,0,-2.200525,-1.31419,-0.019
 356\H,0,1.694102,-1.037244,0.815884\H,0,1.694102,1.037244,0.815883\\Ve
 rsion=ES64L-G16RevC.01\State=1-A\HF=-478.1186212\RMSD=2.411e-02\Dipole

 Normal termination of Gaussian 16 at Wed Apr  9 00:44:27 2025.
