 Gaussian 16, Revision C.01,

 ----------------------------------------------------------------------
 #t hf aug-cc-pvdz symm=none int=(grid=ultrafine) guess=(read,tcheck) s
 table=(opt,rrhf)
 ----------------------------------------------------------------------
 -----
 title
 -----
 Symbolic Z-matrix:
 Charge =  0 Multiplicity = 1

 SCF Done:  E(RHF) =  -705.648295320     A.U. after   15 cycles
 Normal termination of Gaussian 16 at Tue Apr  8 22:50:41 2025.
 Gaussian 16:  ES64L-G16RevC.01  3-Jul-2019

 ----------------------------------------------------------------------
 #t hf aug-cc-pvdz iop(5/13=1,5/36=2,99/5=2) pseudo=read geom=check gue
 ss=(read,tcheck) scf=(maxcycle=1)
 ----------------------------------------------------------------------
 -----
 title
 -----
 Structure from the checkpoint file:  "BDE49_expt_1737_mol1.chk"
 Charge =  0 Multiplicity = 1

                         Standard orientation:
 ---------------------------------------------------------------------
 Center     Atomic      Atomic             Coordinates (Angstroms)
 Number     Number       Type             X           Y           Z
 ---------------------------------------------------------------------
      1          6           0        2.236186   -0.054273    0.000003
      2          6           0        1.460632   -1.207686    0.000004
      3          7           0        0.120977   -1.193843   -0.000003
      4          6           0        1.584285    1.178098    0.000003
      5          6           0        0.195697    1.209920   -0.000002
      6          6           0       -0.467783   -0.017177   -0.000010
      7          1           0        3.316963   -0.120192    0.000006
      8          1           0        1.921852   -2.190348    0.000004
      9          1           0        2.148097    2.103881    0.000006
     10          1           0       -0.357880    2.138774    0.000000
     11         17           0       -2.231175   -0.013441    0.000001
 ---------------------------------------------------------------------

 SCF Done:  E(RHF) =  -705.974934488     A.U. after    2 cycles

 The electronic state is 1-A.
 Alpha  occ. eigenvalues -- -105.57260 -15.52391 -11.35303 -11.30028 -11.28455
 Alpha  occ. eigenvalues --  -11.26883 -11.26342 -10.62083  -7.79040  -7.78632
 Alpha  occ. eigenvalues --   -7.78628  -1.29285  -1.11275  -1.11138  -1.01580
 Alpha  occ. eigenvalues --   -0.90187  -0.86712  -0.73953  -0.71410  -0.66934
 Alpha  occ. eigenvalues --   -0.61999  -0.61026  -0.60144  -0.55291  -0.48931
 Alpha  occ. eigenvalues --   -0.47510  -0.46971  -0.42192  -0.36284
 Alpha virt. eigenvalues --    0.02889   0.03603   0.04222   0.06015   0.06661
 Alpha virt. eigenvalues --    0.08449   0.08665   0.10650   0.10767   0.12008
 Alpha virt. eigenvalues --    0.12327   0.13358   0.13789   0.14209   0.14427

 Mulliken charges:
               1
     1  C    0.711157
     2  C   -0.680683
     3  N    1.194878
     4  C   -0.008224
     5  C    1.150494
     6  C   -1.594019
     7  H   -0.172362
     8  H   -0.169531
     9  H   -0.151290
    10  H   -0.138660
    11  Cl  -0.141761
 Sum of Mulliken charges =  -0.00000

 Dipole moment (field-independent basis, Debye):
    X=              3.3223    Y=              2.2155    Z=              0.0000  Tot=              3.9932

 Test job not archived.
 1\1\GINC-SE329\SP\RHF\Aug-CC-pVDZ\C5H4Cl1N1\OHZDE\08-Apr-2025\0\\#t hf
  aug-cc-pvdz iop(5/13=1,5/36=2,99/5=2) pseudo=read geom=check guess=(r
 ead,tcheck) scf=(maxcycle=1)\\title\\0,1\C,0,2.236186,-0.054273,0.0000
 03\C,0,1.460632,-1.207686,0.000004\N,0,0.120977,-1.193843,-0.000003\C,
 0,1.584285,1.178098,0.000003\C,0,0.195697,1.20992,-0.000002\C,0,-0.467
 783,-0.017177,-0.00001\H,0,3.316963,-0.120191,0.000006\H,0,1.921852,-2
 .190348,0.000004\H,0,2.148097,2.103881,0.000006\H,0,-0.35788,2.138774,
 0.\Cl,0,-2.231175,-0.013442,0.000001\\Version=ES64L-G16RevC.01\State=1

 Normal termination of Gaussian 16 at Tue Apr  8 22:50:45 2025.
