 Gaussian 16, Revision C.01,

 ----------------------------------------------------------------------
 #t hf aug-cc-pvdz symm=none int=(grid=ultrafine) guess=(read,tcheck) s
 table=opt
 ----------------------------------------------------------------------
 -----
 title
 -----
 Symbolic Z-matrix:
 Charge =  0 Multiplicity = 2

 SCF Done:  E(UHF) =  -384.700602661     A.U. after   15 cycles
 Normal termination of Gaussian 16 at Tue Apr  8 23:41:12 2025.
 Gaussian 16:  ES64L-G16RevC.01  3-Jul-2019

 ----------------------------------------------------------------------
 #t hf aug-cc-pvdz iop(5/13=1,5/36=2,99/5=2) pseudo=read geom=check gue
 ss=(read,tcheck) scf=(maxcycle=1)
 ----------------------------------------------------------------------
 -----
 title
 -----
 Structure from the checkpoint file:  "BDE49_nonexpt_1664_mol2.chk"
 Charge =  0 Multiplicity = 2

                         Standard orientation:
 ---------------------------------------------------------------------
 Center     Atomic      Atomic             Coordinates (Angstroms)
 Number     Number       Type             X           Y           Z
 ---------------------------------------------------------------------
      1         14           0       -1.171378   -0.135531   -0.115815
      2          6           0        0.557153    0.626193    0.098565
      3          7           0        1.595410   -0.388058   -0.130702
      4          1           0        0.603415    1.128481    1.081677
      5          1           0        0.667896    1.416309   -0.651313
      6          1           0        1.573536   -1.089428    0.602248
      7          1           0        2.519899    0.030803   -0.108680
      8          1           0       -2.219415    0.793221    0.392044
      9          1           0       -1.256823   -1.422702    0.628965
 ---------------------------------------------------------------------

 SCF Done:  E(UHF) =  -384.834875388     A.U. after    2 cycles

 The electronic state is 2-A.
 Alpha  occ. eigenvalues --  -69.53130 -15.49331 -11.25563  -6.20289  -3.96220
 Alpha  occ. eigenvalues --   -3.95328  -3.95316  -1.17747  -0.91379  -0.73023
 Alpha  occ. eigenvalues --   -0.68166  -0.64327  -0.57927  -0.48769  -0.47514
 Alpha  occ. eigenvalues --   -0.42747  -0.32993
 Alpha virt. eigenvalues --    0.03332   0.04585   0.05045   0.05109   0.06581
 Alpha virt. eigenvalues --    0.07541   0.08242   0.09164   0.10708   0.11553
 Alpha virt. eigenvalues --    0.13977   0.15572   0.16021   0.17658   0.18499

  Beta  occ. eigenvalues --  -69.52564 -15.49349 -11.25528  -6.19426  -3.94941
  Beta  occ. eigenvalues --   -3.94925  -3.94060  -1.17721  -0.90791  -0.71080
  Beta  occ. eigenvalues --   -0.65959  -0.63802  -0.57467  -0.47848  -0.47093
  Beta  occ. eigenvalues --   -0.42072
  Beta virt. eigenvalues --    0.02919   0.03488   0.04780   0.05118   0.05922
  Beta virt. eigenvalues --    0.06681   0.07649   0.09136   0.10259   0.10876
  Beta virt. eigenvalues --    0.11801   0.14291   0.16191   0.16935   0.18381

 Mulliken charges and spin densities:
               1          2
     1  Si   0.792508   0.970778
     2  C   -0.848494  -0.009203
     3  N    0.049123   0.002033
     4  H    0.084156   0.006717
     5  H    0.050853   0.004263
     6  H    0.111480  -0.002068
     7  H    0.117096  -0.001678
     8  H   -0.166334   0.025490
     9  H   -0.190387   0.003669
 Sum of Mulliken charges =  -0.00000   1.00000

 Dipole moment (field-independent basis, Debye):
    X=              0.9116    Y=              0.9012    Z=              1.2373  Tot=              1.7816
                          Isotropic Fermi Contact Couplings
        Atom                 a.u.       MegaHertz       Gauss      10(-4) cm-1
     1  Si(29)             0.60589    -538.47527    -192.14137    -179.61602
     2  C(13)              0.00473       5.31556       1.89672       1.77308
     3  N(14)             -0.00552      -1.78237      -0.63599      -0.59454
     4  H(1)               0.00808      36.10884      12.88453      12.04461
     5  H(1)               0.00189       8.46086       3.01904       2.82224
     6  H(1)              -0.00001      -0.05354      -0.01910      -0.01786
     7  H(1)              -0.00019      -0.86356      -0.30814      -0.28805
     8  H(1)               0.00444      19.82551       7.07423       6.61308

 Normal termination of Gaussian 16 at Tue Apr  8 23:41:15 2025.
