 Gaussian 16, Revision C.01,

 ----------------------------------------------------------------------
 #t hf aug-cc-pvdz symm=none int=(grid=ultrafine) guess=(read,tcheck) s
 table=(opt,rrhf)
 ----------------------------------------------------------------------
 -----
 title
 -----
 Symbolic Z-matrix:
 Charge =  0 Multiplicity = 1

 SCF Done:  E(RHF) =  -1032.83668026     A.U. after   14 cycles
 Normal termination of Gaussian 16 at Tue Apr  8 23:16:47 2025.
 Gaussian 16:  ES64L-G16RevC.01  3-Jul-2019

 ----------------------------------------------------------------------
 #t hf aug-cc-pvdz iop(5/13=1,5/36=2,99/5=2) pseudo=read geom=check gue
 ss=(read,tcheck) scf=(maxcycle=1)
 ----------------------------------------------------------------------
 -----
 title
 -----
 Structure from the checkpoint file:  "BDE49_nonexpt_1024_mol1.chk"
 Charge =  0 Multiplicity = 1

                         Standard orientation:
 ---------------------------------------------------------------------
 Center     Atomic      Atomic             Coordinates (Angstroms)
 Number     Number       Type             X           Y           Z
 ---------------------------------------------------------------------
      1         17           0        1.702964   -0.420436    0.066709
      2          8           0        0.616093    0.846555   -0.435147
      3          6           0       -0.542350    0.882780    0.327182
      4         17           0       -1.720773   -0.444952   -0.061931
      5          1           0       -1.018953    1.819231    0.039625
      6          1           0       -0.352925    0.823258    1.397231
 ---------------------------------------------------------------------

 SCF Done:  E(RHF) =  -1033.09927933     A.U. after    2 cycles

 The electronic state is 1-A.
 Alpha  occ. eigenvalues -- -105.63751-105.57060 -20.65779 -11.38683 -10.67970
 Alpha  occ. eigenvalues --  -10.61903  -7.84950  -7.84400  -7.84373  -7.78834
 Alpha  occ. eigenvalues --   -7.78459  -7.78444  -1.52433  -1.10630  -1.04670
 Alpha  occ. eigenvalues --   -0.90111  -0.71871  -0.69949  -0.66281  -0.56542
 Alpha  occ. eigenvalues --   -0.54209  -0.49362  -0.47106  -0.46124  -0.45630
 Alpha virt. eigenvalues --    0.03606   0.04853   0.05230   0.07739   0.08548
 Alpha virt. eigenvalues --    0.12967   0.13917   0.14635   0.15232   0.15826
 Alpha virt. eigenvalues --    0.16173   0.18223   0.18457   0.20925   0.24133

 Mulliken charges:
               1
     1  Cl   0.346605
     2  O   -1.003185
     3  C    0.319750
     4  Cl  -0.086158
     5  H    0.173755
     6  H    0.249233
 Sum of Mulliken charges =   0.00000

 Dipole moment (field-independent basis, Debye):
    X=              0.1296    Y=              1.4594    Z=              1.2463  Tot=              1.9235

 Test job not archived.
 1\1\GINC-SE094\SP\RHF\Aug-CC-pVDZ\C1H2Cl2O1\OHZDE\08-Apr-2025\0\\#t hf
  aug-cc-pvdz iop(5/13=1,5/36=2,99/5=2) pseudo=read geom=check guess=(r
 ead,tcheck) scf=(maxcycle=1)\\title\\0,1\Cl,0,1.702964,-0.420436,0.066
 709\O,0,0.616093,0.846555,-0.435147\C,0,-0.54235,0.88278,0.327182\Cl,0
 ,-1.720773,-0.444952,-0.061931\H,0,-1.018953,1.819231,0.039625\H,0,-0.
 352925,0.823258,1.397231\\Version=ES64L-G16RevC.01\State=1-A\HF=-1033.
 0992793\RMSD=5.372e-03\Dipole=0.0510014,0.5741554,0.4903128\Quadrupole
 =-1.5571013,1.6436656,-0.0865643,-2.3024583,0.2514798,0.7342973\PG=C01

 Normal termination of Gaussian 16 at Tue Apr  8 23:16:49 2025.
