 Gaussian 16, Revision C.01,

 ----------------------------------------------------------------------
 #t hf aug-cc-pvdz symm=none int=(grid=ultrafine) guess=(read,tcheck) s
 table=(opt,rrhf)
 ----------------------------------------------------------------------
 -----
 title
 -----
 Symbolic Z-matrix:
 Charge =  0 Multiplicity = 1

 SCF Done:  E(RHF) =  -729.289557062     A.U. after   13 cycles
 Normal termination of Gaussian 16 at Wed Apr  9 00:36:54 2025.
 Gaussian 16:  ES64L-G16RevC.01  3-Jul-2019

 ----------------------------------------------------------------------
 #t hf aug-cc-pvdz iop(5/13=1,5/36=2,99/5=2) pseudo=read geom=check gue
 ss=(read,tcheck) scf=(maxcycle=1)
 ----------------------------------------------------------------------
 -----
 title
 -----
 Structure from the checkpoint file:  "BDE49_nonexpt_555_mol1.chk"
 Charge =  0 Multiplicity = 1

                         Standard orientation:
 ---------------------------------------------------------------------
 Center     Atomic      Atomic             Coordinates (Angstroms)
 Number     Number       Type             X           Y           Z
 ---------------------------------------------------------------------
      1          7           0        0.253088    0.418903   -0.000003
      2          5           0       -1.031038   -0.213821   -0.000006
      3          8           0       -2.123117    0.616941   -0.000007
      4          6           0        0.534977    1.840230    0.000004
      5          1           0        1.095533    2.139734    0.891284
      6          1           0       -0.429743    2.348638   -0.000004
      7         17           0        1.671835   -0.585645    0.000007
      8          1           0        1.095551    2.139739   -0.891263
      9          1           0       -2.940414    0.110953   -0.000010
     10          8           0       -1.211814   -1.569459   -0.000005
     11          1           0       -0.388968   -2.067542   -0.000003
 ---------------------------------------------------------------------

 SCF Done:  E(RHF) =  -729.638329668     A.U. after    2 cycles

 The electronic state is 1-A.
 Alpha  occ. eigenvalues -- -105.60192 -20.55860 -20.55586 -15.54632 -11.27599
 Alpha  occ. eigenvalues --  -10.64694  -7.81651  -7.81229  -7.81162  -7.65903
 Alpha  occ. eigenvalues --   -1.48354  -1.44359  -1.24203  -1.03547  -0.92730
 Alpha  occ. eigenvalues --   -0.76910  -0.74844  -0.69630  -0.65360  -0.63912
 Alpha  occ. eigenvalues --   -0.57259  -0.57011  -0.56736  -0.54299  -0.52067
 Alpha  occ. eigenvalues --   -0.49716  -0.48161  -0.40745
 Alpha virt. eigenvalues --    0.03800   0.04803   0.05459   0.05520   0.06361
 Alpha virt. eigenvalues --    0.06739   0.07222   0.08493   0.10233   0.11181
 Alpha virt. eigenvalues --    0.13284   0.14022   0.14805   0.17102   0.17466

 Mulliken charges:
               1
     1  N    0.267177
     2  B    1.458543
     3  O   -1.168646
     4  C   -0.502119
     5  H    0.148161
     6  H    0.028204
     7  Cl  -0.105001
     8  H    0.148160
     9  H    0.436225
    10  O   -1.250142
    11  H    0.539437
 Sum of Mulliken charges =  -0.00000

 Dipole moment (field-independent basis, Debye):
    X=              0.0882    Y=              0.2585    Z=              0.0000  Tot=              0.2731

 Test job not archived.
 1\1\GINC-SE460\SP\RHF\Aug-CC-pVDZ\C1H5B1Cl1N1O2\OHZDE\09-Apr-2025\0\\#
 t hf aug-cc-pvdz iop(5/13=1,5/36=2,99/5=2) pseudo=read geom=check gues
 s=(read,tcheck) scf=(maxcycle=1)\\title\\0,1\N,0,0.253088,0.418903,-0.
 000003\B,0,-1.031038,-0.213821,-0.000006\O,0,-2.123117,0.616941,-0.000
 007\C,0,0.534977,1.84023,0.000004\H,0,1.095533,2.139734,0.891284\H,0,-
 0.429743,2.348638,-0.000004\Cl,0,1.671835,-0.585645,0.000007\H,0,1.095
 551,2.139739,-0.891263\H,0,-2.940414,0.110953,-0.00001\O,0,-1.211814,-
 1.569459,-0.000005\H,0,-0.388968,-2.067542,-0.000003\\Version=ES64L-G1

 Normal termination of Gaussian 16 at Wed Apr  9 00:36:58 2025.
