 Gaussian 16, Revision C.01,

 ----------------------------------------------------------------------
 #t hf aug-cc-pvdz symm=none int=(grid=ultrafine) guess=(read,tcheck) s
 table=(opt,rrhf)
 ----------------------------------------------------------------------
 -----
 title
 -----
 Symbolic Z-matrix:
 Charge =  0 Multiplicity = 1

 SCF Done:  E(RHF) =  -468.266206962     A.U. after   12 cycles
 Normal termination of Gaussian 16 at Tue Apr  8 23:55:20 2025.
 Gaussian 16:  ES64L-G16RevC.01  3-Jul-2019

 ----------------------------------------------------------------------
 #t hf aug-cc-pvdz iop(5/13=1,5/36=2,99/5=2) pseudo=read geom=check gue
 ss=(read,tcheck) scf=(maxcycle=1)
 ----------------------------------------------------------------------
 -----
 title
 -----
 Structure from the checkpoint file:  "BDE49_nonexpt_1972_mol1.chk"
 Charge =  0 Multiplicity = 1

                         Standard orientation:
 ---------------------------------------------------------------------
 Center     Atomic      Atomic             Coordinates (Angstroms)
 Number     Number       Type             X           Y           Z
 ---------------------------------------------------------------------
      1         14           0        0.787562   -0.467835    0.185158
      2          6           0       -0.982242   -0.566241   -0.403377
      3          9           0        1.407910    0.972849   -0.213310
      4          6           0       -1.916595    0.503082    0.193320
      5          1           0       -1.579560    1.510458   -0.063497
      6          1           0       -1.953609    0.436555    1.284451
      7          1           0       -2.938484    0.390653   -0.178643
      8          1           0       -1.346987   -1.572478   -0.157229
      9          1           0       -0.985301   -0.507935   -1.498178
     10          1           0        1.627067   -1.502822   -0.457409
     11          1           0        0.872842   -0.581425    1.658421
 ---------------------------------------------------------------------

 SCF Done:  E(RHF) =  -468.482303677     A.U. after    2 cycles

 The electronic state is 1-A.
 Alpha  occ. eigenvalues --  -69.57043 -26.44045 -11.23809 -11.23100  -6.23674
 Alpha  occ. eigenvalues --   -3.99120  -3.98899  -3.98888  -1.55057  -1.03460
 Alpha  occ. eigenvalues --   -0.86465  -0.74848  -0.64369  -0.63773  -0.62335
 Alpha  occ. eigenvalues --   -0.60645  -0.57724  -0.53265  -0.50941  -0.47725
 Alpha  occ. eigenvalues --   -0.44615
 Alpha virt. eigenvalues --    0.03566   0.04309   0.04381   0.04674   0.06488
 Alpha virt. eigenvalues --    0.07482   0.07672   0.08238   0.10150   0.10509
 Alpha virt. eigenvalues --    0.13391   0.14205   0.15328   0.16023   0.16565

 Mulliken charges:
               1
     1  Si   1.698240
     2  C   -0.621290
     3  F   -0.871128
     4  C   -0.375512
     5  H    0.129530
     6  H    0.134919
     7  H    0.121722
     8  H    0.099874
     9  H    0.096057
    10  H   -0.218679
    11  H   -0.193732
 Sum of Mulliken charges =  -0.00000

 Dipole moment (field-independent basis, Debye):
    X=             -1.3774    Y=             -1.2361    Z=              0.0607  Tot=              1.8517

 Test job not archived.
 1\1\GINC-SE368\SP\RHF\Aug-CC-pVDZ\C2H7F1Si1\OHZDE\08-Apr-2025\0\\#t hf
  aug-cc-pvdz iop(5/13=1,5/36=2,99/5=2) pseudo=read geom=check guess=(r
 ead,tcheck) scf=(maxcycle=1)\\title\\0,1\Si,0,0.787562,-0.467835,0.185
 158\C,0,-0.982242,-0.566241,-0.403377\F,0,1.40791,0.972849,-0.21331\C,
 0,-1.916595,0.503082,0.19332\H,0,-1.57956,1.510458,-0.063497\H,0,-1.95
 3609,0.436555,1.284451\H,0,-2.938484,0.390653,-0.178643\H,0,-1.346987,
 -1.572478,-0.157229\H,0,-0.985301,-0.507935,-1.498178\H,0,1.627067,-1.
 502822,-0.457409\H,0,0.872842,-0.581425,1.658421\\Version=ES64L-G16Rev

 Normal termination of Gaussian 16 at Tue Apr  8 23:55:23 2025.
