 Gaussian 16, Revision C.01,

 ----------------------------------------------------------------------
 #t hf aug-cc-pvdz symm=none int=(grid=ultrafine) guess=(read,tcheck) s
 table=(opt,rrhf)
 ----------------------------------------------------------------------
 -----
 title
 -----
 Symbolic Z-matrix:
 Charge =  0 Multiplicity = 1

 SCF Done:  E(RHF) =  -168.963643886     A.U. after   12 cycles
 Normal termination of Gaussian 16 at Tue Apr  8 23:06:42 2025.
 Gaussian 16:  ES64L-G16RevC.01  3-Jul-2019

 ----------------------------------------------------------------------
 #t hf aug-cc-pvdz iop(5/13=1,5/36=2,99/5=2) pseudo=read geom=check gue
 ss=(read,tcheck) scf=(maxcycle=1)
 ----------------------------------------------------------------------
 -----
 title
 -----
 Structure from the checkpoint file:  "BDE49_expt_423_mol1.chk"
 Charge =  0 Multiplicity = 1

                         Standard orientation:
 ---------------------------------------------------------------------
 Center     Atomic      Atomic             Coordinates (Angstroms)
 Number     Number       Type             X           Y           Z
 ---------------------------------------------------------------------
      1          6           0       -0.163748    0.385428   -0.000013
      2          8           0       -1.195884   -0.245287    0.000005
      3          7           0        1.084335   -0.157259    0.000000
      4          1           0        1.183351   -1.161018    0.000013
      5          1           0        1.909315    0.418370    0.000017
      6          1           0       -0.133447    1.493193    0.000006
 ---------------------------------------------------------------------

 SCF Done:  E(RHF) =  -169.133266452     A.U. after    2 cycles

 The electronic state is 1-A.
 Alpha  occ. eigenvalues --  -20.52007 -15.53876 -11.36756  -1.46598  -1.22985
 Alpha  occ. eigenvalues --   -0.87730  -0.78494  -0.69832  -0.61935  -0.59205
 Alpha  occ. eigenvalues --   -0.44439  -0.43468
 Alpha virt. eigenvalues --    0.02566   0.04738   0.05832   0.09687   0.11116
 Alpha virt. eigenvalues --    0.11803   0.14851   0.15930   0.17311   0.18717
 Alpha virt. eigenvalues --    0.19687   0.23062   0.26184   0.27341   0.28059

 Mulliken charges:
               1
     1  C    0.455789
     2  O   -1.024150
     3  N    0.372549
     4  H    0.059697
     5  H    0.053238
     6  H    0.082878
 Sum of Mulliken charges =  -0.00000

 Dipole moment (field-independent basis, Debye):
    X=              3.7695    Y=              1.1567    Z=              0.0000  Tot=              3.9430

 Test job not archived.
 1\1\GINC-SE120\SP\RHF\Aug-CC-pVDZ\C1H3N1O1\OHZDE\08-Apr-2025\0\\#t hf
 aug-cc-pvdz iop(5/13=1,5/36=2,99/5=2) pseudo=read geom=check guess=(re
 ad,tcheck) scf=(maxcycle=1)\\title\\0,1\C,0,-0.163748,0.385428,-0.0000
 13\O,0,-1.195884,-0.245288,0.000005\N,0,1.084335,-0.157259,0.\H,0,1.18
 3352,-1.161018,0.000013\H,0,1.909315,0.418371,0.000017\H,0,-0.133447,1
 .493193,0.000006\\Version=ES64L-G16RevC.01\State=1-A\HF=-169.1332665\R
 MSD=1.337e-02\Dipole=1.4830302,0.4550894,0.0000091\Quadrupole=-0.60766
 44,1.8542248,-1.2465604,-0.9161128,0.0000857,-0.0000077\PG=C01 [X(C1H3

 Normal termination of Gaussian 16 at Tue Apr  8 23:06:44 2025.
