 Gaussian 16, Revision C.01,

 ----------------------------------------------------------------------
 #t hf aug-cc-pvdz symm=none int=(grid=ultrafine) guess=(read,tcheck) s
 table=(opt,rrhf)
 ----------------------------------------------------------------------
 -----
 title
 -----
 Symbolic Z-matrix:
 Charge =  0 Multiplicity = 1

 SCF Done:  E(RHF) =  -1000.68828555     A.U. after   15 cycles
 Normal termination of Gaussian 16 at Wed Apr  9 00:03:03 2025.
 Gaussian 16:  ES64L-G16RevC.01  3-Jul-2019

 ----------------------------------------------------------------------
 #t hf aug-cc-pvdz iop(5/13=1,5/36=2,99/5=2) pseudo=read geom=check gue
 ss=(read,tcheck) scf=(maxcycle=1)
 ----------------------------------------------------------------------
 -----
 title
 -----
 Structure from the checkpoint file:  "BDE49_nonexpt_2156_mol1.chk"
 Charge =  0 Multiplicity = 1

                         Standard orientation:
 ---------------------------------------------------------------------
 Center     Atomic      Atomic             Coordinates (Angstroms)
 Number     Number       Type             X           Y           Z
 ---------------------------------------------------------------------
      1         14           0        0.000014    0.000021    0.423197
      2          7           0       -1.306409   -1.114999   -0.219915
      3          7           0       -0.312372    1.688824   -0.220188
      4          7           0        1.618720   -0.573903   -0.220240
      5          9           0        0.000092    0.000099    1.987815
      6          8           0        2.122503    0.017665   -1.159757
      7          8           0        0.322707    2.561124    0.359201
      8          8           0       -1.045987   -1.847784   -1.158869
      9          8           0       -1.077352    1.829727   -1.158990
     10          8           0       -2.379288   -1.001410    0.359675
     11          8           0        2.057344   -1.559402    0.359655
 ---------------------------------------------------------------------

 SCF Done:  E(RHF) =  -1001.37983369     A.U. after    2 cycles

 The electronic state is 1-A.
 Alpha  occ. eigenvalues --  -69.79695 -26.57781 -20.66400 -20.66398 -20.66397
 Alpha  occ. eigenvalues --  -20.66113 -20.66113 -20.66113 -15.83604 -15.83604
 Alpha  occ. eigenvalues --  -15.83599  -6.45484  -4.20847  -4.20719  -4.20719
 Alpha  occ. eigenvalues --   -1.73187  -1.72874  -1.72874  -1.69332  -1.57517
 Alpha  occ. eigenvalues --   -1.57516  -1.57450  -1.12455  -1.05321  -1.05320
 Alpha  occ. eigenvalues --   -0.90261  -0.87044  -0.87043  -0.83079  -0.80709
 Alpha  occ. eigenvalues --   -0.80709  -0.80284  -0.79961  -0.79960  -0.79028
 Alpha  occ. eigenvalues --   -0.74786  -0.74786  -0.57060  -0.56530  -0.56529
 Alpha  occ. eigenvalues --   -0.56181  -0.52736  -0.52736  -0.51396  -0.50404
 Alpha  occ. eigenvalues --   -0.50403
 Alpha virt. eigenvalues --   -0.01932  -0.01682  -0.01681   0.04527   0.05939
 Alpha virt. eigenvalues --    0.05939   0.06986   0.08209   0.12322   0.12323
 Alpha virt. eigenvalues --    0.12827   0.13479   0.13479   0.14835   0.15401

 Mulliken charges:
               1
     1  Si   2.209018
     2  N    1.930143
     3  N    1.930353
     4  N    1.930134
     5  F   -0.929159
     6  O   -1.156721
     7  O   -1.200196
     8  O   -1.156657
     9  O   -1.156719
    10  O   -1.200163
    11  O   -1.200034
 Sum of Mulliken charges =  -0.00000

 Dipole moment (field-independent basis, Debye):
    X=             -0.0002    Y=              0.0000    Z=              1.6186  Tot=              1.6186

 Test job not archived.
 1\1\GINC-SE095\SP\RHF\Aug-CC-pVDZ\F1N3O6Si1\OHZDE\09-Apr-2025\0\\#t hf
  aug-cc-pvdz iop(5/13=1,5/36=2,99/5=2) pseudo=read geom=check guess=(r
 ead,tcheck) scf=(maxcycle=1)\\title\\0,1\Si,0,0.000014,0.000021,0.4231
 97\N,0,-1.311023,-1.10957,-0.219915\N,0,-0.305364,1.690105,-0.220188\N
 ,0,1.616325,-0.580613,-0.22024\F,0,0.000092,0.000099,1.987815\O,0,2.12
 2558,0.00886,-1.159757\O,0,0.333328,2.559763,0.359201\O,0,-1.053643,-1
 .843429,-1.158869\O,0,-1.069753,1.83418,-1.15899\O,0,-2.383422,-0.9915
 32,0.359675\O,0,2.050858,-1.567923,0.359655\\Version=ES64L-G16RevC.01\

 Normal termination of Gaussian 16 at Wed Apr  9 00:03:11 2025.
