 Gaussian 16, Revision C.01,

 ----------------------------------------------------------------------
 #t hf aug-cc-pvdz symm=none int=(grid=ultrafine) guess=(read,tcheck) s
 table=(opt,rrhf)
 ----------------------------------------------------------------------
 -----
 title
 -----
 Symbolic Z-matrix:
 Charge =  0 Multiplicity = 1

 SCF Done:  E(RHF) =  -1216.48559023     A.U. after   13 cycles
 Normal termination of Gaussian 16 at Wed Apr  9 00:21:04 2025.
 Gaussian 16:  ES64L-G16RevC.01  3-Jul-2019

 ----------------------------------------------------------------------
 #t hf aug-cc-pvdz iop(5/13=1,5/36=2,99/5=2) pseudo=read geom=check gue
 ss=(read,tcheck) scf=(maxcycle=1)
 ----------------------------------------------------------------------
 -----
 title
 -----
 Structure from the checkpoint file:  "BDE49_nonexpt_256_mol1.chk"
 Charge =  0 Multiplicity = 1

                         Standard orientation:
 ---------------------------------------------------------------------
 Center     Atomic      Atomic             Coordinates (Angstroms)
 Number     Number       Type             X           Y           Z
 ---------------------------------------------------------------------
      1          6           0        1.901264   -1.162313   -0.828681
      2          6           0        3.264948   -0.457121   -0.841466
      3          6           0        3.602190    0.144142    0.529757
      4          6           0        2.484005    1.073941    1.019971
      5          6           0        1.122152    0.364905    1.027314
      6          6           0       -0.581840   -0.974596   -0.312507
      7          6           0        0.770064   -0.234970   -0.347090
      8          5           0       -1.886506   -0.139633   -0.121680
      9         17           0       -2.048541    1.515674   -0.725583
     10         17           0       -3.314894   -0.856352    0.639518
     11          1           0        1.950958   -2.036737   -0.165386
     12          1           0        1.665521   -1.544519   -1.828287
     13          1           0        3.249743    0.343242   -1.592465
     14          1           0        4.046103   -1.158514   -1.151886
     15          1           0        4.552431    0.685631    0.483196
     16          1           0        3.740866   -0.667664    1.255644
     17          1           0        2.429291    1.951494    0.363198
     18          1           0        2.714402    1.450431    2.021746
     19          1           0        0.341015    1.064168    1.345136
     20          1           0        1.138738   -0.443831    1.770985
     21          1           0       -0.552976   -1.782518    0.427899
     22          1           0       -0.733227   -1.488081   -1.278406
     23          1           0        0.691354    0.592667   -1.063652
 ---------------------------------------------------------------------

 SCF Done:  E(RHF) =  -1216.96128411     A.U. after    2 cycles

 The electronic state is 1-A.
 Alpha  occ. eigenvalues -- -105.57224-105.57134 -11.24076 -11.22988 -11.22972
 Alpha  occ. eigenvalues --  -11.22919 -11.22798 -11.22781 -11.22697 -10.62235
 Alpha  occ. eigenvalues --  -10.62130  -7.79131  -7.79029  -7.78855  -7.78811
 Alpha  occ. eigenvalues --   -7.78755  -7.78708  -7.70879  -1.13235  -1.10537
 Alpha  occ. eigenvalues --   -1.05225  -1.03842  -1.00687  -0.93705  -0.84041
 Alpha  occ. eigenvalues --   -0.81731  -0.76240  -0.68518  -0.65962  -0.62721
 Alpha  occ. eigenvalues --   -0.61695  -0.61281  -0.59091  -0.58558  -0.55222
 Alpha  occ. eigenvalues --   -0.53865  -0.53040  -0.52215  -0.50559  -0.49398
 Alpha  occ. eigenvalues --   -0.48367  -0.47481  -0.47023  -0.46200  -0.45725
 Alpha  occ. eigenvalues --   -0.44040  -0.43311
 Alpha virt. eigenvalues --    0.03105   0.03124   0.03364   0.03812   0.05285
 Alpha virt. eigenvalues --    0.05428   0.05735   0.05975   0.06229   0.07950
 Alpha virt. eigenvalues --    0.08195   0.08597   0.08734   0.09323   0.09441

 Mulliken charges:
               1
     1  C    0.034000
     2  C   -0.260024
     3  C   -0.249100
     4  C   -0.289418
     5  C   -0.167417
     6  C    0.066012
     7  C   -0.807662
     8  B    0.691563
     9  Cl  -0.373561
    10  Cl  -0.448510
    11  H    0.186363
    12  H    0.078145
    13  H    0.167813
    14  H    0.107038
    15  H    0.099516
    16  H    0.154390
    17  H    0.161948
    18  H    0.103505
    19  H    0.075612
    20  H    0.159307
    21  H    0.104810
    22  H    0.301231
    23  H    0.104438
 Sum of Mulliken charges =  -0.00000

 Dipole moment (field-independent basis, Debye):
    X=              1.8691    Y=             -0.7071    Z=             -0.2408  Tot=              2.0128

 Test job not archived.
 1\1\GINC-SE059\SP\RHF\Aug-CC-pVDZ\C7H13B1Cl2\OHZDE\09-Apr-2025\0\\#t h
 f aug-cc-pvdz iop(5/13=1,5/36=2,99/5=2) pseudo=read geom=check guess=(
 read,tcheck) scf=(maxcycle=1)\\title\\0,1\C,0,1.901264,-1.162313,-0.82
 8681\C,0,3.264948,-0.457121,-0.841466\C,0,3.60219,0.144142,0.529757\C,
 0,2.484005,1.073941,1.019971\C,0,1.122152,0.364905,1.027314\C,0,-0.581
 84,-0.974596,-0.312507\C,0,0.770064,-0.23497,-0.34709\B,0,-1.886506,-0
 .139633,-0.12168\Cl,0,-2.048541,1.515674,-0.725583\Cl,0,-3.314894,-0.8
 56352,0.639518\H,0,1.950958,-2.036737,-0.165386\H,0,1.665521,-1.544519

 Normal termination of Gaussian 16 at Wed Apr  9 00:21:21 2025.
