 Gaussian 16, Revision C.01,

 ----------------------------------------------------------------------
 #t hf aug-cc-pvdz symm=none int=(grid=ultrafine) guess=(read,tcheck) s
 table=(opt,rrhf)
 ----------------------------------------------------------------------
 -----
 title
 -----
 Symbolic Z-matrix:
 Charge =  0 Multiplicity = 1

 SCF Done:  E(RHF) =  -650.122178530     A.U. after   15 cycles

 1\1\GINC-SE143\Stability\RHF\Aug-CC-pVDZ\C8H11P1\OHZDE\08-Apr-2025\0\\
 #t hf aug-cc-pvdz symm=none int=(grid=ultrafine) guess=(read,tcheck) s
 table=(opt,rrhf)\\title\\0,1\C,0,0.313586,-0.280979,0.562541\P,0,-2.50
 6596,-0.403747,-0.124746\C,0,-2.213404,1.27222,-0.873218\H,0,-1.179581
 ,1.434977,-1.181274\H,0,-2.497492,2.041639,-0.151001\H,0,-2.866604,1.3
 7861,-1.742581\C,0,1.027704,-1.26842,-0.129011\C,0,2.301406,-1.015084,
 -0.628211\C,0,2.890093,0.236043,-0.44824\C,0,2.193812,1.226771,0.23873
 7\C,0,0.918912,0.968758,0.739546\H,0,0.390125,1.744986,1.283554\H,0,0.

 Normal termination of Gaussian 16 at Tue Apr  8 23:28:30 2025.
 Gaussian 16:  ES64L-G16RevC.01  3-Jul-2019

 ----------------------------------------------------------------------
 #t hf aug-cc-pvdz iop(5/13=1,5/36=2,99/5=2) pseudo=read geom=check gue
 ss=(read,tcheck) scf=(maxcycle=1)
 ----------------------------------------------------------------------
 -----
 title
 -----
 Structure from the checkpoint file:  "BDE49_nonexpt_1295_mol1.chk"
 Charge =  0 Multiplicity = 1

                         Standard orientation:
 ---------------------------------------------------------------------
 Center     Atomic      Atomic             Coordinates (Angstroms)
 Number     Number       Type             X           Y           Z
 ---------------------------------------------------------------------
      1          6           0        0.313586   -0.280979    0.562541
      2         15           0       -2.506596   -0.403747   -0.124746
      3          6           0       -2.213404    1.272220   -0.873218
      4          1           0       -1.179581    1.434977   -1.181274
      5          1           0       -2.497492    2.041639   -0.151001
      6          1           0       -2.866604    1.378610   -1.742581
      7          6           0        1.027704   -1.268420   -0.129011
      8          6           0        2.301406   -1.015084   -0.628211
      9          6           0        2.890093    0.236043   -0.448240
     10          6           0        2.193812    1.226771    0.238737
     11          6           0        0.918912    0.968758    0.739546
     12          1           0        0.390125    1.744986    1.283554
     13          1           0        0.580651   -2.247171   -0.272718
     14          1           0        2.837959   -1.796755   -1.154784
     15          1           0        3.883163    0.433644   -0.835422
     16          1           0        2.643894    2.201691    0.390837
     17          6           0       -1.070360   -0.556552    1.087875
     18          1           0       -1.306913    0.110351    1.922284
     19          1           0       -1.138129   -1.575857    1.479779
     20          1           0       -1.918626   -1.166460   -1.167595
 ---------------------------------------------------------------------

 SCF Done:  E(RHF) =  -650.494396747     A.U. after    2 cycles

 The electronic state is 1-A.
 Alpha  occ. eigenvalues --  -84.26635 -11.25280 -11.24680 -11.24493 -11.24469
 Alpha  occ. eigenvalues --  -11.24101 -11.24070 -11.24058 -11.23325  -6.73626
 Alpha  occ. eigenvalues --   -4.26102  -4.26047  -4.25395  -1.15908  -1.05784
 Alpha  occ. eigenvalues --   -1.01688  -0.98667  -0.93571  -0.83730  -0.81857
 Alpha  occ. eigenvalues --   -0.75957  -0.70691  -0.65567  -0.64437  -0.60006
 Alpha  occ. eigenvalues --   -0.59481  -0.58358  -0.57492  -0.55732  -0.52063
 Alpha  occ. eigenvalues --   -0.50704  -0.50155  -0.46329  -0.45673  -0.35108
 Alpha  occ. eigenvalues --   -0.34564  -0.30998
 Alpha virt. eigenvalues --    0.03346   0.03445   0.03832   0.04217   0.05100
 Alpha virt. eigenvalues --    0.05155   0.06608   0.06751   0.07642   0.07908
 Alpha virt. eigenvalues --    0.08630   0.10199   0.10331   0.11134   0.11703

 Mulliken charges:
               1
     1  C    1.203182
     2  P    0.413030
     3  C   -0.794466
     4  H    0.096422
     5  H    0.129277
     6  H    0.076438
     7  C    0.249217
     8  C    0.089276
     9  C    0.126286
    10  C    0.006889
    11  C    0.229430
    12  H   -0.345718
    13  H   -0.334494
    14  H   -0.232314
    15  H   -0.215896
    16  H   -0.238681
    17  C   -1.040602
    18  H    0.057526
    19  H    0.077263
    20  H    0.447935
 Sum of Mulliken charges =  -0.00000

 Dipole moment (field-independent basis, Debye):
    X=              0.6000    Y=              0.4963    Z=             -0.0842  Tot=              0.7832

 Test job not archived.
 1\1\GINC-SE143\SP\RHF\Aug-CC-pVDZ\C8H11P1\OHZDE\08-Apr-2025\0\\#t hf a
 ug-cc-pvdz iop(5/13=1,5/36=2,99/5=2) pseudo=read geom=check guess=(rea
 d,tcheck) scf=(maxcycle=1)\\title\\0,1\C,0,0.313586,-0.280979,0.562541
 \P,0,-2.506596,-0.403747,-0.124746\C,0,-2.213404,1.27222,-0.873218\H,0
 ,-1.179581,1.434977,-1.181274\H,0,-2.497492,2.041639,-0.151001\H,0,-2.
 866604,1.37861,-1.742581\C,0,1.027704,-1.26842,-0.129011\C,0,2.301406,
 -1.015084,-0.628211\C,0,2.890093,0.236043,-0.44824\C,0,2.193812,1.2267
 71,0.238737\C,0,0.918912,0.968758,0.739546\H,0,0.390125,1.744986,1.283

 Normal termination of Gaussian 16 at Tue Apr  8 23:28:42 2025.
