 Gaussian 16, Revision C.01,

 ----------------------------------------------------------------------
 #t hf aug-cc-pvdz symm=none int=(grid=ultrafine) guess=(read,tcheck) s
 table=opt
 ----------------------------------------------------------------------
 -----
 title
 -----
 Symbolic Z-matrix:
 Charge =  0 Multiplicity = 2

 SCF Done:  E(UHF) =  -151.105330969     A.U. after   20 cycles
 Normal termination of Gaussian 16 at Tue Apr  8 22:36:21 2025.
 Gaussian 16:  ES64L-G16RevC.01  3-Jul-2019

 ----------------------------------------------------------------------
 #t hf aug-cc-pvdz iop(5/13=1,5/36=2,99/5=2) pseudo=read geom=check gue
 ss=(read,tcheck) scf=(maxcycle=1)
 ----------------------------------------------------------------------
 -----
 title
 -----
 Structure from the checkpoint file:  "BDE49_expt_1141_mol2.chk"
 Charge =  0 Multiplicity = 2

                         Standard orientation:
 ---------------------------------------------------------------------
 Center     Atomic      Atomic             Coordinates (Angstroms)
 Number     Number       Type             X           Y           Z
 ---------------------------------------------------------------------
      1          6           0       -1.254961   -0.124662   -0.000000
      2          6           0        0.020496    0.037871   -0.000000
      3          8           0        1.194196    0.006533   -0.000000
      4          1           0       -2.146780    0.468490    0.000003
 ---------------------------------------------------------------------

 SCF Done:  E(UHF) =  -151.247744657     A.U. after    2 cycles

 The electronic state is 2-A.
 Alpha  occ. eigenvalues --  -20.64378 -11.39037 -11.29258  -1.57900  -1.08816
 Alpha  occ. eigenvalues --   -0.78146  -0.72093  -0.68040  -0.64262  -0.44778
 Alpha  occ. eigenvalues --   -0.41992
 Alpha virt. eigenvalues --    0.03256   0.07115   0.09444   0.10297   0.11337
 Alpha virt. eigenvalues --    0.11822   0.13099   0.15029   0.18195   0.20411
 Alpha virt. eigenvalues --    0.22632   0.27301   0.28416   0.28583   0.31418

  Beta  occ. eigenvalues --  -20.62634 -11.39739 -11.27279  -1.54108  -1.02259
  Beta  occ. eigenvalues --   -0.75925  -0.70523  -0.64094  -0.56818  -0.37723
  Beta virt. eigenvalues --    0.00527   0.03345   0.07156   0.09169   0.11144
  Beta virt. eigenvalues --    0.11448   0.12979   0.13201   0.15364   0.18209
  Beta virt. eigenvalues --    0.22808   0.25474   0.27378   0.28850   0.31990

 Mulliken charges and spin densities:
               1          2
     1  C    0.010061   0.997509
     2  C    0.715867  -0.317290
     3  O   -0.698287   0.393180
     4  H   -0.027640  -0.073399
 Sum of Mulliken charges =  -0.00000   1.00000

 Dipole moment (field-independent basis, Debye):
    X=             -1.3692    Y=              1.1126    Z=              0.0000  Tot=              1.7642
                          Isotropic Fermi Contact Couplings
        Atom                 a.u.       MegaHertz       Gauss      10(-4) cm-1
     1  C(13)              0.17554     197.33675      70.41466      65.82446
     2  C(13)             -0.09607    -107.99614     -38.53571     -36.02363
     3  O(17)              0.12707     -77.02745     -27.48531     -25.69359
     4  H(1)              -0.01797     -80.33444     -28.66533     -26.79669
 --------------------------------------------------------
       Center         ----  Spin Dipole Couplings  ----
                      3XX-RR        3YY-RR        3ZZ-RR
 --------------------------------------------------------

 Normal termination of Gaussian 16 at Tue Apr  8 22:36:22 2025.
