 Gaussian 16, Revision C.01,

 ----------------------------------------------------------------------
 #t hf aug-cc-pvdz symm=none int=(grid=ultrafine) guess=(read,tcheck) s
 table=(opt,rrhf)
 ----------------------------------------------------------------------
 -----
 title
 -----
 Symbolic Z-matrix:
 Charge =  0 Multiplicity = 1

 SCF Done:  E(RHF) =  -118.156717247     A.U. after   12 cycles
 Normal termination of Gaussian 16 at Wed Apr  9 00:27:39 2025.
 Gaussian 16:  ES64L-G16RevC.01  3-Jul-2019

 ----------------------------------------------------------------------
 #t hf aug-cc-pvdz iop(5/13=1,5/36=2,99/5=2) pseudo=read geom=check gue
 ss=(read,tcheck) scf=(maxcycle=1)
 ----------------------------------------------------------------------
 -----
 title
 -----
 Structure from the checkpoint file:  "BDE49_nonexpt_294_mol1.chk"
 Charge =  0 Multiplicity = 1

                         Standard orientation:
 ---------------------------------------------------------------------
 Center     Atomic      Atomic             Coordinates (Angstroms)
 Number     Number       Type             X           Y           Z
 ---------------------------------------------------------------------
      1          5           0        1.338050   -0.000000   -0.000035
      2          6           0       -0.185518   -0.000000   -0.000003
      3          7           0       -1.343005    0.000000    0.000021
      4          1           0        1.911946    1.036593    0.000021
      5          1           0        1.911947   -1.036592    0.000021
 ---------------------------------------------------------------------

 SCF Done:  E(RHF) =  -118.270227265     A.U. after    2 cycles

 The electronic state is 1-A.
 Alpha  occ. eigenvalues --  -15.54264 -11.27514  -7.66626  -1.24762  -0.84909
 Alpha  occ. eigenvalues --   -0.65416  -0.59823  -0.58261  -0.52440  -0.50260
 Alpha virt. eigenvalues --   -0.00472   0.04011   0.04031   0.04725   0.05550
 Alpha virt. eigenvalues --    0.09004   0.09912   0.12347   0.14068   0.14739
 Alpha virt. eigenvalues --    0.16140   0.18231   0.21015   0.21914   0.23054

 Mulliken charges:
               1
     1  B   -0.078221
     2  C   -0.954729
     3  N    0.704172
     4  H    0.164388
     5  H    0.164389
 Sum of Mulliken charges =  -0.00000

 Dipole moment (field-independent basis, Debye):
    X=              3.7100    Y=             -0.0000    Z=             -0.0002  Tot=              3.7100

 Test job not archived.
 1\1\GINC-SE455\SP\RHF\Aug-CC-pVDZ\C1H2B1N1\OHZDE\09-Apr-2025\0\\#t hf
 aug-cc-pvdz iop(5/13=1,5/36=2,99/5=2) pseudo=read geom=check guess=(re
 ad,tcheck) scf=(maxcycle=1)\\title\\0,1\B,0,-1.33805,0.,0.000035\C,0,0
 .185518,0.,0.000003\N,0,1.343005,0.,-0.000021\H,0,-1.911946,1.036593,-
 0.000021\H,0,-1.911947,-1.036592,-0.000021\\Version=ES64L-G16RevC.01\S
 tate=1-A\HF=-118.2702273\RMSD=1.886e-02\Dipole=-1.4596221,-0.0000003,0
 .0000687\Quadrupole=-1.8147544,0.3155172,1.4992371,0.0000013,-0.000072
 5,0.\PG=C01 [X(C1H2B1N1)]\\@

 Normal termination of Gaussian 16 at Wed Apr  9 00:27:40 2025.
