 Gaussian 16, Revision C.01,

 ----------------------------------------------------------------------
 #t hf aug-cc-pvdz symm=none int=(grid=ultrafine) guess=(read,tcheck) s
 table=(opt,rrhf)
 ----------------------------------------------------------------------
 -----
 title
 -----
 Symbolic Z-matrix:
 Charge =  0 Multiplicity = 1

 SCF Done:  E(RHF) =  -315.531845204     A.U. after   14 cycles
 Normal termination of Gaussian 16 at Wed Apr  9 00:43:42 2025.
 Gaussian 16:  ES64L-G16RevC.01  3-Jul-2019

 ----------------------------------------------------------------------
 #t hf aug-cc-pvdz iop(5/13=1,5/36=2,99/5=2) pseudo=read geom=check gue
 ss=(read,tcheck) scf=(maxcycle=1)
 ----------------------------------------------------------------------
 -----
 title
 -----
 Structure from the checkpoint file:  "BDE49_nonexpt_71_mol1.chk"
 Charge =  0 Multiplicity = 1

                         Standard orientation:
 ---------------------------------------------------------------------
 Center     Atomic      Atomic             Coordinates (Angstroms)
 Number     Number       Type             X           Y           Z
 ---------------------------------------------------------------------
      1          5           0        0.702561   -1.030457   -0.427029
      2          5           0       -0.702559   -1.030452    0.427039
      3          6           0       -1.839470    0.031026    0.223642
      4          7           0       -1.666858    1.209217    0.701764
      5          1           0       -0.733203    1.333754    1.108172
      6          6           0        1.839472    0.031024   -0.223646
      7          7           0        1.666851    1.209214   -0.701766
      8          1           0        0.733193    1.333747   -1.108167
      9          6           0       -3.147254   -0.303368   -0.441598
     10          1           0       -3.644052   -1.128565    0.079619
     11          1           0       -2.986541   -0.628631   -1.475142
     12          1           0       -3.795513    0.575060   -0.435251
     13          6           0        3.147258   -0.303363    0.441595
     14          1           0        3.644058   -1.128559   -0.079619
     15          1           0        2.986548   -0.628621    1.475140
     16          1           0        3.795513    0.575068    0.435243
     17          1           0       -0.871350   -1.829813    1.305141
     18          1           0        0.871347   -1.829822   -1.305129
 ---------------------------------------------------------------------

 SCF Done:  E(RHF) =  -315.859830714     A.U. after    2 cycles

 The electronic state is 1-A.
 Alpha  occ. eigenvalues --  -15.49659 -15.49628 -11.28306 -11.28301 -11.24311
 Alpha  occ. eigenvalues --  -11.24310  -7.60550  -7.60491  -1.21533  -1.21040
 Alpha  occ. eigenvalues --   -1.00017  -0.99862  -0.83750  -0.79841  -0.76343
 Alpha  occ. eigenvalues --   -0.72820  -0.63404  -0.60816  -0.60269  -0.59426
 Alpha  occ. eigenvalues --   -0.59412  -0.57377  -0.55432  -0.54312  -0.50716
 Alpha  occ. eigenvalues --   -0.45663  -0.44360  -0.43482  -0.41141
 Alpha virt. eigenvalues --    0.02407   0.02444   0.03199   0.03433   0.04660
 Alpha virt. eigenvalues --    0.05027   0.05781   0.06283   0.07111   0.07122
 Alpha virt. eigenvalues --    0.07886   0.07972   0.08437   0.08710   0.09546

 Mulliken charges:
               1
     1  B   -0.171267
     2  B   -0.171262
     3  C   -0.888514
     4  N    0.694304
     5  H    0.121607
     6  C   -0.888518
     7  N    0.694303
     8  H    0.121608
     9  C   -0.712379
    10  H    0.221522
    11  H    0.225973
    12  H    0.175465
    13  C   -0.712368
    14  H    0.221519
    15  H    0.225971
    16  H    0.175466
    17  H    0.333286
    18  H    0.333284
 Sum of Mulliken charges =  -0.00000

 Dipole moment (field-independent basis, Debye):
    X=              0.0000    Y=             -4.7372    Z=              0.0000  Tot=              4.7372

 Test job not archived.
 1\1\GINC-SE322\SP\RHF\Aug-CC-pVDZ\C4H10B2N2\OHZDE\09-Apr-2025\0\\#t hf
  aug-cc-pvdz iop(5/13=1,5/36=2,99/5=2) pseudo=read geom=check guess=(r
 ead,tcheck) scf=(maxcycle=1)\\title\\0,1\B,0,0.702561,-1.030457,-0.427
 029\B,0,-0.702559,-1.030452,0.427039\C,0,-1.83947,0.031026,0.223642\N,
 0,-1.666858,1.209217,0.701764\H,0,-0.733203,1.333754,1.108172\C,0,1.83
 9472,0.031024,-0.223646\N,0,1.666851,1.209214,-0.701766\H,0,0.733193,1
 .333747,-1.108167\C,0,-3.147254,-0.303368,-0.441598\H,0,-3.644052,-1.1
 28565,0.079619\H,0,-2.986541,-0.628631,-1.475142\H,0,-3.795513,0.57506

 Normal termination of Gaussian 16 at Wed Apr  9 00:43:51 2025.
