 Gaussian 16, Revision C.01,

 ----------------------------------------------------------------------
 #t hf aug-cc-pvdz symm=none int=(grid=ultrafine) guess=(read,tcheck) s
 table=(opt,rrhf)
 ----------------------------------------------------------------------
 -----
 title
 -----
 Symbolic Z-matrix:
 Charge =  0 Multiplicity = 1

 SCF Done:  E(RHF) =  -636.127703283     A.U. after   13 cycles
 Normal termination of Gaussian 16 at Wed Apr  9 00:07:55 2025.
 Gaussian 16:  ES64L-G16RevC.01  3-Jul-2019

 ----------------------------------------------------------------------
 #t hf aug-cc-pvdz iop(5/13=1,5/36=2,99/5=2) pseudo=read geom=check gue
 ss=(read,tcheck) scf=(maxcycle=1)
 ----------------------------------------------------------------------
 -----
 title
 -----
 Structure from the checkpoint file:  "BDE49_nonexpt_2249_mol1.chk"
 Charge =  0 Multiplicity = 1

                         Standard orientation:
 ---------------------------------------------------------------------
 Center     Atomic      Atomic             Coordinates (Angstroms)
 Number     Number       Type             X           Y           Z
 ---------------------------------------------------------------------
      1         14           0       -2.192119   -0.854132    0.128560
      2          8           0       -2.715966    0.659720    0.671792
      3          8           0       -2.737950    1.535535   -0.507243
      4          1           0       -3.659286    1.826230   -0.475021
      5          6           0       -0.486428   -0.796264   -0.635472
      6          6           0        0.619641   -0.248196    0.285242
      7          1           0       -0.547658   -0.196902   -1.551489
      8          1           0       -0.240954   -1.817519   -0.959494
      9          6           0        2.003973   -0.223636   -0.374944
     10          1           0        0.669564   -0.851439    1.200252
     11          1           0        0.354800    0.765666    0.605195
     12          6           0        3.107569    0.324614    0.536769
     13          1           0        1.955235    0.381379   -1.289479
     14          1           0        2.269864   -1.239303   -0.696180
     15          6           0        4.486209    0.349033   -0.129524
     16          1           0        3.154295   -0.280385    1.450421
     17          1           0        2.838684    1.338186    0.857566
     18          1           0        4.798100   -0.656022   -0.430636
     19          1           0        5.249630    0.744682    0.545926
     20          1           0        4.480488    0.975285   -1.027141
     21          1           0       -3.174706   -1.406737   -0.833925
     22          1           0       -2.212855   -1.620622    1.395356
 ---------------------------------------------------------------------

 SCF Done:  E(RHF) =  -636.527299455     A.U. after    2 cycles

 The electronic state is 1-A.
 Alpha  occ. eigenvalues --  -69.55367 -20.62269 -20.59630 -11.23138 -11.22494
 Alpha  occ. eigenvalues --  -11.22394 -11.22100 -11.22055  -6.22072  -3.97533
 Alpha  occ. eigenvalues --   -3.97398  -3.97345  -1.56596  -1.27094  -1.08378
 Alpha  occ. eigenvalues --   -1.01776  -0.92491  -0.83107  -0.79191  -0.72914
 Alpha  occ. eigenvalues --   -0.71052  -0.65457  -0.62113  -0.60722  -0.59857
 Alpha  occ. eigenvalues --   -0.58839  -0.56816  -0.53943  -0.52707  -0.51382
 Alpha  occ. eigenvalues --   -0.49330  -0.48788  -0.47682  -0.46754  -0.46677
 Alpha  occ. eigenvalues --   -0.45897  -0.42213
 Alpha virt. eigenvalues --    0.03448   0.03636   0.03826   0.04015   0.05264
 Alpha virt. eigenvalues --    0.05462   0.05749   0.06651   0.07339   0.08023
 Alpha virt. eigenvalues --    0.08313   0.08742   0.09617   0.10833   0.11412

 Mulliken charges:
               1
     1  Si   1.833475
     2  O   -0.935505
     3  O   -0.677910
     4  H    0.502942
     5  C   -0.611561
     6  C   -0.167134
     7  H    0.119639
     8  H    0.056409
     9  C   -0.196026
    10  H    0.075808
    11  H    0.075615
    12  C   -0.198640
    13  H    0.105831
    14  H    0.108588
    15  C   -0.417812
    16  H    0.120042
    17  H    0.121656
    18  H    0.162028
    19  H    0.119960
    20  H    0.162943
    21  H   -0.222443
    22  H   -0.137905
 Sum of Mulliken charges =   0.00000

 Dipole moment (field-independent basis, Debye):
    X=             -0.2935    Y=             -0.4892    Z=             -0.7814  Tot=              0.9675

 Test job not archived.
 1\1\GINC-SE455\SP\RHF\Aug-CC-pVDZ\C5H14O2Si1\OHZDE\09-Apr-2025\0\\#t h
 f aug-cc-pvdz iop(5/13=1,5/36=2,99/5=2) pseudo=read geom=check guess=(
 read,tcheck) scf=(maxcycle=1)\\title\\0,1\Si,0,-2.192119,-0.854132,0.1
 2856\O,0,-2.715966,0.65972,0.671792\O,0,-2.73795,1.535535,-0.507243\H,
 0,-3.659286,1.82623,-0.475021\C,0,-0.486428,-0.796264,-0.635472\C,0,0.
 619641,-0.248196,0.285242\H,0,-0.547658,-0.196902,-1.551489\H,0,-0.240
 954,-1.817519,-0.959494\C,0,2.003973,-0.223636,-0.374944\H,0,0.669564,
 -0.851439,1.200252\H,0,0.3548,0.765666,0.605195\C,0,3.107569,0.324614,

 Normal termination of Gaussian 16 at Wed Apr  9 00:08:05 2025.
