 Gaussian 16, Revision C.01,

 ----------------------------------------------------------------------
 #t hf aug-cc-pvdz symm=none int=(grid=ultrafine) guess=(read,tcheck) s
 table=opt
 ----------------------------------------------------------------------
 -----
 title
 -----
 Symbolic Z-matrix:
 Charge =  0 Multiplicity = 2

 SCF Done:  E(UHF) =  -445.236217325     A.U. after   18 cycles
 Normal termination of Gaussian 16 at Tue Apr  8 23:37:13 2025.
 Gaussian 16:  ES64L-G16RevC.01  3-Jul-2019

 ----------------------------------------------------------------------
 #t hf aug-cc-pvdz iop(5/13=1,5/36=2,99/5=2) pseudo=read geom=check gue
 ss=(read,tcheck) scf=(maxcycle=1)
 ----------------------------------------------------------------------
 -----
 title
 -----
 Structure from the checkpoint file:  "BDE49_nonexpt_1547_mol2.chk"
 Charge =  0 Multiplicity = 2

                         Standard orientation:
 ---------------------------------------------------------------------
 Center     Atomic      Atomic             Coordinates (Angstroms)
 Number     Number       Type             X           Y           Z
 ---------------------------------------------------------------------
      1          6           0        1.125618    1.398472   -0.041210
      2          5           0        0.406981    0.001408    0.018704
      3          1           0        1.336804    1.679401    1.003263
      4          1           0        0.534278    2.213454   -0.465032
      5          1           0        2.097314    1.358665   -0.545309
      6          6           0        1.247624   -1.326297    0.042130
      7          1           0        1.441014   -1.591883   -1.010110
      8          1           0        0.748135   -2.189435    0.488832
      9          1           0        2.232216   -1.200476    0.504204
     10         15           0       -1.525844   -0.118614   -0.051285
     11          1           0       -1.776462    1.069399    0.694386
 ---------------------------------------------------------------------

 SCF Done:  E(UHF) =  -445.394406040     A.U. after    2 cycles

 The electronic state is 2-A.
 Alpha  occ. eigenvalues --  -84.26033 -11.21252 -11.21151  -7.60325  -6.73418
 Alpha  occ. eigenvalues --   -4.26177  -4.25403  -4.24896  -0.98778  -0.93530
 Alpha  occ. eigenvalues --   -0.84841  -0.61999  -0.57936  -0.57150  -0.55709
 Alpha  occ. eigenvalues --   -0.54133  -0.48315  -0.44565  -0.35667  -0.33258
 Alpha virt. eigenvalues --    0.03418   0.04149   0.04501   0.04688   0.06877
 Alpha virt. eigenvalues --    0.07034   0.07246   0.08607   0.08735   0.09350
 Alpha virt. eigenvalues --    0.10479   0.11751   0.12171   0.14449   0.15198

  Beta  occ. eigenvalues --  -84.25410 -11.21213 -11.21125  -7.60404  -6.72628
  Beta  occ. eigenvalues --   -4.24942  -4.24526  -4.23095  -0.98438  -0.93390
  Beta  occ. eigenvalues --   -0.78605  -0.61575  -0.57662  -0.56893  -0.55355
  Beta  occ. eigenvalues --   -0.53923  -0.47900  -0.43494  -0.34083
  Beta virt. eigenvalues --    0.01956   0.03460   0.04326   0.04712   0.05076
  Beta virt. eigenvalues --    0.06949   0.07108   0.07325   0.08871   0.09248
  Beta virt. eigenvalues --    0.10402   0.10580   0.11997   0.12612   0.14837

 Mulliken charges and spin densities:
               1          2
     1  C   -0.376163   0.005470
     2  B    0.804653  -0.192047
     3  H    0.158674   0.012396
     4  H   -0.027563   0.008783
     5  H    0.022394  -0.003289
     6  C   -0.365085  -0.001382
     7  H    0.172034   0.008810
     8  H   -0.020482   0.004565
     9  H    0.017923  -0.003213
    10  P   -0.574799   1.324981
    11  H    0.188414  -0.165074
 Sum of Mulliken charges =  -0.00000   1.00000

 Dipole moment (field-independent basis, Debye):
    X=              1.0934    Y=              0.2843    Z=              0.2258  Tot=              1.1522
                          Isotropic Fermi Contact Couplings
        Atom                 a.u.       MegaHertz       Gauss      10(-4) cm-1
     1  C(13)              0.00876       9.84490       3.51291       3.28391
     2  B(11)             -0.01500     -21.50925      -7.67503      -7.17471
     3  H(1)               0.00225      10.07472       3.59491       3.36057
     4  H(1)               0.00040       1.80577       0.64434       0.60234
     5  H(1)              -0.00056      -2.49197      -0.88920      -0.83123
     6  C(13)              0.00532       5.98373       2.13514       1.99596
     7  H(1)               0.00215       9.59469       3.42362       3.20044
     8  H(1)               0.00033       1.48312       0.52922       0.49472

 Normal termination of Gaussian 16 at Tue Apr  8 23:37:16 2025.
