 Gaussian 16, Revision C.01,

 ----------------------------------------------------------------------
 #t hf aug-cc-pvdz symm=none int=(grid=ultrafine) guess=(read,tcheck) s
 table=(opt,rrhf)
 ----------------------------------------------------------------------
 -----
 title
 -----
 Symbolic Z-matrix:
 Charge =  0 Multiplicity = 1

 SCF Done:  E(RHF) =  -815.755645990     A.U. after   16 cycles
 Normal termination of Gaussian 16 at Tue Apr  8 23:40:13 2025.
 Gaussian 16:  ES64L-G16RevC.01  3-Jul-2019

 ----------------------------------------------------------------------
 #t hf aug-cc-pvdz iop(5/13=1,5/36=2,99/5=2) pseudo=read geom=check gue
 ss=(read,tcheck) scf=(maxcycle=1)
 ----------------------------------------------------------------------
 -----
 title
 -----
 Structure from the checkpoint file:  "BDE49_nonexpt_1578_mol1.chk"
 Charge =  0 Multiplicity = 1

                         Standard orientation:
 ---------------------------------------------------------------------
 Center     Atomic      Atomic             Coordinates (Angstroms)
 Number     Number       Type             X           Y           Z
 ---------------------------------------------------------------------
      1          6           0       -3.299787   -1.110632    0.094787
      2          6           0       -1.977969   -1.103191    0.532389
      3          6           0       -3.870785    0.047370   -0.428830
      4          6           0       -3.109730    1.211398   -0.511919
      5          6           0       -1.787842    1.216424   -0.074051
      6          6           0       -1.203918    0.061352    0.459096
      7          1           0       -1.541439   -2.009064    0.940661
      8          7           0        2.907439   -0.147635    0.244428
      9          8           0        3.858080   -0.487554   -0.774954
     10          8           0        2.972247    1.269402    0.411931
     11          1           0       -3.884504   -2.021152    0.165037
     12          1           0       -3.545918    2.118387   -0.915676
     13          1           0       -4.900531    0.043051   -0.767712
     14          1           0       -1.201701    2.127346   -0.139907
     15          6           0        0.235274    0.067507    0.914826
     16          1           0        3.517515    1.374128    1.201612
     17          1           0        4.554765   -0.936262   -0.281564
     18         15           0        1.332858   -0.615400   -0.436805
     19          1           0        0.367643   -0.575617    1.788980
     20          1           0        0.568897    1.072505    1.172294
     21          1           0        1.166255    0.474969   -1.336261
 ---------------------------------------------------------------------

 SCF Done:  E(RHF) =  -816.282061768     A.U. after    2 cycles

 The electronic state is 1-A.
 Alpha  occ. eigenvalues --  -84.29698 -20.59341 -20.59211 -15.61288 -11.25590
 Alpha  occ. eigenvalues --  -11.24816 -11.24526 -11.24504 -11.24264 -11.24256
 Alpha  occ. eigenvalues --  -11.24211  -6.76471  -4.29451  -4.28764  -4.28220
 Alpha  occ. eigenvalues --   -1.53554  -1.44472  -1.16104  -1.08047  -1.04642
 Alpha  occ. eigenvalues --   -1.01808  -0.94949  -0.83854  -0.82624  -0.78842
 Alpha  occ. eigenvalues --   -0.73222  -0.72060  -0.70649  -0.65840  -0.65365
 Alpha  occ. eigenvalues --   -0.64001  -0.61036  -0.60097  -0.58500  -0.57203
 Alpha  occ. eigenvalues --   -0.53027  -0.50943  -0.50580  -0.49701  -0.48884
 Alpha  occ. eigenvalues --   -0.47212  -0.44077  -0.35848  -0.34530  -0.32798
 Alpha virt. eigenvalues --    0.03258   0.03559   0.03815   0.04636   0.05080
 Alpha virt. eigenvalues --    0.05295   0.06440   0.07009   0.07792   0.08327
 Alpha virt. eigenvalues --    0.09821   0.10212   0.10429   0.11079   0.11433

 Mulliken charges:
               1
     1  C    0.106313
     2  C   -0.033595
     3  C    0.084745
     4  C    0.073215
     5  C    0.213908
     6  C    1.789865
     7  H   -0.319912
     8  N    1.074671
     9  O   -0.989262
    10  O   -1.064680
    11  H   -0.230254
    12  H   -0.229668
    13  H   -0.217957
    14  H   -0.328480
    15  C   -1.098674
    16  H    0.301648
    17  H    0.302143
    18  P    0.277687
    19  H    0.039355
    20  H   -0.023851
    21  H    0.272784
 Sum of Mulliken charges =   0.00000

 Dipole moment (field-independent basis, Debye):
    X=              0.3556    Y=             -0.0444    Z=              1.8690  Tot=              1.9031

 Test job not archived.
 1\1\GINC-SE341\SP\RHF\Aug-CC-pVDZ\C7H10N1O2P1\OHZDE\08-Apr-2025\0\\#t
 hf aug-cc-pvdz iop(5/13=1,5/36=2,99/5=2) pseudo=read geom=check guess=
 (read,tcheck) scf=(maxcycle=1)\\title\\0,1\C,0,-3.299787,-1.110632,0.0
 94787\C,0,-1.977969,-1.103191,0.532389\C,0,-3.870785,0.04737,-0.42883\
 C,0,-3.10973,1.211398,-0.511919\C,0,-1.787842,1.216424,-0.074051\C,0,-
 1.203918,0.061352,0.459096\H,0,-1.541439,-2.009064,0.940661\N,0,2.9074
 39,-0.147635,0.244428\O,0,3.85808,-0.487554,-0.774954\O,0,2.972247,1.2
 69402,0.411931\H,0,-3.884504,-2.021152,0.165037\H,0,-3.545918,2.118387

 Normal termination of Gaussian 16 at Tue Apr  8 23:40:25 2025.
