 Gaussian 16, Revision C.01,

 ----------------------------------------------------------------------
 #t hf aug-cc-pvdz symm=none int=(grid=ultrafine) guess=(read,tcheck) s
 table=(opt,rrhf)
 ----------------------------------------------------------------------
 -----
 title
 -----
 Symbolic Z-matrix:
 Charge =  0 Multiplicity = 1

 SCF Done:  E(RHF) =  -845.853886322     A.U. after   15 cycles
 Normal termination of Gaussian 16 at Wed Apr  9 00:10:58 2025.
 Gaussian 16:  ES64L-G16RevC.01  3-Jul-2019

 ----------------------------------------------------------------------
 #t hf aug-cc-pvdz iop(5/13=1,5/36=2,99/5=2) pseudo=read geom=check gue
 ss=(read,tcheck) scf=(maxcycle=1)
 ----------------------------------------------------------------------
 -----
 title
 -----
 Structure from the checkpoint file:  "BDE49_nonexpt_2346_mol1.chk"
 Charge =  0 Multiplicity = 1

                         Standard orientation:
 ---------------------------------------------------------------------
 Center     Atomic      Atomic             Coordinates (Angstroms)
 Number     Number       Type             X           Y           Z
 ---------------------------------------------------------------------
      1         14           0       -1.683042   -0.801272    0.277400
      2         14           0        0.412834   -1.084079   -0.760503
      3          6           0        1.705745   -0.010538    0.222420
      4          8           0        2.044523   -0.430465    1.309295
      5          6           0       -2.081191    1.093563    0.196801
      6          8           0       -1.270237    1.897977   -0.209482
      7          6           0        2.213301    1.294948   -0.343624
      8          1           0        2.912509    1.760327    0.353156
      9          1           0        1.360540    1.956253   -0.527905
     10          1           0        2.701454    1.121251   -1.308404
     11          1           0        0.295776   -0.691936   -2.187283
     12          1           0        0.848078   -2.495680   -0.668068
     13          1           0       -1.685446   -1.193484    1.708509
     14          1           0       -2.790757   -1.527045   -0.396146
     15          1           0       -3.080649    1.457301    0.537500
 ---------------------------------------------------------------------

 SCF Done:  E(RHF) =  -846.184691170     A.U. after    2 cycles

 The electronic state is 1-A.
 Alpha  occ. eigenvalues --  -69.54954 -69.54378 -20.57260 -20.54753 -11.34676
 Alpha  occ. eigenvalues --  -11.33508 -11.24088  -6.22184  -6.21574  -3.97523
 Alpha  occ. eigenvalues --   -3.97498  -3.97491  -3.96900  -3.96897  -3.96891
 Alpha  occ. eigenvalues --   -1.49314  -1.47442  -1.01368  -0.87663  -0.81776
 Alpha  occ. eigenvalues --   -0.75254  -0.70331  -0.67225  -0.62865  -0.62463
 Alpha  occ. eigenvalues --   -0.60377  -0.59645  -0.55394  -0.54095  -0.51074
 Alpha  occ. eigenvalues --   -0.50447  -0.49230  -0.43921  -0.40188  -0.38079
 Alpha virt. eigenvalues --    0.03116   0.03424   0.04331   0.05010   0.05698
 Alpha virt. eigenvalues --    0.05992   0.06411   0.07065   0.07424   0.07993
 Alpha virt. eigenvalues --    0.08597   0.08764   0.09440   0.10397   0.10984

 Mulliken charges:
               1
     1  Si   0.787935
     2  Si   0.489541
     3  C    0.666719
     4  O   -1.154335
     5  C    0.357960
     6  O   -0.886572
     7  C   -0.426863
     8  H    0.131947
     9  H    0.268261
    10  H    0.223119
    11  H   -0.043932
    12  H   -0.111200
    13  H   -0.134167
    14  H   -0.150548
    15  H   -0.017864
 Sum of Mulliken charges =   0.00000

 Dipole moment (field-independent basis, Debye):
    X=             -2.0156    Y=             -0.5200    Z=             -1.6419  Tot=              2.6512

 Test job not archived.
 1\1\GINC-SE222\SP\RHF\Aug-CC-pVDZ\C3H8O2Si2\OHZDE\09-Apr-2025\0\\#t hf
  aug-cc-pvdz iop(5/13=1,5/36=2,99/5=2) pseudo=read geom=check guess=(r
 ead,tcheck) scf=(maxcycle=1)\\title\\0,1\Si,0,-1.683042,-0.801272,0.27
 74\Si,0,0.412834,-1.084079,-0.760503\C,0,1.705745,-0.010538,0.22242\O,
 0,2.044523,-0.430465,1.309295\C,0,-2.081191,1.093563,0.196801\O,0,-1.2
 70237,1.897977,-0.209482\C,0,2.213301,1.294948,-0.343624\H,0,2.912509,
 1.760328,0.353156\H,0,1.36054,1.956253,-0.527905\H,0,2.701454,1.121252
 ,-1.308404\H,0,0.295776,-0.691936,-2.187283\H,0,0.848079,-2.49568,-0.6

 Normal termination of Gaussian 16 at Wed Apr  9 00:11:04 2025.
