 Gaussian 16, Revision C.01,

 ----------------------------------------------------------------------
 #t hf aug-cc-pvdz symm=none int=(grid=ultrafine) guess=(read,tcheck) s
 table=(opt,rrhf)
 ----------------------------------------------------------------------
 -----
 title
 -----
 Symbolic Z-matrix:
 Charge =  0 Multiplicity = 1

 SCF Done:  E(RHF) =  -288.565218102     A.U. after   16 cycles
 Normal termination of Gaussian 16 at Tue Apr  8 23:21:48 2025.
 Gaussian 16:  ES64L-G16RevC.01  3-Jul-2019

 ----------------------------------------------------------------------
 #t hf aug-cc-pvdz iop(5/13=1,5/36=2,99/5=2) pseudo=read geom=check gue
 ss=(read,tcheck) scf=(maxcycle=1)
 ----------------------------------------------------------------------
 -----
 title
 -----
 Structure from the checkpoint file:  "BDE49_nonexpt_1181_mol1.chk"
 Charge =  0 Multiplicity = 1

                         Standard orientation:
 ---------------------------------------------------------------------
 Center     Atomic      Atomic             Coordinates (Angstroms)
 Number     Number       Type             X           Y           Z
 ---------------------------------------------------------------------
      1          8           0       -0.584039   -0.605388    0.351855
      2          9           0       -1.468599    0.517348   -0.113567
      3          8           0        0.536546   -0.557987   -0.402938
      4          6           0        1.436818    0.440896    0.124054
      5          1           0        2.331092    0.349748   -0.491068
      6          1           0        1.657999    0.228927    1.170675
      7          1           0        0.987330    1.426820    0.006840
 ---------------------------------------------------------------------

 SCF Done:  E(RHF) =  -288.843487419     A.U. after    2 cycles

 The electronic state is 1-A.
 Alpha  occ. eigenvalues --  -26.49850 -20.74887 -20.66475 -11.31901  -1.71699
 Alpha  occ. eigenvalues --   -1.52716  -1.25245  -0.96024  -0.74277  -0.73530
 Alpha  occ. eigenvalues --   -0.72887  -0.63834  -0.62314  -0.60885  -0.57274
 Alpha  occ. eigenvalues --   -0.51116  -0.49051
 Alpha virt. eigenvalues --    0.03317   0.05074   0.05545   0.09171   0.11257
 Alpha virt. eigenvalues --    0.13946   0.14630   0.16007   0.16695   0.19607
 Alpha virt. eigenvalues --    0.21640   0.23752   0.25696   0.26571   0.27735

 Mulliken charges:
               1
     1  O    0.189690
     2  F   -0.392847
     3  O   -0.564937
     4  C    0.378608
     5  H    0.066273
     6  H    0.144413
     7  H    0.178800
 Sum of Mulliken charges =   0.00000

 Dipole moment (field-independent basis, Debye):
    X=              2.7416    Y=              0.7758    Z=              0.6415  Tot=              2.9205

 Test job not archived.
 1\1\GINC-SE092\SP\RHF\Aug-CC-pVDZ\C1H3F1O2\OHZDE\08-Apr-2025\0\\#t hf
 aug-cc-pvdz iop(5/13=1,5/36=2,99/5=2) pseudo=read geom=check guess=(re
 ad,tcheck) scf=(maxcycle=1)\\title\\0,1\O,0,-0.584039,-0.605388,0.3518
 55\F,0,-1.468599,0.517348,-0.113567\O,0,0.536546,-0.557987,-0.402938\C
 ,0,1.436818,0.440896,0.124054\H,0,2.331092,0.349749,-0.491068\H,0,1.65
 7999,0.228927,1.170675\H,0,0.987329,1.42682,0.00684\\Version=ES64L-G16
 RevC.01\State=1-A\HF=-288.8434874\RMSD=8.856e-03\Dipole=1.0786116,0.30
 52196,0.2523695\Quadrupole=0.8525812,-0.4019576,-0.4506235,1.1554557,0

 Normal termination of Gaussian 16 at Tue Apr  8 23:21:50 2025.
