 Gaussian 16, Revision C.01,

 ----------------------------------------------------------------------
 #t hf aug-cc-pvdz symm=none int=(grid=ultrafine) guess=(read,tcheck) s
 table=(opt,rrhf)
 ----------------------------------------------------------------------
 -----
 title
 -----
 Symbolic Z-matrix:
 Charge =  0 Multiplicity = 1

 SCF Done:  E(RHF) =  -762.053622984     A.U. after   16 cycles
 Normal termination of Gaussian 16 at Tue Apr  8 23:05:03 2025.
 Gaussian 16:  ES64L-G16RevC.01  3-Jul-2019

 ----------------------------------------------------------------------
 #t hf aug-cc-pvdz iop(5/13=1,5/36=2,99/5=2) pseudo=read geom=check gue
 ss=(read,tcheck) scf=(maxcycle=1)
 ----------------------------------------------------------------------
 -----
 title
 -----
 Structure from the checkpoint file:  "BDE49_expt_1899_mol1.chk"
 Charge =  0 Multiplicity = 1

                         Standard orientation:
 ---------------------------------------------------------------------
 Center     Atomic      Atomic             Coordinates (Angstroms)
 Number     Number       Type             X           Y           Z
 ---------------------------------------------------------------------
      1          6           0        0.750024    0.208419   -0.373206
      2          8           0        0.078796    1.200365   -0.382116
      3          8           0        0.250992   -1.061958   -0.595883
      4          8           0       -1.152513   -1.037583   -0.893908
      5          6           0       -1.924548   -1.040292    0.263074
      6          8           0       -1.468052   -1.026663    1.364434
      7          6           0        2.217462    0.139671   -0.135897
      8          6           0        2.933545   -1.063462   -0.117371
      9          6           0        4.305255   -1.045320    0.111266
     10          6           0        4.965199    0.164675    0.320753
     11          6           0        4.252519    1.363246    0.303496
     12          6           0        2.881890    1.352835    0.076597
     13          1           0        2.307997    2.270717    0.060718
     14          1           0        2.419348   -2.001655   -0.276348
     15          1           0        4.859720   -1.976330    0.127351
     16          1           0        6.034654    0.173344    0.498777
     17          1           0        4.765249    2.303779    0.467809
     18          6           0       -3.380196   -1.051911   -0.144870
     19          6           0       -4.060568    0.342706   -0.065816
     20          1           0       -3.878431   -1.741884    0.541061
     21          1           0       -3.471588   -1.446302   -1.158978
     22          6           0       -3.474115    1.326364   -1.087166
     23          1           0       -2.424630    1.546511   -0.876542
     24          1           0       -4.028530    2.268680   -1.065884
     25          1           0       -3.534124    0.926544   -2.103722
     26          6           0       -4.046361    0.921223    1.354957
     27          1           0       -5.105974    0.155011   -0.339819
     28          1           0       -4.623105    1.849541    1.388453
     29          1           0       -3.029795    1.144407    1.686381
     30          1           0       -4.485214    0.225418    2.075636
 ---------------------------------------------------------------------

 SCF Done:  E(RHF) =  -762.819954889     A.U. after    2 cycles

 The electronic state is 1-A.
 Alpha  occ. eigenvalues --  -20.66384 -20.66139 -20.55130 -20.55060 -11.40975
 Alpha  occ. eigenvalues --  -11.40311 -11.26985 -11.26803 -11.26692 -11.26496
 Alpha  occ. eigenvalues --  -11.25938 -11.25810 -11.25742 -11.25081 -11.22038
 Alpha  occ. eigenvalues --  -11.21882  -1.65643  -1.50980  -1.48912  -1.36137
 Alpha  occ. eigenvalues --   -1.17644  -1.10288  -1.05491  -1.03687  -0.98856
 Alpha  occ. eigenvalues --   -0.93100  -0.90629  -0.85930  -0.83871  -0.80050
 Alpha  occ. eigenvalues --   -0.77687  -0.76294  -0.71262  -0.71085  -0.69934
 Alpha  occ. eigenvalues --   -0.66589  -0.66314  -0.65000  -0.63467  -0.62790
 Alpha  occ. eigenvalues --   -0.61931  -0.60547  -0.59907  -0.59159  -0.56530
 Alpha  occ. eigenvalues --   -0.54469  -0.54090  -0.52918  -0.52671  -0.52290
 Alpha  occ. eigenvalues --   -0.49738  -0.49522  -0.48861  -0.48208  -0.47623
 Alpha  occ. eigenvalues --   -0.45871  -0.44233  -0.36751  -0.36269
 Alpha virt. eigenvalues --    0.03045   0.03411   0.03685   0.04175   0.04266
 Alpha virt. eigenvalues --    0.04545   0.05789   0.05942   0.06274   0.06712
 Alpha virt. eigenvalues --    0.06923   0.07586   0.08289   0.09427   0.09714

 Mulliken charges:
               1
     1  C    1.066136
     2  O   -1.450213
     3  O   -0.929963
     4  O   -0.982350
     5  C    2.621678
     6  O   -1.366759
     7  C    2.448362
     8  C   -0.116382
     9  C    0.373005
    10  C   -0.069969
    11  C    0.328506
    12  C   -0.313669
    13  H   -0.321517
    14  H   -0.308638
    15  H   -0.225076
    16  H   -0.213249
    17  H   -0.220503
    18  C   -0.567797
    19  C   -1.344013
    20  H    0.235305
    21  H    0.147512
    22  C    0.068368
    23  H    0.126198
    24  H    0.157506
    25  H    0.156861
    26  C   -0.040507
    27  H    0.192870
    28  H    0.152881
    29  H    0.228483
    30  H    0.166932
 Sum of Mulliken charges =  -0.00000

 Dipole moment (field-independent basis, Debye):
    X=              0.9687    Y=             -0.6431    Z=             -0.8974  Tot=              1.4688

 Test job not archived.
 1\1\GINC-SE343\SP\RHF\Aug-CC-pVDZ\C12H14O4\OHZDE\08-Apr-2025\0\\#t hf
 aug-cc-pvdz iop(5/13=1,5/36=2,99/5=2) pseudo=read geom=check guess=(re
 ad,tcheck) scf=(maxcycle=1)\\title\\0,1\C,0,0.750024,0.208419,-0.37320
 6\O,0,0.078796,1.200365,-0.382116\O,0,0.250992,-1.061958,-0.595883\O,0
 ,-1.152513,-1.037583,-0.893908\C,0,-1.924548,-1.040292,0.263074\O,0,-1
 .468052,-1.026663,1.364434\C,0,2.217462,0.139671,-0.135897\C,0,2.93354
 5,-1.063462,-0.117371\C,0,4.305255,-1.04532,0.111266\C,0,4.965199,0.16
 4675,0.320753\C,0,4.252519,1.363246,0.303496\C,0,2.88189,1.352835,0.07

 Normal termination of Gaussian 16 at Tue Apr  8 23:05:35 2025.
