 Gaussian 16, Revision C.01,

 ----------------------------------------------------------------------
 #t hf aug-cc-pvdz symm=none int=(grid=ultrafine) guess=(read,tcheck) s
 table=(opt,rrhf)
 ----------------------------------------------------------------------
 -----
 title
 -----
 Symbolic Z-matrix:
 Charge =  0 Multiplicity = 1

 SCF Done:  E(RHF) =  -769.526493810     A.U. after   11 cycles
 Normal termination of Gaussian 16 at Wed Apr  9 00:11:32 2025.
 Gaussian 16:  ES64L-G16RevC.01  3-Jul-2019

 ----------------------------------------------------------------------
 #t hf aug-cc-pvdz iop(5/13=1,5/36=2,99/5=2) pseudo=read geom=check gue
 ss=(read,tcheck) scf=(maxcycle=1)
 ----------------------------------------------------------------------
 -----
 title
 -----
 Structure from the checkpoint file:  "BDE49_nonexpt_2378_mol1.chk"
 Charge =  0 Multiplicity = 1

                         Standard orientation:
 ---------------------------------------------------------------------
 Center     Atomic      Atomic             Coordinates (Angstroms)
 Number     Number       Type             X           Y           Z
 ---------------------------------------------------------------------
      1         14           0       -1.180119   -0.972290    0.073148
      2         14           0        1.180119   -0.972290   -0.073148
      3          7           0        1.648528    0.683281    0.123592
      4          1           0        1.672109   -1.423181   -1.401449
      5          1           0        1.767258   -1.927082    0.915515
      6          7           0       -1.648528    0.683281   -0.123593
      7          1           0       -1.672109   -1.423180    1.401449
      8          1           0       -1.767258   -1.927083   -0.915514
      9          6           0        3.020824    1.171613    0.001180
     10          1           0        1.081147    1.237235    0.750956
     11          1           0        3.517081    0.659741   -0.827827
     12          1           0        3.628853    1.010949    0.902535
     13          1           0        3.029155    2.241754   -0.227515
     14          6           0       -3.020824    1.171613   -0.001180
     15          1           0       -1.081148    1.237234   -0.750959
     16          1           0       -3.517079    0.659742    0.827829
     17          1           0       -3.628854    1.010948   -0.902534
     18          1           0       -3.029155    2.241754    0.227515
 ---------------------------------------------------------------------

 SCF Done:  E(RHF) =  -769.800710173     A.U. after    2 cycles

 The electronic state is 1-A.
 Alpha  occ. eigenvalues --  -69.52932 -69.52932 -15.47466 -15.47444 -11.26148
 Alpha  occ. eigenvalues --  -11.26147  -6.19818  -6.19808  -3.95210  -3.95189
 Alpha  occ. eigenvalues --   -3.95186  -3.95130  -3.95111  -3.95102  -1.17003
 Alpha  occ. eigenvalues --   -1.16230  -0.91684  -0.91121  -0.76640  -0.72770
 Alpha  occ. eigenvalues --   -0.67054  -0.63849  -0.60431  -0.60008  -0.59827
 Alpha  occ. eigenvalues --   -0.57714  -0.52463  -0.51906  -0.49883  -0.47513
 Alpha  occ. eigenvalues --   -0.41492  -0.40291  -0.38819
 Alpha virt. eigenvalues --    0.03510   0.04078   0.04740   0.05225   0.05262
 Alpha virt. eigenvalues --    0.05401   0.05745   0.06210   0.07510   0.08057
 Alpha virt. eigenvalues --    0.08214   0.08239   0.09622   0.10409   0.11586

 Mulliken charges:
               1
     1  Si   0.407902
     2  Si   0.407902
     3  N    0.009301
     4  H   -0.066741
     5  H   -0.142947
     6  N    0.009300
     7  H   -0.066741
     8  H   -0.142947
     9  C   -0.487822
    10  H    0.023297
    11  H    0.054760
    12  H    0.146404
    13  H    0.055846
    14  C   -0.487822
    15  H    0.023297
    16  H    0.054761
    17  H    0.146403
    18  H    0.055846
 Sum of Mulliken charges =  -0.00000

 Dipole moment (field-independent basis, Debye):
    X=             -0.0000    Y=              1.3233    Z=             -0.0000  Tot=              1.3233

 Test job not archived.
 1\1\GINC-SE338\SP\RHF\Aug-CC-pVDZ\C2H12N2Si2\OHZDE\09-Apr-2025\0\\#t h
 f aug-cc-pvdz iop(5/13=1,5/36=2,99/5=2) pseudo=read geom=check guess=(
 read,tcheck) scf=(maxcycle=1)\\title\\0,1\Si,0,-1.180119,-0.97229,0.07
 3148\Si,0,1.180119,-0.97229,-0.073148\N,0,1.648528,0.683281,0.123592\H
 ,0,1.672109,-1.423181,-1.401449\H,0,1.767258,-1.927082,0.915515\N,0,-1
 .648528,0.683281,-0.123593\H,0,-1.672109,-1.42318,1.401449\H,0,-1.7672
 58,-1.927083,-0.915514\C,0,3.020824,1.171613,0.00118\H,0,1.081147,1.23
 7235,0.750956\H,0,3.517081,0.659741,-0.827827\H,0,3.628853,1.010949,0.

 Normal termination of Gaussian 16 at Wed Apr  9 00:11:38 2025.
