 Gaussian 16, Revision C.01,

 ----------------------------------------------------------------------
 #t hf aug-cc-pvdz symm=none int=(grid=ultrafine) guess=(read,tcheck) s
 table=opt
 ----------------------------------------------------------------------
 -----
 title
 -----
 Symbolic Z-matrix:
 Charge =  0 Multiplicity = 2

 SCF Done:  E(UHF) =  -173.734136627     A.U. after   20 cycles
 Normal termination of Gaussian 16 at Wed Apr  9 00:36:21 2025.
 Gaussian 16:  ES64L-G16RevC.01  3-Jul-2019

 ----------------------------------------------------------------------
 #t hf aug-cc-pvdz iop(5/13=1,5/36=2,99/5=2) pseudo=read geom=check gue
 ss=(read,tcheck) scf=(maxcycle=1)
 ----------------------------------------------------------------------
 -----
 title
 -----
 Structure from the checkpoint file:  "BDE49_nonexpt_523_mol2.chk"
 Charge =  0 Multiplicity = 2

                         Standard orientation:
 ---------------------------------------------------------------------
 Center     Atomic      Atomic             Coordinates (Angstroms)
 Number     Number       Type             X           Y           Z
 ---------------------------------------------------------------------
      1          1           0       -3.020545    0.602526    0.000737
      2          5           0       -1.913935    0.241636   -0.000212
      3          7           0       -0.718933   -0.143642    0.000001
      4          7           0        0.454962   -0.666234    0.000044
      5          6           0        1.514218    0.343019    0.000001
      6          1           0        2.475690   -0.168708   -0.000211
      7          1           0        1.438658    0.984382    0.887302
      8          1           0        1.438361    0.984644   -0.887085
 ---------------------------------------------------------------------

 SCF Done:  E(UHF) =  -173.907894999     A.U. after    2 cycles

 The electronic state is 2-A.
 Alpha  occ. eigenvalues --  -15.56498 -15.52226 -11.26201  -7.62459  -1.33678
 Alpha  occ. eigenvalues --   -1.07121  -0.93737  -0.73911  -0.69301  -0.65348
 Alpha  occ. eigenvalues --   -0.63661  -0.54572  -0.54400  -0.41070  -0.38620
 Alpha virt. eigenvalues --    0.03748   0.04758   0.04849   0.05104   0.05951
 Alpha virt. eigenvalues --    0.06131   0.07373   0.10833   0.12697   0.14243
 Alpha virt. eigenvalues --    0.14940   0.15435   0.15557   0.17283   0.18607

  Beta  occ. eigenvalues --  -15.53693 -15.53026 -11.26512  -7.61733  -1.30161
  Beta  occ. eigenvalues --   -1.05208  -0.92100  -0.70668  -0.65017  -0.62986
  Beta  occ. eigenvalues --   -0.60425  -0.54104  -0.52876  -0.40463
  Beta virt. eigenvalues --    0.03805   0.04174   0.04780   0.04848   0.05957
  Beta virt. eigenvalues --    0.06173   0.07183   0.07475   0.10937   0.12747
  Beta virt. eigenvalues --    0.14506   0.15544   0.15684   0.17301   0.18412

 Mulliken charges and spin densities:
               1          2
     1  H    0.351528  -0.023374
     2  B   -0.621976   0.417790
     3  N    0.499724  -0.281508
     4  N   -0.238630   0.958410
     5  C   -0.389117  -0.146414
     6  H    0.063298   0.007258
     7  H    0.167590   0.033931
     8  H    0.167583   0.033905
 Sum of Mulliken charges =   0.00000   1.00000

 Dipole moment (field-independent basis, Debye):
    X=             -0.8461    Y=              2.0512    Z=             -0.0005  Tot=              2.2188
                          Isotropic Fermi Contact Couplings
        Atom                 a.u.       MegaHertz       Gauss      10(-4) cm-1
     1  H(1)              -0.01192     -53.27679     -19.01048     -17.77123
     2  B(11)              0.05342      76.62790      27.34274      25.56032
     3  N(14)             -0.21084     -68.12361     -24.30820     -22.72359
     4  N(14)              0.31643     102.23932      36.48153      34.10336
     5  C(13)             -0.05104     -57.38260     -20.47554     -19.14078
     6  H(1)               0.00098       4.37447       1.56092       1.45917
     7  H(1)               0.01563      69.88185      24.93558      23.31008
     8  H(1)               0.01562      69.83779      24.91986      23.29538

 Normal termination of Gaussian 16 at Wed Apr  9 00:36:23 2025.
