 Gaussian 16, Revision C.01,

 ----------------------------------------------------------------------
 #t hf aug-cc-pvdz symm=none int=(grid=ultrafine) guess=(read,tcheck) s
 table=(opt,rrhf)
 ----------------------------------------------------------------------
 -----
 title
 -----
 Symbolic Z-matrix:
 Charge =  0 Multiplicity = 1

 SCF Done:  E(RHF) =  -652.419675001     A.U. after   16 cycles
 Normal termination of Gaussian 16 at Wed Apr  9 00:44:44 2025.
 Gaussian 16:  ES64L-G16RevC.01  3-Jul-2019

 ----------------------------------------------------------------------
 #t hf aug-cc-pvdz iop(5/13=1,5/36=2,99/5=2) pseudo=read geom=check gue
 ss=(read,tcheck) scf=(maxcycle=1)
 ----------------------------------------------------------------------
 -----
 title
 -----
 Structure from the checkpoint file:  "BDE49_nonexpt_738_mol1.chk"
 Charge =  0 Multiplicity = 1

                         Standard orientation:
 ---------------------------------------------------------------------
 Center     Atomic      Atomic             Coordinates (Angstroms)
 Number     Number       Type             X           Y           Z
 ---------------------------------------------------------------------
      1          5           0        1.329965    0.485073   -0.122166
      2          6           0       -0.208190    0.180510   -0.058511
      3          6           0       -1.123422    1.174277    0.333775
      4          6           0       -0.729600   -1.083873   -0.383588
      5          6           0       -2.097568   -1.339495   -0.338026
      6          6           0       -2.982413   -0.336641    0.053244
      7          6           0       -2.491100    0.922211    0.394447
      8          1           0       -4.047506   -0.536019    0.096937
      9          1           0       -3.173439    1.704380    0.709374
     10          1           0       -0.757330    2.156265    0.618465
     11          1           0       -0.056043   -1.877601   -0.690889
     12          1           0       -2.473576   -2.321488   -0.603684
     13          7           0        1.776911    1.751132   -0.511499
     14         15           0        2.624301   -0.936431    0.219005
     15          1           0        1.146997    2.469815   -0.837944
     16          1           0        2.746828    2.023554   -0.530889
     17          1           0        2.226201   -1.230468    1.546141
     18          1           0        3.728912   -0.127200    0.590686
 ---------------------------------------------------------------------

 SCF Done:  E(RHF) =  -652.787575695     A.U. after    2 cycles

 The electronic state is 1-A.
 Alpha  occ. eigenvalues --  -84.24676 -15.50126 -11.24671 -11.24581 -11.24425
 Alpha  occ. eigenvalues --  -11.24310 -11.24213 -11.22402  -7.60425  -6.72007
 Alpha  occ. eigenvalues --   -4.24622  -4.24431  -4.23817  -1.17633  -1.14907
 Alpha  occ. eigenvalues --   -1.01652  -1.01545  -0.86585  -0.83434  -0.82655
 Alpha  occ. eigenvalues --   -0.74640  -0.71905  -0.70306  -0.64369  -0.63615
 Alpha  occ. eigenvalues --   -0.59846  -0.58848  -0.51807  -0.51027  -0.50155
 Alpha  occ. eigenvalues --   -0.49262  -0.48166  -0.43178  -0.35217  -0.34603
 Alpha  occ. eigenvalues --   -0.32541
 Alpha virt. eigenvalues --    0.02893   0.03608   0.03967   0.05080   0.05133
 Alpha virt. eigenvalues --    0.05713   0.06491   0.07309   0.07445   0.07601
 Alpha virt. eigenvalues --    0.08339   0.08456   0.09639   0.10618   0.10904

 Mulliken charges:
               1
     1  B    0.373421
     2  C   -0.129358
     3  C    0.272681
     4  C    0.256246
     5  C    0.270779
     6  C    0.315021
     7  C    0.124380
     8  H   -0.210088
     9  H   -0.226117
    10  H   -0.375047
    11  H   -0.323591
    12  H   -0.228620
    13  N    0.278610
    14  P   -1.242203
    15  H   -0.054090
    16  H    0.035963
    17  H    0.471029
    18  H    0.390985
 Sum of Mulliken charges =   0.00000

 Dipole moment (field-independent basis, Debye):
    X=             -0.4762    Y=              1.6065    Z=             -0.1643  Tot=              1.6837

 Test job not archived.
 1\1\GINC-SE222\SP\RHF\Aug-CC-pVDZ\C6H9B1N1P1\OHZDE\09-Apr-2025\0\\#t h
 f aug-cc-pvdz iop(5/13=1,5/36=2,99/5=2) pseudo=read geom=check guess=(
 read,tcheck) scf=(maxcycle=1)\\title\\0,1\B,0,1.329965,0.485073,-0.122
 166\C,0,-0.20819,0.18051,-0.058511\C,0,-1.123422,1.174277,0.333775\C,0
 ,-0.7296,-1.083873,-0.383588\C,0,-2.097568,-1.339495,-0.338026\C,0,-2.
 982413,-0.336641,0.053244\C,0,-2.4911,0.922211,0.394447\H,0,-4.047506,
 -0.536019,0.096937\H,0,-3.173439,1.70438,0.709374\H,0,-0.75733,2.15626
 5,0.618465\H,0,-0.056043,-1.877601,-0.690889\H,0,-2.473576,-2.321488,-

 Normal termination of Gaussian 16 at Wed Apr  9 00:44:53 2025.
