 Gaussian 16, Revision C.01,

 ----------------------------------------------------------------------
 #t hf aug-cc-pvdz symm=none int=(grid=ultrafine) guess=(read,tcheck) s
 table=opt
 ----------------------------------------------------------------------
 -----
 title
 -----
 Symbolic Z-matrix:
 Charge =  0 Multiplicity = 2

 SCF Done:  E(UHF) =  -195.722554863     A.U. after   16 cycles
 Normal termination of Gaussian 16 at Tue Apr  8 22:46:00 2025.
 Gaussian 16:  ES64L-G16RevC.01  3-Jul-2019

 ----------------------------------------------------------------------
 #t hf aug-cc-pvdz iop(5/13=1,5/36=2,99/5=2) pseudo=read geom=check gue
 ss=(read,tcheck) scf=(maxcycle=1)
 ----------------------------------------------------------------------
 -----
 title
 -----
 Structure from the checkpoint file:  "BDE49_expt_1553_mol2.chk"
 Charge =  0 Multiplicity = 2

                         Standard orientation:
 ---------------------------------------------------------------------
 Center     Atomic      Atomic             Coordinates (Angstroms)
 Number     Number       Type             X           Y           Z
 ---------------------------------------------------------------------
      1          6           0       -2.134608   -0.728228   -0.175487
      2          6           0       -1.470399    0.547396    0.214121
      3          6           0       -0.015866    0.677972   -0.273117
      4          1           0       -1.507041    0.671404    1.303985
      5          1           0       -2.044483    1.400350   -0.189758
      6          6           0        0.948424   -0.316541    0.383521
      7          1           0        0.334292    1.699647   -0.083613
      8          1           0        0.008481    0.543990   -1.362417
      9          6           0        2.386783   -0.185921   -0.124224
     10          1           0        0.587289   -1.336537    0.211035
     11          1           0        0.928512   -0.168040    1.470326
     12          1           0        2.443512   -0.365902   -1.202461
     13          1           0        3.050534   -0.903021    0.366578
     14          1           0        2.784682    0.816508    0.063580
     15          1           0       -2.942212   -1.145290    0.413420
     16          1           0       -1.929570   -1.181184   -1.139556
 ---------------------------------------------------------------------

 SCF Done:  E(UHF) =  -195.942650059     A.U. after    2 cycles

 The electronic state is 2-A.
 Alpha  occ. eigenvalues --  -11.23512 -11.22896 -11.22534 -11.22296 -11.22014
 Alpha  occ. eigenvalues --   -1.08614  -1.01667  -0.92102  -0.83303  -0.77877
 Alpha  occ. eigenvalues --   -0.64734  -0.61127  -0.60394  -0.58092  -0.55693
 Alpha  occ. eigenvalues --   -0.51866  -0.50720  -0.47453  -0.47157  -0.46797
 Alpha  occ. eigenvalues --   -0.35089
 Alpha virt. eigenvalues --    0.03782   0.03863   0.03965   0.04181   0.06075
 Alpha virt. eigenvalues --    0.06293   0.06627   0.07150   0.07842   0.09365
 Alpha virt. eigenvalues --    0.10050   0.12578   0.13851   0.15002   0.15459

  Beta  occ. eigenvalues --  -11.23223 -11.22454 -11.22287 -11.22017 -11.21078
  Beta  occ. eigenvalues --   -1.07796  -0.99952  -0.89282  -0.81166  -0.76205
  Beta  occ. eigenvalues --   -0.64311  -0.60410  -0.58704  -0.57605  -0.54993
  Beta  occ. eigenvalues --   -0.51253  -0.50139  -0.46977  -0.46688  -0.46440
  Beta virt. eigenvalues --    0.03790   0.03885   0.03985   0.04231   0.06040
  Beta virt. eigenvalues --    0.06259   0.06626   0.06914   0.07729   0.09329
  Beta virt. eigenvalues --    0.09968   0.10959   0.12901   0.14095   0.15189

 Mulliken charges and spin densities:
               1          2
     1  C    0.154854   1.409509
     2  C   -0.285020  -0.261150
     3  C   -0.339874   0.030901
     4  H    0.126556   0.004623
     5  H    0.191638   0.040776
     6  C   -0.273588   0.006054
     7  H    0.113084  -0.002007
     8  H    0.104987  -0.005767
     9  C   -0.402458  -0.002581
    10  H    0.157657  -0.016888
    11  H    0.122525   0.002705
    12  H    0.162663   0.000196
    13  H    0.115033   0.000140
    14  H    0.165372   0.000241
    15  H   -0.046936  -0.104573
    16  H   -0.066494  -0.102179
 Sum of Mulliken charges =  -0.00000   1.00000

 Dipole moment (field-independent basis, Debye):
    X=             -0.0187    Y=              0.1913    Z=              0.0429  Tot=              0.1970
                          Isotropic Fermi Contact Couplings
        Atom                 a.u.       MegaHertz       Gauss      10(-4) cm-1
     1  C(13)              0.20947     235.48425      84.02664      78.54909
     2  C(13)             -0.05907     -66.40351     -23.69442     -22.14983
     3  C(13)              0.01729      19.43943       6.93647       6.48430
     4  H(1)               0.00685      30.62853      10.92902      10.21658
     5  H(1)               0.02607     116.50854      41.57314      38.86307
     6  C(13)             -0.00043      -0.48059      -0.17149      -0.16031
     7  H(1)              -0.00101      -4.53480      -1.61813      -1.51264
     8  H(1)              -0.00081      -3.60108      -1.28495      -1.20119

 Normal termination of Gaussian 16 at Tue Apr  8 22:46:05 2025.
