 Gaussian 16, Revision C.01,

 ----------------------------------------------------------------------
 #t hf aug-cc-pvdz symm=none int=(grid=ultrafine) guess=(read,tcheck) s
 table=(opt,rrhf)
 ----------------------------------------------------------------------
 -----
 title
 -----
 Symbolic Z-matrix:
 Charge =  0 Multiplicity = 1

 SCF Done:  E(RHF) =  -392.017802096     A.U. after   14 cycles
 Normal termination of Gaussian 16 at Wed Apr  9 00:33:18 2025.
 Gaussian 16:  ES64L-G16RevC.01  3-Jul-2019

 ----------------------------------------------------------------------
 #t hf aug-cc-pvdz iop(5/13=1,5/36=2,99/5=2) pseudo=read geom=check gue
 ss=(read,tcheck) scf=(maxcycle=1)
 ----------------------------------------------------------------------
 -----
 title
 -----
 Structure from the checkpoint file:  "BDE49_nonexpt_411_mol1.chk"
 Charge =  0 Multiplicity = 1

                         Standard orientation:
 ---------------------------------------------------------------------
 Center     Atomic      Atomic             Coordinates (Angstroms)
 Number     Number       Type             X           Y           Z
 ---------------------------------------------------------------------
      1          9           0       -2.053218   -0.906045   -0.000027
      2          5           0       -1.062850   -0.021725    0.000040
      3          9           0       -1.393425    1.257724   -0.000019
      4          6           0        0.404701   -0.512492    0.000019
      5          7           0        1.333269    0.370275    0.000014
      6          1           0        0.660952   -1.573780    0.000012
      7          8           0        2.591491   -0.195943   -0.000000
      8          1           0        3.180054    0.567868   -0.000000
 ---------------------------------------------------------------------

 SCF Done:  E(RHF) =  -392.385808739     A.U. after    2 cycles

 The electronic state is 1-A.
 Alpha  occ. eigenvalues --  -26.48667 -26.48262 -20.61738 -15.61237 -11.28228
 Alpha  occ. eigenvalues --   -7.73156  -1.63662  -1.59686  -1.54108  -1.20431
 Alpha  occ. eigenvalues --   -0.88241  -0.80455  -0.77466  -0.74841  -0.72134
 Alpha  occ. eigenvalues --   -0.70023  -0.67364  -0.63812  -0.63003  -0.62801
 Alpha  occ. eigenvalues --   -0.57599  -0.49881  -0.43992
 Alpha virt. eigenvalues --    0.03597   0.03968   0.04628   0.05816   0.06086
 Alpha virt. eigenvalues --    0.06563   0.08370   0.13724   0.14166   0.14704
 Alpha virt. eigenvalues --    0.16994   0.17970   0.19135   0.19807   0.22006

 Mulliken charges:
               1
     1  F   -0.690263
     2  B    1.596278
     3  F   -0.643503
     4  C   -0.617357
     5  N    1.120466
     6  H   -0.027288
     7  O   -1.040458
     8  H    0.302125
 Sum of Mulliken charges =  -0.00000

 Dipole moment (field-independent basis, Debye):
    X=              1.4737    Y=             -0.7021    Z=              0.0002  Tot=              1.6324

 Test job not archived.
 1\1\GINC-SE128\SP\RHF\Aug-CC-pVDZ\C1H2B1F2N1O1\OHZDE\09-Apr-2025\0\\#t
  hf aug-cc-pvdz iop(5/13=1,5/36=2,99/5=2) pseudo=read geom=check guess
 =(read,tcheck) scf=(maxcycle=1)\\title\\0,1\F,0,-2.053218,-0.906045,-0
 .000027\B,0,-1.06285,-0.021725,0.00004\F,0,-1.393425,1.257724,-0.00001
 9\C,0,0.404701,-0.512492,0.000019\N,0,1.333269,0.370275,0.000014\H,0,0
 .660952,-1.57378,0.000012\O,0,2.591491,-0.195943,0.\H,0,3.180054,0.567
 868,0.\\Version=ES64L-G16RevC.01\State=1-A\HF=-392.3858087\RMSD=1.182e
 -02\Dipole=0.5798022,-0.2762106,0.0000787\Quadrupole=1.099509,-1.25881

 Normal termination of Gaussian 16 at Wed Apr  9 00:33:21 2025.
