 Gaussian 16, Revision C.01,

 ----------------------------------------------------------------------
 #t hf aug-cc-pvdz symm=none int=(grid=ultrafine) guess=(read,tcheck) s
 table=(opt,rrhf)
 ----------------------------------------------------------------------
 -----
 title
 -----
 Symbolic Z-matrix:
 Charge =  0 Multiplicity = 1

 SCF Done:  E(RHF) =  -695.953737785     A.U. after   15 cycles
 Normal termination of Gaussian 16 at Wed Apr  9 00:48:49 2025.
 Gaussian 16:  ES64L-G16RevC.01  3-Jul-2019

 ----------------------------------------------------------------------
 #t hf aug-cc-pvdz iop(5/13=1,5/36=2,99/5=2) pseudo=read geom=check gue
 ss=(read,tcheck) scf=(maxcycle=1)
 ----------------------------------------------------------------------
 -----
 title
 -----
 Structure from the checkpoint file:  "BDE49_nonexpt_828_mol1.chk"
 Charge =  0 Multiplicity = 1

                         Standard orientation:
 ---------------------------------------------------------------------
 Center     Atomic      Atomic             Coordinates (Angstroms)
 Number     Number       Type             X           Y           Z
 ---------------------------------------------------------------------
      1          6           0        2.318241    1.270464    0.600367
      2          6           0        1.035555    0.764646    0.802736
      3          6           0        3.232898    0.558640   -0.173553
      4          6           0        2.858783   -0.657965   -0.739733
      5          6           0        1.574904   -1.160132   -0.533720
      6          6           0        0.635850   -0.462126    0.242102
      7          1           0        1.301409   -2.110275   -0.981025
      8          1           0        4.231679    0.949562   -0.332693
      9          1           0        3.567337   -1.217085   -1.341136
     10          1           0        2.604367    2.215881    1.048315
     11          1           0        0.342058    1.330405    1.419512
     12          5           0       -2.428343    0.297868   -0.213437
     13          8           0       -3.766431    0.087137   -0.089255
     14          8           0       -2.003905    1.453187   -0.812318
     15          1           0       -1.045232    1.519907   -0.872457
     16          1           0       -4.285935    0.810649   -0.463961
     17         14           0       -1.124175   -1.102105    0.493603
     18          1           0       -1.248550   -2.392030   -0.232097
     19          1           0       -1.361667   -1.370633    1.935676
 ---------------------------------------------------------------------

 SCF Done:  E(RHF) =  -696.397905218     A.U. after    2 cycles

 The electronic state is 1-A.
 Alpha  occ. eigenvalues --  -69.51528 -20.56340 -20.55800 -11.25480 -11.25310
 Alpha  occ. eigenvalues --  -11.25253 -11.25182 -11.25038 -11.23834  -7.64139
 Alpha  occ. eigenvalues --   -6.18768  -3.94136  -3.94116  -3.94070  -1.48396
 Alpha  occ. eigenvalues --   -1.44099  -1.15886  -1.02370  -1.02248  -0.84235
 Alpha  occ. eigenvalues --   -0.83993  -0.78292  -0.75339  -0.72725  -0.69214
 Alpha  occ. eigenvalues --   -0.64776  -0.64215  -0.61233  -0.60567  -0.57123
 Alpha  occ. eigenvalues --   -0.56672  -0.55919  -0.52127  -0.51120  -0.49345
 Alpha  occ. eigenvalues --   -0.47868  -0.46395  -0.42561  -0.35452  -0.34947
 Alpha virt. eigenvalues --    0.03152   0.03342   0.03666   0.04275   0.04973
 Alpha virt. eigenvalues --    0.05145   0.06576   0.06955   0.07196   0.07534
 Alpha virt. eigenvalues --    0.08481   0.08706   0.09561   0.09673   0.10142

 Mulliken charges:
               1
     1  C    0.264009
     2  C    0.733647
     3  C    0.327597
     4  C    0.382553
     5  C    0.253930
     6  C   -0.745086
     7  H   -0.305117
     8  H   -0.208553
     9  H   -0.217704
    10  H   -0.228696
    11  H   -0.351922
    12  B    1.732607
    13  O   -1.322406
    14  O   -1.470337
    15  H    0.664233
    16  H    0.557024
    17  Si   0.199519
    18  H   -0.150150
    19  H   -0.115149
 Sum of Mulliken charges =  -0.00000

 Dipole moment (field-independent basis, Debye):
    X=              1.5367    Y=              1.1261    Z=             -0.6315  Tot=              2.0071

 Test job not archived.
 1\1\GINC-SE212\SP\RHF\Aug-CC-pVDZ\C6H9B1O2Si1\OHZDE\09-Apr-2025\0\\#t
 hf aug-cc-pvdz iop(5/13=1,5/36=2,99/5=2) pseudo=read geom=check guess=
 (read,tcheck) scf=(maxcycle=1)\\title\\0,1\C,0,-2.318241,-1.270464,0.6
 00367\C,0,-1.035555,-0.764646,0.802736\C,0,-3.232898,-0.55864,-0.17355
 3\C,0,-2.858783,0.657965,-0.739733\C,0,-1.574904,1.160132,-0.53372\C,0
 ,-0.63585,0.462126,0.242102\H,0,-1.301409,2.110275,-0.981025\H,0,-4.23
 1679,-0.949562,-0.332693\H,0,-3.567337,1.217085,-1.341136\H,0,-2.60436
 7,-2.215881,1.048315\H,0,-0.342058,-1.330405,1.419512\B,0,2.428343,-0.

 Normal termination of Gaussian 16 at Wed Apr  9 00:49:00 2025.
