 Gaussian 16, Revision C.01,

 ----------------------------------------------------------------------
 #t hf aug-cc-pvdz symm=none int=(grid=ultrafine) guess=(read,tcheck) s
 table=opt
 ----------------------------------------------------------------------
 -----
 title
 -----
 Symbolic Z-matrix:
 Charge =  0 Multiplicity = 2

 SCF Done:  E(UHF) =  -388.372804463     A.U. after   18 cycles
 Normal termination of Gaussian 16 at Wed Apr  9 00:33:56 2025.
 Gaussian 16:  ES64L-G16RevC.01  3-Jul-2019

 ----------------------------------------------------------------------
 #t hf aug-cc-pvdz iop(5/13=1,5/36=2,99/5=2) pseudo=read geom=check gue
 ss=(read,tcheck) scf=(maxcycle=1)
 ----------------------------------------------------------------------
 -----
 title
 -----
 Structure from the checkpoint file:  "BDE49_nonexpt_414_mol2.chk"
 Charge =  0 Multiplicity = 2

                         Standard orientation:
 ---------------------------------------------------------------------
 Center     Atomic      Atomic             Coordinates (Angstroms)
 Number     Number       Type             X           Y           Z
 ---------------------------------------------------------------------
      1          9           0       -2.151609   -0.107593   -0.039475
      2          5           0       -1.032368   -0.768355   -0.196555
      3          6           0        0.398000   -0.038063   -0.028480
      4          8           0        1.435141   -0.670465   -0.711329
      5          1           0        1.336004   -1.617943   -0.566665
      6          8           0        0.615415   -0.014085    1.363218
      7          1           0        1.518765    0.310068    1.496909
      8          8           0        0.387578    1.255540   -0.574444
      9          1           0       -0.221527    1.778448   -0.040870
 ---------------------------------------------------------------------

 SCF Done:  E(UHF) =  -388.743734724     A.U. after    2 cycles

 The electronic state is 2-A.
 Alpha  occ. eigenvalues --  -26.50512 -20.58140 -20.57910 -20.57637 -11.40682
 Alpha  occ. eigenvalues --   -7.70714  -1.63809  -1.55682  -1.45629  -1.45217
 Alpha  occ. eigenvalues --   -0.92886  -0.82652  -0.78603  -0.72456  -0.69720
 Alpha  occ. eigenvalues --   -0.68423  -0.68163  -0.64251  -0.61533  -0.54454
 Alpha  occ. eigenvalues --   -0.52922  -0.49209  -0.48195  -0.37619
 Alpha virt. eigenvalues --    0.03477   0.04200   0.04349   0.05077   0.06630
 Alpha virt. eigenvalues --    0.07720   0.09256   0.10833   0.12358   0.14754
 Alpha virt. eigenvalues --    0.15652   0.18761   0.19321   0.20876   0.21957

  Beta  occ. eigenvalues --  -26.50216 -20.58140 -20.57949 -20.57543 -11.40299
  Beta  occ. eigenvalues --   -7.68817  -1.62985  -1.55509  -1.45637  -1.45041
  Beta  occ. eigenvalues --   -0.91520  -0.81741  -0.77609  -0.70941  -0.68614
  Beta  occ. eigenvalues --   -0.68094  -0.67090  -0.64059  -0.61290  -0.54222
  Beta  occ. eigenvalues --   -0.52056  -0.48397  -0.46509
  Beta virt. eigenvalues --    0.02714   0.03845   0.04481   0.05123   0.06626
  Beta virt. eigenvalues --    0.07294   0.08171   0.11674   0.12313   0.13198
  Beta virt. eigenvalues --    0.15645   0.16562   0.19246   0.19609   0.21479

 Mulliken charges and spin densities:
               1          2
     1  F   -0.443116  -0.035500
     2  B    0.377634   0.995120
     3  C    3.090715   0.004880
     4  O   -1.330198   0.008914
     5  H    0.351141  -0.007150
     6  O   -1.211658   0.011635
     7  H    0.189759   0.000749
     8  O   -1.317237   0.023776
     9  H    0.292960  -0.002423
 Sum of Mulliken charges =   0.00000   1.00000

 Dipole moment (field-independent basis, Debye):
    X=             -0.0076    Y=             -0.5487    Z=              1.1064  Tot=              1.2350
                          Isotropic Fermi Contact Couplings
        Atom                 a.u.       MegaHertz       Gauss      10(-4) cm-1
     1  F(19)              0.06597     277.55556      99.03873      92.58257
     2  B(11)              0.33227     476.59583     170.06124     158.97526
     3  C(13)              0.08337      93.72925      33.44493      31.26471
     4  O(17)             -0.00343       2.07639       0.74091       0.69261
     5  H(1)               0.00000       0.00788       0.00281       0.00263
     6  O(17)              0.00116      -0.70533      -0.25168      -0.23527
     7  H(1)               0.00070       3.12184       1.11395       1.04133
     8  O(17)              0.00835      -5.06128      -1.80599      -1.68826

 Normal termination of Gaussian 16 at Wed Apr  9 00:33:59 2025.
