 Gaussian 16, Revision C.01,

 ----------------------------------------------------------------------
 #t hf aug-cc-pvdz symm=none int=(grid=ultrafine) guess=(read,tcheck) s
 table=(opt,rrhf)
 ----------------------------------------------------------------------
 -----
 title
 -----
 Symbolic Z-matrix:
 Charge =  0 Multiplicity = 1

 SCF Done:  E(RHF) =  -884.040810845     A.U. after   12 cycles
 Normal termination of Gaussian 16 at Wed Apr  9 00:16:31 2025.
 Gaussian 16:  ES64L-G16RevC.01  3-Jul-2019

 ----------------------------------------------------------------------
 #t hf aug-cc-pvdz iop(5/13=1,5/36=2,99/5=2) pseudo=read geom=check gue
 ss=(read,tcheck) scf=(maxcycle=1)
 ----------------------------------------------------------------------
 -----
 title
 -----
 Structure from the checkpoint file:  "BDE49_nonexpt_2521_mol1.chk"
 Charge =  0 Multiplicity = 1

                         Standard orientation:
 ---------------------------------------------------------------------
 Center     Atomic      Atomic             Coordinates (Angstroms)
 Number     Number       Type             X           Y           Z
 ---------------------------------------------------------------------
      1          6           0        3.455905   -0.030868   -0.000000
      2          6           0        2.014110   -0.532731   -0.000000
      3          1           0        4.148841   -0.877858   -0.000000
      4          1           0        3.661908    0.577217    0.883932
      5          1           0        3.661908    0.577217   -0.883932
      6         16           0        0.845668    0.904134   -0.000000
      7          1           0        1.824342   -1.141645    0.885626
      8          1           0        1.824342   -1.141646   -0.885625
      9         14           0       -1.105084   -0.055769   -0.000000
     10          6           0       -2.327283    1.370569   -0.000000
     11          1           0       -2.203364    2.000882    0.884587
     12          1           0       -3.353614    0.989294   -0.000000
     13          6           0       -1.331036   -1.120534   -1.535474
     14          1           0       -1.212273   -0.526834   -2.445560
     15          1           0       -2.331989   -1.565311   -1.547195
     16          1           0       -0.607974   -1.940425   -1.571533
     17          6           0       -1.331036   -1.120533    1.535475
     18          1           0       -2.331989   -1.565310    1.547195
     19          1           0       -1.212273   -0.526833    2.445561
     20          1           0       -0.607974   -1.940425    1.571534
     21          1           0       -2.203364    2.000882   -0.884588
 ---------------------------------------------------------------------

 SCF Done:  E(RHF) =  -884.360554969     A.U. after    2 cycles

 The electronic state is 1-A.
 Alpha  occ. eigenvalues --  -93.91585 -69.53437 -11.26844 -11.23257 -11.21420
 Alpha  occ. eigenvalues --  -11.21415 -11.21271  -8.19853  -6.20227  -6.17657
 Alpha  occ. eigenvalues --   -6.17520  -6.17339  -3.95603  -3.95515  -3.95491
 Alpha  occ. eigenvalues --   -1.07101  -0.98866  -0.93649  -0.93159  -0.93129
 Alpha  occ. eigenvalues --   -0.81793  -0.65336  -0.63196  -0.59613  -0.57371
 Alpha  occ. eigenvalues --   -0.57197  -0.56794  -0.55358  -0.55206  -0.54079
 Alpha  occ. eigenvalues --   -0.53654  -0.51366  -0.47204  -0.45072  -0.43855
 Alpha  occ. eigenvalues --   -0.40620  -0.34684
 Alpha virt. eigenvalues --    0.03073   0.03437   0.03855   0.04196   0.05560
 Alpha virt. eigenvalues --    0.05636   0.05966   0.06535   0.06708   0.07869
 Alpha virt. eigenvalues --    0.08515   0.09269   0.09354   0.10635   0.10720

 Mulliken charges:
               1
     1  C   -0.411180
     2  C   -0.565017
     3  H    0.145995
     4  H    0.180072
     5  H    0.180072
     6  S   -0.607311
     7  H    0.082205
     8  H    0.082203
     9  Si   2.670748
    10  C   -0.529737
    11  H   -0.020828
    12  H   -0.026163
    13  C   -0.534107
    14  H   -0.021963
    15  H    0.033076
    16  H   -0.057122
    17  C   -0.534109
    18  H    0.033076
    19  H   -0.021964
    20  H   -0.057119
    21  H   -0.020826
 Sum of Mulliken charges =  -0.00000

 Dipole moment (field-independent basis, Debye):
    X=             -0.4579    Y=             -1.8777    Z=             -0.0000  Tot=              1.9327

 Test job not archived.
 1\1\GINC-SE331\SP\RHF\Aug-CC-pVDZ\C5H14S1Si1\OHZDE\09-Apr-2025\0\\#t h
 f aug-cc-pvdz iop(5/13=1,5/36=2,99/5=2) pseudo=read geom=check guess=(
 read,tcheck) scf=(maxcycle=1)\\title\\0,1\C,0,-3.455905,0.030868,0.\C,
 0,-2.01411,0.532731,0.\H,0,-4.148841,0.877858,0.\H,0,-3.661908,-0.5772
 17,0.883932\H,0,-3.661908,-0.577217,-0.883932\S,0,-0.845668,-0.904134,
 0.\H,0,-1.824342,1.141645,0.885626\H,0,-1.824342,1.141646,-0.885625\Si
 ,0,1.105084,0.055769,0.\C,0,2.327283,-1.370569,0.\H,0,2.203364,-2.0008
 82,0.884587\H,0,3.353614,-0.989294,0.\C,0,1.331036,1.120534,-1.535474\

 Normal termination of Gaussian 16 at Wed Apr  9 00:16:41 2025.
