 Gaussian 16, Revision C.01,

 ----------------------------------------------------------------------
 #t hf aug-cc-pvdz symm=none int=(grid=ultrafine) guess=(read,tcheck) s
 table=opt
 ----------------------------------------------------------------------
 -----
 title
 -----
 Symbolic Z-matrix:
 Charge =  0 Multiplicity = 2

 SCF Done:  E(UHF) =  -530.015255483     A.U. after   23 cycles
 Normal termination of Gaussian 16 at Wed Apr  9 00:18:37 2025.
 Gaussian 16:  ES64L-G16RevC.01  3-Jul-2019

 ----------------------------------------------------------------------
 #t hf aug-cc-pvdz iop(5/13=1,5/36=2,99/5=2) pseudo=read geom=check gue
 ss=(read,tcheck) scf=(maxcycle=1)
 ----------------------------------------------------------------------
 -----
 title
 -----
 Structure from the checkpoint file:  "BDE49_nonexpt_2581_mol2.chk"
 Charge =  0 Multiplicity = 2

                         Standard orientation:
 ---------------------------------------------------------------------
 Center     Atomic      Atomic             Coordinates (Angstroms)
 Number     Number       Type             X           Y           Z
 ---------------------------------------------------------------------
      1         16           0       -1.733099   -0.068806    0.000028
      2          6           0       -0.030438    0.387972   -0.000045
      3          7           0        0.897858   -0.463082   -0.000014
      4          1           0        0.108552    1.481914   -0.000091
      5          6           0        2.267097    0.024185    0.000002
      6          1           0        2.786153   -0.367305   -0.879532
      7          1           0        2.786142   -0.367275    0.879556
      8          1           0        2.343775    1.122193   -0.000016
 ---------------------------------------------------------------------

 SCF Done:  E(UHF) =  -530.206075147     A.U. after    2 cycles

 The electronic state is 2-A.
 Alpha  occ. eigenvalues --  -93.99011 -15.51069 -11.32692 -11.26834  -8.27153
 Alpha  occ. eigenvalues --   -6.26338  -6.24533  -6.24233  -1.25469  -1.06808
 Alpha  occ. eigenvalues --   -0.95495  -0.79361  -0.69186  -0.63578  -0.61525
 Alpha  occ. eigenvalues --   -0.53581  -0.50115  -0.47121  -0.45032  -0.38531
 Alpha virt. eigenvalues --    0.03552   0.04726   0.05804   0.05984   0.07397
 Alpha virt. eigenvalues --    0.09207   0.09971   0.11921   0.13441   0.13660
 Alpha virt. eigenvalues --    0.15712   0.15783   0.16363   0.16726   0.18240

  Beta  occ. eigenvalues --  -93.98092 -15.51024 -11.32792 -11.26829  -8.26095
  Beta  occ. eigenvalues --   -6.24030  -6.23658  -6.22259  -1.25102  -1.01906
  Beta  occ. eigenvalues --   -0.92628  -0.77425  -0.68503  -0.62529  -0.61549
  Beta  occ. eigenvalues --   -0.52862  -0.49576  -0.44632  -0.36731
  Beta virt. eigenvalues --   -0.00904   0.03576   0.04825   0.05803   0.06080
  Beta virt. eigenvalues --    0.07581   0.09224   0.10672   0.11975   0.13563
  Beta virt. eigenvalues --    0.14659   0.15801   0.15832   0.16415   0.17737

 Mulliken charges and spin densities:
               1          2
     1  S    0.385060   1.095755
     2  C   -0.826855  -0.089306
     3  N    0.541663  -0.015050
     4  H    0.002769   0.012482
     5  C   -0.438163  -0.003688
     6  H    0.121338  -0.000070
     7  H    0.121341  -0.000070
     8  H    0.092847  -0.000052
 Sum of Mulliken charges =  -0.00000   1.00000

 Dipole moment (field-independent basis, Debye):
    X=              0.7627    Y=              2.1920    Z=             -0.0001  Tot=              2.3209
                          Isotropic Fermi Contact Couplings
        Atom                 a.u.       MegaHertz       Gauss      10(-4) cm-1
     1  S(33)              0.20354      69.91156      24.94618      23.31999
     2  C(13)             -0.02084     -23.42450      -8.35844      -7.81357
     3  N(14)              0.02921       9.43806       3.36773       3.14820
     4  H(1)               0.00703      31.44466      11.22024      10.48881
     5  C(13)             -0.00080      -0.89373      -0.31891      -0.29812
     6  H(1)              -0.00019      -0.86421      -0.30837      -0.28827
     7  H(1)              -0.00019      -0.86459      -0.30851      -0.28839
     8  H(1)               0.00005       0.20486       0.07310       0.06833

 Normal termination of Gaussian 16 at Wed Apr  9 00:18:39 2025.
