 Gaussian 16, Revision C.01,

 ----------------------------------------------------------------------
 #t hf aug-cc-pvdz symm=none int=(grid=ultrafine) guess=(read,tcheck) s
 table=(opt,rrhf)
 ----------------------------------------------------------------------
 -----
 title
 -----
 Symbolic Z-matrix:
 Charge =  0 Multiplicity = 1

 SCF Done:  E(RHF) =  -725.764633124     A.U. after   14 cycles
 Normal termination of Gaussian 16 at Wed Apr  9 00:02:26 2025.
 Gaussian 16:  ES64L-G16RevC.01  3-Jul-2019

 ----------------------------------------------------------------------
 #t hf aug-cc-pvdz iop(5/13=1,5/36=2,99/5=2) pseudo=read geom=check gue
 ss=(read,tcheck) scf=(maxcycle=1)
 ----------------------------------------------------------------------
 -----
 title
 -----
 Structure from the checkpoint file:  "BDE49_nonexpt_2125_mol1.chk"
 Charge =  0 Multiplicity = 1

                         Standard orientation:
 ---------------------------------------------------------------------
 Center     Atomic      Atomic             Coordinates (Angstroms)
 Number     Number       Type             X           Y           Z
 ---------------------------------------------------------------------
      1          6           0        2.475047   -1.252888   -0.006174
      2          6           0        1.083299   -1.209470   -0.015781
      3          6           0        0.392882    0.014013   -0.022042
      4         14           0       -1.473108    0.036062    0.005272
      5          8           0       -1.834472    1.593050   -0.402005
      6          7           0       -2.257212   -1.078630   -1.019153
      7          1           0       -2.060000   -1.143701   -2.005089
      8          1           0       -2.653011   -1.925566   -0.642500
      9          6           0        3.207584   -0.066788   -0.006737
     10          6           0        2.543129    1.157907   -0.020566
     11          6           0        1.150158    1.196840   -0.028948
     12          1           0        0.638325    2.152176   -0.051643
     13          1           0        2.988466   -2.208390   -0.002477
     14          1           0        0.525017   -2.140745   -0.029398
     15          1           0        4.291782   -0.097701   -0.001470
     16          1           0        3.110245    2.082546   -0.028253
     17          1           0       -2.767281    1.795621   -0.510264
     18          8           0       -2.063811   -0.395911    1.487101
     19          1           0       -1.575883   -0.083490    2.252069
 ---------------------------------------------------------------------

 SCF Done:  E(RHF) =  -726.241223821     A.U. after    2 cycles

 The electronic state is 1-A.
 Alpha  occ. eigenvalues --  -69.57543 -20.53992 -20.53926 -15.47371 -11.24629
 Alpha  occ. eigenvalues --  -11.24573 -11.24295 -11.24138 -11.24028 -11.22298
 Alpha  occ. eigenvalues --   -6.23751  -3.99274  -3.99173  -3.99071  -1.43992
 Alpha  occ. eigenvalues --   -1.41870  -1.15025  -1.13831  -1.01415  -1.01299
 Alpha  occ. eigenvalues --   -0.83363  -0.83073  -0.76941  -0.72338  -0.70293
 Alpha  occ. eigenvalues --   -0.68095  -0.64400  -0.63507  -0.63051  -0.59715
 Alpha  occ. eigenvalues --   -0.59065  -0.57525  -0.54166  -0.51583  -0.50856
 Alpha  occ. eigenvalues --   -0.49962  -0.48620  -0.47037  -0.43912  -0.34599
 Alpha  occ. eigenvalues --   -0.34394
 Alpha virt. eigenvalues --    0.03032   0.03711   0.03934   0.04942   0.05346
 Alpha virt. eigenvalues --    0.05538   0.06303   0.07647   0.07944   0.08217
 Alpha virt. eigenvalues --    0.09245   0.09893   0.10601   0.10796   0.11817

 Mulliken charges:
               1
     1  C    0.239910
     2  C    0.704858
     3  C   -0.490827
     4  Si   2.712486
     5  O   -1.629658
     6  N    0.150595
     7  H   -0.042748
     8  H   -0.033351
     9  C    0.350247
    10  C    0.322968
    11  C   -0.016504
    12  H   -0.328742
    13  H   -0.235868
    14  H   -0.389641
    15  H   -0.213231
    16  H   -0.225062
    17  H    0.401150
    18  O   -1.679248
    19  H    0.402664
 Sum of Mulliken charges =  -0.00000

 Dipole moment (field-independent basis, Debye):
    X=              0.4307    Y=             -0.5443    Z=             -0.1570  Tot=              0.7116

 Test job not archived.
 1\1\GINC-SE187\SP\RHF\Aug-CC-pVDZ\C6H9N1O2Si1\OHZDE\09-Apr-2025\0\\#t
 hf aug-cc-pvdz iop(5/13=1,5/36=2,99/5=2) pseudo=read geom=check guess=
 (read,tcheck) scf=(maxcycle=1)\\title\\0,1\C,0,2.475047,-1.252888,-0.0
 06174\C,0,1.083299,-1.20947,-0.015781\C,0,0.392882,0.014013,-0.022042\
 Si,0,-1.473108,0.036062,0.005272\O,0,-1.834472,1.59305,-0.402005\N,0,-
 2.257212,-1.07863,-1.019153\H,0,-2.06,-1.143701,-2.005089\H,0,-2.65301
 1,-1.925566,-0.6425\C,0,3.207584,-0.066788,-0.006737\C,0,2.543129,1.15
 7907,-0.020566\C,0,1.150158,1.19684,-0.028948\H,0,0.638325,2.152176,-0

 Normal termination of Gaussian 16 at Wed Apr  9 00:02:37 2025.
