 Gaussian 16, Revision C.01,

 ----------------------------------------------------------------------
 #t hf aug-cc-pvdz symm=none int=(grid=ultrafine) guess=(read,tcheck) s
 table=(opt,rrhf)
 ----------------------------------------------------------------------
 -----
 title
 -----
 Symbolic Z-matrix:
 Charge =  0 Multiplicity = 1

 SCF Done:  E(RHF) =  -1156.93734411     A.U. after   15 cycles
 Normal termination of Gaussian 16 at Tue Apr  8 23:16:51 2025.
 Gaussian 16:  ES64L-G16RevC.01  3-Jul-2019

 ----------------------------------------------------------------------
 #t hf aug-cc-pvdz iop(5/13=1,5/36=2,99/5=2) pseudo=read geom=check gue
 ss=(read,tcheck) scf=(maxcycle=1)
 ----------------------------------------------------------------------
 -----
 title
 -----
 Structure from the checkpoint file:  "BDE49_nonexpt_1041_mol1.chk"
 Charge =  0 Multiplicity = 1

                         Standard orientation:
 ---------------------------------------------------------------------
 Center     Atomic      Atomic             Coordinates (Angstroms)
 Number     Number       Type             X           Y           Z
 ---------------------------------------------------------------------
      1         17           0       -2.070740    0.023641   -0.014598
      2          8           0       -0.582799   -0.807954   -0.363448
      3         16           0        0.794474   -0.039497    0.134693
      4          8           0        0.636247    0.481035    1.444165
      5          8           0        1.785059   -0.986974   -0.260805
      6          8           0        0.832667    1.226072   -0.843095
      7          1           0        1.121602    0.932619   -1.721457
 ---------------------------------------------------------------------

 SCF Done:  E(RHF) =  -1157.36272656     A.U. after    2 cycles

 The electronic state is 1-A.
 Alpha  occ. eigenvalues -- -105.66811 -94.31053 -20.69087 -20.66150 -20.59490
 Alpha  occ. eigenvalues --  -20.59463 -10.70950  -8.55256  -7.87949  -7.87349
 Alpha  occ. eigenvalues --   -7.87324  -6.53399  -6.53235  -6.53194  -1.68325
 Alpha  occ. eigenvalues --   -1.54038  -1.51936  -1.50818  -1.08290  -0.94054
 Alpha  occ. eigenvalues --   -0.81882  -0.76715  -0.74823  -0.68873  -0.66051
 Alpha  occ. eigenvalues --   -0.64084  -0.59996  -0.57327  -0.55316  -0.53225
 Alpha  occ. eigenvalues --   -0.51576  -0.50682  -0.49227
 Alpha virt. eigenvalues --    0.02542   0.03257   0.08606   0.09473   0.09945
 Alpha virt. eigenvalues --    0.12112   0.13611   0.14223   0.14740   0.17202
 Alpha virt. eigenvalues --    0.18404   0.20764   0.21844   0.23367   0.23677

 Mulliken charges:
               1
     1  Cl   0.407701
     2  O   -1.227435
     3  S    4.206761
     4  O   -1.273680
     5  O   -1.266160
     6  O   -1.204432
     7  H    0.357244
 Sum of Mulliken charges =  -0.00000

 Dipole moment (field-independent basis, Debye):
    X=             -1.1022    Y=              1.0358    Z=             -2.7133  Tot=              3.1064

 Test job not archived.
 1\1\GINC-SE069\SP\RHF\Aug-CC-pVDZ\Cl1H1O4S1\OHZDE\08-Apr-2025\0\\#t hf
  aug-cc-pvdz iop(5/13=1,5/36=2,99/5=2) pseudo=read geom=check guess=(r
 ead,tcheck) scf=(maxcycle=1)\\title\\0,1\Cl,0,-2.07074,0.023641,-0.014
 598\O,0,-0.582799,-0.807954,-0.363448\S,0,0.794474,-0.039497,0.134693\
 O,0,0.636247,0.481035,1.444165\O,0,1.785059,-0.986974,-0.260805\O,0,0.
 832667,1.226072,-0.843095\H,0,1.121602,0.932619,-1.721457\\Version=ES6
 4L-G16RevC.01\State=1-A\HF=-1157.3627266\RMSD=6.564e-03\Dipole=-0.4336
 325,0.407521,-1.0674881\Quadrupole=0.882827,-2.1432048,1.2603779,1.400

 Normal termination of Gaussian 16 at Tue Apr  8 23:16:54 2025.
