 Gaussian 16, Revision C.01,

 ----------------------------------------------------------------------
 #t hf aug-cc-pvdz symm=none int=(grid=ultrafine) guess=(read,tcheck) s
 table=(opt,rrhf)
 ----------------------------------------------------------------------
 -----
 title
 -----
 Symbolic Z-matrix:
 Charge =  0 Multiplicity = 1

 SCF Done:  E(RHF) =  -327.068086321     A.U. after   15 cycles
 Normal termination of Gaussian 16 at Wed Apr  9 00:38:00 2025.
 Gaussian 16:  ES64L-G16RevC.01  3-Jul-2019

 ----------------------------------------------------------------------
 #t hf aug-cc-pvdz iop(5/13=1,5/36=2,99/5=2) pseudo=read geom=check gue
 ss=(read,tcheck) scf=(maxcycle=1)
 ----------------------------------------------------------------------
 -----
 title
 -----
 Structure from the checkpoint file:  "BDE49_nonexpt_562_mol1.chk"
 Charge =  0 Multiplicity = 1

                         Standard orientation:
 ---------------------------------------------------------------------
 Center     Atomic      Atomic             Coordinates (Angstroms)
 Number     Number       Type             X           Y           Z
 ---------------------------------------------------------------------
      1          6           0       -0.523187   -0.205973   -0.000001
      2          6           0       -0.009645    1.094748   -0.000001
      3          6           0        1.369375    1.264767    0.000000
      4          7           0        2.258645    0.265146    0.000002
      5          6           0        1.756499   -0.972008    0.000002
      6          6           0        0.396145   -1.259730    0.000000
      7          1           0       -0.664652    1.954847   -0.000002
      8          1           0        1.783363    2.269365    0.000000
      9          1           0        2.479128   -1.783535    0.000003
     10          1           0        0.057355   -2.290757    0.000000
     11          5           0       -3.007331    0.379512   -0.000001
     12          7           0       -1.903624   -0.485356   -0.000003
     13          1           0       -4.089586   -0.114810    0.000005
     14          1           0       -2.856934    1.557485    0.000008
     15          1           0       -2.092290   -1.479519   -0.000004
 ---------------------------------------------------------------------

 SCF Done:  E(RHF) =  -327.403555805     A.U. after    2 cycles

 The electronic state is 1-A.
 Alpha  occ. eigenvalues --  -15.53230 -15.49751 -11.31342 -11.28516 -11.28389
 Alpha  occ. eigenvalues --  -11.24721 -11.24371  -7.60563  -1.26611  -1.23520
 Alpha  occ. eigenvalues --   -1.07066  -1.04111  -0.88956  -0.87858  -0.78381
 Alpha  occ. eigenvalues --   -0.76062  -0.68786  -0.67218  -0.64577  -0.61122
 Alpha  occ. eigenvalues --   -0.59641  -0.58835  -0.53499  -0.53095  -0.49500
 Alpha  occ. eigenvalues --   -0.45764  -0.37388  -0.36300
 Alpha virt. eigenvalues --    0.02694   0.03726   0.03978   0.04107   0.04843
 Alpha virt. eigenvalues --    0.05579   0.06840   0.08335   0.08617   0.09273
 Alpha virt. eigenvalues --    0.09287   0.11267   0.11581   0.12498   0.12594

 Mulliken charges:
               1
     1  C   -2.195768
     2  C    1.977816
     3  C   -1.192024
     4  N    1.041964
     5  C   -1.161532
     6  C    1.506901
     7  H   -0.342605
     8  H   -0.186586
     9  H   -0.176987
    10  H   -0.314421
    11  B   -0.708820
    12  N    1.351310
    13  H    0.320899
    14  H    0.154003
    15  H   -0.074148
 Sum of Mulliken charges =  -0.00000

 Dipole moment (field-independent basis, Debye):
    X=             -2.4564    Y=             -1.2677    Z=             -0.0000  Tot=              2.7642

 Test job not archived.
 1\1\GINC-SE186\SP\RHF\Aug-CC-pVDZ\C5H7B1N2\OHZDE\09-Apr-2025\0\\#t hf
 aug-cc-pvdz iop(5/13=1,5/36=2,99/5=2) pseudo=read geom=check guess=(re
 ad,tcheck) scf=(maxcycle=1)\\title\\0,1\C,0,0.523187,-0.205973,0.00000
 1\C,0,0.009645,1.094748,0.000001\C,0,-1.369375,1.264767,0.\N,0,-2.2586
 45,0.265146,-0.000002\C,0,-1.756499,-0.972008,-0.000002\C,0,-0.396145,
 -1.25973,0.\H,0,0.664652,1.954847,0.000002\H,0,-1.783363,2.269365,0.\H
 ,0,-2.479128,-1.783535,-0.000003\H,0,-0.057355,-2.290757,0.\B,0,3.0073
 31,0.379512,0.000001\N,0,1.903624,-0.485356,0.000003\H,0,4.089586,-0.1

 Normal termination of Gaussian 16 at Wed Apr  9 00:38:07 2025.
