 Gaussian 16, Revision C.01,

 ----------------------------------------------------------------------
 #t hf aug-cc-pvdz symm=none int=(grid=ultrafine) guess=(read,tcheck) s
 table=(opt,rrhf)
 ----------------------------------------------------------------------
 -----
 title
 -----
 Symbolic Z-matrix:
 Charge =  0 Multiplicity = 1

 SCF Done:  E(RHF) =  -665.477001138     A.U. after   13 cycles
 Normal termination of Gaussian 16 at Tue Apr  8 22:46:49 2025.
 Gaussian 16:  ES64L-G16RevC.01  3-Jul-2019

 ----------------------------------------------------------------------
 #t hf aug-cc-pvdz iop(5/13=1,5/36=2,99/5=2) pseudo=read geom=check gue
 ss=(read,tcheck) scf=(maxcycle=1)
 ----------------------------------------------------------------------
 -----
 title
 -----
 Structure from the checkpoint file:  "BDE49_expt_1598_mol1.chk"
 Charge =  0 Multiplicity = 1

                         Standard orientation:
 ---------------------------------------------------------------------
 Center     Atomic      Atomic             Coordinates (Angstroms)
 Number     Number       Type             X           Y           Z
 ---------------------------------------------------------------------
      1         16           0        0.402218   -0.191120    0.000000
      2          6           0       -1.046102    0.898973    0.000000
      3          6           0        1.790259    0.952402   -0.000001
      4          8           0        0.422273   -0.911241   -1.259599
      5          8           0        0.422274   -0.911240    1.259600
      6          1           0        1.757506    1.562682   -0.901892
      7          1           0        2.685317    0.329447   -0.000001
      8          1           0        1.757506    1.562683    0.901891
      9          6           0       -2.329407    0.070165    0.000000
     10          1           0       -0.963571    1.524613   -0.891582
     11          1           0       -0.963571    1.524613    0.891581
     12          1           0       -2.378496   -0.564835   -0.885702
     13          1           0       -3.196554    0.734154    0.000000
     14          1           0       -2.378496   -0.564834    0.885703
 ---------------------------------------------------------------------

 SCF Done:  E(RHF) =  -665.822009190     A.U. after    2 cycles

 The electronic state is 1-A.
 Alpha  occ. eigenvalues --  -94.18256 -20.52803 -20.52800 -11.28985 -11.28756
 Alpha  occ. eigenvalues --  -11.25139  -8.43669  -6.41781  -6.41551  -6.41489
 Alpha  occ. eigenvalues --   -1.54688  -1.42816  -1.10243  -1.04447  -0.91643
 Alpha  occ. eigenvalues --   -0.81513  -0.70241  -0.67880  -0.66790  -0.64051
 Alpha  occ. eigenvalues --   -0.61675  -0.60379  -0.56652  -0.55758  -0.53601
 Alpha  occ. eigenvalues --   -0.48415  -0.48082  -0.45261  -0.42861
 Alpha virt. eigenvalues --    0.02753   0.03508   0.04157   0.04891   0.06311
 Alpha virt. eigenvalues --    0.06459   0.07234   0.08385   0.10861   0.11557
 Alpha virt. eigenvalues --    0.13340   0.13824   0.14221   0.14995   0.15768

 Mulliken charges:
               1
     1  S    3.164474
     2  C   -0.684966
     3  C   -0.655646
     4  O   -1.549375
     5  O   -1.549375
     6  H    0.232967
     7  H    0.253750
     8  H    0.232971
     9  C   -0.358485
    10  H    0.178651
    11  H    0.178648
    12  H    0.200253
    13  H    0.155879
    14  H    0.200254
 Sum of Mulliken charges =  -0.00000

 Dipole moment (field-independent basis, Debye):
    X=             -0.4762    Y=              4.8957    Z=             -0.0000  Tot=              4.9188

 Test job not archived.
 1\1\GINC-SE361\SP\RHF\Aug-CC-pVDZ\C3H8O2S1\OHZDE\08-Apr-2025\0\\#t hf
 aug-cc-pvdz iop(5/13=1,5/36=2,99/5=2) pseudo=read geom=check guess=(re
 ad,tcheck) scf=(maxcycle=1)\\title\\0,1\S,0,0.402218,-0.19112,0.\C,0,-
 1.046102,0.898973,0.\C,0,1.790259,0.952401,-0.000001\O,0,0.422273,-0.9
 11241,-1.259599\O,0,0.422274,-0.91124,1.2596\H,0,1.757506,1.562681,-0.
 901892\H,0,2.685317,0.329446,-0.000001\H,0,1.757506,1.562682,0.901891\
 C,0,-2.329407,0.070165,0.\H,0,-0.963571,1.524613,-0.891582\H,0,-0.9635
 71,1.524613,0.891581\H,0,-2.378496,-0.564835,-0.885702\H,0,-3.196554,0

 Normal termination of Gaussian 16 at Tue Apr  8 22:46:53 2025.
