 Gaussian 16, Revision C.01,

 ----------------------------------------------------------------------
 #t hf aug-cc-pvdz symm=none int=(grid=ultrafine) guess=(read,tcheck) s
 table=opt
 ----------------------------------------------------------------------
 -----
 title
 -----
 Symbolic Z-matrix:
 Charge =  0 Multiplicity = 2

 SCF Done:  E(UHF) =  -308.483712915     A.U. after   17 cycles

 1\1\GINC-SE424\Stability\UHF\Aug-CC-pVDZ\C6H11O1\OHZDE\08-Apr-2025\0\\
 #t hf aug-cc-pvdz symm=none int=(grid=ultrafine) guess=(read,tcheck) s
 table=opt\\title\\0,2\C,0,-1.834643,0.025483,0.256933\C,0,-1.150757,-1
 .252515,-0.248421\C,0,0.329315,-1.301712,0.167402\C,0,1.02991,-0.02605
 1,-0.165042\H,0,0.845554,-2.139524,-0.311876\H,0,0.392924,-1.487886,1.
 25655\H,0,-1.218131,-1.286676,-1.34201\H,0,-1.671535,-2.137548,0.12950
 6\C,0,0.372445,1.276338,0.1734\C,0,-1.109616,1.283674,-0.240865\H,0,0.
 903036,2.109681,-0.307416\H,0,0.443578,1.459632,1.263559\H,0,-1.597889

 Normal termination of Gaussian 16 at Tue Apr  8 22:48:38 2025.
 Gaussian 16:  ES64L-G16RevC.01  3-Jul-2019

 ----------------------------------------------------------------------
 #t hf aug-cc-pvdz iop(5/13=1,5/36=2,99/5=2) pseudo=read geom=check gue
 ss=(read,tcheck) scf=(maxcycle=1)
 ----------------------------------------------------------------------
 -----
 title
 -----
 Structure from the checkpoint file:  "BDE49_expt_165_mol2.chk"
 Charge =  0 Multiplicity = 2

                         Standard orientation:
 ---------------------------------------------------------------------
 Center     Atomic      Atomic             Coordinates (Angstroms)
 Number     Number       Type             X           Y           Z
 ---------------------------------------------------------------------
      1          6           0       -1.834643    0.025483    0.256933
      2          6           0       -1.150757   -1.252515   -0.248421
      3          6           0        0.329315   -1.301712    0.167402
      4          6           0        1.029910   -0.026051   -0.165042
      5          1           0        0.845554   -2.139524   -0.311876
      6          1           0        0.392924   -1.487886    1.256550
      7          1           0       -1.218131   -1.286676   -1.342010
      8          1           0       -1.671535   -2.137548    0.129506
      9          6           0        0.372445    1.276338    0.173400
     10          6           0       -1.109616    1.283674   -0.240865
     11          1           0        0.903036    2.109681   -0.307416
     12          1           0        0.443578    1.459632    1.263559
     13          1           0       -1.597889    2.184429    0.143185
     14          1           0       -1.174452    1.326419   -1.334131
     15          1           0       -1.844672    0.022733    1.354906
     16          1           0       -2.880755    0.045552   -0.064804
     17          8           0        2.400226   -0.111101   -0.032848
     18          1           0        2.780614    0.760694   -0.185134
 ---------------------------------------------------------------------

 SCF Done:  E(UHF) =  -308.812718890     A.U. after    2 cycles

 The electronic state is 2-A.
 Alpha  occ. eigenvalues --  -20.56214 -11.27626 -11.23497 -11.23137 -11.22728
 Alpha  occ. eigenvalues --  -11.22683 -11.22403  -1.47353  -1.11736  -1.01234
 Alpha  occ. eigenvalues --   -0.99635  -0.85316  -0.82749  -0.75200  -0.69598
 Alpha  occ. eigenvalues --   -0.65185  -0.62731  -0.61239  -0.60238  -0.56516
 Alpha  occ. eigenvalues --   -0.54458  -0.53500  -0.50740  -0.49507  -0.46930
 Alpha  occ. eigenvalues --   -0.46152  -0.44864  -0.30795
 Alpha virt. eigenvalues --    0.03299   0.03663   0.03831   0.04190   0.05786
 Alpha virt. eigenvalues --    0.06167   0.06449   0.06628   0.07220   0.09154
 Alpha virt. eigenvalues --    0.09503   0.12062   0.14051   0.14114   0.14570

  Beta  occ. eigenvalues --  -20.55757 -11.25100 -11.23722 -11.23103 -11.22738
  Beta  occ. eigenvalues --  -11.22662 -11.22637  -1.45781  -1.10809  -1.01184
  Beta  occ. eigenvalues --   -0.97535  -0.85062  -0.81135  -0.73783  -0.68267
  Beta  occ. eigenvalues --   -0.64066  -0.61706  -0.59829  -0.57487  -0.55493
  Beta  occ. eigenvalues --   -0.54314  -0.51086  -0.49532  -0.48953  -0.46377
  Beta  occ. eigenvalues --   -0.46020  -0.44343
  Beta virt. eigenvalues --    0.03292   0.03659   0.03851   0.04119   0.05778
  Beta virt. eigenvalues --    0.06110   0.06406   0.06575   0.07254   0.09157
  Beta virt. eigenvalues --    0.09514   0.11619   0.13524   0.14162   0.14504

 Mulliken charges and spin densities:
               1          2
     1  C   -0.263743  -0.000798
     2  C   -0.254594  -0.002892
     3  C   -0.386377  -0.229815
     4  C    1.517741   1.306457
     5  H    0.133243   0.002063
     6  H    0.226379   0.046543
     7  H    0.147493  -0.005695
     8  H    0.120455  -0.000522
     9  C   -0.536484  -0.185783
    10  C   -0.272935  -0.012650
    11  H    0.083323   0.001928
    12  H    0.222659   0.048505
    13  H    0.117843  -0.001386
    14  H    0.143406  -0.006002
    15  H    0.130359  -0.003330
    16  H    0.122794   0.001417
    17  O   -1.627431   0.052589
    18  H    0.375870  -0.010627
 Sum of Mulliken charges =  -0.00000   1.00000

 Dipole moment (field-independent basis, Debye):
    X=             -0.8287    Y=              1.3687    Z=              0.0167  Tot=              1.6001
                          Isotropic Fermi Contact Couplings
        Atom                 a.u.       MegaHertz       Gauss      10(-4) cm-1
     1  C(13)             -0.00260      -2.92764      -1.04466      -0.97656
     2  C(13)              0.00857       9.63934       3.43956       3.21534
     3  C(13)             -0.03839     -43.15515     -15.39883     -14.39501
     4  C(13)              0.29268     329.02351     117.40377     109.75043
     5  H(1)               0.00621      27.74209       9.89907       9.25376
     6  H(1)               0.01968      87.96858      31.38938      29.34316
     7  H(1)              -0.00067      -2.98901      -1.06655      -0.99703
     8  H(1)              -0.00078      -3.49949      -1.24871      -1.16731

 Normal termination of Gaussian 16 at Tue Apr  8 22:48:46 2025.
