 Gaussian 16, Revision C.01,

 ----------------------------------------------------------------------
 #t hf aug-cc-pvdz symm=none int=(grid=ultrafine) guess=(read,tcheck) s
 table=(opt,rrhf)
 ----------------------------------------------------------------------
 -----
 title
 -----
 Symbolic Z-matrix:
 Charge =  0 Multiplicity = 1

 SCF Done:  E(RHF) =  -781.896011808     A.U. after   15 cycles
 Normal termination of Gaussian 16 at Tue Apr  8 23:18:21 2025.
 Gaussian 16:  ES64L-G16RevC.01  3-Jul-2019

 ----------------------------------------------------------------------
 #t hf aug-cc-pvdz iop(5/13=1,5/36=2,99/5=2) pseudo=read geom=check gue
 ss=(read,tcheck) scf=(maxcycle=1)
 ----------------------------------------------------------------------
 -----
 title
 -----
 Structure from the checkpoint file:  "BDE49_nonexpt_1054_mol1.chk"
 Charge =  0 Multiplicity = 1

                         Standard orientation:
 ---------------------------------------------------------------------
 Center     Atomic      Atomic             Coordinates (Angstroms)
 Number     Number       Type             X           Y           Z
 ---------------------------------------------------------------------
      1         17           0       -2.018919   -0.310656   -0.484844
      2          8           0       -1.020294   -0.036682    0.926079
      3          6           0        0.234857    0.570323    0.609418
      4          8           0        0.103764    1.840380    0.080430
      5          7           0        1.031353   -0.278022   -0.237356
      6          6           0        1.138856   -1.657054    0.241741
      7          1           0        0.150937   -2.081192    0.403621
      8          1           0        1.713270   -1.732207    1.180964
      9          1           0        1.650189   -2.252267   -0.517060
     10          6           0        2.351418    0.281571   -0.538996
     11          1           0        2.259344    1.307386   -0.888638
     12          1           0        2.815787   -0.314533   -1.326930
     13          1           0        3.022199    0.273809    0.337298
     14          1           0        0.625450    0.693373    1.635365
     15          1           0       -0.153561    1.734310   -0.845821
 ---------------------------------------------------------------------

 SCF Done:  E(RHF) =  -782.301345072     A.U. after    2 cycles

 The electronic state is 1-A.
 Alpha  occ. eigenvalues -- -105.61716 -20.62985 -20.57405 -15.50946 -11.39055
 Alpha  occ. eigenvalues --  -11.26677 -11.26325 -10.65935  -7.82912  -7.82399
 Alpha  occ. eigenvalues --   -7.82371  -1.52574  -1.45477  -1.23600  -1.04204
 Alpha  occ. eigenvalues --   -0.97183  -0.94627  -0.84390  -0.74098  -0.71296
 Alpha  occ. eigenvalues --   -0.70590  -0.64819  -0.63371  -0.58242  -0.58021
 Alpha  occ. eigenvalues --   -0.56272  -0.55618  -0.53897  -0.52858  -0.50150
 Alpha  occ. eigenvalues --   -0.46886  -0.44748  -0.41383
 Alpha virt. eigenvalues --    0.03640   0.04388   0.04705   0.05118   0.05987
 Alpha virt. eigenvalues --    0.06204   0.06634   0.07142   0.08504   0.11074
 Alpha virt. eigenvalues --    0.12092   0.14030   0.14519   0.15283   0.15540

 Mulliken charges:
               1
     1  Cl   0.189918
     2  O   -1.258519
     3  C    1.528763
     4  O   -1.235460
     5  N    0.434229
     6  C   -0.431348
     7  H    0.098413
     8  H    0.219080
     9  H    0.119684
    10  C   -0.368089
    11  H    0.046393
    12  H    0.121594
    13  H    0.220406
    14  H    0.061530
    15  H    0.253406
 Sum of Mulliken charges =  -0.00000

 Dipole moment (field-independent basis, Debye):
    X=              2.2720    Y=             -0.7269    Z=             -0.6215  Tot=              2.4651

 Test job not archived.
 1\1\GINC-SE343\SP\RHF\Aug-CC-pVDZ\C3H8Cl1N1O2\OHZDE\08-Apr-2025\0\\#t
 hf aug-cc-pvdz iop(5/13=1,5/36=2,99/5=2) pseudo=read geom=check guess=
 (read,tcheck) scf=(maxcycle=1)\\title\\0,1\Cl,0,-2.018919,-0.310656,-0
 .484844\O,0,-1.020294,-0.036682,0.926079\C,0,0.234857,0.570323,0.60941
 8\O,0,0.103764,1.84038,0.08043\N,0,1.031353,-0.278022,-0.237356\C,0,1.
 138856,-1.657054,0.241741\H,0,0.150937,-2.081192,0.403621\H,0,1.71327,
 -1.732207,1.180964\H,0,1.650189,-2.252267,-0.51706\C,0,2.351418,0.2815
 71,-0.538996\H,0,2.259344,1.307386,-0.888638\H,0,2.815787,-0.314533,-1

 Normal termination of Gaussian 16 at Tue Apr  8 23:18:26 2025.
