 Gaussian 16, Revision C.01,

 ----------------------------------------------------------------------
 #t hf aug-cc-pvdz symm=none int=(grid=ultrafine) guess=(read,tcheck) s
 table=opt
 ----------------------------------------------------------------------
 -----
 title
 -----
 Symbolic Z-matrix:
 Charge =  0 Multiplicity = 2

 SCF Done:  E(UHF) =  -152.321017240     A.U. after   18 cycles
 Normal termination of Gaussian 16 at Tue Apr  8 22:34:21 2025.
 Gaussian 16:  ES64L-G16RevC.01  3-Jul-2019

 ----------------------------------------------------------------------
 #t hf aug-cc-pvdz iop(5/13=1,5/36=2,99/5=2) pseudo=read geom=check gue
 ss=(read,tcheck) scf=(maxcycle=1)
 ----------------------------------------------------------------------
 -----
 title
 -----
 Structure from the checkpoint file:  "BDE49_expt_1088_mol3.chk"
 Charge =  0 Multiplicity = 2

                         Standard orientation:
 ---------------------------------------------------------------------
 Center     Atomic      Atomic             Coordinates (Angstroms)
 Number     Number       Type             X           Y           Z
 ---------------------------------------------------------------------
      1          6           0       -0.248525   -0.433907    0.000009
      2          8           0       -1.259397    0.175196   -0.000015
      3          6           0        1.168594    0.098243    0.000006
      4          1           0        1.180760    1.192849   -0.000041
      5          1           0        1.687013   -0.290255   -0.879442
      6          1           0        1.686984   -0.290178    0.879506
 ---------------------------------------------------------------------

 SCF Done:  E(UHF) =  -152.471883811     A.U. after    2 cycles

 The electronic state is 2-A.
 Alpha  occ. eigenvalues --  -20.58628 -11.35371 -11.27599  -1.52504  -1.04214
 Alpha  occ. eigenvalues --   -0.78322  -0.67866  -0.65871  -0.62716  -0.56968
 Alpha  occ. eigenvalues --   -0.53570  -0.36514
 Alpha virt. eigenvalues --    0.03393   0.05071   0.05344   0.07659   0.10648
 Alpha virt. eigenvalues --    0.11825   0.12060   0.14749   0.14865   0.15552
 Alpha virt. eigenvalues --    0.16278   0.21691   0.24493   0.25125   0.27240

  Beta  occ. eigenvalues --  -20.57573 -11.33400 -11.27060  -1.49862  -1.01445
  Beta  occ. eigenvalues --   -0.74023  -0.62755  -0.62049  -0.61435  -0.53731
  Beta  occ. eigenvalues --   -0.49430
  Beta virt. eigenvalues --    0.02775   0.05104   0.05406   0.07195   0.10194
  Beta virt. eigenvalues --    0.11284   0.12067   0.12765   0.14812   0.14904
  Beta virt. eigenvalues --    0.17448   0.17887   0.23415   0.25236   0.25323

 Mulliken charges and spin densities:
               1          2
     1  C    0.630940   0.774617
     2  O   -0.842483   0.154304
     3  C   -0.411669   0.082408
     4  H    0.159557   0.030067
     5  H    0.231826  -0.020698
     6  H    0.231829  -0.020698
 Sum of Mulliken charges =   0.00000   1.00000

 Dipole moment (field-independent basis, Debye):
    X=              2.8132    Y=             -0.0188    Z=              0.0000  Tot=              2.8133
                          Isotropic Fermi Contact Couplings
        Atom                 a.u.       MegaHertz       Gauss      10(-4) cm-1
     1  C(13)              0.33558     377.25621     134.61440     125.83913
     2  O(17)              0.09926     -60.16852     -21.46963     -20.07006
     3  C(13)              0.12088     135.89553      48.49090      45.32987
     4  H(1)               0.00916      40.94774      14.61117      13.65870
     5  H(1)              -0.00247     -11.02934      -3.93554      -3.67899
     6  H(1)              -0.00247     -11.02945      -3.93558      -3.67903
 --------------------------------------------------------
       Center         ----  Spin Dipole Couplings  ----

 Normal termination of Gaussian 16 at Tue Apr  8 22:34:22 2025.
