 Gaussian 16, Revision C.01,

 ----------------------------------------------------------------------
 #t hf aug-cc-pvdz symm=none int=(grid=ultrafine) guess=(read,tcheck) s
 table=(opt,rrhf)
 ----------------------------------------------------------------------
 -----
 title
 -----
 Symbolic Z-matrix:
 Charge =  0 Multiplicity = 1

 SCF Done:  E(RHF) =  -231.387064297     A.U. after   12 cycles
 Normal termination of Gaussian 16 at Wed Apr  9 00:38:50 2025.
 Gaussian 16:  ES64L-G16RevC.01  3-Jul-2019

 ----------------------------------------------------------------------
 #t hf aug-cc-pvdz iop(5/13=1,5/36=2,99/5=2) pseudo=read geom=check gue
 ss=(read,tcheck) scf=(maxcycle=1)
 ----------------------------------------------------------------------
 -----
 title
 -----
 Structure from the checkpoint file:  "BDE49_nonexpt_600_mol1.chk"
 Charge =  0 Multiplicity = 1

                         Standard orientation:
 ---------------------------------------------------------------------
 Center     Atomic      Atomic             Coordinates (Angstroms)
 Number     Number       Type             X           Y           Z
 ---------------------------------------------------------------------
      1          7           0        1.388165   -0.168014    0.000003
      2          5           0       -0.018232   -0.008933   -0.000005
      3          8           0       -0.655411    1.217874    0.000002
      4          8           0       -0.804778   -1.136387   -0.000004
      5          1           0       -1.737426   -0.906143   -0.000004
      6          1           0       -0.062004    1.971299    0.000007
      7          1           0        2.050496    0.587404    0.000010
      8          1           0        1.804443   -1.083687    0.000004
 ---------------------------------------------------------------------

 SCF Done:  E(RHF) =  -231.620708925     A.U. after    2 cycles

 The electronic state is 1-A.
 Alpha  occ. eigenvalues --  -20.55012 -20.53897 -15.48209  -7.63904  -1.46879
 Alpha  occ. eigenvalues --   -1.42704  -1.15610  -0.77532  -0.74073  -0.71136
 Alpha  occ. eigenvalues --   -0.65137  -0.57291  -0.55250  -0.54495  -0.48489
 Alpha  occ. eigenvalues --   -0.44999
 Alpha virt. eigenvalues --    0.03024   0.05258   0.05424   0.05996   0.06815
 Alpha virt. eigenvalues --    0.07700   0.09624   0.10823   0.17238   0.17851
 Alpha virt. eigenvalues --    0.19437   0.21258   0.21770   0.22026   0.22842

 Mulliken charges:
               1
     1  N    0.174018
     2  B    1.261602
     3  O   -1.168679
     4  O   -1.147804
     5  H    0.466606
     6  H    0.484302
     7  H   -0.040351
     8  H   -0.029693
 Sum of Mulliken charges =  -0.00000

 Dipole moment (field-independent basis, Debye):
    X=              1.3918    Y=              1.4161    Z=              0.0000  Tot=              1.9856

 Test job not archived.
 1\1\GINC-SE177\SP\RHF\Aug-CC-pVDZ\B1H4N1O2\OHZDE\09-Apr-2025\0\\#t hf
 aug-cc-pvdz iop(5/13=1,5/36=2,99/5=2) pseudo=read geom=check guess=(re
 ad,tcheck) scf=(maxcycle=1)\\title\\0,1\N,0,1.388165,-0.168014,0.00000
 3\B,0,-0.018232,-0.008933,-0.000005\O,0,-0.65541,1.217874,0.000002\O,0
 ,-0.804778,-1.136387,-0.000004\H,0,-1.737426,-0.906142,-0.000004\H,0,-
 0.062003,1.971299,0.000007\H,0,2.050496,0.587403,0.00001\H,0,1.804443,
 -1.083688,0.000004\\Version=ES64L-G16RevC.01\State=1-A\HF=-231.6207089
 \RMSD=9.883e-03\Dipole=0.547596,0.5571317,0.0000015\Quadrupole=2.70375

 Normal termination of Gaussian 16 at Wed Apr  9 00:38:52 2025.
