 Gaussian 16, Revision C.01,

 ----------------------------------------------------------------------
 #t hf aug-cc-pvdz symm=none int=(grid=ultrafine) guess=(read,tcheck) s
 table=(opt,rrhf)
 ----------------------------------------------------------------------
 -----
 title
 -----
 Symbolic Z-matrix:
 Charge =  0 Multiplicity = 1

 SCF Done:  E(RHF) =  -473.477144189     A.U. after   10 cycles
 Normal termination of Gaussian 16 at Tue Apr  8 22:44:28 2025.
 Gaussian 16:  ES64L-G16RevC.01  3-Jul-2019

 ----------------------------------------------------------------------
 #t hf aug-cc-pvdz iop(5/13=1,5/36=2,99/5=2) pseudo=read geom=check gue
 ss=(read,tcheck) scf=(maxcycle=1)
 ----------------------------------------------------------------------
 -----
 title
 -----
 Structure from the checkpoint file:  "BDE49_expt_1508_mol1.chk"
 Charge =  0 Multiplicity = 1

                         Standard orientation:
 ---------------------------------------------------------------------
 Center     Atomic      Atomic             Coordinates (Angstroms)
 Number     Number       Type             X           Y           Z
 ---------------------------------------------------------------------
      1          6           0        0.000000    0.000000    0.661059
      2          9           0        0.000000    1.103888    1.386829
      3          6           0        0.000000    0.000000   -0.661059
      4          9           0       -0.000000   -1.103888    1.386829
      5          9           0        0.000000    1.103888   -1.386829
      6          9           0       -0.000000   -1.103888   -1.386829
 ---------------------------------------------------------------------

 SCF Done:  E(RHF) =  -473.909363928     A.U. after    2 cycles

 The electronic state is 1-AG.
 Alpha  occ. eigenvalues --  -26.53723 -26.53723 -26.53722 -26.53721 -11.45978
 Alpha  occ. eigenvalues --  -11.45866  -1.71384  -1.69696  -1.64823  -1.63648
 Alpha  occ. eigenvalues --   -1.10245  -0.90392  -0.85663  -0.83372  -0.79252
 Alpha  occ. eigenvalues --   -0.77473  -0.74295  -0.71651  -0.69158  -0.68426
 Alpha  occ. eigenvalues --   -0.67107  -0.65943  -0.65371  -0.40678
 Alpha virt. eigenvalues --    0.06991   0.07281   0.09305   0.09366   0.11954
 Alpha virt. eigenvalues --    0.12207   0.12427   0.18721   0.19857   0.23393
 Alpha virt. eigenvalues --    0.24648   0.25306   0.27147   0.29941   0.30294

 Mulliken charges:
               1
     1  C    1.359415
     2  F   -0.679708
     3  C    1.359415
     4  F   -0.679708
     5  F   -0.679708
     6  F   -0.679708
 Sum of Mulliken charges =  -0.00000

 Dipole moment (field-independent basis, Debye):
    X=              0.0000    Y=             -0.0000    Z=             -0.0000  Tot=              0.0000

 Test job not archived.
 1\1\GINC-SE177\SP\RHF\Aug-CC-pVDZ\C2F4\OHZDE\08-Apr-2025\0\\#t hf aug-
 cc-pvdz iop(5/13=1,5/36=2,99/5=2) pseudo=read geom=check guess=(read,t
 check) scf=(maxcycle=1)\\title\\0,1\C,0,0.,0.,0.661059\F,0,0.,1.103888
 ,1.386829\C,0,0.,0.,-0.661059\F,0,0.,-1.103888,1.386829\F,0,0.,1.10388
 8,-1.386829\F,0,0.,-1.103888,-1.386829\\Version=ES64L-G16RevC.01\State
 =1-AG\HF=-473.9093639\RMSD=9.128e-03\Dipole=0.,0.,0.\Quadrupole=1.4309
 124,-0.8633893,-0.5675231,0.,0.,0.\PG=D02H [C2"(C1.C1),SG(F4)]\\@

 Normal termination of Gaussian 16 at Tue Apr  8 22:44:30 2025.
