 Gaussian 16, Revision C.01,

 ----------------------------------------------------------------------
 #t hf aug-cc-pvdz symm=none int=(grid=ultrafine) guess=(read,tcheck) s
 table=(opt,rrhf)
 ----------------------------------------------------------------------
 -----
 title
 -----
 Symbolic Z-matrix:
 Charge =  0 Multiplicity = 1

 SCF Done:  E(RHF) =  -1168.87621802     A.U. after   16 cycles
 Normal termination of Gaussian 16 at Tue Apr  8 23:29:22 2025.
 Gaussian 16:  ES64L-G16RevC.01  3-Jul-2019

 ----------------------------------------------------------------------
 #t hf aug-cc-pvdz iop(5/13=1,5/36=2,99/5=2) pseudo=read geom=check gue
 ss=(read,tcheck) scf=(maxcycle=1)
 ----------------------------------------------------------------------
 -----
 title
 -----
 Structure from the checkpoint file:  "BDE49_nonexpt_1331_mol1.chk"
 Charge =  0 Multiplicity = 1

                         Standard orientation:
 ---------------------------------------------------------------------
 Center     Atomic      Atomic             Coordinates (Angstroms)
 Number     Number       Type             X           Y           Z
 ---------------------------------------------------------------------
      1          7           0        3.035829    0.288900    0.166115
      2         15           0        1.899985   -1.130824   -0.296154
      3          6           0        0.285630   -0.429626    0.297628
      4         15           0       -2.018492    1.218545   -0.308334
      5          7           0       -2.972275   -0.326438    0.153036
      6          8           0       -2.691998   -1.370471   -0.420137
      7          8           0       -3.880661   -0.173503    0.949785
      8          8           0        2.577992    1.423412    0.172229
      9          8           0        4.199480   -0.009368    0.364541
     10          6           0       -0.385165    0.469128   -0.747437
     11          1           0       -0.340525   -1.305534    0.496066
     12          1           0       -0.536419   -0.063662   -1.690440
     13          1           0        0.251523    1.333236   -0.967753
     14          1           0        0.435564    0.103676    1.238094
     15          1           0        2.236036   -1.841369    0.878124
     16          1           0       -1.754752    1.523033    1.046686
 ---------------------------------------------------------------------

 SCF Done:  E(RHF) =  -1169.42997814     A.U. after    2 cycles

 The electronic state is 1-A.
 Alpha  occ. eigenvalues --  -84.36294 -84.36123 -20.60601 -20.60594 -20.60438
 Alpha  occ. eigenvalues --  -20.60395 -15.78508 -15.78479 -11.29704 -11.29578
 Alpha  occ. eigenvalues --   -6.83053  -6.82897  -4.35689  -4.35529  -4.35401
 Alpha  occ. eigenvalues --   -4.35134  -4.34620  -4.34547  -1.67850  -1.67812
 Alpha  occ. eigenvalues --   -1.51989  -1.51947  -1.12130  -1.05401  -1.01649
 Alpha  occ. eigenvalues --   -0.93122  -0.85394  -0.84496  -0.75792  -0.75754
 Alpha  occ. eigenvalues --   -0.75394  -0.74938  -0.74191  -0.73743  -0.66971
 Alpha  occ. eigenvalues --   -0.61249  -0.57799  -0.56803  -0.52668  -0.50047
 Alpha  occ. eigenvalues --   -0.49764  -0.48451  -0.46806  -0.46466  -0.46203
 Alpha  occ. eigenvalues --   -0.41094  -0.39696
 Alpha virt. eigenvalues --    0.03161   0.03354   0.03779   0.04232   0.04849
 Alpha virt. eigenvalues --    0.05237   0.05773   0.06459   0.06929   0.08448
 Alpha virt. eigenvalues --    0.08501   0.09098   0.09963   0.11568   0.12563

 Mulliken charges:
               1
     1  N    1.842221
     2  P    0.561682
     3  C   -0.617222
     4  P    0.532617
     5  N    1.998724
     6  O   -1.255796
     7  O   -1.285013
     8  O   -1.190645
     9  O   -1.258873
    10  C   -0.788779
    11  H    0.155046
    12  H    0.219594
    13  H    0.251951
    14  H    0.133412
    15  H    0.353098
    16  H    0.347984
 Sum of Mulliken charges =  -0.00000

 Dipole moment (field-independent basis, Debye):
    X=             -0.0631    Y=              0.0299    Z=             -0.8444  Tot=              0.8473

 Test job not archived.
 1\1\GINC-SE458\SP\RHF\Aug-CC-pVDZ\C2H6N2O4P2\OHZDE\08-Apr-2025\0\\#t h
 f aug-cc-pvdz iop(5/13=1,5/36=2,99/5=2) pseudo=read geom=check guess=(
 read,tcheck) scf=(maxcycle=1)\\title\\0,1\N,0,3.035829,0.2889,0.166115
 \P,0,1.899985,-1.130824,-0.296154\C,0,0.28563,-0.429626,0.297628\P,0,-
 2.018492,1.218545,-0.308334\N,0,-2.972275,-0.326438,0.153036\O,0,-2.69
 1998,-1.370471,-0.420137\O,0,-3.880661,-0.173503,0.949785\O,0,2.577992
 ,1.423412,0.172229\O,0,4.19948,-0.009368,0.364541\C,0,-0.385165,0.4691
 28,-0.747437\H,0,-0.340525,-1.305534,0.496066\H,0,-0.536419,-0.063662,

 Normal termination of Gaussian 16 at Tue Apr  8 23:29:30 2025.
