 Gaussian 16, Revision C.01,

 ----------------------------------------------------------------------
 #t hf aug-cc-pvdz symm=none int=(grid=ultrafine) guess=(read,tcheck) s
 table=(opt,rrhf)
 ----------------------------------------------------------------------
 -----
 title
 -----
 Symbolic Z-matrix:
 Charge =  0 Multiplicity = 1

 SCF Done:  E(RHF) =  -948.101776674     A.U. after   11 cycles
 Normal termination of Gaussian 16 at Tue Apr  8 23:47:13 2025.
 Gaussian 16:  ES64L-G16RevC.01  3-Jul-2019

 ----------------------------------------------------------------------
 #t hf aug-cc-pvdz iop(5/13=1,5/36=2,99/5=2) pseudo=read geom=check gue
 ss=(read,tcheck) scf=(maxcycle=1)
 ----------------------------------------------------------------------
 -----
 title
 -----
 Structure from the checkpoint file:  "BDE49_nonexpt_1787_mol1.chk"
 Charge =  0 Multiplicity = 1

                         Standard orientation:
 ---------------------------------------------------------------------
 Center     Atomic      Atomic             Coordinates (Angstroms)
 Number     Number       Type             X           Y           Z
 ---------------------------------------------------------------------
      1         14           0       -0.555281   -0.060916    0.000000
      2          9           0       -0.555281   -0.996728    1.280558
      3          9           0       -0.555281   -0.996728   -1.280558
      4         17           0        1.147851    1.059541   -0.000000
      5          1           0       -1.744471    0.781734    0.000000
 ---------------------------------------------------------------------

 SCF Done:  E(RHF) =  -948.390891812     A.U. after    2 cycles

 The electronic state is 1-A'.
 Alpha  occ. eigenvalues -- -105.58895 -69.68553 -26.48845 -26.48844 -10.64007
 Alpha  occ. eigenvalues --   -7.80887  -7.80550  -7.80549  -6.34352  -4.09749
 Alpha  occ. eigenvalues --   -4.09677  -4.09462  -1.61635  -1.59296  -1.08965
 Alpha  occ. eigenvalues --   -0.81315  -0.72513  -0.70892  -0.69732  -0.66028
 Alpha  occ. eigenvalues --   -0.64172  -0.61890  -0.54831  -0.50833  -0.50276
 Alpha virt. eigenvalues --    0.04926   0.05247   0.05670   0.05767   0.10274
 Alpha virt. eigenvalues --    0.13389   0.15025   0.16116   0.16390   0.16470
 Alpha virt. eigenvalues --    0.20862   0.21225   0.22625   0.25719   0.26786

 Mulliken charges:
               1
     1  Si   2.285775
     2  F   -0.813442
     3  F   -0.813442
     4  Cl  -0.469780
     5  H   -0.189112
 Sum of Mulliken charges =  -0.00000

 Dipole moment (field-independent basis, Debye):
    X=             -0.9708    Y=              0.9702    Z=             -0.0000  Tot=              1.3725

 Test job not archived.
 1\1\GINC-SE247\SP\RHF\Aug-CC-pVDZ\Cl1F2H1Si1\OHZDE\08-Apr-2025\0\\#t h
 f aug-cc-pvdz iop(5/13=1,5/36=2,99/5=2) pseudo=read geom=check guess=(
 read,tcheck) scf=(maxcycle=1)\\title\\0,1\Si,0,-0.555281,-0.060916,0.\
 F,0,-0.555281,-0.996728,1.280558\F,0,-0.555281,-0.996728,-1.280558\Cl,
 0,1.147851,1.059541,0.\H,0,-1.744471,0.781734,0.\\Version=ES64L-G16Rev
 C.01\State=1-A'\HF=-948.3908918\RMSD=3.430e-03\Dipole=-0.3819443,0.381
 7131,0.\Quadrupole=1.6928723,-0.4193522,-1.2735202,-0.8240822,0.,0.\PG
 =CS [SG(Cl1H1Si1),X(F2)]\\@

 Normal termination of Gaussian 16 at Tue Apr  8 23:47:14 2025.
