 Gaussian 16, Revision C.01,

 ----------------------------------------------------------------------
 #t hf aug-cc-pvdz symm=none int=(grid=ultrafine) guess=(read,tcheck) s
 table=(opt,rrhf)
 ----------------------------------------------------------------------
 -----
 title
 -----
 Symbolic Z-matrix:
 Charge =  0 Multiplicity = 1

 SCF Done:  E(RHF) =  -228.874987602     A.U. after   13 cycles
 Normal termination of Gaussian 16 at Tue Apr  8 22:43:30 2025.
 Gaussian 16:  ES64L-G16RevC.01  3-Jul-2019

 ----------------------------------------------------------------------
 #t hf aug-cc-pvdz iop(5/13=1,5/36=2,99/5=2) pseudo=read geom=check gue
 ss=(read,tcheck) scf=(maxcycle=1)
 ----------------------------------------------------------------------
 -----
 title
 -----
 Structure from the checkpoint file:  "BDE49_expt_1463_mol1.chk"
 Charge =  0 Multiplicity = 1

                         Standard orientation:
 ---------------------------------------------------------------------
 Center     Atomic      Atomic             Coordinates (Angstroms)
 Number     Number       Type             X           Y           Z
 ---------------------------------------------------------------------
      1          6           0        0.458143    0.521444    0.021676
      2          8           0       -0.509330   -0.524880   -0.030106
      3          8           0       -1.815600    0.108386   -0.093707
      4          1           0       -2.193412   -0.194761    0.742964
      5          6           0        1.818772   -0.155474    0.004622
      6          1           0        0.315063    1.113894    0.934064
      7          1           0        0.328676    1.179810   -0.844074
      8          1           0        1.936122   -0.817011    0.865714
      9          1           0        2.607655    0.599853    0.039406
     10          1           0        1.943845   -0.745660   -0.905360
 ---------------------------------------------------------------------

 SCF Done:  E(RHF) =  -229.110667387     A.U. after    2 cycles

 The electronic state is 1-A.
 Alpha  occ. eigenvalues --  -20.61038 -20.60838 -11.29144 -11.23534  -1.57676
 Alpha  occ. eigenvalues --   -1.29140  -1.01355  -0.84815  -0.71741  -0.66527
 Alpha  occ. eigenvalues --   -0.64680  -0.60588  -0.54897  -0.53312  -0.51051
 Alpha  occ. eigenvalues --   -0.48189  -0.43872
 Alpha virt. eigenvalues --    0.03767   0.04173   0.04753   0.05151   0.07042
 Alpha virt. eigenvalues --    0.07874   0.12042   0.13639   0.14382   0.15379
 Alpha virt. eigenvalues --    0.15982   0.16905   0.17532   0.18124   0.20097

 Mulliken charges:
               1
     1  C    0.588053
     2  O   -0.732573
     3  O   -0.493492
     4  H    0.399388
     5  C   -0.497132
     6  H    0.108796
     7  H    0.115881
     8  H    0.158843
     9  H    0.175472
    10  H    0.176763
 Sum of Mulliken charges =  -0.00000

 Dipole moment (field-independent basis, Debye):
    X=              0.8428    Y=              0.6681    Z=              1.4431  Tot=              1.7998

 Test job not archived.
 1\1\GINC-SE036\SP\RHF\Aug-CC-pVDZ\C2H6O2\OHZDE\08-Apr-2025\0\\#t hf au
 g-cc-pvdz iop(5/13=1,5/36=2,99/5=2) pseudo=read geom=check guess=(read
 ,tcheck) scf=(maxcycle=1)\\title\\0,1\C,0,0.458143,0.521444,0.021676\O
 ,0,-0.50933,-0.52488,-0.030106\O,0,-1.8156,0.108386,-0.093707\H,0,-2.1
 93412,-0.194761,0.742964\C,0,1.818772,-0.155474,0.004622\H,0,0.315063,
 1.113894,0.934064\H,0,0.328676,1.17981,-0.844074\H,0,1.936122,-0.81701
 1,0.865714\H,0,2.607655,0.599853,0.039406\H,0,1.943845,-0.74566,-0.905
 36\\Version=ES64L-G16RevC.01\State=1-A\HF=-229.1106674\RMSD=8.300e-03\

 Normal termination of Gaussian 16 at Tue Apr  8 22:43:34 2025.
