 Gaussian 16, Revision C.01,

 ----------------------------------------------------------------------
 #t hf aug-cc-pvdz symm=none int=(grid=ultrafine) guess=(read,tcheck) s
 table=opt
 ----------------------------------------------------------------------
 -----
 title
 -----
 Symbolic Z-matrix:
 Charge =  0 Multiplicity = 2

 SCF Done:  E(UHF) =  -419.951969429     A.U. after   16 cycles
 Normal termination of Gaussian 16 at Tue Apr  8 23:12:49 2025.
 Gaussian 16:  ES64L-G16RevC.01  3-Jul-2019

 ----------------------------------------------------------------------
 #t hf aug-cc-pvdz iop(5/13=1,5/36=2,99/5=2) pseudo=read geom=check gue
 ss=(read,tcheck) scf=(maxcycle=1)
 ----------------------------------------------------------------------
 -----
 title
 -----
 Structure from the checkpoint file:  "BDE49_expt_818_mol2.chk"
 Charge =  0 Multiplicity = 2

                         Standard orientation:
 ---------------------------------------------------------------------
 Center     Atomic      Atomic             Coordinates (Angstroms)
 Number     Number       Type             X           Y           Z
 ---------------------------------------------------------------------
      1         15           0        1.228900   -0.097029   -0.085473
      2          6           0       -0.471988    0.645081    0.098766
      3          1           0        1.058438   -1.081168    0.933003
      4          6           0       -1.631758   -0.349557   -0.062002
      5          1           0       -0.551519    1.443869   -0.644928
      6          1           0       -0.526663    1.128363    1.081612
      7          1           0       -1.598646   -0.845926   -1.035386
      8          1           0       -2.595839    0.161980    0.019345
      9          1           0       -1.596801   -1.124827    0.707869
 ---------------------------------------------------------------------

 SCF Done:  E(UHF) =  -420.082557045     A.U. after    2 cycles

 The electronic state is 2-A.
 Alpha  occ. eigenvalues --  -84.27364 -11.24612 -11.23762  -6.74552  -4.27128
 Alpha  occ. eigenvalues --   -4.26517  -4.25990  -1.04669  -0.89002  -0.77952
 Alpha  occ. eigenvalues --   -0.62756  -0.58421  -0.54103  -0.51548  -0.45966
 Alpha  occ. eigenvalues --   -0.37598  -0.31985
 Alpha virt. eigenvalues --    0.03753   0.04587   0.04768   0.05229   0.07175
 Alpha virt. eigenvalues --    0.07551   0.10220   0.11321   0.11913   0.12824
 Alpha virt. eigenvalues --    0.14893   0.15888   0.16838   0.16983   0.17641

  Beta  occ. eigenvalues --  -84.26686 -11.24756 -11.23670  -6.73692  -4.25992
  Beta  occ. eigenvalues --   -4.25594  -4.23805  -1.04062  -0.87218  -0.73457
  Beta  occ. eigenvalues --   -0.62354  -0.57807  -0.53593  -0.51181  -0.45542
  Beta  occ. eigenvalues --   -0.35565
  Beta virt. eigenvalues --    0.03397   0.03912   0.04658   0.05319   0.06217
  Beta virt. eigenvalues --    0.07329   0.07621   0.10331   0.11770   0.13010
  Beta virt. eigenvalues --    0.13575   0.15309   0.16548   0.17065   0.17122

 Mulliken charges and spin densities:
               1          2
     1  P    0.338847   1.278313
     2  C   -0.862321  -0.116120
     3  H    0.170697  -0.174098
     4  C   -0.378321   0.020023
     5  H    0.141789  -0.002310
     6  H    0.170486   0.000920
     7  H    0.151308  -0.005795
     8  H    0.129004   0.002672
     9  H    0.138511  -0.003605
 Sum of Mulliken charges =   0.00000   1.00000

 Dipole moment (field-independent basis, Debye):
    X=             -1.0676    Y=              0.2248    Z=              0.3231  Tot=              1.1379
                          Isotropic Fermi Contact Couplings
        Atom                 a.u.       MegaHertz       Gauss      10(-4) cm-1
     1  P(31)              0.19877     359.98666     128.45219     120.07862
     2  C(13)             -0.02694     -30.28574     -10.80670     -10.10224
     3  H(1)              -0.01368     -61.12622     -21.81136     -20.38951
     4  C(13)              0.02559      28.77073      10.26611       9.59688
     5  H(1)               0.00044       1.95243       0.69667       0.65126
     6  H(1)               0.01035      46.27181      16.51093      15.43461
     7  H(1)              -0.00062      -2.78924      -0.99527      -0.93039
     8  H(1)               0.00074       3.31397       1.18251       1.10542

 Normal termination of Gaussian 16 at Tue Apr  8 23:12:52 2025.
