 Gaussian 16, Revision C.01,

 ----------------------------------------------------------------------
 #t hf aug-cc-pvdz symm=none int=(grid=ultrafine) guess=(read,tcheck) s
 table=(opt,rrhf)
 ----------------------------------------------------------------------
 -----
 title
 -----
 Symbolic Z-matrix:
 Charge =  0 Multiplicity = 1

 SCF Done:  E(RHF) =  -723.344676587     A.U. after   13 cycles
 Normal termination of Gaussian 16 at Tue Apr  8 23:27:05 2025.
 Gaussian 16:  ES64L-G16RevC.01  3-Jul-2019

 ----------------------------------------------------------------------
 #t hf aug-cc-pvdz iop(5/13=1,5/36=2,99/5=2) pseudo=read geom=check gue
 ss=(read,tcheck) scf=(maxcycle=1)
 ----------------------------------------------------------------------
 -----
 title
 -----
 Structure from the checkpoint file:  "BDE49_nonexpt_1274_mol1.chk"
 Charge =  0 Multiplicity = 1

                         Standard orientation:
 ---------------------------------------------------------------------
 Center     Atomic      Atomic             Coordinates (Angstroms)
 Number     Number       Type             X           Y           Z
 ---------------------------------------------------------------------
      1          6           0        0.617465    0.728220   -0.400100
      2         15           0       -0.782564   -0.362673   -0.023321
      3          8           0       -0.665444   -1.814314   -0.252402
      4          8           0       -1.980505    0.306291   -0.875489
      5          6           0        1.910675    0.269545    0.311692
      6          6           0        2.522039   -1.026395   -0.231244
      7          1           0        1.712653    0.175626    1.384791
      8          1           0        2.637889    1.082942    0.209954
      9          1           0        2.780940   -0.920706   -1.289554
     10          1           0        1.829575   -1.864266   -0.141081
     11          6           0        0.275753    2.197705   -0.088022
     12          1           0        0.753669    0.621352   -1.483433
     13          1           0        1.098213    2.840467   -0.413490
     14          1           0        0.132159    2.344010    0.984462
     15          1           0       -0.632380    2.517675   -0.600738
     16          1           0        3.438874   -1.273610    0.310518
     17          1           0       -2.548984   -0.376091   -1.252491
     18          8           0       -1.102499    0.012280    1.514261
     19          1           0       -1.432160   -0.755807    1.995974
 ---------------------------------------------------------------------

 SCF Done:  E(RHF) =  -723.788707594     A.U. after    2 cycles

 The electronic state is 1-A.
 Alpha  occ. eigenvalues --  -84.41872 -20.58592 -20.58544 -20.49829 -11.25709
 Alpha  occ. eigenvalues --  -11.24200 -11.23841 -11.21984  -6.87209  -4.41292
 Alpha  occ. eigenvalues --   -4.40715  -4.39992  -1.52429  -1.46891  -1.38066
 Alpha  occ. eigenvalues --   -1.09852  -0.99772  -0.89463  -0.85408  -0.78909
 Alpha  occ. eigenvalues --   -0.72417  -0.67052  -0.66017  -0.62179  -0.61225
 Alpha  occ. eigenvalues --   -0.60013  -0.59177  -0.57544  -0.54168  -0.53002
 Alpha  occ. eigenvalues --   -0.52049  -0.50460  -0.49744  -0.48923  -0.48136
 Alpha  occ. eigenvalues --   -0.45006  -0.42662
 Alpha virt. eigenvalues --    0.03570   0.03798   0.03863   0.04441   0.05676
 Alpha virt. eigenvalues --    0.06256   0.06699   0.06952   0.07653   0.09507
 Alpha virt. eigenvalues --    0.09623   0.11424   0.11667   0.13170   0.13988

 Mulliken charges:
               1
     1  C   -1.395510
     2  P    4.564444
     3  O   -1.541026
     4  O   -1.377471
     5  C   -0.173065
     6  C   -0.304281
     7  H    0.097816
     8  H    0.134641
     9  H    0.169334
    10  H    0.118060
    11  C   -0.264474
    12  H    0.123186
    13  H    0.140632
    14  H    0.234937
    15  H    0.112262
    16  H    0.148074
    17  H    0.328523
    18  O   -1.419331
    19  H    0.303251
 Sum of Mulliken charges =   0.00000

 Dipole moment (field-independent basis, Debye):
    X=             -0.1818    Y=              1.6321    Z=              0.3193  Tot=              1.6729

 Test job not archived.
 1\1\GINC-SE128\SP\RHF\Aug-CC-pVDZ\C4H11O3P1\OHZDE\08-Apr-2025\0\\#t hf
  aug-cc-pvdz iop(5/13=1,5/36=2,99/5=2) pseudo=read geom=check guess=(r
 ead,tcheck) scf=(maxcycle=1)\\title\\0,1\C,0,0.617465,0.72822,-0.4001\
 P,0,-0.782564,-0.362673,-0.023321\O,0,-0.665444,-1.814314,-0.252402\O,
 0,-1.980505,0.306291,-0.875489\C,0,1.910675,0.269545,0.311692\C,0,2.52
 2039,-1.026395,-0.231244\H,0,1.712653,0.175626,1.384791\H,0,2.637889,1
 .082942,0.209954\H,0,2.78094,-0.920706,-1.289554\H,0,1.829575,-1.86426
 6,-0.141081\C,0,0.275753,2.197705,-0.088022\H,0,0.753669,0.621352,-1.4

 Normal termination of Gaussian 16 at Tue Apr  8 23:27:15 2025.
