 Gaussian 16, Revision C.01,

 ----------------------------------------------------------------------
 #t hf aug-cc-pvdz symm=none int=(grid=ultrafine) guess=(read,tcheck) s
 table=opt
 ----------------------------------------------------------------------
 -----
 title
 -----
 Symbolic Z-matrix:
 Charge =  0 Multiplicity = 2

 SCF Done:  E(UHF) =  -576.576651731     A.U. after   17 cycles

 1\1\GINC-SE165\Stability\UHF\Aug-CC-pVDZ\C3H6Cl1\OHZDE\08-Apr-2025\0\\
 #t hf aug-cc-pvdz symm=none int=(grid=ultrafine) guess=(read,tcheck) s
 table=opt\\title\\0,2\C,0,-2.035068,-0.551174,0.133379\C,0,-1.114368,0
 .49143,-0.394153\H,0,-2.038496,-0.576536,1.226951\H,0,-1.731768,-1.552
 489,-0.208836\H,0,-3.059226,-0.39631,-0.217301\C,0,0.098551,0.886731,0
 .301457\H,0,-1.232827,0.813773,-1.423746\H,0,0.022852,0.847752,1.38579
 6\H,0,0.517421,1.83149,-0.032551\Cl,0,1.519256,-0.3488,-0.057318\\Vers
 ion=ES64L-G16RevC.01\HF=-576.5766517\S2=0.774457\S2-1=0.\S2A=0.750418\

 Normal termination of Gaussian 16 at Tue Apr  8 22:43:35 2025.
 Gaussian 16:  ES64L-G16RevC.01  3-Jul-2019

 ----------------------------------------------------------------------
 #t hf aug-cc-pvdz iop(5/13=1,5/36=2,99/5=2) pseudo=read geom=check gue
 ss=(read,tcheck) scf=(maxcycle=1)
 ----------------------------------------------------------------------
 -----
 title
 -----
 Structure from the checkpoint file:  "BDE49_expt_146_mol2.chk"
 Charge =  0 Multiplicity = 2

                         Standard orientation:
 ---------------------------------------------------------------------
 Center     Atomic      Atomic             Coordinates (Angstroms)
 Number     Number       Type             X           Y           Z
 ---------------------------------------------------------------------
      1          6           0       -2.035068   -0.551174    0.133379
      2          6           0       -1.114368    0.491430   -0.394153
      3          1           0       -2.038496   -0.576536    1.226951
      4          1           0       -1.731768   -1.552489   -0.208836
      5          1           0       -3.059226   -0.396310   -0.217301
      6          6           0        0.098551    0.886731    0.301457
      7          1           0       -1.232827    0.813773   -1.423746
      8          1           0        0.022852    0.847752    1.385796
      9          1           0        0.517421    1.831490   -0.032551
     10         17           0        1.519256   -0.348800   -0.057318
 ---------------------------------------------------------------------

 SCF Done:  E(UHF) =  -576.781478936     A.U. after    2 cycles

 The electronic state is 2-A.
 Alpha  occ. eigenvalues -- -105.54369 -11.31109 -11.26642 -11.24225 -10.59105
 Alpha  occ. eigenvalues --   -7.76361  -7.75619  -7.75605  -1.12149  -1.02805
 Alpha  occ. eigenvalues --   -0.93306  -0.80938  -0.67557  -0.62643  -0.60589
 Alpha  occ. eigenvalues --   -0.55446  -0.54454  -0.53055  -0.44386  -0.43904
 Alpha  occ. eigenvalues --   -0.36049
 Alpha virt. eigenvalues --    0.03439   0.04118   0.04214   0.05719   0.06587
 Alpha virt. eigenvalues --    0.07292   0.09387   0.11649   0.13074   0.14401
 Alpha virt. eigenvalues --    0.14803   0.15445   0.15953   0.16686   0.17256

  Beta  occ. eigenvalues -- -105.54116 -11.31545 -11.24525 -11.24285 -10.58832
  Beta  occ. eigenvalues --   -7.75500  -7.75449  -7.75338  -1.09288  -1.00548
  Beta  occ. eigenvalues --   -0.92166  -0.77465  -0.66839  -0.61399  -0.56984
  Beta  occ. eigenvalues --   -0.54900  -0.53048  -0.51368  -0.43695  -0.43443
  Beta virt. eigenvalues --    0.03409   0.04141   0.04238   0.05362   0.06263
  Beta virt. eigenvalues --    0.06723   0.07309   0.10866   0.12306   0.13406
  Beta virt. eigenvalues --    0.14542   0.14871   0.15543   0.16237   0.16871

 Mulliken charges and spin densities:
               1          2
     1  C   -0.564245  -0.219692
     2  C    0.429322   1.389791
     3  H    0.146710   0.007721
     4  H    0.247194   0.042261
     5  H    0.164069   0.008688
     6  C   -0.551378  -0.328458
     7  H   -0.098676  -0.070569
     8  H    0.200587   0.005355
     9  H    0.187863   0.006429
    10  Cl  -0.161447   0.158474
 Sum of Mulliken charges =  -0.00000   1.00000

 Dipole moment (field-independent basis, Debye):
    X=             -2.4216    Y=              1.3532    Z=              0.3209  Tot=              2.7925
                          Isotropic Fermi Contact Couplings
        Atom                 a.u.       MegaHertz       Gauss      10(-4) cm-1
     1  C(13)             -0.05457     -61.35039     -21.89134     -20.46429
     2  C(13)              0.20841     234.29598      83.60263      78.15273
     3  H(1)               0.00535      23.93192       8.53950       7.98283
     4  H(1)               0.02454     109.70495      39.14545      36.59363
     5  H(1)               0.00819      36.62249      13.06781      12.21595
     6  C(13)             -0.04946     -55.59864     -19.83898     -18.54571
     7  H(1)              -0.02185     -97.68295     -34.85571     -32.58352
     8  H(1)               0.00548      24.49963       8.74208       8.17220

 Normal termination of Gaussian 16 at Tue Apr  8 22:43:39 2025.
