 Gaussian 16, Revision C.01,

 ----------------------------------------------------------------------
 #t hf aug-cc-pvdz symm=none int=(grid=ultrafine) guess=(read,tcheck) s
 table=opt
 ----------------------------------------------------------------------
 -----
 title
 -----
 Symbolic Z-matrix:
 Charge =  0 Multiplicity = 2

 SCF Done:  E(UHF) =  -434.754640108     A.U. after   19 cycles
 Normal termination of Gaussian 16 at Tue Apr  8 23:30:58 2025.
 Gaussian 16:  ES64L-G16RevC.01  3-Jul-2019

 ----------------------------------------------------------------------
 #t hf aug-cc-pvdz iop(5/13=1,5/36=2,99/5=2) pseudo=read geom=check gue
 ss=(read,tcheck) scf=(maxcycle=1)
 ----------------------------------------------------------------------
 -----
 title
 -----
 Structure from the checkpoint file:  "BDE49_nonexpt_1398_mol2.chk"
 Charge =  0 Multiplicity = 2

                         Standard orientation:
 ---------------------------------------------------------------------
 Center     Atomic      Atomic             Coordinates (Angstroms)
 Number     Number       Type             X           Y           Z
 ---------------------------------------------------------------------
      1         15           0       -0.873542   -0.099328    0.011435
      2          7           0        0.596457    0.812225   -0.142233
      3          6           0        0.903545   -0.601229    0.017531
      4          1           0        1.332392   -1.073348   -0.860541
      5          1           0        1.309845   -0.948445    0.965128
      6          1           0        0.864427    1.433505    0.614340
 ---------------------------------------------------------------------

 SCF Done:  E(UHF) =  -434.891991480     A.U. after    2 cycles

 The electronic state is 2-A.
 Alpha  occ. eigenvalues --  -84.29741 -15.51727 -11.28231  -6.76785  -4.29072
 Alpha  occ. eigenvalues --   -4.28974  -4.28268  -1.23779  -0.90009  -0.80372
 Alpha  occ. eigenvalues --   -0.68606  -0.62516  -0.50840  -0.46462  -0.38596
 Alpha  occ. eigenvalues --   -0.30953
 Alpha virt. eigenvalues --    0.03718   0.05007   0.05469   0.06879   0.08258
 Alpha virt. eigenvalues --    0.10667   0.11173   0.11695   0.15499   0.16953
 Alpha virt. eigenvalues --    0.17238   0.17812   0.20651   0.20952   0.23631

  Beta  occ. eigenvalues --  -84.29052 -15.51473 -11.28424  -6.75920  -4.28631
  Beta  occ. eigenvalues --   -4.27628  -4.25732  -1.23006  -0.89686  -0.77053
  Beta  occ. eigenvalues --   -0.66152  -0.61171  -0.49063  -0.43439  -0.37729
  Beta virt. eigenvalues --    0.03738   0.04727   0.05111   0.05999   0.07148
  Beta virt. eigenvalues --    0.08331   0.10831   0.11948   0.14466   0.15977
  Beta virt. eigenvalues --    0.17217   0.17659   0.18581   0.21313   0.21365

 Mulliken charges and spin densities:
               1          2
     1  P    0.780885   1.068378
     2  N   -0.131203  -0.010763
     3  C   -0.636574  -0.078543
     4  H   -0.027232   0.011616
     5  H   -0.041616   0.003777
     6  H    0.055742   0.005535
 Sum of Mulliken charges =  -0.00000   1.00000

 Dipole moment (field-independent basis, Debye):
    X=             -0.0523    Y=             -0.6936    Z=              1.3121  Tot=              1.4851
                          Isotropic Fermi Contact Couplings
        Atom                 a.u.       MegaHertz       Gauss      10(-4) cm-1
     1  P(31)              0.19553     354.11983     126.35876     118.12166
     2  N(14)              0.03906      12.62047       4.50330       4.20973
     3  C(13)             -0.02713     -30.50224     -10.88396     -10.17445
     4  H(1)               0.00197       8.79045       3.13665       2.93218
     5  H(1)               0.00303      13.54196       4.83211       4.51711
     6  H(1)               0.00724      32.34765      11.54245      10.79002
 --------------------------------------------------------
       Center         ----  Spin Dipole Couplings  ----

 Normal termination of Gaussian 16 at Tue Apr  8 23:31:00 2025.
