 Gaussian 16, Revision C.01,

 ----------------------------------------------------------------------
 #t hf aug-cc-pvdz symm=none int=(grid=ultrafine) guess=(read,tcheck) s
 table=(opt,rrhf)
 ----------------------------------------------------------------------
 -----
 title
 -----
 Symbolic Z-matrix:
 Charge =  0 Multiplicity = 1

 SCF Done:  E(RHF) =  -1009.15855546     A.U. after   15 cycles
 Normal termination of Gaussian 16 at Wed Apr  9 00:00:33 2025.
 Gaussian 16:  ES64L-G16RevC.01  3-Jul-2019

 ----------------------------------------------------------------------
 #t hf aug-cc-pvdz iop(5/13=1,5/36=2,99/5=2) pseudo=read geom=check gue
 ss=(read,tcheck) scf=(maxcycle=1)
 ----------------------------------------------------------------------
 -----
 title
 -----
 Structure from the checkpoint file:  "BDE49_nonexpt_1969_mol1.chk"
 Charge =  0 Multiplicity = 1

                         Standard orientation:
 ---------------------------------------------------------------------
 Center     Atomic      Atomic             Coordinates (Angstroms)
 Number     Number       Type             X           Y           Z
 ---------------------------------------------------------------------
      1          6           0        0.523872   -0.347031    1.312475
      2         14           0       -0.347181    1.329782    1.061604
      3          6           0       -1.506490    1.439230   -0.486496
      4          1           0        0.681692    2.337301    0.726289
      5          1           0       -1.065999    1.737413    2.279555
      6          8           0       -1.500281    2.409355   -1.182758
      7          8           0       -2.349102    0.376792   -0.883347
      8          6           0       -2.684874   -0.592194    0.023555
      9          8           0       -2.459912   -0.476481    1.202297
     10          6           0       -3.335219   -1.763004   -0.644164
     11          1           0       -2.548321   -2.340412   -1.137655
     12          1           0       -4.041570   -1.430805   -1.405474
     13          1           0       -3.826511   -2.383237    0.102600
     14          6           0        0.853464   -1.012592    0.017321
     15          8           0        0.182390   -1.830922   -0.538256
     16          8           0        1.970648   -0.522110   -0.690393
     17          6           0        3.195864   -0.235066   -0.122024
     18          6           0        4.098610    0.376310   -1.156215
     19          1           0        3.662212    1.308626   -1.522027
     20          1           0        4.189746   -0.297601   -2.010414
     21          1           0        5.075666    0.565092   -0.717129
     22          8           0        3.479204   -0.475724    1.016950
     23          1           0       -0.148414   -0.999095    1.866717
     24          1           0        1.427094   -0.155435    1.892432
 ---------------------------------------------------------------------

 SCF Done:  E(RHF) =  -1009.89470087     A.U. after    2 cycles

 The electronic state is 1-A.
 Alpha  occ. eigenvalues --  -69.57219 -20.62319 -20.62199 -20.57092 -20.56718
 Alpha  occ. eigenvalues --  -20.56679 -20.56605 -11.42668 -11.42605 -11.42341
 Alpha  occ. eigenvalues --  -11.40025 -11.27139 -11.26366 -11.25957  -6.24080
 Alpha  occ. eigenvalues --   -3.99471  -3.99425  -3.99400  -1.58633  -1.58493
 Alpha  occ. eigenvalues --   -1.51938  -1.51608  -1.47166  -1.46792  -1.06980
 Alpha  occ. eigenvalues --   -1.05232  -1.03299  -0.90289  -0.89728  -0.82941
 Alpha  occ. eigenvalues --   -0.76821  -0.74671  -0.72193  -0.71722  -0.70844
 Alpha  occ. eigenvalues --   -0.70488  -0.68963  -0.68352  -0.64943  -0.63702
 Alpha  occ. eigenvalues --   -0.62474  -0.61041  -0.60677  -0.59709  -0.59197
 Alpha  occ. eigenvalues --   -0.57796  -0.56443  -0.55758  -0.54301  -0.51278
 Alpha  occ. eigenvalues --   -0.50299  -0.48886  -0.48258  -0.47795  -0.46851
 Alpha  occ. eigenvalues --   -0.45336  -0.43317
 Alpha virt. eigenvalues --    0.03228   0.03629   0.03907   0.04527   0.05222
 Alpha virt. eigenvalues --    0.05432   0.05817   0.06428   0.06863   0.07445
 Alpha virt. eigenvalues --    0.08671   0.09046   0.09143   0.10008   0.10177

 Mulliken charges:
               1
     1  C   -0.665292
     2  Si   1.147641
     3  C    1.286300
     4  H   -0.054054
     5  H   -0.150627
     6  O   -1.138709
     7  O   -1.508447
     8  C    2.206859
     9  O   -1.315132
    10  C   -0.667117
    11  H    0.286326
    12  H    0.216694
    13  H    0.196101
    14  C    2.229790
    15  O   -1.324141
    16  O   -1.526957
    17  C    1.762472
    18  C   -0.655173
    19  H    0.238801
    20  H    0.249973
    21  H    0.191196
    22  O   -1.191932
    23  H    0.080425
    24  H    0.105001
 Sum of Mulliken charges =   0.00000

 Dipole moment (field-independent basis, Debye):
    X=              0.8738    Y=             -0.6329    Z=              0.0134  Tot=              1.0790

 Test job not archived.
 1\1\GINC-SE247\SP\RHF\Aug-CC-pVDZ\C7H10O6Si1\OHZDE\09-Apr-2025\0\\#t h
 f aug-cc-pvdz iop(5/13=1,5/36=2,99/5=2) pseudo=read geom=check guess=(
 read,tcheck) scf=(maxcycle=1)\\title\\0,1\C,0,0.523872,-0.347031,1.312
 475\Si,0,-0.347181,1.329782,1.061604\C,0,-1.50649,1.43923,-0.486496\H,
 0,0.681692,2.337301,0.726289\H,0,-1.065999,1.737413,2.279555\O,0,-1.50
 0281,2.409355,-1.182758\O,0,-2.349102,0.376792,-0.883347\C,0,-2.684874
 ,-0.592194,0.023555\O,0,-2.459912,-0.476481,1.202297\C,0,-3.335219,-1.
 763004,-0.644164\H,0,-2.548321,-2.340412,-1.137655\H,0,-4.04157,-1.430

 Normal termination of Gaussian 16 at Wed Apr  9 00:00:56 2025.
