 Gaussian 16, Revision C.01,

 ----------------------------------------------------------------------
 #t hf aug-cc-pvdz symm=none int=(grid=ultrafine) guess=(read,tcheck) s
 table=(opt,rrhf)
 ----------------------------------------------------------------------
 -----
 title
 -----
 Symbolic Z-matrix:
 Charge =  0 Multiplicity = 1

 SCF Done:  E(RHF) =  -388.329300943     A.U. after   11 cycles

 1\1\GINC-SE226\Stability\RHF\Aug-CC-pVDZ\C8H18O1\OHZDE\08-Apr-2025\0\\
 #t hf aug-cc-pvdz symm=none int=(grid=ultrafine) guess=(read,tcheck) s
 table=(opt,rrhf)\\title\\0,1\O,0,0.74656,0.211348,0.\C,0,1.423547,-0.1
 74107,-1.185654\C,0,0.625392,0.296649,-2.39312\H,0,1.546295,-1.269531,
 -1.209904\H,0,2.431748,0.268893,-1.20046\C,0,-0.75507,-0.356861,-2.519
 861\H,0,1.217391,0.091457,-3.293741\H,0,0.515058,1.385355,-2.330222\C,
 0,-1.543946,0.144581,-3.732278\H,0,-1.320647,-0.166892,-1.603623\H,0,-
 0.631794,-1.445049,-2.586614\H,0,-1.710509,1.224865,-3.675396\H,0,-2.5

 Normal termination of Gaussian 16 at Tue Apr  8 22:55:14 2025.
 Gaussian 16:  ES64L-G16RevC.01  3-Jul-2019

 ----------------------------------------------------------------------
 #t hf aug-cc-pvdz iop(5/13=1,5/36=2,99/5=2) pseudo=read geom=check gue
 ss=(read,tcheck) scf=(maxcycle=1)
 ----------------------------------------------------------------------
 -----
 title
 -----
 Structure from the checkpoint file:  "BDE49_expt_179_mol1.chk"
 Charge =  0 Multiplicity = 1

                         Standard orientation:
 ---------------------------------------------------------------------
 Center     Atomic      Atomic             Coordinates (Angstroms)
 Number     Number       Type             X           Y           Z
 ---------------------------------------------------------------------
      1          8           0       -0.746560    0.211348   -0.000000
      2          6           0       -1.423547   -0.174107    1.185654
      3          6           0       -0.625392    0.296649    2.393120
      4          1           0       -1.546295   -1.269531    1.209904
      5          1           0       -2.431748    0.268893    1.200460
      6          6           0        0.755070   -0.356861    2.519861
      7          1           0       -1.217391    0.091457    3.293741
      8          1           0       -0.515058    1.385355    2.330222
      9          6           0        1.543946    0.144581    3.732278
     10          1           0        1.320647   -0.166892    1.603623
     11          1           0        0.631794   -1.445049    2.586614
     12          1           0        1.710509    1.224865    3.675396
     13          1           0        2.522837   -0.338083    3.798318
     14          1           0        1.010481   -0.057986    4.666714
     15          6           0       -1.423547   -0.174107   -1.185654
     16          6           0       -0.625392    0.296649   -2.393120
     17          1           0       -2.431748    0.268893   -1.200460
     18          1           0       -1.546295   -1.269531   -1.209904
     19          6           0        0.755070   -0.356861   -2.519861
     20          1           0       -0.515058    1.385355   -2.330222
     21          1           0       -1.217391    0.091457   -3.293741
     22          6           0        1.543946    0.144581   -3.732278
     23          1           0        0.631794   -1.445049   -2.586614
     24          1           0        1.320647   -0.166892   -1.603623
     25          1           0        1.010481   -0.057986   -4.666714
     26          1           0        2.522837   -0.338083   -3.798318
     27          1           0        1.710509    1.224865   -3.675396
 ---------------------------------------------------------------------

 SCF Done:  E(RHF) =  -388.756362607     A.U. after    2 cycles

 The electronic state is 1-A'.
 Alpha  occ. eigenvalues --  -20.53561 -11.27796 -11.27721 -11.22370 -11.22355
 Alpha  occ. eigenvalues --  -11.22057 -11.22054 -11.21862 -11.21860  -1.45314
 Alpha  occ. eigenvalues --   -1.08081  -1.05828  -0.99047  -0.95479  -0.86260
 Alpha  occ. eigenvalues --   -0.85058  -0.78979  -0.78901  -0.67340  -0.66892
 Alpha  occ. eigenvalues --   -0.63112  -0.61756  -0.61448  -0.58909  -0.57709
 Alpha  occ. eigenvalues --   -0.55827  -0.53677  -0.52485  -0.51400  -0.51239
 Alpha  occ. eigenvalues --   -0.48575  -0.47315  -0.47022  -0.46755  -0.46305
 Alpha  occ. eigenvalues --   -0.45511  -0.40798
 Alpha virt. eigenvalues --    0.03342   0.03439   0.03638   0.04185   0.04862
 Alpha virt. eigenvalues --    0.04955   0.05601   0.06038   0.06435   0.07110
 Alpha virt. eigenvalues --    0.07659   0.08032   0.08463   0.09420   0.09956

 Mulliken charges:
               1
     1  O   -1.305532
     2  C    0.433402
     3  C   -0.468011
     4  H    0.145671
     5  H    0.113335
     6  C   -0.152873
     7  H    0.156042
     8  H    0.167679
     9  C   -0.460504
    10  H    0.179308
    11  H    0.089669
    12  H    0.181127
    13  H    0.120375
    14  H    0.147547
    15  C    0.433402
    16  C   -0.468011
    17  H    0.113335
    18  H    0.145671
    19  C   -0.152873
    20  H    0.167679
    21  H    0.156042
    22  C   -0.460504
    23  H    0.089669
    24  H    0.179308
    25  H    0.147547
    26  H    0.120375
    27  H    0.181127
 Sum of Mulliken charges =  -0.00000

 Dipole moment (field-independent basis, Debye):
    X=             -0.9286    Y=             -0.5596    Z=             -0.0000  Tot=              1.0842

 Test job not archived.
 1\1\GINC-SE226\SP\RHF\Aug-CC-pVDZ\C8H18O1\OHZDE\08-Apr-2025\0\\#t hf a
 ug-cc-pvdz iop(5/13=1,5/36=2,99/5=2) pseudo=read geom=check guess=(rea
 d,tcheck) scf=(maxcycle=1)\\title\\0,1\O,0,0.74656,0.211348,0.\C,0,1.4
 23547,-0.174107,-1.185654\C,0,0.625392,0.296649,-2.39312\H,0,1.546295,
 -1.269531,-1.209904\H,0,2.431748,0.268893,-1.20046\C,0,-0.75507,-0.356
 861,-2.519861\H,0,1.217391,0.091457,-3.293741\H,0,0.515058,1.385355,-2
 .330222\C,0,-1.543946,0.144581,-3.732278\H,0,-1.320647,-0.166892,-1.60
 3623\H,0,-0.631794,-1.445049,-2.586614\H,0,-1.710509,1.224865,-3.67539

 Normal termination of Gaussian 16 at Tue Apr  8 22:55:24 2025.
