 Gaussian 16, Revision C.01,

 ----------------------------------------------------------------------
 #t hf aug-cc-pvdz symm=none int=(grid=ultrafine) guess=(read,tcheck) s
 table=(opt,rrhf)
 ----------------------------------------------------------------------
 -----
 title
 -----
 Symbolic Z-matrix:
 Charge =  0 Multiplicity = 1

 SCF Done:  E(RHF) =  -1076.66892984     A.U. after   17 cycles
 Normal termination of Gaussian 16 at Tue Apr  8 23:17:17 2025.
 Gaussian 16:  ES64L-G16RevC.01  3-Jul-2019

 ----------------------------------------------------------------------
 #t hf aug-cc-pvdz iop(5/13=1,5/36=2,99/5=2) pseudo=read geom=check gue
 ss=(read,tcheck) scf=(maxcycle=1)
 ----------------------------------------------------------------------
 -----
 title
 -----
 Structure from the checkpoint file:  "BDE49_expt_849_mol1.chk"
 Charge =  0 Multiplicity = 1

                         Standard orientation:
 ---------------------------------------------------------------------
 Center     Atomic      Atomic             Coordinates (Angstroms)
 Number     Number       Type             X           Y           Z
 ---------------------------------------------------------------------
      1          6           0       -0.757066   -0.983738   -0.330463
      2          6           0        0.628798   -1.095182   -0.317831
      3          6           0        1.412522    0.025314   -0.049049
      4          6           0        0.812433    1.262968    0.187664
      5          6           0       -0.570153    1.375293    0.157351
      6          6           0       -1.367124    0.249086   -0.082971
      7          1           0       -1.353736   -1.854113   -0.571511
      8          1           0        1.100491   -2.046088   -0.528786
      9          1           0        1.426517    2.133426    0.380351
     10          1           0       -1.052109    2.331209    0.317013
     11          6           0        2.911131   -0.106034    0.030136
     12          6           0       -2.850458    0.471894   -0.122284
     13          8           0       -3.336210    1.540291   -0.389019
     14         16           0       -3.981626   -0.890414    0.263688
     15          1           0       -3.085820   -1.779119    0.721062
     16          9           0        3.371485   -1.120415   -0.731175
     17          9           0        3.317559   -0.349376    1.297035
     18          9           0        3.537608    1.018832   -0.372561
 ---------------------------------------------------------------------

 SCF Done:  E(RHF) =  -1077.37335571     A.U. after    2 cycles

 The electronic state is 1-A.
 Alpha  occ. eigenvalues --  -93.98875 -26.51631 -26.51553 -26.51173 -20.56766
 Alpha  occ. eigenvalues --  -11.53542 -11.39970 -11.29962 -11.29506 -11.29103
 Alpha  occ. eigenvalues --  -11.28805 -11.28603 -11.28444  -8.27026  -6.24851
 Alpha  occ. eigenvalues --   -6.24702  -6.24486  -1.72184  -1.62260  -1.61785
 Alpha  occ. eigenvalues --   -1.51026  -1.20861  -1.11121  -1.06866  -1.05814
 Alpha  occ. eigenvalues --   -0.98244  -0.90283  -0.88791  -0.82046  -0.81616
 Alpha  occ. eigenvalues --   -0.81341  -0.80477  -0.72791  -0.70895  -0.69699
 Alpha  occ. eigenvalues --   -0.68296  -0.67525  -0.65324  -0.64692  -0.64339
 Alpha  occ. eigenvalues --   -0.63413  -0.63269  -0.62703  -0.59717  -0.56313
 Alpha  occ. eigenvalues --   -0.54828  -0.54357  -0.53141  -0.43796  -0.40849
 Alpha  occ. eigenvalues --   -0.39355  -0.38658
 Alpha virt. eigenvalues --    0.02725   0.03201   0.03638   0.04419   0.05530
 Alpha virt. eigenvalues --    0.05817   0.07218   0.07656   0.08462   0.08772
 Alpha virt. eigenvalues --    0.09285   0.10292   0.10834   0.12069   0.12605

 Mulliken charges:
               1
     1  C    0.649780
     2  C   -0.285721
     3  C    0.499768
     4  C   -0.135347
     5  C   -0.006293
     6  C    0.796559
     7  H   -0.253529
     8  H   -0.269764
     9  H   -0.271864
    10  H   -0.317600
    11  C    2.596992
    12  C    0.462072
    13  O   -1.389606
    14  S   -0.020315
    15  H    0.338227
    16  F   -0.825375
    17  F   -0.749633
    18  F   -0.818351
 Sum of Mulliken charges =  -0.00000

 Dipole moment (field-independent basis, Debye):
    X=              0.4729    Y=             -1.9224    Z=              0.5329  Tot=              2.0502

 Test job not archived.
 1\1\GINC-SE177\SP\RHF\Aug-CC-pVDZ\C8H5F3O1S1\OHZDE\08-Apr-2025\0\\#t h
 f aug-cc-pvdz iop(5/13=1,5/36=2,99/5=2) pseudo=read geom=check guess=(
 read,tcheck) scf=(maxcycle=1)\\title\\0,1\C,0,-0.757066,-0.983738,-0.3
 30463\C,0,0.628798,-1.095182,-0.317831\C,0,1.412522,0.025314,-0.049049
 \C,0,0.812433,1.262968,0.187664\C,0,-0.570153,1.375293,0.157351\C,0,-1
 .367124,0.249086,-0.082971\H,0,-1.353736,-1.854113,-0.571511\H,0,1.100
 491,-2.046088,-0.528786\H,0,1.426517,2.133426,0.380351\H,0,-1.052109,2
 .331209,0.317013\C,0,2.911131,-0.106034,0.030136\C,0,-2.850458,0.47189

 Normal termination of Gaussian 16 at Tue Apr  8 23:17:31 2025.
