 Gaussian 16, Revision C.01,

 ----------------------------------------------------------------------
 #t hf aug-cc-pvdz symm=none int=(grid=ultrafine) guess=(read,tcheck) s
 table=(opt,rrhf)
 ----------------------------------------------------------------------
 -----
 title
 -----
 Symbolic Z-matrix:
 Charge =  0 Multiplicity = 1

 SCF Done:  E(RHF) =  -734.994885127     A.U. after   15 cycles
 Normal termination of Gaussian 16 at Wed Apr  9 00:50:26 2025.
 Gaussian 16:  ES64L-G16RevC.01  3-Jul-2019

 ----------------------------------------------------------------------
 #t hf aug-cc-pvdz iop(5/13=1,5/36=2,99/5=2) pseudo=read geom=check gue
 ss=(read,tcheck) scf=(maxcycle=1)
 ----------------------------------------------------------------------
 -----
 title
 -----
 Structure from the checkpoint file:  "BDE49_nonexpt_851_mol1.chk"
 Charge =  0 Multiplicity = 1

                         Standard orientation:
 ---------------------------------------------------------------------
 Center     Atomic      Atomic             Coordinates (Angstroms)
 Number     Number       Type             X           Y           Z
 ---------------------------------------------------------------------
      1          6           0        2.382185   -1.236420    0.715197
      2          6           0        1.320729   -0.439063    1.145189
      3          6           0        3.117932   -0.876685   -0.411127
      4          6           0        2.784749    0.288629   -1.099882
      5          6           0        1.723463    1.081225   -0.671999
      6          6           0        0.970446    0.733996    0.458917
      7          1           0        0.768810   -0.718255    2.037449
      8          5           0       -2.256037   -0.751967   -0.210669
      9          8           0       -3.575096   -1.069509   -0.337840
     10          8           0       -1.351449   -1.775810   -0.186103
     11          1           0        2.637076   -2.133795    1.268235
     12          1           0        3.354258    0.582512   -1.974718
     13          1           0        3.944504   -1.493039   -0.744963
     14          1           0        1.475098    1.985266   -1.218340
     15          6           0       -0.202546    1.572386    0.899879
     16          1           0       -0.432484   -1.498627   -0.091481
     17          1           0       -3.708836   -2.023916   -0.411958
     18         14           0       -1.791150    1.233461   -0.113661
     19          1           0        0.030474    2.637797    0.808300
     20          1           0       -0.425989    1.388078    1.955100
     21          1           0       -1.558417    1.756001   -1.487741
     22          1           0       -2.897609    2.027488    0.479217
 ---------------------------------------------------------------------

 SCF Done:  E(RHF) =  -735.482765632     A.U. after    2 cycles

 The electronic state is 1-A.
 Alpha  occ. eigenvalues --  -69.51230 -20.55591 -20.55414 -11.26410 -11.25445
 Alpha  occ. eigenvalues --  -11.25295 -11.24834 -11.24686 -11.24643 -11.23259
 Alpha  occ. eigenvalues --   -7.63805  -6.18439  -3.93790  -3.93787  -3.93740
 Alpha  occ. eigenvalues --   -1.47899  -1.43522  -1.16588  -1.05585  -1.02432
 Alpha  occ. eigenvalues --   -0.94325  -0.84418  -0.81879  -0.77767  -0.74233
 Alpha  occ. eigenvalues --   -0.71699  -0.69363  -0.66086  -0.64968  -0.60731
 Alpha  occ. eigenvalues --   -0.60501  -0.59011  -0.56800  -0.56148  -0.55815
 Alpha  occ. eigenvalues --   -0.53637  -0.51125  -0.50776  -0.48783  -0.47020
 Alpha  occ. eigenvalues --   -0.46429  -0.41731  -0.35704  -0.33588
 Alpha virt. eigenvalues --    0.03121   0.03265   0.03489   0.04097   0.04870
 Alpha virt. eigenvalues --    0.04948   0.05838   0.06656   0.07400   0.07562
 Alpha virt. eigenvalues --    0.08037   0.09037   0.09223   0.09596   0.10022

 Mulliken charges:
               1
     1  C   -0.095769
     2  C    0.403729
     3  C    0.212150
     4  C   -0.000579
     5  C    0.408711
     6  C    1.116004
     7  H   -0.366355
     8  B    1.668036
     9  O   -1.443984
    10  O   -1.605689
    11  H   -0.245272
    12  H   -0.238333
    13  H   -0.215920
    14  H   -0.350281
    15  C   -0.973556
    16  H    0.841771
    17  H    0.556810
    18  Si   0.666861
    19  H   -0.082083
    20  H   -0.003037
    21  H   -0.118599
    22  H   -0.134615
 Sum of Mulliken charges =  -0.00000

 Dipole moment (field-independent basis, Debye):
    X=              1.7929    Y=             -0.4035    Z=              0.4409  Tot=              1.8899

 Test job not archived.
 1\1\GINC-SE095\SP\RHF\Aug-CC-pVDZ\C7H11B1O2Si1\OHZDE\09-Apr-2025\0\\#t
  hf aug-cc-pvdz iop(5/13=1,5/36=2,99/5=2) pseudo=read geom=check guess
 =(read,tcheck) scf=(maxcycle=1)\\title\\0,1\C,0,2.382185,-1.23642,0.71
 5197\C,0,1.320729,-0.439063,1.145189\C,0,3.117932,-0.876685,-0.411127\
 C,0,2.784749,0.288629,-1.099882\C,0,1.723463,1.081225,-0.671999\C,0,0.
 970446,0.733996,0.458917\H,0,0.76881,-0.718255,2.037449\B,0,-2.256037,
 -0.751967,-0.210669\O,0,-3.575096,-1.069509,-0.33784\O,0,-1.351449,-1.
 77581,-0.186103\H,0,2.637076,-2.133795,1.268235\H,0,3.354258,0.582512,

 Normal termination of Gaussian 16 at Wed Apr  9 00:50:41 2025.
