 Gaussian 16, Revision C.01,

 ----------------------------------------------------------------------
 #t hf aug-cc-pvdz symm=none int=(grid=ultrafine) guess=(read,tcheck) s
 table=(opt,rrhf)
 ----------------------------------------------------------------------
 -----
 title
 -----
 Symbolic Z-matrix:
 Charge =  0 Multiplicity = 1

 SCF Done:  E(RHF) =  -721.183044483     A.U. after   16 cycles
 Normal termination of Gaussian 16 at Tue Apr  8 23:06:44 2025.
 Gaussian 16:  ES64L-G16RevC.01  3-Jul-2019

 ----------------------------------------------------------------------
 #t hf aug-cc-pvdz iop(5/13=1,5/36=2,99/5=2) pseudo=read geom=check gue
 ss=(read,tcheck) scf=(maxcycle=1)
 ----------------------------------------------------------------------
 -----
 title
 -----
 Structure from the checkpoint file:  "BDE49_expt_417_mol1.chk"
 Charge =  0 Multiplicity = 1

                         Standard orientation:
 ---------------------------------------------------------------------
 Center     Atomic      Atomic             Coordinates (Angstroms)
 Number     Number       Type             X           Y           Z
 ---------------------------------------------------------------------
      1          6           0       -2.882595   -0.252685   -0.044295
      2          6           0       -2.339438    0.995234   -0.339249
      3          6           0       -0.961815    1.186127   -0.286993
      4          6           0       -2.039653   -1.313000    0.288219
      5          6           0       -0.662893   -1.129862    0.325083
      6          6           0       -0.106487    0.125488    0.049053
      7          1           0       -3.955825   -0.401129   -0.081296
      8          1           0       -2.986278    1.818788   -0.619483
      9          1           0       -0.547773    2.151871   -0.553960
     10          1           0       -2.457055   -2.287335    0.515083
     11          1           0        0.000229   -1.950211    0.567540
     12          6           0        1.369564    0.321739    0.097958
     13          7           0        1.770359    1.551621    0.487723
     14          1           0        1.133994    2.191178    0.937748
     15          1           0        2.760604    1.730878    0.550384
     16         16           0        2.462469   -0.857102   -0.329296
 ---------------------------------------------------------------------

 SCF Done:  E(RHF) =  -721.573320059     A.U. after    2 cycles

 The electronic state is 1-A.
 Alpha  occ. eigenvalues --  -93.89571 -15.55318 -11.36164 -11.27013 -11.26734
 Alpha  occ. eigenvalues --  -11.26324 -11.25965 -11.25935 -11.25649  -8.17837
 Alpha  occ. eigenvalues --   -6.15700  -6.15406  -6.15282  -1.27424  -1.17239
 Alpha  occ. eigenvalues --   -1.06510  -1.03594  -1.00513  -0.88749  -0.85312
 Alpha  occ. eigenvalues --   -0.81713  -0.77960  -0.72839  -0.68263  -0.65901
 Alpha  occ. eigenvalues --   -0.62977  -0.61697  -0.57455  -0.55320  -0.52695
 Alpha  occ. eigenvalues --   -0.52245  -0.50591  -0.38279  -0.36321  -0.34518
 Alpha  occ. eigenvalues --   -0.32836
 Alpha virt. eigenvalues --    0.02514   0.03095   0.03664   0.04319   0.04912
 Alpha virt. eigenvalues --    0.06166   0.06235   0.07300   0.09032   0.09560
 Alpha virt. eigenvalues --    0.10987   0.11100   0.11911   0.12425   0.13185

 Mulliken charges:
               1
     1  C   -0.133020
     2  C    0.114230
     3  C   -0.023685
     4  C    0.400259
     5  C   -0.309410
     6  C    2.120611
     7  H   -0.201096
     8  H   -0.232546
     9  H   -0.314347
    10  H   -0.214652
    11  H   -0.200883
    12  C   -1.990038
    13  N    0.838420
    14  H    0.040042
    15  H    0.084305
    16  S    0.021809
 Sum of Mulliken charges =   0.00000

 Dipole moment (field-independent basis, Debye):
    X=             -3.2160    Y=              3.0967    Z=              1.4671  Tot=              4.6994

 Test job not archived.
 1\1\GINC-SE073\SP\RHF\Aug-CC-pVDZ\C7H7N1S1\OHZDE\08-Apr-2025\0\\#t hf
 aug-cc-pvdz iop(5/13=1,5/36=2,99/5=2) pseudo=read geom=check guess=(re
 ad,tcheck) scf=(maxcycle=1)\\title\\0,1\C,0,-2.882595,-0.252685,-0.044
 295\C,0,-2.339438,0.995234,-0.339249\C,0,-0.961815,1.186127,-0.286993\
 C,0,-2.039653,-1.313,0.288219\C,0,-0.662893,-1.129862,0.325083\C,0,-0.
 106487,0.125488,0.049053\H,0,-3.955825,-0.401128,-0.081296\H,0,-2.9862
 78,1.818788,-0.619483\H,0,-0.547773,2.151871,-0.55396\H,0,-2.457055,-2
 .287335,0.515083\H,0,0.000229,-1.950211,0.56754\C,0,1.369564,0.321739,

 Normal termination of Gaussian 16 at Tue Apr  8 23:06:52 2025.
