 Gaussian 16, Revision C.01,

 ----------------------------------------------------------------------
 #t hf aug-cc-pvdz symm=none int=(grid=ultrafine) guess=(read,tcheck) s
 table=(opt,rrhf)
 ----------------------------------------------------------------------
 -----
 title
 -----
 Symbolic Z-matrix:
 Charge =  0 Multiplicity = 1

 SCF Done:  E(RHF) =  -1039.68250446     A.U. after   20 cycles
 Normal termination of Gaussian 16 at Tue Apr  8 22:58:25 2025.
 Gaussian 16:  ES64L-G16RevC.01  3-Jul-2019

 ----------------------------------------------------------------------
 #t hf aug-cc-pvdz iop(5/13=1,5/36=2,99/5=2) pseudo=read geom=check gue
 ss=(read,tcheck) scf=(maxcycle=1)
 ----------------------------------------------------------------------
 -----
 title
 -----
 Structure from the checkpoint file:  "BDE49_expt_1754_mol1.chk"
 Charge =  0 Multiplicity = 1

                         Standard orientation:
 ---------------------------------------------------------------------
 Center     Atomic      Atomic             Coordinates (Angstroms)
 Number     Number       Type             X           Y           Z
 ---------------------------------------------------------------------
      1          6           0        3.184911    0.285990   -0.170977
      2          6           0        2.574596   -0.691299   -0.962994
      3          6           0        1.245564   -1.053802   -0.763577
      4          6           0        2.428142    0.897301    0.839055
      5          6           0        1.102857    0.548096    1.057527
      6          6           0        0.519595   -0.425323    0.244638
      7          1           0        3.145919   -1.180832   -1.744020
      8          1           0        0.780210   -1.822847   -1.366196
      9          1           0        2.886299    1.654629    1.466145
     10          1           0        0.522992    1.016167    1.842170
     11         16           0       -1.174532   -0.884248    0.517200
     12          8           0       -1.450340   -2.100031   -0.203412
     13          8           0       -1.487539   -0.707839    1.904830
     14          7           0       -2.071199    0.325224   -0.341941
     15          7           0       -2.109315    1.543750    0.261285
     16          8           0       -2.661360    2.396654   -0.396099
     17          6           0       -2.581645    0.131589   -1.700958
     18          1           0       -2.500109   -0.922976   -1.945093
     19          1           0       -2.013794    0.742146   -2.407204
     20          1           0       -3.625513    0.445648   -1.729820
     21          6           0        4.630247    0.663541   -0.376324
     22          1           0        5.018321    0.265377   -1.315231
     23          1           0        5.252461    0.271910    0.434969
     24          1           0        4.757628    1.749089   -0.387227
 ---------------------------------------------------------------------

 SCF Done:  E(RHF) =  -1040.38613069     A.U. after    2 cycles

 The electronic state is 1-A.
 Alpha  occ. eigenvalues --  -94.23790 -20.60255 -20.56137 -20.55765 -15.69139
 Alpha  occ. eigenvalues --  -15.59208 -11.29381 -11.29206 -11.28594 -11.28448
 Alpha  occ. eigenvalues --  -11.28260 -11.26773 -11.26722 -11.25851  -8.48650
 Alpha  occ. eigenvalues --   -6.46787  -6.46576  -6.46442  -1.60962  -1.58766
 Alpha  occ. eigenvalues --   -1.46860  -1.30917  -1.19787  -1.09909  -1.05429
 Alpha  occ. eigenvalues --   -1.05138  -1.01215  -0.95453  -0.87505  -0.86884
 Alpha  occ. eigenvalues --   -0.82339  -0.79442  -0.74800  -0.74411  -0.70744
 Alpha  occ. eigenvalues --   -0.69745  -0.67503  -0.65972  -0.65685  -0.64990
 Alpha  occ. eigenvalues --   -0.63355  -0.60771  -0.59900  -0.59661  -0.57571
 Alpha  occ. eigenvalues --   -0.55403  -0.54033  -0.53456  -0.53150  -0.51651
 Alpha  occ. eigenvalues --   -0.48842  -0.48497  -0.46251  -0.45060  -0.37742
 Alpha  occ. eigenvalues --   -0.37432
 Alpha virt. eigenvalues --    0.02575   0.02920   0.03527   0.03921   0.04846
 Alpha virt. eigenvalues --    0.05616   0.05691   0.05947   0.06698   0.07158
 Alpha virt. eigenvalues --    0.07298   0.08551   0.08808   0.09415   0.09828

 Mulliken charges:
               1
     1  C    0.005151
     2  C    0.765328
     3  C   -0.698346
     4  C    0.817417
     5  C   -0.633636
     6  C    0.523335
     7  H   -0.297906
     8  H   -0.334706
     9  H   -0.308214
    10  H   -0.309140
    11  S    4.178213
    12  O   -1.656496
    13  O   -1.642083
    14  N   -0.421230
    15  N    0.931924
    16  O   -1.069332
    17  C   -0.263980
    18  H    0.088210
    19  H    0.231670
    20  H    0.161455
    21  C   -0.615813
    22  H    0.067862
    23  H    0.277950
    24  H    0.202366
 Sum of Mulliken charges =  -0.00000

 Dipole moment (field-independent basis, Debye):
    X=              4.8034    Y=              0.6912    Z=             -3.2816  Tot=              5.8583

 Test job not archived.
 1\1\GINC-SE049\SP\RHF\Aug-CC-pVDZ\C8H10N2O3S1\OHZDE\08-Apr-2025\0\\#t
 hf aug-cc-pvdz iop(5/13=1,5/36=2,99/5=2) pseudo=read geom=check guess=
 (read,tcheck) scf=(maxcycle=1)\\title\\0,1\C,0,3.184911,0.28599,-0.170
 977\C,0,2.574596,-0.691299,-0.962994\C,0,1.245564,-1.053802,-0.763577\
 C,0,2.428142,0.897301,0.839055\C,0,1.102857,0.548096,1.057527\C,0,0.51
 9595,-0.425323,0.244638\H,0,3.145919,-1.180832,-1.74402\H,0,0.78021,-1
 .822847,-1.366196\H,0,2.886299,1.654629,1.466145\H,0,0.522992,1.016167
 ,1.84217\S,0,-1.174532,-0.884248,0.5172\O,0,-1.45034,-2.100031,-0.2034

 Normal termination of Gaussian 16 at Tue Apr  8 22:58:48 2025.
