 Gaussian 16, Revision C.01,

 ----------------------------------------------------------------------
 #t hf aug-cc-pvdz symm=none int=(grid=ultrafine) guess=(read,tcheck) s
 table=(opt,rrhf)
 ----------------------------------------------------------------------
 -----
 title
 -----
 Symbolic Z-matrix:
 Charge =  0 Multiplicity = 1

 SCF Done:  E(RHF) =  -449.222392105     A.U. after   13 cycles
 Normal termination of Gaussian 16 at Wed Apr  9 00:52:57 2025.
 Gaussian 16:  ES64L-G16RevC.01  3-Jul-2019

 ----------------------------------------------------------------------
 #t hf aug-cc-pvdz iop(5/13=1,5/36=2,99/5=2) pseudo=read geom=check gue
 ss=(read,tcheck) scf=(maxcycle=1)
 ----------------------------------------------------------------------
 -----
 title
 -----
 Structure from the checkpoint file:  "BDE49_nonexpt_98_mol1.chk"
 Charge =  0 Multiplicity = 1

                         Standard orientation:
 ---------------------------------------------------------------------
 Center     Atomic      Atomic             Coordinates (Angstroms)
 Number     Number       Type             X           Y           Z
 ---------------------------------------------------------------------
      1          5           0        1.998164   -0.218551    0.000038
      2          5           0        0.557766    0.591098   -0.000175
      3         16           0       -1.039842   -0.219657   -0.000024
      4          1           0       -1.841705    0.861186    0.000338
      5          1           0        2.564294   -0.497803    1.015050
      6          1           0        2.564875   -0.497255   -1.014800
      7          1           0        0.570351    1.785657    0.000482
 ---------------------------------------------------------------------

 SCF Done:  E(RHF) =  -449.336651475     A.U. after    2 cycles

 The electronic state is 1-A.
 Alpha  occ. eigenvalues --  -93.95837  -8.24141  -7.60862  -7.59364  -6.21971
 Alpha  occ. eigenvalues --   -6.21812  -6.21688  -1.02797  -0.75636  -0.63703
 Alpha  occ. eigenvalues --   -0.58481  -0.50371  -0.46553  -0.44103  -0.40639
 Alpha virt. eigenvalues --    0.03147   0.03543   0.04187   0.04697   0.06463
 Alpha virt. eigenvalues --    0.06616   0.06970   0.09117   0.09684   0.10030
 Alpha virt. eigenvalues --    0.10690   0.13215   0.13555   0.14464   0.15332

 Mulliken charges:
               1
     1  B   -0.496798
     2  B    0.142652
     3  S   -0.603438
     4  H    0.244841
     5  H    0.269075
     6  H    0.268994
     7  H    0.174673
 Sum of Mulliken charges =  -0.00000

 Dipole moment (field-independent basis, Debye):
    X=             -0.1106    Y=              0.9756    Z=             -0.0000  Tot=              0.9819

 Test job not archived.
 1\1\GINC-SE461\SP\RHF\Aug-CC-pVDZ\B2H4S1\OHZDE\09-Apr-2025\0\\#t hf au
 g-cc-pvdz iop(5/13=1,5/36=2,99/5=2) pseudo=read geom=check guess=(read
 ,tcheck) scf=(maxcycle=1)\\title\\0,1\B,0,-1.998164,-0.218551,-0.00003
 8\B,0,-0.557766,0.591098,0.000175\S,0,1.039842,-0.219657,0.000024\H,0,
 1.841705,0.861186,-0.000338\H,0,-2.564294,-0.497803,-1.01505\H,0,-2.56
 4875,-0.497255,1.0148\H,0,-0.570351,1.785657,-0.000482\\Version=ES64L-
 G16RevC.01\State=1-A\HF=-449.3366515\RMSD=1.835e-02\Dipole=0.0435012,0
 .3838458,0.0000186\Quadrupole=0.4831507,0.6207933,-1.103944,0.8288642,

 Normal termination of Gaussian 16 at Wed Apr  9 00:52:59 2025.
