 Gaussian 16, Revision C.01,

 ----------------------------------------------------------------------
 #t hf aug-cc-pvdz symm=none int=(grid=ultrafine) guess=(read,tcheck) s
 table=(opt,rrhf)
 ----------------------------------------------------------------------
 -----
 title
 -----
 Symbolic Z-matrix:
 Charge =  0 Multiplicity = 1

 SCF Done:  E(RHF) =  -1224.21142543     A.U. after   15 cycles
 Normal termination of Gaussian 16 at Tue Apr  8 23:13:56 2025.
 Gaussian 16:  ES64L-G16RevC.01  3-Jul-2019

 ----------------------------------------------------------------------
 #t hf aug-cc-pvdz iop(5/13=1,5/36=2,99/5=2) pseudo=read geom=check gue
 ss=(read,tcheck) scf=(maxcycle=1)
 ----------------------------------------------------------------------
 -----
 title
 -----
 Structure from the checkpoint file:  "BDE49_expt_395_mol1.chk"
 Charge =  0 Multiplicity = 1

                         Standard orientation:
 ---------------------------------------------------------------------
 Center     Atomic      Atomic             Coordinates (Angstroms)
 Number     Number       Type             X           Y           Z
 ---------------------------------------------------------------------
      1         16           0       -0.185140   -0.079310   -0.768211
      2          8           0        0.009552   -1.388809   -1.365832
      3          8           0        0.038638    1.129924   -1.542036
      4          6           0       -1.874947   -0.016173   -0.152728
      5          6           0       -2.531025   -1.204347    0.163339
      6          6           0       -2.506964    1.218670   -0.019431
      7          6           0       -3.815218    1.261686    0.455852
      8          6           0       -4.477849    0.080568    0.787539
      9          6           0       -3.839074   -1.149774    0.637935
     10          1           0       -4.361814   -2.067468    0.881527
     11          1           0       -2.026837   -2.151096    0.015349
     12          1           0       -1.984184    2.122279   -0.306882
     13          1           0       -4.319475    2.215649    0.558035
     14          1           0       -5.497386    0.118316    1.154080
     15          6           0        0.832535    0.012046    0.704186
     16         14           0        2.733142    0.037263    0.399980
     17          1           0        0.565755   -0.850165    1.321155
     18          1           0        0.535775    0.921374    1.234030
     19          6           0        3.205935    1.599418   -0.522094
     20          1           0        2.715790    1.642791   -1.496816
     21          1           0        4.289157    1.641685   -0.674100
     22          1           0        2.911743    2.493622    0.035572
     23          6           0        3.483292    0.045472    2.128590
     24          1           0        4.576022    0.070294    2.067932
     25          1           0        3.205539   -0.848831    2.694498
     26          1           0        3.166132    0.920247    2.704262
     27          6           0        3.260029   -1.503070   -0.528895
     28          1           0        2.788306   -1.554986   -1.512235
     29          1           0        2.981533   -2.409546    0.016332
     30          1           0        4.346380   -1.512785   -0.663890
 ---------------------------------------------------------------------

 SCF Done:  E(RHF) =  -1224.86684603     A.U. after    2 cycles

 The electronic state is 1-A.
 Alpha  occ. eigenvalues --  -94.18402 -69.52507 -20.52545 -20.52516 -11.28054
 Alpha  occ. eigenvalues --  -11.27020 -11.27014 -11.26813 -11.26306 -11.26291
 Alpha  occ. eigenvalues --  -11.26041 -11.21781 -11.20709 -11.20704  -8.43668
 Alpha  occ. eigenvalues --   -6.41804  -6.41581  -6.41485  -6.19455  -3.94826
 Alpha  occ. eigenvalues --   -3.94786  -3.94772  -1.54434  -1.42605  -1.18259
 Alpha  occ. eigenvalues --   -1.07545  -1.04090  -1.02966  -0.97552  -0.93225
 Alpha  occ. eigenvalues --   -0.92667  -0.89483  -0.86038  -0.81290  -0.74508
 Alpha  occ. eigenvalues --   -0.68987  -0.67586  -0.67525  -0.64976  -0.64389
 Alpha  occ. eigenvalues --   -0.63905  -0.62375  -0.60007  -0.58177  -0.57009
 Alpha  occ. eigenvalues --   -0.56470  -0.55318  -0.54980  -0.54380  -0.53870
 Alpha  occ. eigenvalues --   -0.53686  -0.52929  -0.48246  -0.48216  -0.47236
 Alpha  occ. eigenvalues --   -0.45303  -0.44819  -0.44215  -0.42213  -0.37267
 Alpha  occ. eigenvalues --   -0.36675
 Alpha virt. eigenvalues --    0.02648   0.02926   0.03217   0.03787   0.04312
 Alpha virt. eigenvalues --    0.04430   0.05634   0.06339   0.06401   0.06633
 Alpha virt. eigenvalues --    0.06886   0.07493   0.07798   0.08833   0.08917

 Mulliken charges:
               1
     1  S    3.996128
     2  O   -1.723082
     3  O   -1.745558
     4  C    0.507879
     5  C   -0.004520
     6  C   -0.078887
     7  C    0.308993
     8  C    0.136269
     9  C    0.300148
    10  H   -0.224532
    11  H   -0.287558
    12  H   -0.287324
    13  H   -0.225600
    14  H   -0.210530
    15  C   -1.227653
    16  Si   2.863651
    17  H   -0.065999
    18  H   -0.048859
    19  C   -0.633255
    20  H    0.014894
    21  H   -0.053409
    22  H   -0.017653
    23  C   -0.535407
    24  H   -0.045325
    25  H   -0.011299
    26  H    0.002171
    27  C   -0.645307
    28  H    0.015269
    29  H   -0.012231
    30  H   -0.061411
 Sum of Mulliken charges =  -0.00000

 Dipole moment (field-independent basis, Debye):
    X=             -1.3768    Y=              0.3561    Z=              4.5381  Tot=              4.7557

 Test job not archived.
 1\1\GINC-SE165\SP\RHF\Aug-CC-pVDZ\C10H16O2S1Si1\OHZDE\08-Apr-2025\0\\#
 t hf aug-cc-pvdz iop(5/13=1,5/36=2,99/5=2) pseudo=read geom=check gues
 s=(read,tcheck) scf=(maxcycle=1)\\title\\0,1\S,0,-0.18514,-0.07931,-0.
 768211\O,0,0.009552,-1.388809,-1.365832\O,0,0.038638,1.129924,-1.54203
 6\C,0,-1.874947,-0.016173,-0.152728\C,0,-2.531025,-1.204347,0.163339\C
 ,0,-2.506964,1.21867,-0.019431\C,0,-3.815218,1.261686,0.455852\C,0,-4.
 477849,0.080568,0.787539\C,0,-3.839074,-1.149774,0.637935\H,0,-4.36181
 4,-2.067468,0.881527\H,0,-2.026837,-2.151096,0.015349\H,0,-1.984184,2.

 Normal termination of Gaussian 16 at Tue Apr  8 23:14:32 2025.
