 Gaussian 16, Revision C.01,

 ----------------------------------------------------------------------
 #t hf aug-cc-pvdz symm=none int=(grid=ultrafine) guess=(read,tcheck) s
 table=(opt,rrhf)
 ----------------------------------------------------------------------
 -----
 title
 -----
 Symbolic Z-matrix:
 Charge =  0 Multiplicity = 1

 SCF Done:  E(RHF) =  -636.334354629     A.U. after   16 cycles
 Normal termination of Gaussian 16 at Wed Apr  9 00:44:17 2025.
 Gaussian 16:  ES64L-G16RevC.01  3-Jul-2019

 ----------------------------------------------------------------------
 #t hf aug-cc-pvdz iop(5/13=1,5/36=2,99/5=2) pseudo=read geom=check gue
 ss=(read,tcheck) scf=(maxcycle=1)
 ----------------------------------------------------------------------
 -----
 title
 -----
 Structure from the checkpoint file:  "BDE49_nonexpt_713_mol1.chk"
 Charge =  0 Multiplicity = 1

                         Standard orientation:
 ---------------------------------------------------------------------
 Center     Atomic      Atomic             Coordinates (Angstroms)
 Number     Number       Type             X           Y           Z
 ---------------------------------------------------------------------
      1          6           0        0.313856   -0.278039    0.499350
      2          6           0        1.160675   -1.261308   -0.022011
      3          6           0        2.434404   -0.935862   -0.484183
      4          6           0        2.883606    0.380672   -0.427349
      5          6           0        2.049969    1.368584    0.095706
      6          6           0        0.777071    1.041555    0.552284
      7          5           0       -2.876733    1.324758   -0.574934
      8          1           0        3.076371   -1.712977   -0.883981
      9          1           0        3.875120    0.635601   -0.783658
     10          1           0        2.393311    2.395745    0.150178
     11          1           0        0.134248    1.818070    0.954407
     12          1           0        0.822245   -2.291976   -0.062746
     13          6           0       -1.069416   -0.637445    0.983105
     14         15           0       -2.443710   -0.441974   -0.272280
     15          1           0       -2.862507    2.098707    0.329687
     16          1           0       -3.352591    1.624362   -1.622736
     17          1           0       -1.366333   -0.011415    1.828914
     18          1           0       -1.093621   -1.672601    1.330509
     19          1           0       -1.887920   -0.946623   -1.463112
 ---------------------------------------------------------------------

 SCF Done:  E(RHF) =  -636.687915144     A.U. after    2 cycles

 The electronic state is 1-A.
 Alpha  occ. eigenvalues --  -84.25701 -11.25989 -11.25681 -11.24757 -11.24735
 Alpha  occ. eigenvalues --  -11.24381 -11.24343 -11.24314  -7.60477  -6.73217
 Alpha  occ. eigenvalues --   -4.25939  -4.25802  -4.24988  -1.16249  -1.06060
 Alpha  occ. eigenvalues --   -1.01996  -0.96312  -0.84895  -0.84021  -0.80371
 Alpha  occ. eigenvalues --   -0.71277  -0.67644  -0.65750  -0.64790  -0.60285
 Alpha  occ. eigenvalues --   -0.59495  -0.57299  -0.53889  -0.51953  -0.50767
 Alpha  occ. eigenvalues --   -0.50296  -0.47049  -0.45400  -0.35144  -0.34731
 Alpha  occ. eigenvalues --   -0.30704
 Alpha virt. eigenvalues --    0.03238   0.03403   0.03714   0.04074   0.04455
 Alpha virt. eigenvalues --    0.04926   0.05583   0.06462   0.07050   0.07692
 Alpha virt. eigenvalues --    0.07999   0.09108   0.09959   0.10190   0.11048

 Mulliken charges:
               1
     1  C    1.266286
     2  C    0.106111
     3  C    0.138058
     4  C    0.083354
     5  C    0.122845
     6  C    0.339157
     7  B   -0.631160
     8  H   -0.235556
     9  H   -0.215264
    10  H   -0.237984
    11  H   -0.328606
    12  H   -0.315632
    13  C   -1.125858
    14  P   -0.063320
    15  H    0.375682
    16  H    0.415570
    17  H    0.017988
    18  H   -0.000689
    19  H    0.289018
 Sum of Mulliken charges =   0.00000

 Dipole moment (field-independent basis, Debye):
    X=              1.0590    Y=             -0.4082    Z=              0.3167  Tot=              1.1783

 Test job not archived.
 1\1\GINC-SE090\SP\RHF\Aug-CC-pVDZ\C7H10B1P1\OHZDE\09-Apr-2025\0\\#t hf
  aug-cc-pvdz iop(5/13=1,5/36=2,99/5=2) pseudo=read geom=check guess=(r
 ead,tcheck) scf=(maxcycle=1)\\title\\0,1\C,0,0.313856,-0.278039,0.4993
 5\C,0,1.160675,-1.261308,-0.022011\C,0,2.434404,-0.935862,-0.484183\C,
 0,2.883606,0.380672,-0.427349\C,0,2.049969,1.368584,0.095706\C,0,0.777
 071,1.041555,0.552284\B,0,-2.876733,1.324758,-0.574934\H,0,3.076371,-1
 .712977,-0.883981\H,0,3.87512,0.635601,-0.783658\H,0,2.393311,2.395745
 ,0.150178\H,0,0.134248,1.81807,0.954407\H,0,0.822245,-2.291976,-0.0627

 Normal termination of Gaussian 16 at Wed Apr  9 00:44:27 2025.
