 Gaussian 16, Revision C.01,

 ----------------------------------------------------------------------
 #t hf aug-cc-pvdz symm=none int=(grid=ultrafine) guess=(read,tcheck) s
 table=opt
 ----------------------------------------------------------------------
 -----
 title
 -----
 Symbolic Z-matrix:
 Charge =  0 Multiplicity = 2

 SCF Done:  E(UHF) =  -482.683431595     A.U. after   18 cycles
 Normal termination of Gaussian 16 at Tue Apr  8 22:43:53 2025.
 Gaussian 16:  ES64L-G16RevC.01  3-Jul-2019

 ----------------------------------------------------------------------
 #t hf aug-cc-pvdz iop(5/13=1,5/36=2,99/5=2) pseudo=read geom=check gue
 ss=(read,tcheck) scf=(maxcycle=1)
 ----------------------------------------------------------------------
 -----
 title
 -----
 Structure from the checkpoint file:  "BDE49_expt_1490_mol2.chk"
 Charge =  0 Multiplicity = 2

                         Standard orientation:
 ---------------------------------------------------------------------
 Center     Atomic      Atomic             Coordinates (Angstroms)
 Number     Number       Type             X           Y           Z
 ---------------------------------------------------------------------
      1          8           0       -0.475436   -0.000002    1.668325
      2         14           0        0.024387    0.000000    0.079972
      3          6           0       -1.650610   -0.000001   -0.803937
      4          1           0       -2.231685   -0.888234   -0.551097
      5          1           0       -1.458607    0.000001   -1.882461
      6          1           0       -2.231687    0.888229   -0.551094
      7          6           0        1.002979    1.544133   -0.340204
      8          1           0        0.422776    2.444787   -0.124050
      9          1           0        1.272799    1.555434   -1.401305
     10          1           0        1.930392    1.593805    0.237621
     11          6           0        1.002982   -1.544131   -0.340206
     12          1           0        0.422780   -2.444786   -0.124054
     13          1           0        1.930394   -1.593802    0.237622
     14          1           0        1.272805   -1.555429   -1.401306
 ---------------------------------------------------------------------

 SCF Done:  E(UHF) =  -482.920822623     A.U. after    2 cycles

 The electronic state is 2-A.
 Alpha  occ. eigenvalues --  -69.54179 -20.59028 -11.21785 -11.21782 -11.21755
 Alpha  occ. eigenvalues --   -6.20992  -3.96456  -3.96276  -3.96261  -1.43849
 Alpha  occ. eigenvalues --   -0.98108  -0.93777  -0.93748  -0.67817  -0.64045
 Alpha  occ. eigenvalues --   -0.59180  -0.58712  -0.57396  -0.56228  -0.55114
 Alpha  occ. eigenvalues --   -0.54591  -0.53093  -0.52989  -0.44242  -0.43981
 Alpha virt. eigenvalues --    0.03151   0.04177   0.04251   0.04526   0.06606
 Alpha virt. eigenvalues --    0.06628   0.07188   0.07198   0.07800   0.09225
 Alpha virt. eigenvalues --    0.10624   0.10745   0.12445   0.14634   0.16396

  Beta  occ. eigenvalues --  -69.54238 -20.55250 -11.21769 -11.21766 -11.21593
  Beta  occ. eigenvalues --   -6.21078  -3.96594  -3.96379  -3.96309  -1.28473
  Beta  occ. eigenvalues --   -0.97742  -0.93741  -0.93340  -0.65928  -0.58709
  Beta  occ. eigenvalues --   -0.58149  -0.57652  -0.55932  -0.55564  -0.54559
  Beta  occ. eigenvalues --   -0.50572  -0.50303  -0.44856  -0.42790
  Beta virt. eigenvalues --    0.03139   0.03655   0.04260   0.04542   0.06468
  Beta virt. eigenvalues --    0.06610   0.06629   0.07192   0.07551   0.08013
  Beta virt. eigenvalues --    0.09226   0.10768   0.11720   0.12570   0.14683

 Mulliken charges and spin densities:
               1          2
     1  O   -1.359052   1.047984
     2  Si   3.231332  -0.131974
     3  C   -0.556354   0.055781
     4  H   -0.039718   0.007588
     5  H    0.022867   0.002661
     6  H   -0.039720   0.007588
     7  C   -0.570659   0.004092
     8  H   -0.055242  -0.002856
     9  H    0.037879   0.000261
    10  H   -0.041655   0.003689
    11  C   -0.570660   0.004092
    12  H   -0.055242  -0.002856
    13  H   -0.041653   0.003689
    14  H    0.037878   0.000261
 Sum of Mulliken charges =  -0.00000   1.00000

 Dipole moment (field-independent basis, Debye):
    X=              0.7914    Y=              0.0000    Z=             -1.8298  Tot=              1.9936
                          Isotropic Fermi Contact Couplings
        Atom                 a.u.       MegaHertz       Gauss      10(-4) cm-1
     1  O(17)              0.21175    -128.35933     -45.80180     -42.81606
     2  Si(29)            -0.06467      57.47045      20.50689      19.17008
     3  C(13)              0.03127      35.15005      12.54241      11.72480
     4  H(1)              -0.00100      -4.45616      -1.59007      -1.48641
     5  H(1)               0.00251      11.23749       4.00982       3.74842
     6  H(1)              -0.00100      -4.45615      -1.59007      -1.48641
     7  C(13)              0.00232       2.60581       0.92982       0.86920
     8  H(1)              -0.00020      -0.87680      -0.31286      -0.29247

 Normal termination of Gaussian 16 at Tue Apr  8 22:43:57 2025.
