 Gaussian 16, Revision C.01,

 ----------------------------------------------------------------------
 #t hf aug-cc-pvdz symm=none int=(grid=ultrafine) guess=(read,tcheck) s
 table=(opt,rrhf)
 ----------------------------------------------------------------------
 -----
 title
 -----
 Symbolic Z-matrix:
 Charge =  0 Multiplicity = 1

 SCF Done:  E(RHF) =  -193.046341115     A.U. after   13 cycles
 Normal termination of Gaussian 16 at Wed Apr  9 00:35:47 2025.
 Gaussian 16:  ES64L-G16RevC.01  3-Jul-2019

 ----------------------------------------------------------------------
 #t hf aug-cc-pvdz iop(5/13=1,5/36=2,99/5=2) pseudo=read geom=check gue
 ss=(read,tcheck) scf=(maxcycle=1)
 ----------------------------------------------------------------------
 -----
 title
 -----
 Structure from the checkpoint file:  "BDE49_nonexpt_509_mol1.chk"
 Charge =  0 Multiplicity = 1

                         Standard orientation:
 ---------------------------------------------------------------------
 Center     Atomic      Atomic             Coordinates (Angstroms)
 Number     Number       Type             X           Y           Z
 ---------------------------------------------------------------------
      1          1           0       -2.686481   -0.201704   -0.000003
      2          5           0       -1.638596    0.346900   -0.000000
      3          6           0        0.684500   -0.089502   -0.000001
      4          7           0        1.798380    0.214644    0.000005
      5          8           0       -0.544262   -0.502127   -0.000003
      6          1           0       -1.462103    1.518726    0.000004
 ---------------------------------------------------------------------

 SCF Done:  E(RHF) =  -193.231033621     A.U. after    2 cycles

 The electronic state is 1-A.
 Alpha  occ. eigenvalues --  -20.66307 -15.52413 -11.35877  -7.68705  -1.59371
 Alpha  occ. eigenvalues --   -1.24556  -0.91528  -0.74490  -0.68196  -0.65771
 Alpha  occ. eigenvalues --   -0.62046  -0.54005  -0.50000  -0.49437
 Alpha virt. eigenvalues --    0.02448   0.03723   0.04048   0.04647   0.09405
 Alpha virt. eigenvalues --    0.09550   0.10221   0.11078   0.12339   0.13957
 Alpha virt. eigenvalues --    0.14327   0.17758   0.18524   0.20624   0.21407

 Mulliken charges:
               1
     1  H    0.210131
     2  B    0.164320
     3  C   -0.233108
     4  N    0.691030
     5  O   -0.851698
     6  H    0.019324
 Sum of Mulliken charges =  -0.00000

 Dipole moment (field-independent basis, Debye):
    X=             -4.3452    Y=             -0.1182    Z=             -0.0000  Tot=              4.3468

 Test job not archived.
 1\1\GINC-SE459\SP\RHF\Aug-CC-pVDZ\C1H2B1N1O1\OHZDE\09-Apr-2025\0\\#t h
 f aug-cc-pvdz iop(5/13=1,5/36=2,99/5=2) pseudo=read geom=check guess=(
 read,tcheck) scf=(maxcycle=1)\\title\\0,1\H,0,-2.686481,-0.201704,-0.0
 00003\B,0,-1.638596,0.3469,0.\C,0,0.6845,-0.089502,-0.000001\N,0,1.798
 38,0.214644,0.000005\O,0,-0.544262,-0.502127,-0.000003\H,0,-1.462103,1
 .518726,0.000004\\Version=ES64L-G16RevC.01\State=1-A\HF=-193.2310336\R
 MSD=1.604e-02\Dipole=-1.7095422,-0.0464864,-0.0000046\Quadrupole=-3.02
 36618,0.7958929,2.2277689,-1.4754907,-0.0000187,-0.000007\PG=C01 [X(C1

 Normal termination of Gaussian 16 at Wed Apr  9 00:35:49 2025.
