 Gaussian 16, Revision C.01,

 ----------------------------------------------------------------------
 #t hf aug-cc-pvdz symm=none int=(grid=ultrafine) guess=(read,tcheck) s
 table=(opt,rrhf)
 ----------------------------------------------------------------------
 -----
 title
 -----
 Symbolic Z-matrix:
 Charge =  0 Multiplicity = 1

 SCF Done:  E(RHF) =  -271.213291851     A.U. after   12 cycles

 1\1\GINC-SE059\Stability\RHF\Aug-CC-pVDZ\C5H12O1\OHZDE\08-Apr-2025\0\\
 #t hf aug-cc-pvdz symm=none int=(grid=ultrafine) guess=(read,tcheck) s
 table=(opt,rrhf)\\title\\0,1\C,0,1.695574,-0.395723,0.278821\O,0,0.418
 808,-0.005103,-0.197673\C,0,-0.617254,-0.908715,0.151157\C,0,-1.939308
 ,-0.374131,-0.382444\H,0,-0.407395,-1.902962,-0.273492\C,0,2.713983,0.
 639798,-0.163023\H,0,1.957701,-1.388976,-0.118811\H,0,1.678788,-0.4781
 53,1.376964\H,0,2.732093,0.715238,-1.252559\H,0,3.714292,0.366692,0.18
 3518\H,0,2.46179,1.621732,0.243672\C,0,-2.340802,0.971144,0.227963\H,0

 Normal termination of Gaussian 16 at Tue Apr  8 22:41:09 2025.
 Gaussian 16:  ES64L-G16RevC.01  3-Jul-2019

 ----------------------------------------------------------------------
 #t hf aug-cc-pvdz iop(5/13=1,5/36=2,99/5=2) pseudo=read geom=check gue
 ss=(read,tcheck) scf=(maxcycle=1)
 ----------------------------------------------------------------------
 -----
 title
 -----
 Structure from the checkpoint file:  "BDE49_expt_1370_mol1.chk"
 Charge =  0 Multiplicity = 1

                         Standard orientation:
 ---------------------------------------------------------------------
 Center     Atomic      Atomic             Coordinates (Angstroms)
 Number     Number       Type             X           Y           Z
 ---------------------------------------------------------------------
      1          6           0        1.695574   -0.395723    0.278821
      2          8           0        0.418808   -0.005103   -0.197673
      3          6           0       -0.617254   -0.908715    0.151157
      4          6           0       -1.939308   -0.374131   -0.382444
      5          1           0       -0.407395   -1.902962   -0.273492
      6          6           0        2.713983    0.639798   -0.163023
      7          1           0        1.957701   -1.388976   -0.118811
      8          1           0        1.678788   -0.478153    1.376964
      9          1           0        2.732093    0.715238   -1.252559
     10          1           0        3.714292    0.366692    0.183518
     11          1           0        2.461790    1.621732    0.243672
     12          6           0       -2.340802    0.971144    0.227963
     13          1           0       -2.713085   -1.125100   -0.186359
     14          1           0       -1.857518   -0.281351   -1.470508
     15          1           0       -2.470530    0.888401    1.311992
     16          1           0       -3.282804    1.331004   -0.194055
     17          1           0       -1.571895    1.722209    0.039135
     18          1           0       -0.665055   -1.022147    1.247035
 ---------------------------------------------------------------------

 SCF Done:  E(RHF) =  -271.509965861     A.U. after    2 cycles

 The electronic state is 1-A.
 Alpha  occ. eigenvalues --  -20.53613 -11.28039 -11.27751 -11.22584 -11.22286
 Alpha  occ. eigenvalues --  -11.21618  -1.45373  -1.06103  -1.00649  -0.91409
 Alpha  occ. eigenvalues --   -0.83642  -0.80046  -0.67589  -0.66851  -0.61849
 Alpha  occ. eigenvalues --   -0.60647  -0.57923  -0.54950  -0.53667  -0.51984
 Alpha  occ. eigenvalues --   -0.49785  -0.48340  -0.48005  -0.46319  -0.40996
 Alpha virt. eigenvalues --    0.03805   0.03919   0.03989   0.04285   0.05653
 Alpha virt. eigenvalues --    0.05927   0.06360   0.07149   0.07878   0.08864
 Alpha virt. eigenvalues --    0.09327   0.09727   0.13121   0.13633   0.15193

 Mulliken charges:
               1
     1  C    0.415156
     2  O   -1.321618
     3  C    0.452617
     4  C   -0.488819
     5  H    0.106903
     6  C   -0.533167
     7  H    0.129931
     8  H    0.135039
     9  H    0.174093
    10  H    0.143220
    11  H    0.173687
    12  C   -0.315195
    13  H    0.164766
    14  H    0.172579
    15  H    0.150531
    16  H    0.101311
    17  H    0.195537
    18  H    0.143428
 Sum of Mulliken charges =   0.00000

 Dipole moment (field-independent basis, Debye):
    X=              0.2378    Y=             -0.9641    Z=              0.5678  Tot=              1.1439

 Test job not archived.
 1\1\GINC-SE059\SP\RHF\Aug-CC-pVDZ\C5H12O1\OHZDE\08-Apr-2025\0\\#t hf a
 ug-cc-pvdz iop(5/13=1,5/36=2,99/5=2) pseudo=read geom=check guess=(rea
 d,tcheck) scf=(maxcycle=1)\\title\\0,1\C,0,1.695574,-0.395723,0.278821
 \O,0,0.418808,-0.005103,-0.197673\C,0,-0.617254,-0.908715,0.151157\C,0
 ,-1.939308,-0.374131,-0.382444\H,0,-0.407395,-1.902962,-0.273492\C,0,2
 .713983,0.639798,-0.163023\H,0,1.957701,-1.388976,-0.118811\H,0,1.6787
 88,-0.478153,1.376964\H,0,2.732093,0.715238,-1.252559\H,0,3.714292,0.3
 66692,0.183518\H,0,2.46179,1.621732,0.243672\C,0,-2.340802,0.971144,0.

 Normal termination of Gaussian 16 at Tue Apr  8 22:41:15 2025.
