 Gaussian 16, Revision C.01,

 ----------------------------------------------------------------------
 #t hf aug-cc-pvdz symm=none int=(grid=ultrafine) guess=(read,tcheck) s
 table=(opt,rrhf)
 ----------------------------------------------------------------------
 -----
 title
 -----
 Symbolic Z-matrix:
 Charge =  0 Multiplicity = 1

 SCF Done:  E(RHF) =  -802.229116517     A.U. after   15 cycles
 Normal termination of Gaussian 16 at Wed Apr  9 00:45:59 2025.
 Gaussian 16:  ES64L-G16RevC.01  3-Jul-2019

 ----------------------------------------------------------------------
 #t hf aug-cc-pvdz iop(5/13=1,5/36=2,99/5=2) pseudo=read geom=check gue
 ss=(read,tcheck) scf=(maxcycle=1)
 ----------------------------------------------------------------------
 -----
 title
 -----
 Structure from the checkpoint file:  "BDE49_nonexpt_742_mol1.chk"
 Charge =  0 Multiplicity = 1

                         Standard orientation:
 ---------------------------------------------------------------------
 Center     Atomic      Atomic             Coordinates (Angstroms)
 Number     Number       Type             X           Y           Z
 ---------------------------------------------------------------------
      1          6           0        2.263909    0.901267   -0.702327
      2          6           0        0.939587    1.287632   -0.536390
      3          6           0        2.767703   -0.227190   -0.038309
      4          6           0        1.894133   -0.954453    0.788078
      5          6           0        0.570289   -0.564797    0.937258
      6          6           0        0.056446    0.566677    0.280716
      7          1           0       -0.074055   -1.149050    1.585469
      8          1           0        2.918706    1.480446   -1.345890
      9          1           0        0.583865    2.176295   -1.047134
     10          5           0       -2.651601   -0.400027   -0.265827
     11          8           0       -3.984065   -0.489452   -0.002465
     12          8           0       -2.060882   -1.347056   -1.051761
     13          7           0        4.077008   -0.649888   -0.236413
     14          1           0        4.722902    0.054755   -0.559239
     15          1           0        4.467721   -1.229821    0.490850
     16          1           0        2.260548   -1.831984    1.311887
     17          1           0       -4.380492   -1.265291   -0.417071
     18          1           0       -1.108899   -1.218048   -1.131113
     19         15           0       -1.689476    1.153254    0.424184
     20          1           0       -1.922027    0.870482    1.793167
 ---------------------------------------------------------------------

 SCF Done:  E(RHF) =  -802.741286236     A.U. after    2 cycles

 The electronic state is 1-A.
 Alpha  occ. eigenvalues --  -84.25143 -20.55875 -20.55507 -15.52129 -11.29881
 Alpha  occ. eigenvalues --  -11.25795 -11.25548 -11.24385 -11.24287 -11.24141
 Alpha  occ. eigenvalues --   -7.64803  -6.72401  -4.25380  -4.24852  -4.24522
 Alpha  occ. eigenvalues --   -1.48141  -1.43953  -1.23783  -1.14270  -1.02653
 Alpha  occ. eigenvalues --   -1.01083  -0.87763  -0.85553  -0.81164  -0.76125
 Alpha  occ. eigenvalues --   -0.73900  -0.73184  -0.72245  -0.64526  -0.63078
 Alpha  occ. eigenvalues --   -0.61623  -0.60874  -0.60475  -0.57070  -0.56745
 Alpha  occ. eigenvalues --   -0.55775  -0.51003  -0.49418  -0.49105  -0.47525
 Alpha  occ. eigenvalues --   -0.43520  -0.35886  -0.33663  -0.31153
 Alpha virt. eigenvalues --    0.02454   0.03526   0.03883   0.04770   0.05111
 Alpha virt. eigenvalues --    0.05423   0.06785   0.07274   0.07525   0.08501
 Alpha virt. eigenvalues --    0.08876   0.09066   0.09493   0.10361   0.11382

 Mulliken charges:
               1
     1  C    0.923838
     2  C   -0.698986
     3  C   -1.741459
     4  C    0.926581
     5  C    0.639900
     6  C    0.189973
     7  H   -0.352297
     8  H   -0.302580
     9  H   -0.246902
    10  B    2.006182
    11  O   -1.292085
    12  O   -1.406100
    13  N    0.835594
    14  H    0.013079
    15  H    0.011966
    16  H   -0.303993
    17  H    0.511665
    18  H    0.782983
    19  P   -0.838672
    20  H    0.341311
 Sum of Mulliken charges =   0.00000

 Dipole moment (field-independent basis, Debye):
    X=              3.4295    Y=             -0.9712    Z=              0.3012  Tot=              3.5771

 Test job not archived.
 1\1\GINC-SE059\SP\RHF\Aug-CC-pVDZ\C6H9B1N1O2P1\OHZDE\09-Apr-2025\0\\#t
  hf aug-cc-pvdz iop(5/13=1,5/36=2,99/5=2) pseudo=read geom=check guess
 =(read,tcheck) scf=(maxcycle=1)\\title\\0,1\C,0,2.263909,0.901267,-0.7
 02327\C,0,0.939587,1.287632,-0.53639\C,0,2.767703,-0.22719,-0.038309\C
 ,0,1.894133,-0.954453,0.788078\C,0,0.570289,-0.564797,0.937258\C,0,0.0
 56446,0.566677,0.280716\H,0,-0.074055,-1.14905,1.585469\H,0,2.918706,1
 .480446,-1.34589\H,0,0.583865,2.176295,-1.047134\B,0,-2.651601,-0.4000
 27,-0.265827\O,0,-3.984065,-0.489452,-0.002465\O,0,-2.060882,-1.347056

 Normal termination of Gaussian 16 at Wed Apr  9 00:46:13 2025.
