 Gaussian 16, Revision C.01,

 ----------------------------------------------------------------------
 #t hf aug-cc-pvdz symm=none int=(grid=ultrafine) guess=(read,tcheck) s
 table=opt
 ----------------------------------------------------------------------
 -----
 title
 -----
 Symbolic Z-matrix:
 Charge =  0 Multiplicity = 2

 SCF Done:  E(UHF) =  -1050.76096695     A.U. after   19 cycles
 Normal termination of Gaussian 16 at Tue Apr  8 23:49:31 2025.
 Gaussian 16:  ES64L-G16RevC.01  3-Jul-2019

 ----------------------------------------------------------------------
 #t hf aug-cc-pvdz iop(5/13=1,5/36=2,99/5=2) pseudo=read geom=check gue
 ss=(read,tcheck) scf=(maxcycle=1)
 ----------------------------------------------------------------------
 -----
 title
 -----
 Structure from the checkpoint file:  "BDE49_nonexpt_185_mol2.chk"
 Charge =  0 Multiplicity = 2

                         Standard orientation:
 ---------------------------------------------------------------------
 Center     Atomic      Atomic             Coordinates (Angstroms)
 Number     Number       Type             X           Y           Z
 ---------------------------------------------------------------------
      1         17           0        2.458971    0.016475    0.048052
      2          5           0        0.919973   -0.472066    0.617779
      3         15           0       -0.813120   -0.103236   -0.079195
      4          8           0       -1.199451   -1.165195   -1.022381
      5          8           0       -1.829060    0.069040    1.166046
      6          1           0       -2.227506   -0.773457    1.417805
      7          8           0       -0.764862    1.416204   -0.581065
      8          1           0       -1.631082    1.841853   -0.636470
 ---------------------------------------------------------------------

 SCF Done:  E(UHF) =  -1051.12166330     A.U. after    2 cycles

 The electronic state is 2-A.
 Alpha  occ. eigenvalues -- -105.60581 -84.43543 -20.60430 -20.60413 -20.51285
 Alpha  occ. eigenvalues --  -10.65586  -7.82483  -7.82224  -7.82136  -7.71252
 Alpha  occ. eigenvalues --   -6.88923  -4.42995  -4.42279  -4.41412  -1.54485
 Alpha  occ. eigenvalues --   -1.48146  -1.39614  -1.11731  -0.89026  -0.76377
 Alpha  occ. eigenvalues --   -0.72915  -0.67066  -0.64403  -0.60745  -0.57837
 Alpha  occ. eigenvalues --   -0.56565  -0.54804  -0.52805  -0.51449  -0.46786
 Alpha  occ. eigenvalues --   -0.45981  -0.36403
 Alpha virt. eigenvalues --    0.02356   0.03294   0.04311   0.04855   0.06499
 Alpha virt. eigenvalues --    0.06746   0.09159   0.10233   0.12095   0.12998
 Alpha virt. eigenvalues --    0.14743   0.15772   0.16392   0.17254   0.18319

  Beta  occ. eigenvalues -- -105.60519 -84.43488 -20.60457 -20.60348 -20.51250
  Beta  occ. eigenvalues --  -10.65517  -7.82443  -7.82178  -7.81918  -7.69272
  Beta  occ. eigenvalues --   -6.88837  -4.42948  -4.42212  -4.41261  -1.54380
  Beta  occ. eigenvalues --   -1.48080  -1.39520  -1.10858  -0.88041  -0.75956
  Beta  occ. eigenvalues --   -0.70253  -0.66758  -0.63790  -0.60238  -0.57680
  Beta  occ. eigenvalues --   -0.56081  -0.52865  -0.52536  -0.50030  -0.46341
  Beta  occ. eigenvalues --   -0.44616
  Beta virt. eigenvalues --    0.02677   0.03545   0.04422   0.04841   0.06238
  Beta virt. eigenvalues --    0.06802   0.07190   0.10033   0.10464   0.12582
  Beta virt. eigenvalues --    0.13681   0.14955   0.15904   0.16644   0.17641

 Mulliken charges and spin densities:
               1          2
     1  Cl  -0.154899   0.002357
     2  B    0.070024   1.004469
     3  P    3.283055  -0.007432
     4  O   -1.405032   0.011329
     5  O   -1.241359  -0.008156
     6  H    0.368121  -0.001250
     7  O   -1.266946  -0.007300
     8  H    0.347036   0.005983
 Sum of Mulliken charges =  -0.00000   1.00000

 Dipole moment (field-independent basis, Debye):
    X=             -0.6377    Y=              1.5958    Z=              2.2869  Tot=              2.8606
                          Isotropic Fermi Contact Couplings
        Atom                 a.u.       MegaHertz       Gauss      10(-4) cm-1
     1  Cl(35)             0.04823      21.14729       7.54588       7.05398
     2  B(11)              0.28945     415.18411     148.14802     138.49051
     3  P(31)              0.09176     166.18504      59.29895      55.43336
     4  O(17)              0.00231      -1.39783      -0.49878      -0.46627
     5  O(17)             -0.00808       4.89610       1.74705       1.63316
     6  H(1)               0.00016       0.70557       0.25176       0.23535
     7  O(17)              0.03817     -23.13861      -8.25643      -7.71821
     8  H(1)               0.00294      13.12025       4.68163       4.37645

 1\1\GINC-SE069\SP\UHF\Aug-CC-pVDZ\B1Cl1H2O3P1(2)\OHZDE\08-Apr-2025\0\\
 #t hf aug-cc-pvdz iop(5/13=1,5/36=2,99/5=2) pseudo=read geom=check gue
 ss=(read,tcheck) scf=(maxcycle=1)\\title\\0,2\Cl,0,2.458971,0.016475,0
 .048052\B,0,0.919973,-0.472066,0.617779\P,0,-0.81312,-0.103236,-0.0791
 95\O,0,-1.199451,-1.165195,-1.022381\O,0,-1.82906,0.06904,1.166046\H,0
 ,-2.227506,-0.773457,1.417805\O,0,-0.764862,1.416204,-0.581065\H,0,-1.
 631082,1.841853,-0.63647\\Version=ES64L-G16RevC.01\State=2-A\HF=-1051.
 1216633\S2=0.757129\S2-1=0.\S2A=0.750031\RMSD=1.246e-02\Dipole=-0.2509

 Normal termination of Gaussian 16 at Tue Apr  8 23:49:34 2025.
