 Gaussian 16, Revision C.01,

 ----------------------------------------------------------------------
 #t hf aug-cc-pvdz symm=none int=(grid=ultrafine) guess=(read,tcheck) s
 table=opt
 ----------------------------------------------------------------------
 -----
 title
 -----
 Symbolic Z-matrix:
 Charge =  0 Multiplicity = 2

 SCF Done:  E(UHF) =  -523.701309899     A.U. after   15 cycles
 Normal termination of Gaussian 16 at Wed Apr  9 00:47:21 2025.
 Gaussian 16:  ES64L-G16RevC.01  3-Jul-2019

 ----------------------------------------------------------------------
 #t hf aug-cc-pvdz iop(5/13=1,5/36=2,99/5=2) pseudo=read geom=check gue
 ss=(read,tcheck) scf=(maxcycle=1)
 ----------------------------------------------------------------------
 -----
 title
 -----
 Structure from the checkpoint file:  "BDE49_nonexpt_808_mol2.chk"
 Charge =  0 Multiplicity = 2

                         Standard orientation:
 ---------------------------------------------------------------------
 Center     Atomic      Atomic             Coordinates (Angstroms)
 Number     Number       Type             X           Y           Z
 ---------------------------------------------------------------------
      1          6           0        0.640483   -0.040736   -0.385878
      2          6           0       -0.109697   -1.293825    0.117148
      3          6           0       -1.610640   -1.235114   -0.209258
      4          6           0       -2.259062    0.048311    0.326817
      5          6           0       -1.526505    1.298674   -0.177325
      6          6           0       -0.024808    1.249726    0.154886
      7          1           0        0.015875   -1.378375    1.204931
      8          1           0        0.330109   -2.198333   -0.315362
      9          1           0       -2.115886   -2.115585    0.201455
     10          1           0       -1.742224   -1.279154   -1.298149
     11          1           0       -2.234132    0.033981    1.424305
     12          1           0       -3.315120    0.087228    0.040775
     13          1           0       -1.971806    2.201091    0.254894
     14          1           0       -1.650312    1.378306   -1.264957
     15          1           0        0.475086    2.134825   -0.251053
     16          1           0        0.101301    1.293122    1.244597
     17         14           0        2.496879   -0.088670    0.021670
     18          1           0        0.569320   -0.019940   -1.483029
     19          1           0        2.725074   -0.169957    1.491530
     20          1           0        3.197787    1.111964   -0.511664
 ---------------------------------------------------------------------

 SCF Done:  E(UHF) =  -523.989483640     A.U. after    2 cycles

 The electronic state is 2-A.
 Alpha  occ. eigenvalues --  -69.52602 -11.23247 -11.23147 -11.22679 -11.22652
 Alpha  occ. eigenvalues --  -11.22604 -11.22536  -6.19757  -3.95712  -3.94807
 Alpha  occ. eigenvalues --   -3.94784  -1.11755  -1.00517  -1.00486  -0.83810
 Alpha  occ. eigenvalues --   -0.83703  -0.76065  -0.71850  -0.64798  -0.61207
 Alpha  occ. eigenvalues --   -0.60797  -0.59355  -0.53931  -0.53490  -0.51121
 Alpha  occ. eigenvalues --   -0.49519  -0.49279  -0.47469  -0.45891  -0.44139
 Alpha  occ. eigenvalues --   -0.41361  -0.32297
 Alpha virt. eigenvalues --    0.03399   0.03540   0.03576   0.03881   0.05296
 Alpha virt. eigenvalues --    0.05852   0.06064   0.06305   0.06490   0.08166
 Alpha virt. eigenvalues --    0.09024   0.09295   0.09471   0.09631   0.11273

  Beta  occ. eigenvalues --  -69.52049 -11.23172 -11.23142 -11.22634 -11.22620
  Beta  occ. eigenvalues --  -11.22604 -11.22537  -6.18924  -3.94428  -3.94408
  Beta  occ. eigenvalues --   -3.93557  -1.11625  -1.00405  -1.00269  -0.83589
  Beta  occ. eigenvalues --   -0.83342  -0.75892  -0.68564  -0.64327  -0.61152
  Beta  occ. eigenvalues --   -0.60738  -0.58842  -0.53747  -0.53196  -0.50812
  Beta  occ. eigenvalues --   -0.49261  -0.49168  -0.46849  -0.45815  -0.43986
  Beta  occ. eigenvalues --   -0.40510
  Beta virt. eigenvalues --    0.02583   0.03450   0.03605   0.03869   0.04607
  Beta virt. eigenvalues --    0.05415   0.05916   0.06305   0.06374   0.07839
  Beta virt. eigenvalues --    0.08362   0.09143   0.09422   0.09563   0.09841

 Mulliken charges and spin densities:
               1          2
     1  C   -0.464649  -0.068385
     2  C   -0.307172   0.058343
     3  C   -0.208927  -0.003751
     4  C   -0.252938   0.000144
     5  C   -0.253720   0.010232
     6  C   -0.151027  -0.017942
     7  H    0.157481  -0.002015
     8  H    0.079483  -0.000814
     9  H    0.104143  -0.001316
    10  H    0.153820   0.001791
    11  H    0.154236   0.000192
    12  H    0.109538  -0.000378
    13  H    0.107936   0.000324
    14  H    0.155400   0.000258
    15  H    0.085157  -0.008454
    16  H    0.147011  -0.009767
    17  Si   0.341086   1.017472
    18  H    0.208535  -0.005158
    19  H   -0.088114   0.010454
    20  H   -0.077281   0.018771
 Sum of Mulliken charges =  -0.00000   1.00000

 Dipole moment (field-independent basis, Debye):
    X=             -1.0877    Y=              0.0894    Z=             -0.1927  Tot=              1.1083
                          Isotropic Fermi Contact Couplings
        Atom                 a.u.       MegaHertz       Gauss      10(-4) cm-1
     1  C(13)              0.01023      11.49911       4.10317       3.83569
     2  C(13)              0.00104       1.17318       0.41862       0.39133
     3  C(13)             -0.00116      -1.30505      -0.46567      -0.43532
     4  C(13)             -0.00024      -0.26874      -0.09589      -0.08964
     5  C(13)              0.00708       7.96419       2.84182       2.65657
     6  C(13)              0.02129      23.93803       8.54168       7.98487
     7  H(1)              -0.00010      -0.44883      -0.16015      -0.14971
     8  H(1)              -0.00026      -1.14503      -0.40857      -0.38194

 Normal termination of Gaussian 16 at Wed Apr  9 00:47:31 2025.
