 Gaussian 16, Revision C.01,

 ----------------------------------------------------------------------
 #t hf aug-cc-pvdz symm=none int=(grid=ultrafine) guess=(read,tcheck) s
 table=(opt,rrhf)
 ----------------------------------------------------------------------
 -----
 title
 -----
 Symbolic Z-matrix:
 Charge =  0 Multiplicity = 1

 SCF Done:  E(RHF) =  -763.384121990     A.U. after   12 cycles
 Normal termination of Gaussian 16 at Wed Apr  9 00:42:51 2025.
 Gaussian 16:  ES64L-G16RevC.01  3-Jul-2019

 ----------------------------------------------------------------------
 #t hf aug-cc-pvdz iop(5/13=1,5/36=2,99/5=2) pseudo=read geom=check gue
 ss=(read,tcheck) scf=(maxcycle=1)
 ----------------------------------------------------------------------
 -----
 title
 -----
 Structure from the checkpoint file:  "BDE49_nonexpt_720_mol1.chk"
 Charge =  0 Multiplicity = 1

                         Standard orientation:
 ---------------------------------------------------------------------
 Center     Atomic      Atomic             Coordinates (Angstroms)
 Number     Number       Type             X           Y           Z
 ---------------------------------------------------------------------
      1         15           0        0.643518   -0.796270   -0.000000
      2          5           0       -0.069057    1.055922    0.000000
      3          9           0       -0.258541   -1.329381    1.238774
      4          9           0       -0.258541   -1.329381   -1.238774
      5          9           0       -0.258541    1.699627    1.134010
      6          9           0       -0.258541    1.699627   -1.134010
 ---------------------------------------------------------------------

 SCF Done:  E(RHF) =  -763.806650420     A.U. after    2 cycles

 The electronic state is 1-A'.
 Alpha  occ. eigenvalues --  -84.42421 -26.51205 -26.51205 -26.49608 -26.49607
 Alpha  occ. eigenvalues --   -7.76206  -6.88157  -4.40934  -4.40233  -4.39296
 Alpha  occ. eigenvalues --   -1.66447  -1.62837  -1.62568  -1.58850  -0.90630
 Alpha  occ. eigenvalues --   -0.83262  -0.77713  -0.75546  -0.72658  -0.71904
 Alpha  occ. eigenvalues --   -0.70021  -0.68624  -0.66887  -0.66251  -0.65151
 Alpha  occ. eigenvalues --   -0.63256  -0.56210  -0.38808
 Alpha virt. eigenvalues --    0.03894   0.05098   0.05138   0.05523   0.07774
 Alpha virt. eigenvalues --    0.08578   0.10510   0.11496   0.16076   0.19787
 Alpha virt. eigenvalues --    0.20289   0.21635   0.21651   0.23989   0.24833

 Mulliken charges:
               1
     1  P    1.220482
     2  B    1.277690
     3  F   -0.749015
     4  F   -0.749015
     5  F   -0.500071
     6  F   -0.500071
 Sum of Mulliken charges =  -0.00000

 Dipole moment (field-independent basis, Debye):
    X=              1.0948    Y=              0.4542    Z=              0.0000  Tot=              1.1853

 Test job not archived.
 1\1\GINC-SE419\SP\RHF\Aug-CC-pVDZ\B1F4P1\OHZDE\09-Apr-2025\0\\#t hf au
 g-cc-pvdz iop(5/13=1,5/36=2,99/5=2) pseudo=read geom=check guess=(read
 ,tcheck) scf=(maxcycle=1)\\title\\0,1\P,0,0.643518,-0.79627,0.\B,0,-0.
 069057,1.055922,0.\F,0,-0.258541,-1.329381,1.238774\F,0,-0.258541,-1.3
 29381,-1.238774\F,0,-0.258541,1.699627,1.13401\F,0,-0.258541,1.699627,
 -1.13401\\Version=ES64L-G16RevC.01\State=1-A'\HF=-763.8066504\RMSD=1.1
 06e-02\Dipole=0.4307253,0.1787088,0.\Quadrupole=2.0329568,-0.7942907,-
 1.2386661,0.2618638,0.,0.\PG=CS [SG(B1P1),X(F4)]\\@

 Normal termination of Gaussian 16 at Wed Apr  9 00:42:53 2025.
