 Gaussian 16, Revision C.01,

 ----------------------------------------------------------------------
 #t hf aug-cc-pvdz symm=none int=(grid=ultrafine) guess=(read,tcheck) s
 table=(opt,rrhf)
 ----------------------------------------------------------------------
 -----
 title
 -----
 Symbolic Z-matrix:
 Charge =  0 Multiplicity = 1

 SCF Done:  E(RHF) =  -896.784078398     A.U. after   15 cycles
 Normal termination of Gaussian 16 at Tue Apr  8 23:21:59 2025.
 Gaussian 16:  ES64L-G16RevC.01  3-Jul-2019

 ----------------------------------------------------------------------
 #t hf aug-cc-pvdz iop(5/13=1,5/36=2,99/5=2) pseudo=read geom=check gue
 ss=(read,tcheck) scf=(maxcycle=1)
 ----------------------------------------------------------------------
 -----
 title
 -----
 Structure from the checkpoint file:  "BDE49_nonexpt_1202_mol1.chk"
 Charge =  0 Multiplicity = 1

                         Standard orientation:
 ---------------------------------------------------------------------
 Center     Atomic      Atomic             Coordinates (Angstroms)
 Number     Number       Type             X           Y           Z
 ---------------------------------------------------------------------
      1         16           0        0.646673   -1.114773    0.012715
      2          8           0       -0.839625   -0.610049   -0.626689
      3          6           0       -1.662856    0.084679    0.203533
      4          6           0        1.515064    0.422291   -0.136471
      5          9           0        2.781002    0.179862    0.267063
      6          8           0        1.119992    1.467182   -0.503308
      7          8           0       -1.489745    0.415873    1.319916
      8          9           0       -2.757112    0.332417   -0.503192
 ---------------------------------------------------------------------

 SCF Done:  E(RHF) =  -897.301866393     A.U. after    2 cycles

 The electronic state is 1-A.
 Alpha  occ. eigenvalues --  -94.09191 -26.54518 -26.54052 -20.67942 -20.61447
 Alpha  occ. eigenvalues --  -20.59949 -11.52119 -11.49731  -8.36652  -6.34451
 Alpha  occ. eigenvalues --   -6.34212  -6.33928  -1.70415  -1.68696  -1.58647
 Alpha  occ. eigenvalues --   -1.55755  -1.53680  -1.12045  -0.93215  -0.86745
 Alpha  occ. eigenvalues --   -0.82465  -0.78310  -0.77089  -0.75595  -0.74920
 Alpha  occ. eigenvalues --   -0.73989  -0.67074  -0.66677  -0.63065  -0.60313
 Alpha  occ. eigenvalues --   -0.59047  -0.54643  -0.52900  -0.50196  -0.45461
 Alpha virt. eigenvalues --    0.04475   0.05465   0.07916   0.08436   0.09289
 Alpha virt. eigenvalues --    0.10114   0.10375   0.11195   0.11905   0.12448
 Alpha virt. eigenvalues --    0.13118   0.15137   0.16211   0.17535   0.20283

 Mulliken charges:
               1
     1  S    1.022105
     2  O   -1.202870
     3  C    2.076718
     4  C    1.039712
     5  F   -0.591452
     6  O   -0.868875
     7  O   -0.865310
     8  F   -0.610028
 Sum of Mulliken charges =  -0.00000

 Dipole moment (field-independent basis, Debye):
    X=              0.7189    Y=             -2.3672    Z=             -0.5209  Tot=              2.5282

 Test job not archived.
 1\1\GINC-SE364\SP\RHF\Aug-CC-pVDZ\C2F2O3S1\OHZDE\08-Apr-2025\0\\#t hf
 aug-cc-pvdz iop(5/13=1,5/36=2,99/5=2) pseudo=read geom=check guess=(re
 ad,tcheck) scf=(maxcycle=1)\\title\\0,1\S,0,0.646673,-1.114773,0.01271
 5\O,0,-0.839625,-0.610049,-0.626689\C,0,-1.662856,0.084679,0.203533\C,
 0,1.515064,0.422291,-0.136471\F,0,2.781002,0.179862,0.267063\O,0,1.119
 992,1.467182,-0.503308\O,0,-1.489745,0.415873,1.319916\F,0,-2.757112,0
 .332417,-0.503192\\Version=ES64L-G16RevC.01\State=1-A\HF=-897.3018664\
 RMSD=5.707e-03\Dipole=0.282853,-0.931337,-0.2049265\Quadrupole=0.40689

 Normal termination of Gaussian 16 at Tue Apr  8 23:22:03 2025.
