 Gaussian 16, Revision C.01,

 ----------------------------------------------------------------------
 #t hf aug-cc-pvdz symm=none int=(grid=ultrafine) guess=(read,tcheck) s
 table=(opt,rrhf)
 ----------------------------------------------------------------------
 -----
 title
 -----
 Symbolic Z-matrix:
 Charge =  0 Multiplicity = 1

 SCF Done:  E(RHF) =  -1123.91008051     A.U. after   16 cycles
 Normal termination of Gaussian 16 at Tue Apr  8 23:25:28 2025.
 Gaussian 16:  ES64L-G16RevC.01  3-Jul-2019

 ----------------------------------------------------------------------
 #t hf aug-cc-pvdz iop(5/13=1,5/36=2,99/5=2) pseudo=read geom=check gue
 ss=(read,tcheck) scf=(maxcycle=1)
 ----------------------------------------------------------------------
 -----
 title
 -----
 Structure from the checkpoint file:  "BDE49_nonexpt_1245_mol1.chk"
 Charge =  0 Multiplicity = 1

                         Standard orientation:
 ---------------------------------------------------------------------
 Center     Atomic      Atomic             Coordinates (Angstroms)
 Number     Number       Type             X           Y           Z
 ---------------------------------------------------------------------
      1         17           0        2.308175   -0.901339   -0.939266
      2         15           0        1.368951   -0.259507    0.891689
      3          6           0        1.313678    1.586555    0.577958
      4          7           0        0.144743    1.850112   -0.251642
      5          1           0       -0.150492    2.809242   -0.360547
      6          6           0       -0.381928   -0.333592    0.431260
      7          6           0       -1.257306   -1.412905    0.568684
      8          1           0       -0.905356   -2.341613    1.004553
      9          6           0       -3.010897   -0.087704   -0.420832
     10          1           0       -4.040433    0.005107   -0.749133
     11          6           0       -0.827380    0.877736   -0.142179
     12          6           0       -2.575554   -1.292366    0.145123
     13          1           0       -3.263075   -2.122329    0.251996
     14          6           0       -2.156836    0.997658   -0.570515
     15          1           0       -2.511139    1.921167   -1.015286
     16          1           0        1.223402    2.050848    1.572428
     17          1           0        2.237997    1.929874    0.112660
 ---------------------------------------------------------------------

 SCF Done:  E(RHF) =  -1124.36341947     A.U. after    2 cycles

 The electronic state is 1-A.
 Alpha  occ. eigenvalues -- -105.54121 -84.32833 -15.52845 -11.30317 -11.29174
 Alpha  occ. eigenvalues --  -11.26388 -11.26318 -11.24652 -11.24455 -11.23969
 Alpha  occ. eigenvalues --  -10.58963  -7.75859  -7.75524  -7.75508  -6.79463
 Alpha  occ. eigenvalues --   -4.32187  -4.31700  -4.31182  -1.27302  -1.14933
 Alpha  occ. eigenvalues --   -1.06226  -1.02311  -1.01622  -0.96380  -0.86895
 Alpha  occ. eigenvalues --   -0.82962  -0.78542  -0.74408  -0.68891  -0.66640
 Alpha  occ. eigenvalues --   -0.65955  -0.62728  -0.62337  -0.56668  -0.54417
 Alpha  occ. eigenvalues --   -0.53341  -0.51357  -0.49316  -0.47498  -0.46192
 Alpha  occ. eigenvalues --   -0.43404  -0.37142  -0.34843  -0.31781
 Alpha virt. eigenvalues --    0.02874   0.03496   0.03854   0.04684   0.05094
 Alpha virt. eigenvalues --    0.05828   0.06809   0.07404   0.08421   0.09070
 Alpha virt. eigenvalues --    0.09911   0.10659   0.11755   0.12044   0.12834

 Mulliken charges:
               1
     1  Cl  -0.520493
     2  P    1.194200
     3  C   -0.740511
     4  N    0.864428
     5  H    0.036239
     6  C    0.648894
     7  C    0.038308
     8  H   -0.245048
     9  C    0.044700
    10  H   -0.219650
    11  C   -2.488210
    12  C    0.433193
    13  H   -0.223412
    14  C    1.323651
    15  H   -0.297001
    16  H    0.114943
    17  H    0.035767
 Sum of Mulliken charges =  -0.00000

 Dipole moment (field-independent basis, Debye):
    X=             -2.2222    Y=              2.4585    Z=              1.7311  Tot=              3.7389

 Test job not archived.
 1\1\GINC-SE044\SP\RHF\Aug-CC-pVDZ\C7H7Cl1N1P1\OHZDE\08-Apr-2025\0\\#t
 hf aug-cc-pvdz iop(5/13=1,5/36=2,99/5=2) pseudo=read geom=check guess=
 (read,tcheck) scf=(maxcycle=1)\\title\\0,1\Cl,0,2.308175,-0.901339,-0.
 939266\P,0,1.368951,-0.259507,0.891689\C,0,1.313678,1.586555,0.577958\
 N,0,0.144743,1.850112,-0.251642\H,0,-0.150492,2.809242,-0.360547\C,0,-
 0.381928,-0.333592,0.43126\C,0,-1.257306,-1.412905,0.568684\H,0,-0.905
 356,-2.341613,1.004553\C,0,-3.010897,-0.087704,-0.420832\H,0,-4.040433
 ,0.005107,-0.749133\C,0,-0.82738,0.877736,-0.142179\C,0,-2.575554,-1.2

 Normal termination of Gaussian 16 at Tue Apr  8 23:25:39 2025.
