 Gaussian 16, Revision C.01,

 ----------------------------------------------------------------------
 #t hf aug-cc-pvdz symm=none int=(grid=ultrafine) guess=(read,tcheck) s
 table=opt
 ----------------------------------------------------------------------
 -----
 title
 -----
 Symbolic Z-matrix:
 Charge =  0 Multiplicity = 2

 SCF Done:  E(UHF) =  -779.942011999     A.U. after   20 cycles
 Normal termination of Gaussian 16 at Tue Apr  8 23:57:55 2025.
 Gaussian 16:  ES64L-G16RevC.01  3-Jul-2019

 ----------------------------------------------------------------------
 #t hf aug-cc-pvdz iop(5/13=1,5/36=2,99/5=2) pseudo=read geom=check gue
 ss=(read,tcheck) scf=(maxcycle=1)
 ----------------------------------------------------------------------
 -----
 title
 -----
 Structure from the checkpoint file:  "BDE49_nonexpt_2053_mol2.chk"
 Charge =  0 Multiplicity = 2

                         Standard orientation:
 ---------------------------------------------------------------------
 Center     Atomic      Atomic             Coordinates (Angstroms)
 Number     Number       Type             X           Y           Z
 ---------------------------------------------------------------------
      1         14           0        2.212980    0.000379   -0.123554
      2          7           0        0.515503   -0.001019    0.120193
      3          6           0       -0.677672   -0.000658    0.048458
      4         16           0       -2.254078    0.000310   -0.024074
      5          1           0        2.769774    1.228072    0.491999
      6          1           0        2.771273   -1.227248    0.490844
 ---------------------------------------------------------------------

 SCF Done:  E(UHF) =  -780.114769336     A.U. after    2 cycles

 The electronic state is 2-A.
 Alpha  occ. eigenvalues --  -93.95476 -69.59544 -15.54122 -11.39515  -8.23765
 Alpha  occ. eigenvalues --   -6.26274  -6.21633  -6.21317  -6.21209  -4.02169
 Alpha  occ. eigenvalues --   -4.01421  -4.01249  -1.28674  -1.07850  -0.89555
 Alpha  occ. eigenvalues --   -0.66662  -0.61988  -0.61704  -0.61211  -0.52033
 Alpha  occ. eigenvalues --   -0.42073  -0.38824  -0.34562
 Alpha virt. eigenvalues --    0.03536   0.03960   0.05569   0.05973   0.07205
 Alpha virt. eigenvalues --    0.07431   0.08799   0.10189   0.11970   0.12559
 Alpha virt. eigenvalues --    0.13077   0.13118   0.14460   0.15813   0.15891

  Beta  occ. eigenvalues --  -93.95414 -69.58972 -15.54311 -11.39331  -8.23695
  Beta  occ. eigenvalues --   -6.25382  -6.21618  -6.21151  -6.21051  -4.01046
  Beta  occ. eigenvalues --   -4.00873  -4.00054  -1.28510  -1.07721  -0.87982
  Beta  occ. eigenvalues --   -0.63859  -0.61735  -0.61376  -0.60396  -0.50898
  Beta  occ. eigenvalues --   -0.39371  -0.38789
  Beta virt. eigenvalues --    0.00350   0.03819   0.04218   0.05694   0.07003
  Beta virt. eigenvalues --    0.07496   0.07620   0.10039   0.10283   0.12531
  Beta virt. eigenvalues --    0.13326   0.13543   0.14034   0.15070   0.16065

 Mulliken charges and spin densities:
               1          2
     1  Si   0.520548   0.928666
     2  N    0.445335  -0.117047
     3  C   -1.043326   0.041897
     4  S    0.300743   0.074272
     5  H   -0.111646   0.036132
     6  H   -0.111655   0.036080
 Sum of Mulliken charges =  -0.00000   1.00000

 Dipole moment (field-independent basis, Debye):
    X=              2.1200    Y=              0.0012    Z=             -0.1313  Tot=              2.1241
                          Isotropic Fermi Contact Couplings
        Atom                 a.u.       MegaHertz       Gauss      10(-4) cm-1
     1  Si(29)             0.70343    -625.15922    -223.07236    -208.53067
     2  N(14)             -0.00736      -2.37747      -0.84834      -0.79304
     3  C(13)              0.01511      16.98748       6.06155       5.66641
     4  S(33)              0.01886       6.47633       2.31092       2.16027
     5  H(1)               0.01049      46.91138      16.73915      15.64795
     6  H(1)               0.01049      46.88233      16.72878      15.63826
 --------------------------------------------------------
       Center         ----  Spin Dipole Couplings  ----

 1\1\GINC-SE094\SP\UHF\Aug-CC-pVDZ\C1H2N1S1Si1(2)\OHZDE\08-Apr-2025\0\\
 #t hf aug-cc-pvdz iop(5/13=1,5/36=2,99/5=2) pseudo=read geom=check gue
 ss=(read,tcheck) scf=(maxcycle=1)\\title\\0,2\Si,0,-2.21298,-0.000379,
 -0.123554\N,0,-0.515503,0.001019,0.120193\C,0,0.677672,0.000658,0.0484
 58\S,0,2.254078,-0.00031,-0.024074\H,0,-2.769774,-1.228072,0.491999\H,
 0,-2.771273,1.227248,0.490844\\Version=ES64L-G16RevC.01\State=2-A\HF=-
 780.1147693\S2=0.76084\S2-1=0.\S2A=0.750056\RMSD=1.234e-02\Dipole=-0.8
 340902,-0.0004624,-0.0516738\Quadrupole=1.7489361,-0.7192225,-1.029713

 Normal termination of Gaussian 16 at Tue Apr  8 23:57:57 2025.
