 Gaussian 16, Revision C.01,

 ----------------------------------------------------------------------
 #t hf aug-cc-pvdz symm=none int=(grid=ultrafine) guess=(read,tcheck) s
 table=(opt,rrhf)
 ----------------------------------------------------------------------
 -----
 title
 -----
 Symbolic Z-matrix:
 Charge =  0 Multiplicity = 1

 SCF Done:  E(RHF) =  -1143.22786467     A.U. after   14 cycles
 Normal termination of Gaussian 16 at Tue Apr  8 23:25:49 2025.
 Gaussian 16:  ES64L-G16RevC.01  3-Jul-2019

 ----------------------------------------------------------------------
 #t hf aug-cc-pvdz iop(5/13=1,5/36=2,99/5=2) pseudo=read geom=check gue
 ss=(read,tcheck) scf=(maxcycle=1)
 ----------------------------------------------------------------------
 -----
 title
 -----
 Structure from the checkpoint file:  "BDE49_nonexpt_1270_mol1.chk"
 Charge =  0 Multiplicity = 1

                         Standard orientation:
 ---------------------------------------------------------------------
 Center     Atomic      Atomic             Coordinates (Angstroms)
 Number     Number       Type             X           Y           Z
 ---------------------------------------------------------------------
      1          6           0       -0.721667    0.498696   -0.004316
      2         15           0        1.048599   -0.012705   -0.039956
      3          8           0        1.981587    1.102584   -0.217926
      4          6           0       -1.062723    1.236540   -1.297729
      5          1           0       -0.874483    0.615313   -2.173548
      6          1           0       -0.440262    2.131669   -1.370877
      7          6           0       -1.021981    1.324007    1.243491
      8         17           0       -1.744415   -1.051370    0.064077
      9          1           0       -0.393037    2.218493    1.238051
     10          1           0       -0.816981    0.757177    2.150903
     11          1           0       -2.069370    1.632622    1.245170
     12          1           0       -2.113814    1.531660   -1.292615
     13          8           0        1.213630   -0.825486    1.337837
     14          1           0        2.068680   -0.648182    1.749170
     15          8           0        1.159304   -1.110436   -1.197249
     16          1           0        0.567398   -1.863637   -1.066193
 ---------------------------------------------------------------------

 SCF Done:  E(RHF) =  -1143.70022431     A.U. after    2 cycles

 The electronic state is 1-A.
 Alpha  occ. eigenvalues -- -105.57400 -84.43657 -20.60076 -20.59782 -20.50925
 Alpha  occ. eigenvalues --  -11.33948 -11.25772 -11.25659 -10.62172  -7.79096
 Alpha  occ. eigenvalues --   -7.78763  -7.78740  -6.88967  -4.43150  -4.42514
 Alpha  occ. eigenvalues --   -4.41731  -1.54066  -1.48210  -1.39504  -1.15151
 Alpha  occ. eigenvalues --   -1.01805  -0.97340  -0.88810  -0.78628  -0.75948
 Alpha  occ. eigenvalues --   -0.68544  -0.66018  -0.64281  -0.63689  -0.60909
 Alpha  occ. eigenvalues --   -0.58893  -0.57986  -0.56006  -0.53921  -0.52881
 Alpha  occ. eigenvalues --   -0.52715  -0.50336  -0.48579  -0.46698  -0.46331
 Alpha  occ. eigenvalues --   -0.43271
 Alpha virt. eigenvalues --    0.03485   0.03910   0.04377   0.05508   0.06025
 Alpha virt. eigenvalues --    0.06354   0.07594   0.07757   0.09314   0.10293
 Alpha virt. eigenvalues --    0.11890   0.12878   0.13145   0.13981   0.14447

 Mulliken charges:
               1
     1  C   -1.802854
     2  P    4.549736
     3  O   -1.493039
     4  C   -0.047586
     5  H    0.142580
     6  H    0.242317
     7  C   -0.018815
     8  Cl  -0.249994
     9  H    0.242858
    10  H    0.164616
    11  H    0.184094
    12  H    0.191865
    13  O   -1.381145
    14  H    0.347818
    15  O   -1.384042
    16  H    0.311590
 Sum of Mulliken charges =  -0.00000

 Dipole moment (field-independent basis, Debye):
    X=             -1.6608    Y=             -0.5773    Z=              1.2361  Tot=              2.1493

 Test job not archived.
 1\1\GINC-SE073\SP\RHF\Aug-CC-pVDZ\C3H8Cl1O3P1\OHZDE\08-Apr-2025\0\\#t
 hf aug-cc-pvdz iop(5/13=1,5/36=2,99/5=2) pseudo=read geom=check guess=
 (read,tcheck) scf=(maxcycle=1)\\title\\0,1\C,0,-0.721667,0.498696,-0.0
 04316\P,0,1.048599,-0.012705,-0.039956\O,0,1.981587,1.102584,-0.217926
 \C,0,-1.062723,1.23654,-1.297729\H,0,-0.874483,0.615313,-2.173548\H,0,
 -0.440262,2.131669,-1.370877\C,0,-1.021981,1.324007,1.243491\Cl,0,-1.7
 44415,-1.05137,0.064077\H,0,-0.393037,2.218493,1.238051\H,0,-0.816981,
 0.757177,2.150903\H,0,-2.06937,1.632622,1.24517\H,0,-2.113814,1.53166,

 Normal termination of Gaussian 16 at Tue Apr  8 23:25:57 2025.
