 Gaussian 16, Revision C.01,

 ----------------------------------------------------------------------
 #t hf aug-cc-pvdz symm=none int=(grid=ultrafine) guess=(read,tcheck) s
 table=opt
 ----------------------------------------------------------------------
 -----
 title
 -----
 Symbolic Z-matrix:
 Charge =  0 Multiplicity = 2

 SCF Done:  E(UHF) =  -300.900925818     A.U. after   25 cycles
 Normal termination of Gaussian 16 at Tue Apr  8 23:01:41 2025.
 Gaussian 16:  ES64L-G16RevC.01  3-Jul-2019

 ----------------------------------------------------------------------
 #t hf aug-cc-pvdz iop(5/13=1,5/36=2,99/5=2) pseudo=read geom=check gue
 ss=(read,tcheck) scf=(maxcycle=1)
 ----------------------------------------------------------------------
 -----
 title
 -----
 Structure from the checkpoint file:  "BDE49_expt_254_mol2.chk"
 Charge =  0 Multiplicity = 2

                         Standard orientation:
 ---------------------------------------------------------------------
 Center     Atomic      Atomic             Coordinates (Angstroms)
 Number     Number       Type             X           Y           Z
 ---------------------------------------------------------------------
      1          6           0        0.953662   -0.166818    0.406811
      2          6           0       -0.500793    0.131085    0.021793
      3          8           0       -0.909960    1.250479   -0.027532
      4          8           0        1.942609   -0.044090   -0.212994
      5          8           0       -1.278042   -0.959198   -0.085694
      6          1           0       -0.754073   -1.763132    0.038141
 ---------------------------------------------------------------------

 SCF Done:  E(UHF) =  -301.184714259     A.U. after    2 cycles

 The electronic state is 2-A.
 Alpha  occ. eigenvalues --  -20.64941 -20.64733 -20.58538 -11.45474 -11.40397
 Alpha  occ. eigenvalues --   -1.59697  -1.57852  -1.50902  -0.99807  -0.86830
 Alpha  occ. eigenvalues --   -0.77748  -0.72090  -0.71160  -0.66364  -0.63778
 Alpha  occ. eigenvalues --   -0.60664  -0.53528  -0.51461  -0.40416
 Alpha virt. eigenvalues --    0.02357   0.06825   0.07161   0.08502   0.09451
 Alpha virt. eigenvalues --    0.11618   0.11822   0.12181   0.13194   0.15126
 Alpha virt. eigenvalues --    0.18225   0.20461   0.20672   0.24213   0.24804

  Beta  occ. eigenvalues --  -20.64893 -20.63470 -20.58229 -11.44893 -11.38647
  Beta  occ. eigenvalues --   -1.59024  -1.55189  -1.50264  -0.94990  -0.85841
  Beta  occ. eigenvalues --   -0.74664  -0.70800  -0.67293  -0.64045  -0.60284
  Beta  occ. eigenvalues --   -0.56107  -0.50837  -0.49713
  Beta virt. eigenvalues --    0.01806   0.04219   0.07696   0.08099   0.08677
  Beta virt. eigenvalues --    0.10076   0.11839   0.11923   0.12511   0.13964
  Beta virt. eigenvalues --    0.17388   0.18656   0.20820   0.22664   0.24377

 Mulliken charges and spin densities:
               1          2
     1  C    0.515471   0.660907
     2  C    1.911599   0.070343
     3  O   -0.996491   0.061125
     4  O   -0.746521   0.198184
     5  O   -1.120827   0.007744
     6  H    0.436770   0.001698
 Sum of Mulliken charges =  -0.00000   1.00000

 Dipole moment (field-independent basis, Debye):
    X=              0.3466    Y=             -3.1627    Z=              0.5460  Tot=              3.2281
                          Isotropic Fermi Contact Couplings
        Atom                 a.u.       MegaHertz       Gauss      10(-4) cm-1
     1  C(13)              0.30631     344.35310     122.87375     114.86383
     2  C(13)              0.14851     166.95661      59.57427      55.69073
     3  O(17)              0.02581     -15.64427      -5.58226      -5.21837
     4  O(17)              0.11035     -66.89170     -23.86862     -22.31267
     5  O(17)              0.00239      -1.44820      -0.51675      -0.48307
     6  H(1)              -0.00002      -0.07420      -0.02648      -0.02475
 --------------------------------------------------------
       Center         ----  Spin Dipole Couplings  ----

 Normal termination of Gaussian 16 at Tue Apr  8 23:01:43 2025.
