 Gaussian 16, Revision C.01,

 ----------------------------------------------------------------------
 #t hf aug-cc-pvdz symm=none int=(grid=ultrafine) guess=(read,tcheck) s
 table=(opt,rrhf)
 ----------------------------------------------------------------------
 -----
 title
 -----
 Symbolic Z-matrix:
 Charge =  0 Multiplicity = 1

 SCF Done:  E(RHF) =  -1484.48731614     A.U. after   16 cycles
 Normal termination of Gaussian 16 at Wed Apr  9 00:50:15 2025.
 Gaussian 16:  ES64L-G16RevC.01  3-Jul-2019

 ----------------------------------------------------------------------
 #t hf aug-cc-pvdz iop(5/13=1,5/36=2,99/5=2) pseudo=read geom=check gue
 ss=(read,tcheck) scf=(maxcycle=1)
 ----------------------------------------------------------------------
 -----
 title
 -----
 Structure from the checkpoint file:  "BDE49_nonexpt_881_mol1.chk"
 Charge =  0 Multiplicity = 1

                         Standard orientation:
 ---------------------------------------------------------------------
 Center     Atomic      Atomic             Coordinates (Angstroms)
 Number     Number       Type             X           Y           Z
 ---------------------------------------------------------------------
      1         16           0       -0.532576   -1.972010   -0.395391
      2          8           0       -2.522336    2.393383    0.636936
      3         16           0        1.786569    1.668045   -0.863637
      4         16           0        2.627577   -0.844061    0.783160
      5          6           0       -2.235020   -1.706237   -0.324475
      6          1           0       -2.916810   -2.521993   -0.512284
      7          6           0       -2.525361   -0.407908   -0.032894
      8          1           0       -3.522807   -0.005973    0.077071
      9          6           0       -1.358183    0.395991    0.126279
     10          6           0       -0.167888   -0.309180   -0.041006
     11          6           0       -1.462462    1.820779    0.508088
     12          1           0       -0.507168    2.346839    0.685764
     13          5           0        1.318007    0.138435   -0.004673
     14          1           0        1.843051   -1.763232    1.372492
     15          1           0        3.080750    1.712870   -0.497222
 ---------------------------------------------------------------------

 SCF Done:  E(RHF) =  -1484.95055674     A.U. after    2 cycles

 The electronic state is 1-A.
 Alpha  occ. eigenvalues --  -94.00528 -93.97261 -93.97229 -20.55167 -11.35116
 Alpha  occ. eigenvalues --  -11.29548 -11.29410 -11.27775 -11.26550  -8.28675
 Alpha  occ. eigenvalues --   -8.25564  -8.25506  -7.68247  -6.26443  -6.26335
 Alpha  occ. eigenvalues --   -6.26148  -6.23384  -6.23350  -6.23239  -6.23200
 Alpha  occ. eigenvalues --   -6.23080  -6.23048  -1.47985  -1.21418  -1.07558
 Alpha  occ. eigenvalues --   -1.05033  -1.01841  -1.01429  -0.88169  -0.81836
 Alpha  occ. eigenvalues --   -0.76946  -0.73611  -0.66499  -0.65376  -0.62127
 Alpha  occ. eigenvalues --   -0.61232  -0.58538  -0.57484  -0.54844  -0.52578
 Alpha  occ. eigenvalues --   -0.51672  -0.49342  -0.47812  -0.45822  -0.42812
 Alpha  occ. eigenvalues --   -0.39123  -0.37586  -0.35771
 Alpha virt. eigenvalues --    0.02821   0.03018   0.03541   0.04350   0.04682
 Alpha virt. eigenvalues --    0.05455   0.05915   0.06979   0.07731   0.08514
 Alpha virt. eigenvalues --    0.08825   0.09703   0.10594   0.11141   0.11408

 Mulliken charges:
               1
     1  S    0.670277
     2  O   -1.319101
     3  S   -0.721951
     4  S   -0.764594
     5  C   -0.597173
     6  H   -0.164600
     7  C    0.274632
     8  H   -0.236301
     9  C    1.000437
    10  C   -0.600050
    11  C    0.962227
    12  H   -0.011446
    13  B    0.966242
    14  H    0.265649
    15  H    0.275752
 Sum of Mulliken charges =   0.00000

 Dipole moment (field-independent basis, Debye):
    X=              1.2315    Y=             -2.6658    Z=              0.1702  Tot=              2.9415

 Test job not archived.
 1\1\GINC-SE342\SP\RHF\Aug-CC-pVDZ\C5H5B1O1S3\OHZDE\09-Apr-2025\0\\#t h
 f aug-cc-pvdz iop(5/13=1,5/36=2,99/5=2) pseudo=read geom=check guess=(
 read,tcheck) scf=(maxcycle=1)\\title\\0,1\S,0,-0.532576,-1.97201,-0.39
 5391\O,0,-2.522336,2.393383,0.636936\S,0,1.786569,1.668045,-0.863637\S
 ,0,2.627577,-0.844062,0.78316\C,0,-2.23502,-1.706237,-0.324475\H,0,-2.
 916811,-2.521993,-0.512284\C,0,-2.525361,-0.407908,-0.032894\H,0,-3.52
 2807,-0.005972,0.077071\C,0,-1.358183,0.395991,0.126279\C,0,-0.167888,
 -0.30918,-0.041006\C,0,-1.462462,1.820779,0.508088\H,0,-0.507168,2.346

 Normal termination of Gaussian 16 at Wed Apr  9 00:50:24 2025.
