 Gaussian 16, Revision C.01,

 ----------------------------------------------------------------------
 #t hf aug-cc-pvdz symm=none int=(grid=ultrafine) guess=(read,tcheck) s
 table=(opt,rrhf)
 ----------------------------------------------------------------------
 -----
 title
 -----
 Symbolic Z-matrix:
 Charge =  0 Multiplicity = 1

 SCF Done:  E(RHF) =  -1265.74556162     A.U. after   15 cycles
 Normal termination of Gaussian 16 at Wed Apr  9 00:10:37 2025.
 Gaussian 16:  ES64L-G16RevC.01  3-Jul-2019

 ----------------------------------------------------------------------
 #t hf aug-cc-pvdz iop(5/13=1,5/36=2,99/5=2) pseudo=read geom=check gue
 ss=(read,tcheck) scf=(maxcycle=1)
 ----------------------------------------------------------------------
 -----
 title
 -----
 Structure from the checkpoint file:  "BDE49_nonexpt_2348_mol1.chk"
 Charge =  0 Multiplicity = 1

                         Standard orientation:
 ---------------------------------------------------------------------
 Center     Atomic      Atomic             Coordinates (Angstroms)
 Number     Number       Type             X           Y           Z
 ---------------------------------------------------------------------
      1         14           0       -0.072454    1.327519   -0.659093
      2         14           0        1.779276    0.629554    0.621559
      3          6           0       -1.443749   -0.017485   -0.568474
      4          8           0       -2.047110   -0.570095   -1.407002
      5          1           0        0.249881    1.526154   -2.087515
      6          1           0       -0.698763    2.542645   -0.095684
      7         17           0       -1.808690   -0.406656    1.262331
      8          6           0        2.118134   -1.186319    0.044475
      9          1           0        1.555656    0.699492    2.082847
     10          1           0        2.973453    1.446355    0.284558
     11          8           0        1.529465   -1.637585   -0.912163
     12          1           0        2.866837   -1.816245    0.578956
 ---------------------------------------------------------------------

 SCF Done:  E(RHF) =  -1266.10347457     A.U. after    2 cycles

 The electronic state is 1-A.
 Alpha  occ. eigenvalues -- -105.56138 -69.57563 -69.56499 -20.60618 -20.57985
 Alpha  occ. eigenvalues --  -11.41479 -11.35430 -10.60966  -7.77852  -7.77541
 Alpha  occ. eigenvalues --   -7.77532  -6.24664  -6.23714  -4.00042  -3.99963
 Alpha  occ. eigenvalues --   -3.99956  -3.99050  -3.99030  -3.99023  -1.55024
 Alpha  occ. eigenvalues --   -1.50062  -1.05917  -0.88639  -0.85822  -0.77370
 Alpha  occ. eigenvalues --   -0.73046  -0.67917  -0.66103  -0.63911  -0.61091
 Alpha  occ. eigenvalues --   -0.60367  -0.56130  -0.52846  -0.51035  -0.47151
 Alpha  occ. eigenvalues --   -0.46399  -0.45409  -0.42226  -0.40990
 Alpha virt. eigenvalues --    0.02715   0.03085   0.04161   0.05005   0.05845
 Alpha virt. eigenvalues --    0.06483   0.06725   0.07103   0.07304   0.08000
 Alpha virt. eigenvalues --    0.09110   0.09572   0.09961   0.10494   0.12295

 Mulliken charges:
               1
     1  Si   0.782081
     2  Si   0.772423
     3  C    0.541422
     4  O   -0.922781
     5  H   -0.091080
     6  H   -0.117558
     7  Cl  -0.244295
     8  C    0.360592
     9  H   -0.078130
    10  H   -0.158434
    11  O   -0.853096
    12  H    0.008856
 Sum of Mulliken charges =  -0.00000

 Dipole moment (field-independent basis, Debye):
    X=              3.6103    Y=              2.8985    Z=              1.0668  Tot=              4.7512

 Test job not archived.
 1\1\GINC-SE126\SP\RHF\Aug-CC-pVDZ\C2H5Cl1O2Si2\OHZDE\09-Apr-2025\0\\#t
  hf aug-cc-pvdz iop(5/13=1,5/36=2,99/5=2) pseudo=read geom=check guess
 =(read,tcheck) scf=(maxcycle=1)\\title\\0,1\Si,0,0.072454,1.327519,0.6
 59093\Si,0,-1.779276,0.629554,-0.621559\C,0,1.443749,-0.017485,0.56847
 4\O,0,2.04711,-0.570095,1.407002\H,0,-0.249881,1.526154,2.087515\H,0,0
 .698763,2.542645,0.095684\Cl,0,1.80869,-0.406656,-1.262331\C,0,-2.1181
 34,-1.186319,-0.044475\H,0,-1.555656,0.699492,-2.082847\H,0,-2.973453,
 1.446355,-0.284558\O,0,-1.529465,-1.637585,0.912163\H,0,-2.866837,-1.8

 Normal termination of Gaussian 16 at Wed Apr  9 00:10:47 2025.
