 Gaussian 16, Revision C.01,

 ----------------------------------------------------------------------
 #t hf aug-cc-pvdz symm=none int=(grid=ultrafine) guess=(read,tcheck) s
 table=(opt,rrhf)
 ----------------------------------------------------------------------
 -----
 title
 -----
 Symbolic Z-matrix:
 Charge =  0 Multiplicity = 1

 SCF Done:  E(RHF) =  -558.090888627     A.U. after   13 cycles
 Normal termination of Gaussian 16 at Tue Apr  8 23:58:51 2025.
 Gaussian 16:  ES64L-G16RevC.01  3-Jul-2019

 ----------------------------------------------------------------------
 #t hf aug-cc-pvdz iop(5/13=1,5/36=2,99/5=2) pseudo=read geom=check gue
 ss=(read,tcheck) scf=(maxcycle=1)
 ----------------------------------------------------------------------
 -----
 title
 -----
 Structure from the checkpoint file:  "BDE49_nonexpt_2071_mol1.chk"
 Charge =  0 Multiplicity = 1

                         Standard orientation:
 ---------------------------------------------------------------------
 Center     Atomic      Atomic             Coordinates (Angstroms)
 Number     Number       Type             X           Y           Z
 ---------------------------------------------------------------------
      1         14           0       -1.787562   -0.446302   -0.169318
      2          6           0       -0.012825    0.248201    0.073734
      3          8           0        0.816927   -0.864429   -0.245399
      4          8           0        0.172436    0.645830    1.435463
      5          6           0        2.230121   -0.659046   -0.173374
      6          1           0        2.599128   -0.079286   -1.026276
      7          1           0        2.681635   -1.650510   -0.200224
      8          1           0        2.510002   -0.157322    0.756935
      9          6           0        0.283059    1.490310   -0.760818
     10          1           0        0.254717    1.250242   -1.825898
     11          1           0        1.267130    1.895076   -0.511414
     12          1           0       -0.455572    2.266503   -0.553244
     13          1           0        0.000227   -0.125084    1.989185
     14          1           0       -1.996431   -1.492843    0.860490
     15          1           0       -1.977291   -1.024731   -1.518606
     16          1           0       -2.774706    0.638189    0.041746
 ---------------------------------------------------------------------

 SCF Done:  E(RHF) =  -558.404470753     A.U. after    2 cycles

 The electronic state is 1-A.
 Alpha  occ. eigenvalues --  -69.52670 -20.55791 -20.55210 -11.33367 -11.28189
 Alpha  occ. eigenvalues --  -11.23332  -6.19843  -3.95197  -3.95193  -3.95177
 Alpha  occ. eigenvalues --   -1.49316  -1.42629  -1.02013  -0.94764  -0.81758
 Alpha  occ. eigenvalues --   -0.75596  -0.70298  -0.65457  -0.64131  -0.59748
 Alpha  occ. eigenvalues --   -0.58819  -0.56527  -0.54747  -0.52807  -0.48938
 Alpha  occ. eigenvalues --   -0.48644  -0.47007  -0.43707  -0.41040
 Alpha virt. eigenvalues --    0.03591   0.04079   0.04261   0.04548   0.05865
 Alpha virt. eigenvalues --    0.06285   0.06772   0.06810   0.08725   0.09508
 Alpha virt. eigenvalues --    0.09847   0.10116   0.10760   0.13337   0.14044

 Mulliken charges:
               1
     1  Si   0.661595
     2  C    1.682021
     3  O   -1.448937
     4  O   -1.377604
     5  C    0.216633
     6  H    0.142356
     7  H   -0.036735
     8  H    0.165026
     9  C   -0.327933
    10  H    0.217077
    11  H    0.145764
    12  H    0.133532
    13  H    0.256693
    14  H   -0.188446
    15  H   -0.133346
    16  H   -0.107696
 Sum of Mulliken charges =   0.00000

 Dipole moment (field-independent basis, Debye):
    X=              0.7241    Y=             -0.0667    Z=             -0.2375  Tot=              0.7650

 Test job not archived.
 1\1\GINC-SE072\SP\RHF\Aug-CC-pVDZ\C3H10O2Si1\OHZDE\08-Apr-2025\0\\#t h
 f aug-cc-pvdz iop(5/13=1,5/36=2,99/5=2) pseudo=read geom=check guess=(
 read,tcheck) scf=(maxcycle=1)\\title\\0,1\Si,0,-1.787562,-0.446302,-0.
 169318\C,0,-0.012825,0.248201,0.073734\O,0,0.816927,-0.864429,-0.24539
 9\O,0,0.172436,0.64583,1.435463\C,0,2.230121,-0.659046,-0.173374\H,0,2
 .599128,-0.079286,-1.026276\H,0,2.681635,-1.65051,-0.200224\H,0,2.5100
 02,-0.157322,0.756935\C,0,0.283059,1.49031,-0.760818\H,0,0.254717,1.25
 0242,-1.825898\H,0,1.26713,1.895076,-0.511414\H,0,-0.455572,2.266503,-

 Normal termination of Gaussian 16 at Tue Apr  8 23:58:56 2025.
