 Gaussian 16, Revision C.01,

 ----------------------------------------------------------------------
 #t hf aug-cc-pvdz symm=none int=(grid=ultrafine) guess=(read,tcheck) s
 table=(opt,rrhf)
 ----------------------------------------------------------------------
 -----
 title
 -----
 Symbolic Z-matrix:
 Charge =  0 Multiplicity = 1

 SCF Done:  E(RHF) =  -1013.76419337     A.U. after   13 cycles
 Normal termination of Gaussian 16 at Wed Apr  9 00:17:01 2025.
 Gaussian 16:  ES64L-G16RevC.01  3-Jul-2019

 ----------------------------------------------------------------------
 #t hf aug-cc-pvdz iop(5/13=1,5/36=2,99/5=2) pseudo=read geom=check gue
 ss=(read,tcheck) scf=(maxcycle=1)
 ----------------------------------------------------------------------
 -----
 title
 -----
 Structure from the checkpoint file:  "BDE49_nonexpt_2544_mol1.chk"
 Charge =  0 Multiplicity = 1

                         Standard orientation:
 ---------------------------------------------------------------------
 Center     Atomic      Atomic             Coordinates (Angstroms)
 Number     Number       Type             X           Y           Z
 ---------------------------------------------------------------------
      1         17           0       -2.124126    0.264560   -0.000045
      2         16           0       -0.484808   -1.021376    0.000023
      3          6           0        0.972169    0.139950    0.000014
      4          6           0        2.153993   -0.848018    0.000012
      5          1           0        2.150590   -1.484432    0.888467
      6          1           0        3.087791   -0.278061    0.000006
      7          1           0        2.150582   -1.484439   -0.888437
      8          6           0        0.981483    1.000385   -1.266466
      9          1           0        1.873084    1.636354   -1.272310
     10          1           0        0.105751    1.650613   -1.309570
     11          1           0        0.992781    0.380598   -2.165113
     12          6           0        0.981494    1.000394    1.266489
     13          1           0        0.992800    0.380612    2.165139
     14          1           0        0.105762    1.650622    1.309595
     15          1           0        1.873095    1.636363    1.272320
 ---------------------------------------------------------------------

 SCF Done:  E(RHF) =  -1014.07645208     A.U. after    2 cycles

 The electronic state is 1-A.
 Alpha  occ. eigenvalues -- -105.57505 -93.99654 -11.29894 -11.24997 -11.23904
 Alpha  occ. eigenvalues --  -11.23886 -10.62198  -8.27342  -7.79136  -7.78716
 Alpha  occ. eigenvalues --   -7.78678  -6.25168  -6.24870  -6.24629  -1.14919
 Alpha  occ. eigenvalues --   -1.07526  -0.96038  -0.95326  -0.91873  -0.75371
 Alpha  occ. eigenvalues --   -0.64382  -0.63197  -0.62845  -0.57483  -0.56832
 Alpha  occ. eigenvalues --   -0.54035  -0.52641  -0.51056  -0.50134  -0.49492
 Alpha  occ. eigenvalues --   -0.49405  -0.42824  -0.36250
 Alpha virt. eigenvalues --    0.03259   0.03871   0.04087   0.05060   0.06445
 Alpha virt. eigenvalues --    0.06467   0.06619   0.07559   0.08220   0.09071
 Alpha virt. eigenvalues --    0.09653   0.12274   0.13600   0.14101   0.14495

 Mulliken charges:
               1
     1  Cl  -0.354066
     2  S    0.273274
     3  C   -1.629618
     4  C    0.129142
     5  H    0.173212
     6  H    0.230497
     7  H    0.173209
     8  C   -0.080615
     9  H    0.216023
    10  H    0.181723
    11  H    0.185049
    12  C   -0.080623
    13  H    0.185045
    14  H    0.181724
    15  H    0.216024
 Sum of Mulliken charges =  -0.00000

 Dipole moment (field-independent basis, Debye):
    X=              2.8910    Y=              0.6720    Z=              0.0000  Tot=              2.9681

 Test job not archived.
 1\1\GINC-SE402\SP\RHF\Aug-CC-pVDZ\C4H9Cl1S1\OHZDE\09-Apr-2025\0\\#t hf
  aug-cc-pvdz iop(5/13=1,5/36=2,99/5=2) pseudo=read geom=check guess=(r
 ead,tcheck) scf=(maxcycle=1)\\title\\0,1\Cl,0,2.124126,0.26456,0.00004
 5\S,0,0.484808,-1.021376,-0.000023\C,0,-0.972169,0.13995,-0.000014\C,0
 ,-2.153993,-0.848018,-0.000012\H,0,-2.15059,-1.484432,-0.888467\H,0,-3
 .087791,-0.278061,-0.000006\H,0,-2.150582,-1.484439,0.888437\C,0,-0.98
 1483,1.000385,1.266466\H,0,-1.873084,1.636354,1.27231\H,0,-0.105751,1.
 650613,1.30957\H,0,-0.992781,0.380598,2.165113\C,0,-0.981494,1.000394,

 Normal termination of Gaussian 16 at Wed Apr  9 00:17:06 2025.
