 Gaussian 16, Revision C.01,

 ----------------------------------------------------------------------
 #t hf aug-cc-pvdz symm=none int=(grid=ultrafine) guess=(read,tcheck) s
 table=(opt,rrhf)
 ----------------------------------------------------------------------
 -----
 title
 -----
 Symbolic Z-matrix:
 Charge =  0 Multiplicity = 1

 SCF Done:  E(RHF) =  -1080.31713254     A.U. after   16 cycles
 Normal termination of Gaussian 16 at Tue Apr  8 23:31:55 2025.
 Gaussian 16:  ES64L-G16RevC.01  3-Jul-2019

 ----------------------------------------------------------------------
 #t hf aug-cc-pvdz iop(5/13=1,5/36=2,99/5=2) pseudo=read geom=check gue
 ss=(read,tcheck) scf=(maxcycle=1)
 ----------------------------------------------------------------------
 -----
 title
 -----
 Structure from the checkpoint file:  "BDE49_nonexpt_1372_mol1.chk"
 Charge =  0 Multiplicity = 1

                         Standard orientation:
 ---------------------------------------------------------------------
 Center     Atomic      Atomic             Coordinates (Angstroms)
 Number     Number       Type             X           Y           Z
 ---------------------------------------------------------------------
      1          9           0        3.230211    0.416192   -0.001203
      2         15           0        1.816166    0.232255   -0.835941
      3          6           0        0.802031   -0.084934    0.729030
      4          7           0        1.107299   -1.369607    1.343312
      5          1           0        2.106470   -1.537332    1.313528
      6          1           0        0.820051   -1.387595    2.317413
      7          6           0       -0.694330   -0.038406    0.484798
      8          9           0       -1.398614   -0.279697    1.602001
      9          7           0       -1.181933    1.352315   -0.022640
     10          8           0       -1.964003    1.370913   -0.946717
     11          8           0       -0.755616    2.296277    0.611480
     12          7           0       -1.128719   -1.063301   -0.581383
     13          8           0       -2.079016   -1.761008   -0.346163
     14          8           0       -0.439445   -1.048749   -1.590486
     15          1           0        2.009881   -1.135784   -1.134996
     16          1           0        1.018643    0.793162    1.353088
 ---------------------------------------------------------------------

 SCF Done:  E(RHF) =  -1081.05693144     A.U. after    2 cycles

 The electronic state is 1-A.
 Alpha  occ. eigenvalues --  -84.37505 -26.56128 -26.47708 -20.64990 -20.64753
 Alpha  occ. eigenvalues --  -20.64316 -20.63709 -15.84446 -15.84164 -15.54498
 Alpha  occ. eigenvalues --  -11.51141 -11.34336  -6.83708  -4.36555  -4.35978
 Alpha  occ. eigenvalues --   -4.35334  -1.73944  -1.72257  -1.69432  -1.58576
 Alpha  occ. eigenvalues --   -1.57046  -1.56797  -1.25972  -1.19140  -1.05612
 Alpha  occ. eigenvalues --   -1.02108  -0.90855  -0.89048  -0.87608  -0.84444
 Alpha  occ. eigenvalues --   -0.80099  -0.79607  -0.78959  -0.78063  -0.75693
 Alpha  occ. eigenvalues --   -0.73097  -0.72108  -0.70755  -0.67618  -0.66796
 Alpha  occ. eigenvalues --   -0.65229  -0.63599  -0.55879  -0.54277  -0.54090
 Alpha  occ. eigenvalues --   -0.52532  -0.52033  -0.50375  -0.48971  -0.48808
 Alpha  occ. eigenvalues --   -0.39439
 Alpha virt. eigenvalues --    0.01259   0.02019   0.02983   0.04660   0.05207
 Alpha virt. eigenvalues --    0.05685   0.07552   0.08590   0.09587   0.09702
 Alpha virt. eigenvalues --    0.11274   0.12280   0.12920   0.13854   0.14333

 Mulliken charges:
               1
     1  F   -0.840912
     2  P    0.874596
     3  C   -1.288850
     4  N    0.405870
     5  H    0.093518
     6  H    0.218949
     7  C    0.848538
     8  F   -1.037847
     9  N    3.016446
    10  O   -1.404702
    11  O   -1.526182
    12  N    2.908644
    13  O   -1.343784
    14  O   -1.463677
    15  H    0.352057
    16  H    0.187335
 Sum of Mulliken charges =  -0.00000

 Dipole moment (field-independent basis, Debye):
    X=              2.1138    Y=             -0.7420    Z=              2.3108  Tot=              3.2185

 Test job not archived.
 1\1\GINC-SE453\SP\RHF\Aug-CC-pVDZ\C2H4F2N3O4P1\OHZDE\08-Apr-2025\0\\#t
  hf aug-cc-pvdz iop(5/13=1,5/36=2,99/5=2) pseudo=read geom=check guess
 =(read,tcheck) scf=(maxcycle=1)\\title\\0,1\F,0,3.230211,0.416193,-0.0
 01203\P,0,1.816166,0.232255,-0.835941\C,0,0.802031,-0.084934,0.72903\N
 ,0,1.107299,-1.369607,1.343312\H,0,2.10647,-1.537331,1.313528\H,0,0.82
 0051,-1.387595,2.317413\C,0,-0.69433,-0.038406,0.484798\F,0,-1.398614,
 -0.279697,1.602001\N,0,-1.181933,1.352315,-0.02264\O,0,-1.964003,1.370
 913,-0.946717\O,0,-0.755616,2.296277,0.61148\N,0,-1.128719,-1.063301,-

 Normal termination of Gaussian 16 at Tue Apr  8 23:32:05 2025.
