 Gaussian 16, Revision C.01,

 ----------------------------------------------------------------------
 #t hf aug-cc-pvdz symm=none int=(grid=ultrafine) guess=(read,tcheck) s
 table=(opt,rrhf)
 ----------------------------------------------------------------------
 -----
 title
 -----
 Symbolic Z-matrix:
 Charge =  0 Multiplicity = 1

 SCF Done:  E(RHF) =  -1423.33130702     A.U. after   15 cycles
 Normal termination of Gaussian 16 at Tue Apr  8 23:00:41 2025.
 Gaussian 16:  ES64L-G16RevC.01  3-Jul-2019

 ----------------------------------------------------------------------
 #t hf aug-cc-pvdz iop(5/13=1,5/36=2,99/5=2) pseudo=read geom=check gue
 ss=(read,tcheck) scf=(maxcycle=1)
 ----------------------------------------------------------------------
 -----
 title
 -----
 Structure from the checkpoint file:  "BDE49_expt_1965_mol1.chk"
 Charge =  0 Multiplicity = 1

                         Standard orientation:
 ---------------------------------------------------------------------
 Center     Atomic      Atomic             Coordinates (Angstroms)
 Number     Number       Type             X           Y           Z
 ---------------------------------------------------------------------
      1         16           0        0.648294   -1.090097    1.008199
      2         16           0        2.024220   -0.701595   -0.528097
      3         16           0        2.732617    1.259459   -0.290997
      4          1           0        1.798960    1.881922   -1.037694
      5          6           0       -0.885954   -0.396347    0.398415
      6          6           0       -1.333309    0.824033    0.914801
      7          6           0       -2.547221    1.355836    0.484092
      8          6           0       -3.312158    0.675731   -0.460752
      9          6           0       -2.866592   -0.542542   -0.974201
     10          6           0       -1.658985   -1.082864   -0.544193
     11          1           0       -1.311296   -2.032450   -0.932224
     12          1           0       -4.256148    1.091113   -0.794652
     13          1           0       -3.463956   -1.075400   -1.705235
     14          1           0       -0.731590    1.346112    1.648785
     15          1           0       -2.892753    2.301348    0.886356
 ---------------------------------------------------------------------

 SCF Done:  E(RHF) =  -1423.74879460     A.U. after    2 cycles

 The electronic state is 1-A.
 Alpha  occ. eigenvalues --  -94.00434 -93.98642 -93.98603 -11.28445 -11.26315
 Alpha  occ. eigenvalues --  -11.26282 -11.26171 -11.25818 -11.25804  -8.28158
 Alpha  occ. eigenvalues --   -8.26589  -8.26478  -6.25910  -6.25702  -6.25438
 Alpha  occ. eigenvalues --   -6.24402  -6.24272  -6.24233  -6.24081  -6.23988
 Alpha  occ. eigenvalues --   -6.23856  -1.17996  -1.12014  -1.05894  -1.03474
 Alpha  occ. eigenvalues --   -0.98710  -0.88085  -0.85337  -0.81396  -0.72197
 Alpha  occ. eigenvalues --   -0.66306  -0.65322  -0.61732  -0.60073  -0.58613
 Alpha  occ. eigenvalues --   -0.54460  -0.52792  -0.52436  -0.49825  -0.48715
 Alpha  occ. eigenvalues --   -0.40282  -0.38774  -0.37388  -0.36174  -0.35139
 Alpha virt. eigenvalues --    0.03037   0.03417   0.04199   0.04609   0.05218
 Alpha virt. eigenvalues --    0.05918   0.06252   0.07663   0.08784   0.09026
 Alpha virt. eigenvalues --    0.09443   0.11064   0.11894   0.12238   0.12635

 Mulliken charges:
               1
     1  S   -0.147933
     2  S   -0.067356
     3  S   -0.357948
     4  H    0.404885
     5  C    1.234844
     6  C   -0.443323
     7  C    0.458523
     8  C   -0.077627
     9  C    0.507893
    10  C   -0.491756
    11  H   -0.182070
    12  H   -0.201796
    13  H   -0.209416
    14  H   -0.216246
    15  H   -0.210674
 Sum of Mulliken charges =  -0.00000

 Dipole moment (field-independent basis, Debye):
    X=             -2.7417    Y=              1.3979    Z=             -0.9254  Tot=              3.2137

 Test job not archived.
 1\1\GINC-SE247\SP\RHF\Aug-CC-pVDZ\C6H6S3\OHZDE\08-Apr-2025\0\\#t hf au
 g-cc-pvdz iop(5/13=1,5/36=2,99/5=2) pseudo=read geom=check guess=(read
 ,tcheck) scf=(maxcycle=1)\\title\\0,1\S,0,0.648294,-1.090097,1.008199\
 S,0,2.02422,-0.701595,-0.528097\S,0,2.732617,1.259459,-0.290997\H,0,1.
 79896,1.881922,-1.037694\C,0,-0.885954,-0.396347,0.398415\C,0,-1.33330
 9,0.824033,0.914801\C,0,-2.547221,1.355836,0.484092\C,0,-3.312158,0.67
 5731,-0.460752\C,0,-2.866592,-0.542542,-0.974201\C,0,-1.658985,-1.0828
 64,-0.544193\H,0,-1.311296,-2.03245,-0.932224\H,0,-4.256148,1.091113,-

 Normal termination of Gaussian 16 at Tue Apr  8 23:00:49 2025.
