 Gaussian 16, Revision C.01,

 ----------------------------------------------------------------------
 #t hf aug-cc-pvdz symm=none int=(grid=ultrafine) guess=(read,tcheck) s
 table=(opt,rrhf)
 ----------------------------------------------------------------------
 -----
 title
 -----
 Symbolic Z-matrix:
 Charge =  0 Multiplicity = 1

 SCF Done:  E(RHF) =  -1428.93333755     A.U. after   15 cycles
 Normal termination of Gaussian 16 at Tue Apr  8 23:55:00 2025.
 Gaussian 16:  ES64L-G16RevC.01  3-Jul-2019

 ----------------------------------------------------------------------
 #t hf aug-cc-pvdz iop(5/13=1,5/36=2,99/5=2) pseudo=read geom=check gue
 ss=(read,tcheck) scf=(maxcycle=1)
 ----------------------------------------------------------------------
 -----
 title
 -----
 Structure from the checkpoint file:  "BDE49_nonexpt_1945_mol1.chk"
 Charge =  0 Multiplicity = 1

                         Standard orientation:
 ---------------------------------------------------------------------
 Center     Atomic      Atomic             Coordinates (Angstroms)
 Number     Number       Type             X           Y           Z
 ---------------------------------------------------------------------
      1          6           0       -1.198547    1.595951    0.611703
      2         14           0        0.515537    1.858963   -0.155978
      3          6           0        1.622298    0.379969    0.388842
      4          1           0        1.124880    3.065937    0.443431
      5          1           0        0.455114    1.972963   -1.626423
      6          8           0        1.655602    0.055635    1.555006
      7         16           0        2.580747   -0.426588   -0.901570
      8          6           0        3.481828   -1.679865    0.067237
      9          1           0        3.225720   -2.672052   -0.301027
     10          1           0        3.166441   -1.568710    1.105951
     11          1           0        4.553056   -1.507567   -0.024648
     12          6           0       -2.027292    0.577389   -0.132714
     13          8           0       -2.554162    0.797818   -1.194918
     14         16           0       -2.118424   -1.012626    0.712630
     15          6           0       -3.096844   -1.967765   -0.489071
     16          1           0       -3.997444   -2.340543   -0.003535
     17          1           0       -2.501987   -2.797734   -0.867762
     18          1           0       -3.358316   -1.287742   -1.300748
     19          1           0       -1.726719    2.552934    0.564463
     20          1           0       -1.055603    1.322746    1.660347
 ---------------------------------------------------------------------

 SCF Done:  E(RHF) =  -1429.43247609     A.U. after    2 cycles

 The electronic state is 1-A.
 Alpha  occ. eigenvalues --  -93.96797 -93.96553 -69.56092 -20.56092 -20.55022
 Alpha  occ. eigenvalues --  -11.38168 -11.36546 -11.27192 -11.26853 -11.25765
 Alpha  occ. eigenvalues --   -8.25017  -8.24747  -6.23142  -6.22823  -6.22645
 Alpha  occ. eigenvalues --   -6.22557  -6.22479  -6.22383  -6.22203  -3.98514
 Alpha  occ. eigenvalues --   -3.98485  -3.98474  -1.49304  -1.49253  -1.09530
 Alpha  occ. eigenvalues --   -1.08817  -1.03080  -0.93483  -0.90657  -0.80944
 Alpha  occ. eigenvalues --   -0.75088  -0.71283  -0.67303  -0.65634  -0.65227
 Alpha  occ. eigenvalues --   -0.62093  -0.61180  -0.60756  -0.59743  -0.57972
 Alpha  occ. eigenvalues --   -0.56658  -0.55646  -0.54191  -0.50655  -0.49119
 Alpha  occ. eigenvalues --   -0.47914  -0.47228  -0.41161  -0.39183  -0.37928
 Alpha  occ. eigenvalues --   -0.37742
 Alpha virt. eigenvalues --    0.03370   0.03494   0.03961   0.04482   0.05003
 Alpha virt. eigenvalues --    0.05474   0.06340   0.06655   0.06839   0.07558
 Alpha virt. eigenvalues --    0.08161   0.08701   0.09442   0.10372   0.10544

 Mulliken charges:
               1
     1  C   -0.749409
     2  Si   1.270471
     3  C    0.388198
     4  H   -0.180596
     5  H   -0.114697
     6  O   -1.145067
     7  S    0.382207
     8  C   -0.688002
     9  H    0.235916
    10  H    0.147418
    11  H    0.221766
    12  C    1.194868
    13  O   -1.404621
    14  S    0.333343
    15  C   -0.765118
    16  H    0.233295
    17  H    0.223649
    18  H    0.148425
    19  H    0.108190
    20  H    0.159762
 Sum of Mulliken charges =  -0.00000

 Dipole moment (field-independent basis, Debye):
    X=              0.6010    Y=             -0.6816    Z=              0.1531  Tot=              0.9215

 Test job not archived.
 1\1\GINC-SE361\SP\RHF\Aug-CC-pVDZ\C5H10O2S2Si1\OHZDE\08-Apr-2025\0\\#t
  hf aug-cc-pvdz iop(5/13=1,5/36=2,99/5=2) pseudo=read geom=check guess
 =(read,tcheck) scf=(maxcycle=1)\\title\\0,1\C,0,-1.198547,1.595951,0.6
 11703\Si,0,0.515537,1.858963,-0.155978\C,0,1.622298,0.379969,0.388842\
 H,0,1.12488,3.065937,0.443431\H,0,0.455114,1.972963,-1.626423\O,0,1.65
 5602,0.055635,1.555006\S,0,2.580747,-0.426588,-0.90157\C,0,3.481828,-1
 .679865,0.067237\H,0,3.22572,-2.672052,-0.301027\H,0,3.166441,-1.56871
 ,1.105951\H,0,4.553056,-1.507568,-0.024648\C,0,-2.027292,0.577389,-0.1

 Normal termination of Gaussian 16 at Tue Apr  8 23:55:12 2025.
