 Gaussian 16, Revision C.01,

 ----------------------------------------------------------------------
 #t hf aug-cc-pvdz symm=none int=(grid=ultrafine) guess=(read,tcheck) s
 table=(opt,rrhf)
 ----------------------------------------------------------------------
 -----
 title
 -----
 Symbolic Z-matrix:
 Charge =  0 Multiplicity = 1

 SCF Done:  E(RHF) =  -737.317352944     A.U. after   15 cycles
 Normal termination of Gaussian 16 at Tue Apr  8 23:52:32 2025.
 Gaussian 16:  ES64L-G16RevC.01  3-Jul-2019

 ----------------------------------------------------------------------
 #t hf aug-cc-pvdz iop(5/13=1,5/36=2,99/5=2) pseudo=read geom=check gue
 ss=(read,tcheck) scf=(maxcycle=1)
 ----------------------------------------------------------------------
 -----
 title
 -----
 Structure from the checkpoint file:  "BDE49_nonexpt_1920_mol1.chk"
 Charge =  0 Multiplicity = 1

                         Standard orientation:
 ---------------------------------------------------------------------
 Center     Atomic      Atomic             Coordinates (Angstroms)
 Number     Number       Type             X           Y           Z
 ---------------------------------------------------------------------
      1          6           0        0.792465    0.738030    0.000079
      2         14           0       -0.436316   -0.703679    0.000115
      3          7           0       -2.097269    0.168518    0.000254
      4          8           0       -2.121832    1.399661   -0.000179
      5          1           0       -0.462478   -1.481114    1.242421
      6          1           0       -0.462619   -1.481058   -1.242226
      7          8           0       -3.089752   -0.550993   -0.000216
      8          7           0        2.149353    0.093013   -0.000013
      9          8           0        3.149404    0.770224   -0.000071
     10          8           0        2.117989   -1.144734   -0.000054
     11          1           0        0.733885    1.380730    0.879249
     12          1           0        0.733785    1.380771   -0.879054
 ---------------------------------------------------------------------

 SCF Done:  E(RHF) =  -737.776681129     A.U. after    2 cycles

 The electronic state is 1-A.
 Alpha  occ. eigenvalues --  -69.62420 -20.63550 -20.62711 -20.60423 -20.60340
 Alpha  occ. eigenvalues --  -15.82406 -15.76575 -11.33740  -6.29150  -4.04573
 Alpha  occ. eigenvalues --   -4.04419  -4.04382  -1.70846  -1.66611  -1.54740
 Alpha  occ. eigenvalues --   -1.50883  -1.15422  -1.01303  -0.92489  -0.83482
 Alpha  occ. eigenvalues --   -0.80511  -0.79353  -0.78683  -0.75043  -0.73750
 Alpha  occ. eigenvalues --   -0.71969  -0.64070  -0.57669  -0.55455  -0.53272
 Alpha  occ. eigenvalues --   -0.52223  -0.49715  -0.48769  -0.47589  -0.45826
 Alpha virt. eigenvalues --    0.02474   0.02826   0.03952   0.04369   0.05234
 Alpha virt. eigenvalues --    0.05494   0.06174   0.06703   0.09846   0.10736
 Alpha virt. eigenvalues --    0.11648   0.12171   0.13559   0.14240   0.14728

 Mulliken charges:
               1
     1  C   -0.569778
     2  Si   1.199568
     3  N    1.775403
     4  O   -1.123969
     5  H   -0.069791
     6  H   -0.069784
     7  O   -1.270572
     8  N    2.524504
     9  O   -1.364256
    10  O   -1.294239
    11  H    0.131476
    12  H    0.131437
 Sum of Mulliken charges =  -0.00000

 Dipole moment (field-independent basis, Debye):
    X=              1.3994    Y=             -0.0353    Z=              0.0008  Tot=              1.3998

 Test job not archived.
 1\1\GINC-SE332\SP\RHF\Aug-CC-pVDZ\C1H4N2O4Si1\OHZDE\08-Apr-2025\0\\#t
 hf aug-cc-pvdz iop(5/13=1,5/36=2,99/5=2) pseudo=read geom=check guess=
 (read,tcheck) scf=(maxcycle=1)\\title\\0,1\C,0,-0.792465,0.73803,-0.00
 0079\Si,0,0.436316,-0.703679,-0.000115\N,0,2.097269,0.168518,-0.000254
 \O,0,2.121832,1.399661,0.000179\H,0,0.462478,-1.481114,-1.242421\H,0,0
 .462619,-1.481058,1.242226\O,0,3.089752,-0.550993,0.000216\N,0,-2.1493
 53,0.093013,0.000013\O,0,-3.149404,0.770224,0.000071\O,0,-2.117989,-1.
 144734,0.000054\H,0,-0.733885,1.38073,-0.879249\H,0,-0.733785,1.380771

 Normal termination of Gaussian 16 at Tue Apr  8 23:52:37 2025.
