 Gaussian 16, Revision C.01,

 ----------------------------------------------------------------------
 #t hf aug-cc-pvdz symm=none int=(grid=ultrafine) guess=(read,tcheck) s
 table=(opt,rrhf)
 ----------------------------------------------------------------------
 -----
 title
 -----
 Symbolic Z-matrix:
 Charge =  0 Multiplicity = 1

 SCF Done:  E(RHF) =  -175.654021963     A.U. after   11 cycles
 Normal termination of Gaussian 16 at Wed Apr  9 00:37:22 2025.
 Gaussian 16:  ES64L-G16RevC.01  3-Jul-2019

 ----------------------------------------------------------------------
 #t hf aug-cc-pvdz iop(5/13=1,5/36=2,99/5=2) pseudo=read geom=check gue
 ss=(read,tcheck) scf=(maxcycle=1)
 ----------------------------------------------------------------------
 -----
 title
 -----
 Structure from the checkpoint file:  "BDE49_nonexpt_563_mol1.chk"
 Charge =  0 Multiplicity = 1

                         Standard orientation:
 ---------------------------------------------------------------------
 Center     Atomic      Atomic             Coordinates (Angstroms)
 Number     Number       Type             X           Y           Z
 ---------------------------------------------------------------------
      1          5           0        0.055952   -0.000000   -0.010083
      2          7           0        0.760122   -1.232908   -0.002656
      3          7           0        0.760121    1.232910   -0.002656
      4          6           0       -1.533332   -0.000001    0.000752
      5          1           0       -1.955629   -0.881705   -0.491842
      6          1           0       -1.955630    0.881688   -0.491868
      7          1           0       -1.912314    0.000014    1.029868
      8          1           0        1.763800   -1.310880    0.024739
      9          1           0        0.287254   -2.120006   -0.006277
     10          1           0        1.763798    1.310883    0.024739
     11          1           0        0.287249    2.120006   -0.006277
 ---------------------------------------------------------------------

 SCF Done:  E(RHF) =  -175.844675594     A.U. after    2 cycles

 The electronic state is 1-A.
 Alpha  occ. eigenvalues --  -15.46719 -15.46692 -11.19004  -7.57376  -1.16126
 Alpha  occ. eigenvalues --   -1.11942  -0.93197  -0.73936  -0.70011  -0.69091
 Alpha  occ. eigenvalues --   -0.62458  -0.54796  -0.52583  -0.47939  -0.47837
 Alpha  occ. eigenvalues --   -0.41876
 Alpha virt. eigenvalues --    0.03153   0.04827   0.05294   0.05576   0.06372
 Alpha virt. eigenvalues --    0.06403   0.07999   0.09108   0.09656   0.10582
 Alpha virt. eigenvalues --    0.11059   0.15651   0.15895   0.17195   0.18224

 Mulliken charges:
               1
     1  B    0.287123
     2  N    0.119385
     3  N    0.119385
     4  C   -0.375397
     5  H   -0.036726
     6  H   -0.036720
     7  H    0.120625
     8  H   -0.054659
     9  H   -0.044180
    10  H   -0.054660
    11  H   -0.044178
 Sum of Mulliken charges =  -0.00000

 Dipole moment (field-independent basis, Debye):
    X=              0.8475    Y=             -0.0000    Z=              0.0873  Tot=              0.8520

 Test job not archived.
 1\1\GINC-SE253\SP\RHF\Aug-CC-pVDZ\C1H7B1N2\OHZDE\09-Apr-2025\0\\#t hf
 aug-cc-pvdz iop(5/13=1,5/36=2,99/5=2) pseudo=read geom=check guess=(re
 ad,tcheck) scf=(maxcycle=1)\\title\\0,1\B,0,0.055952,0.,-0.010083\N,0,
 0.760123,-1.232908,-0.002656\N,0,0.76012,1.23291,-0.002656\C,0,-1.5333
 32,-0.000002,0.000752\H,0,-1.955629,-0.881706,-0.491842\H,0,-1.955631,
 0.881687,-0.491868\H,0,-1.912314,0.000013,1.029868\H,0,1.763801,-1.310
 879,0.024739\H,0,0.287255,-2.120006,-0.006277\H,0,1.763797,1.310884,0.
 024739\H,0,0.287248,2.120006,-0.006277\\Version=ES64L-G16RevC.01\State

 Normal termination of Gaussian 16 at Wed Apr  9 00:37:25 2025.
