 Gaussian 16, Revision C.01,

 ----------------------------------------------------------------------
 #t hf aug-cc-pvdz symm=none int=(grid=ultrafine) guess=(read,tcheck) s
 table=(opt,rrhf)
 ----------------------------------------------------------------------
 -----
 title
 -----
 Symbolic Z-matrix:
 Charge =  0 Multiplicity = 1

 SCF Done:  E(RHF) =  -546.057289691     A.U. after   15 cycles
 Normal termination of Gaussian 16 at Wed Apr  9 00:46:49 2025.
 Gaussian 16:  ES64L-G16RevC.01  3-Jul-2019

 ----------------------------------------------------------------------
 #t hf aug-cc-pvdz iop(5/13=1,5/36=2,99/5=2) pseudo=read geom=check gue
 ss=(read,tcheck) scf=(maxcycle=1)
 ----------------------------------------------------------------------
 -----
 title
 -----
 Structure from the checkpoint file:  "BDE49_nonexpt_802_mol1.chk"
 Charge =  0 Multiplicity = 1

                         Standard orientation:
 ---------------------------------------------------------------------
 Center     Atomic      Atomic             Coordinates (Angstroms)
 Number     Number       Type             X           Y           Z
 ---------------------------------------------------------------------
      1          6           0       -1.924244   -1.205430    0.108418
      2          6           0       -0.552491   -1.204087   -0.133298
      3          6           0        0.158867   -0.000066   -0.264159
      4          6           0       -2.612639    0.000076    0.229954
      5          6           0       -1.924162    1.205512    0.108180
      6          6           0       -0.552410    1.204029   -0.133534
      7          1           0       -2.455991   -2.146331    0.198798
      8          1           0       -0.033337   -2.152327   -0.231606
      9          1           0       -0.033193    2.152216   -0.232026
     10          1           0       -3.680847    0.000131    0.416320
     11          1           0       -2.455846    2.146467    0.198376
     12          5           0        2.788788    0.000318    1.320520
     13         14           0        2.029528   -0.000155   -0.543683
     14          1           0        2.397725   -1.205862   -1.328321
     15          1           0        2.397772    1.205141   -1.328932
     16          1           0        2.974492   -1.018506    1.911736
     17          1           0        2.974363    1.019449    1.911250
 ---------------------------------------------------------------------

 SCF Done:  E(RHF) =  -546.356462169     A.U. after    2 cycles

 The electronic state is 1-A.
 Alpha  occ. eigenvalues --  -69.51417 -11.24885 -11.24881 -11.24826 -11.24565
 Alpha  occ. eigenvalues --  -11.24551 -11.23563  -7.60518  -6.18669  -3.94035
 Alpha  occ. eigenvalues --   -3.94015  -3.93975  -1.15402  -1.01872  -1.01766
 Alpha  occ. eigenvalues --   -0.83834  -0.83486  -0.76420  -0.71084  -0.66303
 Alpha  occ. eigenvalues --   -0.64244  -0.63502  -0.60180  -0.56100  -0.51694
 Alpha  occ. eigenvalues --   -0.51530  -0.50590  -0.46724  -0.46441  -0.42423
 Alpha  occ. eigenvalues --   -0.34884  -0.34184
 Alpha virt. eigenvalues --    0.02578   0.03421   0.03438   0.04000   0.04037
 Alpha virt. eigenvalues --    0.04798   0.05860   0.06606   0.07215   0.07739
 Alpha virt. eigenvalues --    0.07926   0.09025   0.09977   0.10262   0.10823

 Mulliken charges:
               1
     1  C    0.504804
     2  C    0.238099
     3  C   -0.486029
     4  C    0.165987
     5  C    0.504800
     6  C    0.238245
     7  H   -0.216075
     8  H   -0.302079
     9  H   -0.302072
    10  H   -0.207565
    11  H   -0.216075
    12  B   -0.961998
    13  Si   0.490554
    14  H   -0.119399
    15  H   -0.119364
    16  H    0.394096
    17  H    0.394071
 Sum of Mulliken charges =  -0.00000

 Dipole moment (field-independent basis, Debye):
    X=             -0.4515    Y=              0.0001    Z=              0.2832  Tot=              0.5330

 Test job not archived.
 1\1\GINC-SE179\SP\RHF\Aug-CC-pVDZ\C6H9B1Si1\OHZDE\09-Apr-2025\0\\#t hf
  aug-cc-pvdz iop(5/13=1,5/36=2,99/5=2) pseudo=read geom=check guess=(r
 ead,tcheck) scf=(maxcycle=1)\\title\\0,1\C,0,-1.924244,-1.20543,0.1084
 18\C,0,-0.552491,-1.204087,-0.133298\C,0,0.158867,-0.000066,-0.264159\
 C,0,-2.612639,0.000076,0.229954\C,0,-1.924162,1.205512,0.10818\C,0,-0.
 55241,1.204029,-0.133534\H,0,-2.455991,-2.146331,0.198798\H,0,-0.03333
 7,-2.152327,-0.231606\H,0,-0.033193,2.152216,-0.232026\H,0,-3.680847,0
 .000131,0.41632\H,0,-2.455846,2.146467,0.198376\B,0,2.788788,0.000318,

 Normal termination of Gaussian 16 at Wed Apr  9 00:46:57 2025.
