 Gaussian 16, Revision C.01,

 ----------------------------------------------------------------------
 #t hf aug-cc-pvdz symm=none int=(grid=ultrafine) guess=(read,tcheck) s
 table=(opt,rrhf)
 ----------------------------------------------------------------------
 -----
 title
 -----
 Symbolic Z-matrix:
 Charge =  0 Multiplicity = 1

 SCF Done:  E(RHF) =  -2112.62822373     A.U. after   13 cycles

 1\1\GINC-SE362\Stability\RHF\Aug-CC-pVDZ\C2Cl4F2\OHZDE\08-Apr-2025\0\\
 #t hf aug-cc-pvdz symm=none int=(grid=ultrafine) guess=(read,tcheck) s
 table=(opt,rrhf)\\title\\0,1\C,0,0.560351,-0.132981,-0.000004\C,0,-0.8
 19821,0.624933,-0.000005\Cl,0,0.693086,-1.140334,1.46462\Cl,0,1.859757
 ,1.098426,0.000022\Cl,0,0.693112,-1.140298,-1.464649\F,0,-0.887666,1.4
 08347,1.084963\Cl,0,-2.214485,-0.482594,0.00003\F,0,-0.887687,1.408307
 ,-1.085\\Version=ES64L-G16RevC.01\HF=-2112.6282237\RMSD=2.290e-09\Dipo
 le=0.0700734,-0.2625161,0.0000029\Quadrupole=0.4269131,-0.210586,-0.21

 Normal termination of Gaussian 16 at Tue Apr  8 22:29:27 2025.
 Gaussian 16:  ES64L-G16RevC.01  3-Jul-2019

 ----------------------------------------------------------------------
 #t hf aug-cc-pvdz iop(5/13=1,5/36=2,99/5=2) pseudo=read geom=check gue
 ss=(read,tcheck) scf=(maxcycle=1)
 ----------------------------------------------------------------------
 -----
 title
 -----
 Structure from the checkpoint file:  "BDE49_expt_1012_mol1.chk"
 Charge =  0 Multiplicity = 1

                         Standard orientation:
 ---------------------------------------------------------------------
 Center     Atomic      Atomic             Coordinates (Angstroms)
 Number     Number       Type             X           Y           Z
 ---------------------------------------------------------------------
      1          6           0       -0.560351   -0.132981    0.000004
      2          6           0        0.819821    0.624933    0.000005
      3         17           0       -0.693086   -1.140334   -1.464620
      4         17           0       -1.859757    1.098426   -0.000022
      5         17           0       -0.693112   -1.140298    1.464649
      6          9           0        0.887666    1.408347   -1.084963
      7         17           0        2.214485   -0.482594   -0.000030
      8          9           0        0.887687    1.408307    1.085000
 ---------------------------------------------------------------------

 SCF Done:  E(RHF) =  -2113.17989128     A.U. after    2 cycles

 The electronic state is 1-A.
 Alpha  occ. eigenvalues -- -105.61558-105.61557-105.61349-105.61108 -26.53291
 Alpha  occ. eigenvalues --  -26.53288 -11.53814 -11.48147 -10.66388 -10.66379
 Alpha  occ. eigenvalues --  -10.66168 -10.65994  -7.83340  -7.83333  -7.83118
 Alpha  occ. eigenvalues --   -7.82944  -7.82887  -7.82885  -7.82879  -7.82876
 Alpha  occ. eigenvalues --   -7.82670  -7.82659  -7.82506  -7.82497  -1.71394
 Alpha  occ. eigenvalues --   -1.63946  -1.24619  -1.13961  -1.09139  -1.08716
 Alpha  occ. eigenvalues --   -0.98325  -0.87330  -0.81193  -0.78225  -0.77142
 Alpha  occ. eigenvalues --   -0.70210  -0.67688  -0.66053  -0.64192  -0.64065
 Alpha  occ. eigenvalues --   -0.58650  -0.53839  -0.53022  -0.51880  -0.50837
 Alpha  occ. eigenvalues --   -0.49913  -0.48736  -0.48208  -0.47439
 Alpha virt. eigenvalues --    0.05707   0.07062   0.07953   0.08025   0.09213
 Alpha virt. eigenvalues --    0.09782   0.11165   0.11428   0.12817   0.13497
 Alpha virt. eigenvalues --    0.14636   0.14642   0.16446   0.17176   0.18034

 Mulliken charges:
               1
     1  C   -0.962550
     2  C    1.967243
     3  Cl   0.128400
     4  Cl   0.160992
     5  Cl   0.128400
     6  F   -0.681636
     7  Cl  -0.059213
     8  F   -0.681636
 Sum of Mulliken charges =  -0.00000

 Dipole moment (field-independent basis, Debye):
    X=             -0.1669    Y=             -0.4542    Z=             -0.0000  Tot=              0.4839

 Test job not archived.
 1\1\GINC-SE362\SP\RHF\Aug-CC-pVDZ\C2Cl4F2\OHZDE\08-Apr-2025\0\\#t hf a
 ug-cc-pvdz iop(5/13=1,5/36=2,99/5=2) pseudo=read geom=check guess=(rea
 d,tcheck) scf=(maxcycle=1)\\title\\0,1\C,0,0.560351,-0.132981,-0.00000
 4\C,0,-0.819821,0.624933,-0.000005\Cl,0,0.693086,-1.140334,1.46462\Cl,
 0,1.859757,1.098426,0.000022\Cl,0,0.693112,-1.140298,-1.464649\F,0,-0.
 887666,1.408347,1.084963\Cl,0,-2.214485,-0.482594,0.00003\F,0,-0.88768
 7,1.408307,-1.085\\Version=ES64L-G16RevC.01\State=1-A\HF=-2113.1798913
 \RMSD=5.225e-03\Dipole=0.0656615,-0.1787131,0.0000015\Quadrupole=0.256

 Normal termination of Gaussian 16 at Tue Apr  8 22:29:31 2025.
