 Gaussian 16, Revision C.01,

 ----------------------------------------------------------------------
 #t hf aug-cc-pvdz symm=none int=(grid=ultrafine) guess=(read,tcheck) s
 table=opt
 ----------------------------------------------------------------------
 -----
 title
 -----
 Symbolic Z-matrix:
 Charge =  0 Multiplicity = 2

 SCF Done:  E(UHF) =  -150.202434694     A.U. after   18 cycles
 Normal termination of Gaussian 16 at Tue Apr  8 22:42:36 2025.
 Gaussian 16:  ES64L-G16RevC.01  3-Jul-2019

 ----------------------------------------------------------------------
 #t hf aug-cc-pvdz iop(5/13=1,5/36=2,99/5=2) pseudo=read geom=check gue
 ss=(read,tcheck) scf=(maxcycle=1)
 ----------------------------------------------------------------------
 -----
 title
 -----
 Structure from the checkpoint file:  "BDE49_expt_1462_mol3.chk"
 Charge =  0 Multiplicity = 2

                         Standard orientation:
 ---------------------------------------------------------------------
 Center     Atomic      Atomic             Coordinates (Angstroms)
 Number     Number       Type             X           Y           Z
 ---------------------------------------------------------------------
      1          8           0        0.055287    0.718523    0.000000
      2          8           0        0.055287   -0.609668    0.000000
      3          1           0       -0.884585   -0.870837    0.000000
 ---------------------------------------------------------------------

 SCF Done:  E(UHF) =  -150.341793254     A.U. after    2 cycles

 The electronic state is 2-A".
 Alpha  occ. eigenvalues --  -20.67795 -20.66244  -1.69188  -1.26855  -0.76863
 Alpha  occ. eigenvalues --   -0.74708  -0.66824  -0.51380  -0.51375
 Alpha virt. eigenvalues --    0.03870   0.12132   0.16527   0.18312   0.21911
 Alpha virt. eigenvalues --    0.23776   0.23897   0.24035   0.33470   0.34838
 Alpha virt. eigenvalues --    0.38444   0.44065   0.47249   0.61378   0.84899

  Beta  occ. eigenvalues --  -20.65486 -20.63707  -1.63004  -1.16632  -0.74993
  Beta  occ. eigenvalues --   -0.64441  -0.56411  -0.47664
  Beta virt. eigenvalues --    0.03896   0.09994   0.12483   0.16581   0.19940
  Beta virt. eigenvalues --    0.22084   0.23971   0.24199   0.28415   0.33539
  Beta virt. eigenvalues --    0.37372   0.38590   0.44750   0.47739   0.61636

 Mulliken charges and spin densities:
               1          2
     1  O   -0.072040   0.949459
     2  O   -0.401759   0.073068
     3  H    0.473799  -0.022527
 Sum of Mulliken charges =  -0.00000   1.00000

 Dipole moment (field-independent basis, Debye):
    X=             -1.7273    Y=             -0.9384    Z=              0.0000  Tot=              1.9657
                          Isotropic Fermi Contact Couplings
        Atom                 a.u.       MegaHertz       Gauss      10(-4) cm-1
     1  O(17)              0.26483    -160.53612     -57.28328     -53.54908
     2  O(17)              0.07351     -44.56445     -15.90170     -14.86510
     3  H(1)              -0.00498     -22.24268      -7.93674      -7.41936
 --------------------------------------------------------
       Center         ----  Spin Dipole Couplings  ----
                      3XX-RR        3YY-RR        3ZZ-RR
 --------------------------------------------------------
     1   Atom       -1.780806     -1.752359      3.533166

 Normal termination of Gaussian 16 at Tue Apr  8 22:42:37 2025.
