 Gaussian 16, Revision C.01,

 ----------------------------------------------------------------------
 #t hf aug-cc-pvdz symm=none int=(grid=ultrafine) guess=(read,tcheck) s
 table=(opt,rrhf)
 ----------------------------------------------------------------------
 -----
 title
 -----
 Symbolic Z-matrix:
 Charge =  0 Multiplicity = 1

 SCF Done:  E(RHF) =  -743.554712944     A.U. after   13 cycles
 Normal termination of Gaussian 16 at Tue Apr  8 22:47:43 2025.
 Gaussian 16:  ES64L-G16RevC.01  3-Jul-2019

 ----------------------------------------------------------------------
 #t hf aug-cc-pvdz iop(5/13=1,5/36=2,99/5=2) pseudo=read geom=check gue
 ss=(read,tcheck) scf=(maxcycle=1)
 ----------------------------------------------------------------------
 -----
 title
 -----
 Structure from the checkpoint file:  "BDE49_expt_1602_mol1.chk"
 Charge =  0 Multiplicity = 1

                         Standard orientation:
 ---------------------------------------------------------------------
 Center     Atomic      Atomic             Coordinates (Angstroms)
 Number     Number       Type             X           Y           Z
 ---------------------------------------------------------------------
      1         16           0        0.821888   -0.231015    0.000000
      2          6           0        1.632761    1.379271    0.000002
      3          8           0        1.156465   -0.874387   -1.260273
      4          8           0        1.156465   -0.874391    1.260270
      5          1           0        1.371544    1.929068   -0.902091
      6          1           0        2.697983    1.146203    0.000002
      7          1           0        1.371544    1.929065    0.902097
      8          6           0       -1.009039    0.092633    0.000000
      9          6           0       -1.383690    0.861256    1.272518
     10          1           0       -0.975044    1.874757    1.276565
     11          1           0       -1.033516    0.338924    2.163652
     12          6           0       -1.641520   -1.309443   -0.000003
     13          1           0       -2.729977   -1.205616   -0.000003
     14          1           0       -1.345617   -1.873278    0.885809
     15          1           0       -1.345617   -1.873275   -0.885816
     16          6           0       -1.383690    0.861261   -1.272515
     17          1           0       -0.975043    1.874762   -1.276557
     18          1           0       -2.472657    0.948527   -1.329471
     19          1           0       -1.033516    0.338933   -2.163651
     20          1           0       -2.472658    0.948521    1.329475
 ---------------------------------------------------------------------

 SCF Done:  E(RHF) =  -743.983862261     A.U. after    2 cycles

 The electronic state is 1-A.
 Alpha  occ. eigenvalues --  -94.17328 -20.52321 -20.52317 -11.29680 -11.28293
 Alpha  occ. eigenvalues --  -11.25068 -11.25054 -11.24182  -8.42776  -6.40879
 Alpha  occ. eigenvalues --   -6.40648  -6.40576  -1.53968  -1.42206  -1.13642
 Alpha  occ. eigenvalues --   -1.04821  -0.96512  -0.95857  -0.88949  -0.76298
 Alpha  occ. eigenvalues --   -0.69978  -0.66807  -0.65642  -0.63577  -0.63428
 Alpha  occ. eigenvalues --   -0.60653  -0.59838  -0.57213  -0.57053  -0.55753
 Alpha  occ. eigenvalues --   -0.54607  -0.50843  -0.50794  -0.47877  -0.47232
 Alpha  occ. eigenvalues --   -0.44817  -0.41260
 Alpha virt. eigenvalues --    0.02807   0.03194   0.03785   0.04440   0.05737
 Alpha virt. eigenvalues --    0.05818   0.06285   0.07052   0.07471   0.09322
 Alpha virt. eigenvalues --    0.09434   0.09779   0.11725   0.12454   0.13460

 Mulliken charges:
               1
     1  S    3.560620
     2  C   -0.724493
     3  O   -1.650626
     4  O   -1.650626
     5  H    0.260542
     6  H    0.243635
     7  H    0.260542
     8  C   -2.466867
     9  C    0.038313
    10  H    0.139840
    11  H    0.238301
    12  C    0.240073
    13  H    0.188638
    14  H    0.230895
    15  H    0.230892
    16  C    0.038315
    17  H    0.139842
    18  H    0.221930
    19  H    0.238301
    20  H    0.221932
 Sum of Mulliken charges =  -0.00000

 Dipole moment (field-independent basis, Debye):
    X=             -2.7643    Y=              4.1926    Z=              0.0000  Tot=              5.0219

 Test job not archived.
 1\1\GINC-SE458\SP\RHF\Aug-CC-pVDZ\C5H12O2S1\OHZDE\08-Apr-2025\0\\#t hf
  aug-cc-pvdz iop(5/13=1,5/36=2,99/5=2) pseudo=read geom=check guess=(r
 ead,tcheck) scf=(maxcycle=1)\\title\\0,1\S,0,-0.821888,-0.231015,0.\C,
 0,-1.632762,1.379271,-0.000002\O,0,-1.156465,-0.874387,1.260273\O,0,-1
 .156465,-0.874391,-1.26027\H,0,-1.371545,1.929068,0.902091\H,0,-2.6979
 83,1.146202,-0.000002\H,0,-1.371545,1.929065,-0.902097\C,0,1.009039,0.
 092633,0.\C,0,1.38369,0.861256,-1.272518\H,0,0.975043,1.874757,-1.2765
 65\H,0,1.033516,0.338924,-2.163652\C,0,1.64152,-1.309443,0.000003\H,0,

 Normal termination of Gaussian 16 at Tue Apr  8 22:47:53 2025.
