 Gaussian 16, Revision C.01,

 ----------------------------------------------------------------------
 #t hf aug-cc-pvdz symm=none int=(grid=ultrafine) guess=(read,tcheck) s
 table=(opt,rrhf)
 ----------------------------------------------------------------------
 -----
 title
 -----
 Symbolic Z-matrix:
 Charge =  0 Multiplicity = 1

 SCF Done:  E(RHF) =  -582.315318434     A.U. after   14 cycles
 Normal termination of Gaussian 16 at Wed Apr  9 00:47:02 2025.
 Gaussian 16:  ES64L-G16RevC.01  3-Jul-2019

 ----------------------------------------------------------------------
 #t hf aug-cc-pvdz iop(5/13=1,5/36=2,99/5=2) pseudo=read geom=check gue
 ss=(read,tcheck) scf=(maxcycle=1)
 ----------------------------------------------------------------------
 -----
 title
 -----
 Structure from the checkpoint file:  "BDE49_nonexpt_817_mol1.chk"
 Charge =  0 Multiplicity = 1

                         Standard orientation:
 ---------------------------------------------------------------------
 Center     Atomic      Atomic             Coordinates (Angstroms)
 Number     Number       Type             X           Y           Z
 ---------------------------------------------------------------------
      1          6           0        1.236933   -0.306055    0.478151
      2          5           0       -1.852325    0.293758   -0.016837
      3          8           0       -3.159576   -0.082298   -0.013813
      4          8           0       -1.562253    1.632938   -0.039063
      5          6           0        2.265142   -0.075139   -0.348595
      6          6           0        3.558540    0.592882    0.018670
      7          1           0        2.190223   -0.401934   -1.386257
      8          1           0        3.572855    0.897079    1.067664
      9          1           0        3.733846    1.479295   -0.601539
     10          1           0        4.405587   -0.080031   -0.156309
     11          1           0       -3.757055    0.676869   -0.035158
     12          1           0       -0.616237    1.808749   -0.037489
     13         14           0       -0.379086   -1.116334   -0.019076
     14          1           0       -0.204064   -1.679660   -1.384578
     15          1           0       -0.692057   -2.237302    0.903788
     16          1           0        1.346682    0.021576    1.514773
 ---------------------------------------------------------------------

 SCF Done:  E(RHF) =  -582.649407200     A.U. after    2 cycles

 The electronic state is 1-A.
 Alpha  occ. eigenvalues --  -69.51006 -20.56208 -20.55562 -11.25964 -11.24162
 Alpha  occ. eigenvalues --  -11.22442  -7.63782  -6.18246  -3.93623  -3.93600
 Alpha  occ. eigenvalues --   -3.93550  -1.48202  -1.43888  -1.07529  -0.94422
 Alpha  occ. eigenvalues --   -0.78962  -0.76850  -0.73928  -0.70700  -0.61567
 Alpha  occ. eigenvalues --   -0.60583  -0.59576  -0.58124  -0.56861  -0.55799
 Alpha  occ. eigenvalues --   -0.52746  -0.49157  -0.47542  -0.45942  -0.42862
 Alpha  occ. eigenvalues --   -0.36760
 Alpha virt. eigenvalues --    0.03302   0.03692   0.03939   0.04347   0.05307
 Alpha virt. eigenvalues --    0.05970   0.06439   0.07151   0.07399   0.08223
 Alpha virt. eigenvalues --    0.08876   0.09885   0.10203   0.10348   0.11271

 Mulliken charges:
               1
     1  C   -0.131503
     2  B    1.643770
     3  O   -1.256080
     4  O   -1.428559
     5  C    0.347924
     6  C   -0.715919
     7  H   -0.202051
     8  H    0.110754
     9  H    0.241187
    10  H    0.232961
    11  H    0.529169
    12  H    0.616900
    13  Si   0.442453
    14  H   -0.127871
    15  H   -0.141793
    16  H   -0.161342
 Sum of Mulliken charges =  -0.00000

 Dipole moment (field-independent basis, Debye):
    X=              1.7549    Y=              1.5396    Z=             -0.0418  Tot=              2.3349

 Test job not archived.
 1\1\GINC-SE059\SP\RHF\Aug-CC-pVDZ\C3H9B1O2Si1\OHZDE\09-Apr-2025\0\\#t
 hf aug-cc-pvdz iop(5/13=1,5/36=2,99/5=2) pseudo=read geom=check guess=
 (read,tcheck) scf=(maxcycle=1)\\title\\0,1\C,0,1.236933,-0.306055,0.47
 8151\B,0,-1.852325,0.293758,-0.016837\O,0,-3.159576,-0.082298,-0.01381
 3\O,0,-1.562253,1.632938,-0.039063\C,0,2.265142,-0.075139,-0.348595\C,
 0,3.55854,0.592882,0.01867\H,0,2.190223,-0.401934,-1.386257\H,0,3.5728
 55,0.897079,1.067664\H,0,3.733846,1.479295,-0.601539\H,0,4.405587,-0.0
 80031,-0.156309\H,0,-3.757055,0.676869,-0.035158\H,0,-0.616237,1.80874

 Normal termination of Gaussian 16 at Wed Apr  9 00:47:09 2025.
