 Gaussian 16, Revision C.01,

 ----------------------------------------------------------------------
 #t hf aug-cc-pvdz symm=none int=(grid=ultrafine) guess=(read,tcheck) s
 table=(opt,rrhf)
 ----------------------------------------------------------------------
 -----
 title
 -----
 Symbolic Z-matrix:
 Charge =  0 Multiplicity = 1

 SCF Done:  E(RHF) =  -571.168661553     A.U. after   15 cycles
 Normal termination of Gaussian 16 at Tue Apr  8 23:31:21 2025.
 Gaussian 16:  ES64L-G16RevC.01  3-Jul-2019

 ----------------------------------------------------------------------
 #t hf aug-cc-pvdz iop(5/13=1,5/36=2,99/5=2) pseudo=read geom=check gue
 ss=(read,tcheck) scf=(maxcycle=1)
 ----------------------------------------------------------------------
 -----
 title
 -----
 Structure from the checkpoint file:  "BDE49_nonexpt_1391_mol1.chk"
 Charge =  0 Multiplicity = 1

                         Standard orientation:
 ---------------------------------------------------------------------
 Center     Atomic      Atomic             Coordinates (Angstroms)
 Number     Number       Type             X           Y           Z
 ---------------------------------------------------------------------
      1         15           0       -0.113810   -1.335261   -0.180057
      2          6           0        1.031782    0.173780    0.007761
      3          6           0        0.191088    1.447682    0.137103
      4          6           0       -1.248642    1.124402   -0.272364
      5          6           0       -1.596803   -0.278923    0.275624
      6          1           0       -1.326514    1.118260   -1.365037
      7          1           0       -1.955054    1.874282    0.091223
      8          1           0        0.652871    2.254325   -0.436767
      9          1           0        0.236481    1.735794    1.195409
     10          8           0        2.232570    0.129590    0.007675
     11          1           0       -2.509350   -0.670028   -0.175854
     12          1           0       -1.741040   -0.245570    1.357927
     13          1           0        0.224651   -1.876514    1.083806
 ---------------------------------------------------------------------

 SCF Done:  E(RHF) =  -571.450460763     A.U. after    2 cycles

 The electronic state is 1-A.
 Alpha  occ. eigenvalues --  -84.28012 -20.54594 -11.34666 -11.25896 -11.25729
 Alpha  occ. eigenvalues --  -11.25517  -6.75188  -4.27806  -4.27486  -4.26924
 Alpha  occ. eigenvalues --   -1.48059  -1.11747  -0.97482  -0.91405  -0.80554
 Alpha  occ. eigenvalues --   -0.72537  -0.66931  -0.66261  -0.60340  -0.59292
 Alpha  occ. eigenvalues --   -0.56554  -0.54046  -0.51642  -0.49433  -0.47312
 Alpha  occ. eigenvalues --   -0.38449  -0.33970
 Alpha virt. eigenvalues --    0.03059   0.03798   0.04020   0.04762   0.06219
 Alpha virt. eigenvalues --    0.06577   0.06694   0.08689   0.09506   0.11041
 Alpha virt. eigenvalues --    0.12027   0.12548   0.14020   0.14457   0.14962

 Mulliken charges:
               1
     1  P    0.286191
     2  C    0.779226
     3  C   -0.546292
     4  C   -0.220194
     5  C   -0.470839
     6  H    0.142821
     7  H    0.158539
     8  H    0.160106
     9  H    0.251714
    10  O   -1.281457
    11  H    0.135181
    12  H    0.076195
    13  H    0.528810
 Sum of Mulliken charges =  -0.00000

 Dipole moment (field-independent basis, Debye):
    X=             -3.6076    Y=              0.8462    Z=              0.6281  Tot=              3.7583

 Test job not archived.
 1\1\GINC-SE120\SP\RHF\Aug-CC-pVDZ\C4H7O1P1\OHZDE\08-Apr-2025\0\\#t hf
 aug-cc-pvdz iop(5/13=1,5/36=2,99/5=2) pseudo=read geom=check guess=(re
 ad,tcheck) scf=(maxcycle=1)\\title\\0,1\P,0,-0.11381,-1.335261,-0.1800
 57\C,0,1.031782,0.17378,0.007761\C,0,0.191088,1.447682,0.137103\C,0,-1
 .248642,1.124402,-0.272364\C,0,-1.596803,-0.278923,0.275624\H,0,-1.326
 514,1.11826,-1.365037\H,0,-1.955054,1.874282,0.091223\H,0,0.652871,2.2
 54325,-0.436767\H,0,0.236481,1.735794,1.195409\O,0,2.23257,0.12959,0.0
 07675\H,0,-2.50935,-0.670028,-0.175854\H,0,-1.74104,-0.24557,1.357927\

 Normal termination of Gaussian 16 at Tue Apr  8 23:31:25 2025.
