 Gaussian 16, Revision C.01,

 ----------------------------------------------------------------------
 #t hf aug-cc-pvdz symm=none int=(grid=ultrafine) guess=(read,tcheck) s
 table=opt
 ----------------------------------------------------------------------
 -----
 title
 -----
 Symbolic Z-matrix:
 Charge =  0 Multiplicity = 2

 SCF Done:  E(UHF) =  -666.959694489     A.U. after   19 cycles
 Normal termination of Gaussian 16 at Tue Apr  8 23:06:56 2025.
 Gaussian 16:  ES64L-G16RevC.01  3-Jul-2019

 ----------------------------------------------------------------------
 #t hf aug-cc-pvdz iop(5/13=1,5/36=2,99/5=2) pseudo=read geom=check gue
 ss=(read,tcheck) scf=(maxcycle=1)
 ----------------------------------------------------------------------
 -----
 title
 -----
 Structure from the checkpoint file:  "BDE49_expt_389_mol2.chk"
 Charge =  0 Multiplicity = 2

                         Standard orientation:
 ---------------------------------------------------------------------
 Center     Atomic      Atomic             Coordinates (Angstroms)
 Number     Number       Type             X           Y           Z
 ---------------------------------------------------------------------
      1          8           0       -0.013301   -1.172841   -0.593585
      2          6           0        1.345842   -1.217459   -0.162445
      3          6           0        1.820082    0.197185   -0.020085
      4          1           0        1.896239   -1.775656   -0.926444
      5          1           0        1.433241   -1.780052    0.783788
      6         16           0        0.517191    1.321564    0.067185
      7          1           0        2.824658    0.482884    0.253437
      8          6           0       -0.731696   -0.108088   -0.005771
      9          6           0       -1.886513    0.238909   -0.932384
     10          1           0       -2.574961   -0.609022   -0.984405
     11          1           0       -1.512787    0.449532   -1.934233
     12          1           0       -2.436444    1.107930   -0.564992
     13          6           0       -1.191814   -0.448261    1.412896
     14          1           0       -0.345350   -0.683541    2.059771
     15          1           0       -1.856062   -1.317246    1.375287
     16          1           0       -1.732589    0.389165    1.858255
 ---------------------------------------------------------------------

 SCF Done:  E(UHF) =  -667.300550268     A.U. after    2 cycles

 The electronic state is 2-A.
 Alpha  occ. eigenvalues --  -93.94848 -20.55927 -11.33521 -11.30046 -11.26380
 Alpha  occ. eigenvalues --  -11.23615 -11.23427  -8.23015  -6.20742  -6.20680
 Alpha  occ. eigenvalues --   -6.20600  -1.48333  -1.10425  -1.07625  -0.95913
 Alpha  occ. eigenvalues --   -0.94171  -0.81948  -0.77412  -0.68078  -0.67713
 Alpha  occ. eigenvalues --   -0.64049  -0.61195  -0.58282  -0.56368  -0.54663
 Alpha  occ. eigenvalues --   -0.52468  -0.51869  -0.50910  -0.47692  -0.43452
 Alpha  occ. eigenvalues --   -0.41941  -0.29613
 Alpha virt. eigenvalues --    0.03640   0.03877   0.04350   0.04471   0.05868
 Alpha virt. eigenvalues --    0.06082   0.06615   0.07588   0.09023   0.09505
 Alpha virt. eigenvalues --    0.11159   0.12384   0.12673   0.13623   0.14750

  Beta  occ. eigenvalues --  -93.94775 -20.55932 -11.33521 -11.30358 -11.23872
  Beta  occ. eigenvalues --  -11.23609 -11.23429  -8.22930  -6.20842  -6.20643
  Beta  occ. eigenvalues --   -6.20136  -1.48326  -1.09066  -1.05261  -0.95824
  Beta  occ. eigenvalues --   -0.93777  -0.77825  -0.76897  -0.67494  -0.66648
  Beta  occ. eigenvalues --   -0.63633  -0.60630  -0.57530  -0.56104  -0.54563
  Beta  occ. eigenvalues --   -0.52193  -0.51272  -0.49238  -0.45220  -0.41927
  Beta  occ. eigenvalues --   -0.37334
  Beta virt. eigenvalues --    0.03678   0.03888   0.04368   0.04487   0.05895
  Beta virt. eigenvalues --    0.06048   0.06611   0.07570   0.09070   0.09501
  Beta virt. eigenvalues --    0.10077   0.11292   0.12541   0.12831   0.13940

 Mulliken charges and spin densities:
               1          2
     1  O   -1.525427  -0.002319
     2  C    0.381091  -0.217119
     3  C   -0.364114   1.283908
     4  H    0.009486   0.014069
     5  H    0.183365   0.027905
     6  S    0.443243   0.018637
     7  H   -0.078245  -0.088245
     8  C    0.292086  -0.062974
     9  C   -0.147995   0.012604
    10  H    0.218896   0.000813
    11  H    0.165996   0.001031
    12  H    0.214649  -0.002512
    13  C   -0.353340   0.016927
    14  H    0.128860  -0.002281
    15  H    0.216731   0.000014
    16  H    0.214717  -0.000459
 Sum of Mulliken charges =   0.00000   1.00000

 Dipole moment (field-independent basis, Debye):
    X=              0.0307    Y=             -0.9585    Z=              0.9115  Tot=              1.3231
                          Isotropic Fermi Contact Couplings
        Atom                 a.u.       MegaHertz       Gauss      10(-4) cm-1
     1  O(17)             -0.00119       0.71953       0.25675       0.24001
     2  C(13)             -0.05656     -63.57949     -22.68674     -21.20783
     3  C(13)              0.23544     264.68272      94.44538      88.28865
     4  H(1)               0.01303      58.24567      20.78350      19.42866
     5  H(1)               0.01892      84.56873      30.17622      28.20909
     6  S(33)              0.03943      13.54288       4.83244       4.51742
     7  H(1)              -0.02227     -99.52267     -35.51216     -33.19719
     8  C(13)             -0.00109      -1.22494      -0.43709      -0.40859

 Normal termination of Gaussian 16 at Tue Apr  8 23:07:03 2025.
