 Gaussian 16, Revision C.01,

 ----------------------------------------------------------------------
 #t hf aug-cc-pvdz symm=none int=(grid=ultrafine) guess=(read,tcheck) s
 table=(opt,rrhf)
 ----------------------------------------------------------------------
 -----
 title
 -----
 Symbolic Z-matrix:
 Charge =  0 Multiplicity = 1

 SCF Done:  E(RHF) =  -741.015729217     A.U. after   16 cycles
 Normal termination of Gaussian 16 at Tue Apr  8 23:14:38 2025.
 Gaussian 16:  ES64L-G16RevC.01  3-Jul-2019

 ----------------------------------------------------------------------
 #t hf aug-cc-pvdz iop(5/13=1,5/36=2,99/5=2) pseudo=read geom=check gue
 ss=(read,tcheck) scf=(maxcycle=1)
 ----------------------------------------------------------------------
 -----
 title
 -----
 Structure from the checkpoint file:  "BDE49_expt_839_mol1.chk"
 Charge =  0 Multiplicity = 1

                         Standard orientation:
 ---------------------------------------------------------------------
 Center     Atomic      Atomic             Coordinates (Angstroms)
 Number     Number       Type             X           Y           Z
 ---------------------------------------------------------------------
      1          6           0        1.079213    1.239700   -0.000031
      2          6           0        2.439661    0.960266    0.000015
      3          6           0        2.880214   -0.363246    0.000032
      4          6           0        1.956178   -1.406674    0.000004
      5          6           0        0.592970   -1.130003   -0.000041
      6          6           0        0.145146    0.195312   -0.000061
      7          1           0        0.714949    2.259208   -0.000045
      8          1           0        3.157649    1.772228    0.000037
      9          1           0        3.942196   -0.581452    0.000068
     10          1           0        2.297049   -2.435338    0.000018
     11          1           0       -0.115338   -1.950041   -0.000062
     12          6           0       -1.298990    0.571677   -0.000113
     13         16           0       -2.480653   -0.821797    0.000056
     14          1           0       -3.537591    0.005331    0.000142
     15          8           0       -1.691853    1.709578    0.000014
 ---------------------------------------------------------------------

 SCF Done:  E(RHF) =  -741.418990428     A.U. after    2 cycles

 The electronic state is 1-A.
 Alpha  occ. eigenvalues --  -93.97321 -20.55322 -11.38592 -11.27174 -11.26937
 Alpha  occ. eigenvalues --  -11.26863 -11.26501 -11.26097 -11.25932  -8.25524
 Alpha  occ. eigenvalues --   -6.23357  -6.23213  -6.23001  -1.49614  -1.17991
 Alpha  occ. eigenvalues --   -1.07694  -1.04076  -1.02946  -0.89154  -0.85641
 Alpha  occ. eigenvalues --   -0.78825  -0.72638  -0.67871  -0.66993  -0.64336
 Alpha  occ. eigenvalues --   -0.62283  -0.61232  -0.58570  -0.54839  -0.54047
 Alpha  occ. eigenvalues --   -0.52274  -0.51980  -0.41609  -0.39894  -0.36646
 Alpha  occ. eigenvalues --   -0.36430
 Alpha virt. eigenvalues --    0.02950   0.03549   0.04156   0.04932   0.05018
 Alpha virt. eigenvalues --    0.05926   0.07283   0.08966   0.09188   0.10031
 Alpha virt. eigenvalues --    0.10716   0.12048   0.12352   0.13187   0.13577

 Mulliken charges:
               1
     1  C   -0.572953
     2  C    0.501268
     3  C   -0.155512
     4  C    0.202597
     5  C    0.141954
     6  C    2.272369
     7  H   -0.327673
     8  H   -0.211042
     9  H   -0.210493
    10  H   -0.222891
    11  H   -0.198332
    12  C   -0.111472
    13  S   -0.049339
    14  H    0.363691
    15  O   -1.422171
 Sum of Mulliken charges =  -0.00000

 Dipole moment (field-independent basis, Debye):
    X=              2.1401    Y=             -1.4140    Z=             -0.0000  Tot=              2.5650

 Test job not archived.
 1\1\GINC-SE398\SP\RHF\Aug-CC-pVDZ\C7H6O1S1\OHZDE\08-Apr-2025\0\\#t hf
 aug-cc-pvdz iop(5/13=1,5/36=2,99/5=2) pseudo=read geom=check guess=(re
 ad,tcheck) scf=(maxcycle=1)\\title\\0,1\C,0,-1.079213,1.2397,0.000031\
 C,0,-2.439661,0.960266,-0.000015\C,0,-2.880214,-0.363246,-0.000032\C,0
 ,-1.956178,-1.406674,-0.000004\C,0,-0.59297,-1.130003,0.000041\C,0,-0.
 145146,0.195312,0.000061\H,0,-0.714949,2.259208,0.000045\H,0,-3.157649
 ,1.772228,-0.000037\H,0,-3.942196,-0.581452,-0.000068\H,0,-2.297049,-2
 .435338,-0.000018\H,0,0.115338,-1.950041,0.000062\C,0,1.29899,0.571677

 Normal termination of Gaussian 16 at Tue Apr  8 23:14:45 2025.
