 Gaussian 16, Revision C.01,

 ----------------------------------------------------------------------
 #t hf aug-cc-pvdz symm=none int=(grid=ultrafine) guess=(read,tcheck) s
 table=(opt,rrhf)
 ----------------------------------------------------------------------
 -----
 title
 -----
 Symbolic Z-matrix:
 Charge =  0 Multiplicity = 1

 SCF Done:  E(RHF) =  -492.621499966     A.U. after   14 cycles
 Normal termination of Gaussian 16 at Wed Apr  9 00:52:46 2025.
 Gaussian 16:  ES64L-G16RevC.01  3-Jul-2019

 ----------------------------------------------------------------------
 #t hf aug-cc-pvdz iop(5/13=1,5/36=2,99/5=2) pseudo=read geom=check gue
 ss=(read,tcheck) scf=(maxcycle=1)
 ----------------------------------------------------------------------
 -----
 title
 -----
 Structure from the checkpoint file:  "BDE49_nonexpt_954_mol1.chk"
 Charge =  0 Multiplicity = 1

                         Standard orientation:
 ---------------------------------------------------------------------
 Center     Atomic      Atomic             Coordinates (Angstroms)
 Number     Number       Type             X           Y           Z
 ---------------------------------------------------------------------
      1          9           0       -2.177319   -1.660575    0.048772
      2          8           0        2.630705   -1.138444    0.040444
      3          7           0       -1.946064   -0.245587   -0.008035
      4          7           0        0.315887   -1.066561   -0.029415
      5          7           0       -0.051246    1.131768   -0.178726
      6          6           0       -0.664841   -0.090068   -0.066932
      7          6           0        1.592454   -0.532862    0.007213
      8          6           0        1.382917    0.984428    0.014281
      9          6           0       -0.752519    2.376570    0.075335
     10          1           0        0.094553   -2.050342   -0.013216
     11          1           0        1.726771    1.388331    0.976462
     12          1           0        1.964630    1.453655   -0.783981
     13          1           0       -0.780412    2.624023    1.144536
     14          1           0       -0.258026    3.185895   -0.464974
     15          1           0       -1.775387    2.285413   -0.287469
 ---------------------------------------------------------------------

 SCF Done:  E(RHF) =  -493.106024714     A.U. after    2 cycles

 The electronic state is 1-A.
 Alpha  occ. eigenvalues --  -26.46042 -20.55503 -15.57918 -15.57301 -15.55918
 Alpha  occ. eigenvalues --  -11.40317 -11.39176 -11.32031 -11.29690  -1.56983
 Alpha  occ. eigenvalues --   -1.50464  -1.37276  -1.24923  -1.19003  -1.04513
 Alpha  occ. eigenvalues --   -0.98713  -0.89704  -0.85730  -0.77883  -0.73887
 Alpha  occ. eigenvalues --   -0.71685  -0.69743  -0.67531  -0.66232  -0.64795
 Alpha  occ. eigenvalues --   -0.63384  -0.62554  -0.59841  -0.58443  -0.54765
 Alpha  occ. eigenvalues --   -0.52285  -0.46220  -0.45961  -0.41856
 Alpha virt. eigenvalues --    0.02624   0.03836   0.04295   0.04939   0.05794
 Alpha virt. eigenvalues --    0.06028   0.07967   0.09306   0.09988   0.11762
 Alpha virt. eigenvalues --    0.12298   0.12643   0.13052   0.13832   0.14423

 Mulliken charges:
               1
     1  F   -0.710462
     2  O   -1.340225
     3  N    1.385689
     4  N    0.588156
     5  N    0.598799
     6  C   -1.619861
     7  C    0.833572
     8  C   -0.331234
     9  C   -0.284127
    10  H    0.132293
    11  H    0.196062
    12  H    0.115479
    13  H    0.198152
    14  H    0.103839
    15  H    0.133867
 Sum of Mulliken charges =  -0.00000

 Dipole moment (field-independent basis, Debye):
    X=              1.6791    Y=              3.5424    Z=              0.2275  Tot=              3.9268

 Test job not archived.
 1\1\GINC-SE229\SP\RHF\Aug-CC-pVDZ\C4H6F1N3O1\OHZDE\09-Apr-2025\0\\#t h
 f aug-cc-pvdz iop(5/13=1,5/36=2,99/5=2) pseudo=read geom=check guess=(
 read,tcheck) scf=(maxcycle=1)\\title\\0,1\F,0,-2.177319,-1.660575,0.04
 8772\O,0,2.630705,-1.138444,0.040444\N,0,-1.946064,-0.245587,-0.008035
 \N,0,0.315887,-1.066561,-0.029415\N,0,-0.051246,1.131768,-0.178726\C,0
 ,-0.664841,-0.090068,-0.066932\C,0,1.592454,-0.532862,0.007213\C,0,1.3
 82917,0.984428,0.014281\C,0,-0.752519,2.37657,0.075335\H,0,0.094553,-2
 .050342,-0.013216\H,0,1.726771,1.388331,0.976462\H,0,1.96463,1.453655,

 Normal termination of Gaussian 16 at Wed Apr  9 00:52:54 2025.
