 Gaussian 16, Revision C.01,

 ----------------------------------------------------------------------
 #t hf aug-cc-pvdz symm=none int=(grid=ultrafine) guess=(read,tcheck) s
 table=(opt,rrhf)
 ----------------------------------------------------------------------
 -----
 title
 -----
 Symbolic Z-matrix:
 Charge =  0 Multiplicity = 1

 SCF Done:  E(RHF) =  -2166.15857424     A.U. after   12 cycles
 Normal termination of Gaussian 16 at Tue Apr  8 23:49:28 2025.
 Gaussian 16:  ES64L-G16RevC.01  3-Jul-2019

 ----------------------------------------------------------------------
 #t hf aug-cc-pvdz iop(5/13=1,5/36=2,99/5=2) pseudo=read geom=check gue
 ss=(read,tcheck) scf=(maxcycle=1)
 ----------------------------------------------------------------------
 -----
 title
 -----
 Structure from the checkpoint file:  "BDE49_nonexpt_1847_mol1.chk"
 Charge =  0 Multiplicity = 1

                         Standard orientation:
 ---------------------------------------------------------------------
 Center     Atomic      Atomic             Coordinates (Angstroms)
 Number     Number       Type             X           Y           Z
 ---------------------------------------------------------------------
      1          6           0        1.062825   -0.000000    1.235349
      2         14           0       -0.385214    0.000000    0.048120
      3         17           0       -2.097485   -0.000001    1.192444
      4         17           0       -0.365934   -1.674164   -1.132315
      5         17           0        2.650768   -0.000000    0.376815
      6         17           0       -0.365935    1.674165   -1.132314
      7          1           0        1.025992   -0.887485    1.867750
      8          1           0        1.025992    0.887486    1.867749
 ---------------------------------------------------------------------

 SCF Done:  E(RHF) =  -2166.53962462     A.U. after    2 cycles

 The electronic state is 1-A.
 Alpha  occ. eigenvalues -- -105.59055-105.58867-105.58867-105.58197 -69.68335
 Alpha  occ. eigenvalues --  -11.32478 -10.64073 -10.63898 -10.63889 -10.62940
 Alpha  occ. eigenvalues --   -7.80961  -7.80789  -7.80785  -7.80636  -7.80629
 Alpha  occ. eigenvalues --   -7.80452  -7.80451  -7.80446  -7.80445  -7.79890
 Alpha  occ. eigenvalues --   -7.79498  -7.79487  -6.34131  -4.09506  -4.09497
 Alpha  occ. eigenvalues --   -4.09334  -1.13744  -1.10482  -1.07048  -1.06997
 Alpha  occ. eigenvalues --   -0.93076  -0.73146  -0.66240  -0.61979  -0.59850
 Alpha  occ. eigenvalues --   -0.58891  -0.57288  -0.52010  -0.51925  -0.50806
 Alpha  occ. eigenvalues --   -0.49285  -0.49256  -0.47980  -0.46689  -0.44963
 Alpha virt. eigenvalues --    0.03473   0.04911   0.05632   0.05792   0.07369
 Alpha virt. eigenvalues --    0.08400   0.09084   0.11302   0.11813   0.12564
 Alpha virt. eigenvalues --    0.13297   0.13982   0.15261   0.16396   0.16495

 Mulliken charges:
               1
     1  C   -0.771807
     2  Si   2.097862
     3  Cl  -0.527039
     4  Cl  -0.518396
     5  Cl  -0.138152
     6  Cl  -0.518397
     7  H    0.187964
     8  H    0.187965
 Sum of Mulliken charges =  -0.00000

 Dipole moment (field-independent basis, Debye):
    X=             -0.2213    Y=             -0.0000    Z=              1.6920  Tot=              1.7064

 Test job not archived.
 1\1\GINC-SE345\SP\RHF\Aug-CC-pVDZ\C1H2Cl4Si1\OHZDE\08-Apr-2025\0\\#t h
 f aug-cc-pvdz iop(5/13=1,5/36=2,99/5=2) pseudo=read geom=check guess=(
 read,tcheck) scf=(maxcycle=1)\\title\\0,1\C,0,1.062825,0.,1.235349\Si,
 0,-0.385214,0.,0.04812\Cl,0,-2.097485,-0.000001,1.192444\Cl,0,-0.36593
 4,-1.674164,-1.132315\Cl,0,2.650768,0.,0.376815\Cl,0,-0.365935,1.67416
 5,-1.132314\H,0,1.025992,-0.887485,1.86775\H,0,1.025992,0.887486,1.867
 749\\Version=ES64L-G16RevC.01\State=1-A\HF=-2166.5396246\RMSD=3.661e-0
 3\Dipole=-0.0870569,0.,0.665686\Quadrupole=-3.1120058,0.5185971,2.5934

 Normal termination of Gaussian 16 at Tue Apr  8 23:49:31 2025.
