 Gaussian 16, Revision C.01,

 ----------------------------------------------------------------------
 #t hf aug-cc-pvdz symm=none int=(grid=ultrafine) guess=(read,tcheck) s
 table=opt
 ----------------------------------------------------------------------
 -----
 title
 -----
 Symbolic Z-matrix:
 Charge =  0 Multiplicity = 2

 SCF Done:  E(UHF) =  -361.413529526     A.U. after   14 cycles
 Normal termination of Gaussian 16 at Wed Apr  9 00:36:49 2025.
 Gaussian 16:  ES64L-G16RevC.01  3-Jul-2019

 ----------------------------------------------------------------------
 #t hf aug-cc-pvdz iop(5/13=1,5/36=2,99/5=2) pseudo=read geom=check gue
 ss=(read,tcheck) scf=(maxcycle=1)
 ----------------------------------------------------------------------
 -----
 title
 -----
 Structure from the checkpoint file:  "BDE49_nonexpt_545_mol2.chk"
 Charge =  0 Multiplicity = 2

                         Standard orientation:
 ---------------------------------------------------------------------
 Center     Atomic      Atomic             Coordinates (Angstroms)
 Number     Number       Type             X           Y           Z
 ---------------------------------------------------------------------
      1          1           0        2.451185    0.000689    0.600028
      2          9           0        0.044994    1.099998   -0.712835
      3          9           0        0.045623   -1.099419   -0.713641
      4          9           0       -1.134848   -0.000550    0.745432
      5          6           0        0.042670    0.000006    0.086812
      6          5           0        1.338175   -0.000197    1.001700
 ---------------------------------------------------------------------

 SCF Done:  E(UHF) =  -361.740156076     A.U. after    2 cycles

 The electronic state is 2-A.
 Alpha  occ. eigenvalues --  -26.50985 -26.50982 -26.50548 -11.50833  -7.68257
 Alpha  occ. eigenvalues --   -1.70993  -1.61326  -1.61010  -0.98000  -0.84793
 Alpha  occ. eigenvalues --   -0.80528  -0.80483  -0.68898  -0.68717  -0.67711
 Alpha  occ. eigenvalues --   -0.63893  -0.63760  -0.62173  -0.54940  -0.40340
 Alpha virt. eigenvalues --    0.00742   0.04632   0.04944   0.05675   0.07001
 Alpha virt. eigenvalues --    0.09997   0.11833   0.13317   0.14583   0.19418
 Alpha virt. eigenvalues --    0.21829   0.23279   0.24826   0.25738   0.26192

  Beta  occ. eigenvalues --  -26.50907 -26.50904 -26.50546 -11.50812  -7.66278
  Beta  occ. eigenvalues --   -1.70858  -1.61120  -1.60914  -0.97084  -0.83466
  Beta  occ. eigenvalues --   -0.80426  -0.80177  -0.68500  -0.68494  -0.64615
  Beta  occ. eigenvalues --   -0.63852  -0.63278  -0.62076  -0.53757
  Beta virt. eigenvalues --    0.02535   0.02663   0.04984   0.05729   0.07254
  Beta virt. eigenvalues --    0.08200   0.10578   0.12274   0.13527   0.16640
  Beta virt. eigenvalues --    0.19865   0.22251   0.23731   0.25860   0.26642

 Mulliken charges and spin densities:
               1          2
     1  H    0.225459   0.004030
     2  F   -0.721342   0.008120
     3  F   -0.721320   0.008109
     4  F   -0.689156  -0.013682
     5  C    2.028823  -0.003674
     6  B   -0.122463   0.997096
 Sum of Mulliken charges =  -0.00000   1.00000

 Dipole moment (field-independent basis, Debye):
    X=              1.6753    Y=              0.0005    Z=              0.7701  Tot=              1.8438
                          Isotropic Fermi Contact Couplings
        Atom                 a.u.       MegaHertz       Gauss      10(-4) cm-1
     1  H(1)               0.00379      16.92104       6.03785       5.64425
     2  F(19)              0.01400      58.90171      21.01760      19.64750
     3  F(19)              0.01396      58.71949      20.95258      19.58671
     4  F(19)              0.00209       8.80179       3.14070       2.93596
     5  C(13)              0.01168      13.12508       4.68335       4.37806
     6  B(11)              0.28678     411.34638     146.77862     137.21038
 --------------------------------------------------------
       Center         ----  Spin Dipole Couplings  ----

 Normal termination of Gaussian 16 at Wed Apr  9 00:36:51 2025.
