 Gaussian 16, Revision C.01,

 ----------------------------------------------------------------------
 #t hf aug-cc-pvdz symm=none int=(grid=ultrafine) guess=(read,tcheck) s
 table=(opt,rrhf)
 ----------------------------------------------------------------------
 -----
 title
 -----
 Symbolic Z-matrix:
 Charge =  0 Multiplicity = 1

 SCF Done:  E(RHF) =  -1363.76728617     A.U. after   13 cycles
 Normal termination of Gaussian 16 at Tue Apr  8 23:44:23 2025.
 Gaussian 16:  ES64L-G16RevC.01  3-Jul-2019

 ----------------------------------------------------------------------
 #t hf aug-cc-pvdz iop(5/13=1,5/36=2,99/5=2) pseudo=read geom=check gue
 ss=(read,tcheck) scf=(maxcycle=1)
 ----------------------------------------------------------------------
 -----
 title
 -----
 Structure from the checkpoint file:  "BDE49_nonexpt_173_mol1.chk"
 Charge =  0 Multiplicity = 1

                         Standard orientation:
 ---------------------------------------------------------------------
 Center     Atomic      Atomic             Coordinates (Angstroms)
 Number     Number       Type             X           Y           Z
 ---------------------------------------------------------------------
      1         17           0        0.172763   -1.503929    1.516757
      2         17           0        0.172763   -1.503929   -1.516757
      3          5           0       -0.022188   -0.611202   -0.000000
      4         15           0       -0.650575    1.175373    0.000000
      5          6           0        0.172763    1.974899   -1.458851
      6          6           0        0.172763    1.974899    1.458851
      7          1           0       -0.139117    1.462876   -2.369953
      8          1           0        1.262488    1.954987   -1.394238
      9          1           0       -0.162126    3.012243   -1.522770
     10          1           0       -0.139117    1.462876    2.369953
     11          1           0       -0.162126    3.012243    1.522770
     12          1           0        1.262488    1.954987    1.394238
 ---------------------------------------------------------------------

 SCF Done:  E(RHF) =  -1364.07803830     A.U. after    2 cycles

 The electronic state is 1-A'.
 Alpha  occ. eigenvalues -- -105.57676-105.57676 -84.26873 -11.25020 -11.25013
 Alpha  occ. eigenvalues --  -10.62680 -10.62652  -7.79571  -7.79549  -7.79282
 Alpha  occ. eigenvalues --   -7.79275  -7.79243  -7.79238  -7.71510  -6.74245
 Alpha  occ. eigenvalues --   -4.26771  -4.26683  -4.25943  -1.10910  -1.05688
 Alpha  occ. eigenvalues --   -1.02152  -0.95342  -0.79315  -0.66838  -0.60875
 Alpha  occ. eigenvalues --   -0.60173  -0.59335  -0.57442  -0.56709  -0.53579
 Alpha  occ. eigenvalues --   -0.52592  -0.47789  -0.47093  -0.46216  -0.43741
 Alpha  occ. eigenvalues --   -0.32008
 Alpha virt. eigenvalues --    0.03063   0.04272   0.04330   0.05286   0.06160
 Alpha virt. eigenvalues --    0.06588   0.06760   0.07119   0.07312   0.08551
 Alpha virt. eigenvalues --    0.09264   0.12320   0.12372   0.13959   0.14253

 Mulliken charges:
               1
     1  Cl  -0.371129
     2  Cl  -0.371129
     3  B    1.098689
     4  P    0.772252
     5  C   -0.871605
     6  C   -0.871605
     7  H    0.089562
     8  H    0.110070
     9  H    0.107632
    10  H    0.089562
    11  H    0.107632
    12  H    0.110070
 Sum of Mulliken charges =  -0.00000

 Dipole moment (field-independent basis, Debye):
    X=              0.6449    Y=              2.3390    Z=              0.0000  Tot=              2.4263

 Test job not archived.
 1\1\GINC-SE367\SP\RHF\Aug-CC-pVDZ\C2H6B1Cl2P1\OHZDE\08-Apr-2025\0\\#t
 hf aug-cc-pvdz iop(5/13=1,5/36=2,99/5=2) pseudo=read geom=check guess=
 (read,tcheck) scf=(maxcycle=1)\\title\\0,1\Cl,0,-0.172763,-1.503929,-1
 .516757\Cl,0,-0.172763,-1.503929,1.516757\B,0,0.022188,-0.611202,0.\P,
 0,0.650575,1.175373,0.\C,0,-0.172763,1.974899,1.458851\C,0,-0.172763,1
 .974899,-1.458851\H,0,0.139117,1.462876,2.369953\H,0,-1.262488,1.95498
 7,1.394238\H,0,0.162126,3.012243,1.52277\H,0,0.139117,1.462876,-2.3699
 53\H,0,0.162126,3.012243,-1.52277\H,0,-1.262488,1.954987,-1.394238\\Ve

 Normal termination of Gaussian 16 at Tue Apr  8 23:44:27 2025.
