 Gaussian 16, Revision C.01,

 ----------------------------------------------------------------------
 #t hf aug-cc-pvdz symm=none int=(grid=ultrafine) guess=(read,tcheck) s
 table=opt
 ----------------------------------------------------------------------
 -----
 title
 -----
 Symbolic Z-matrix:
 Charge =  0 Multiplicity = 2

 SCF Done:  E(UHF) =  -739.423902751     A.U. after   19 cycles
 Normal termination of Gaussian 16 at Wed Apr  9 00:16:33 2025.
 Gaussian 16:  ES64L-G16RevC.01  3-Jul-2019

 ----------------------------------------------------------------------
 #t hf aug-cc-pvdz iop(5/13=1,5/36=2,99/5=2) pseudo=read geom=check gue
 ss=(read,tcheck) scf=(maxcycle=1)
 ----------------------------------------------------------------------
 -----
 title
 -----
 Structure from the checkpoint file:  "BDE49_nonexpt_2535_mol2.chk"
 Charge =  0 Multiplicity = 2

                         Standard orientation:
 ---------------------------------------------------------------------
 Center     Atomic      Atomic             Coordinates (Angstroms)
 Number     Number       Type             X           Y           Z
 ---------------------------------------------------------------------
      1         16           0       -1.061294   -0.000000    0.020763
      2         15           0        0.937876   -0.000001   -0.107554
      3          1           0        1.456289   -1.082499    0.640560
      4          1           0        1.456276    1.082512    0.640551
 ---------------------------------------------------------------------

 SCF Done:  E(UHF) =  -739.525809016     A.U. after    2 cycles

 The electronic state is 2-A.
 Alpha  occ. eigenvalues --  -93.97206 -84.32205  -8.25450  -6.79305  -6.24335
 Alpha  occ. eigenvalues --   -6.22899  -6.22575  -4.31426  -4.31360  -4.30843
 Alpha  occ. eigenvalues --   -1.05239  -0.82963  -0.56175  -0.52904  -0.47245
 Alpha  occ. eigenvalues --   -0.39950  -0.34736
 Alpha virt. eigenvalues --    0.03658   0.06079   0.06331   0.09928   0.11081
 Alpha virt. eigenvalues --    0.11347   0.13500   0.13763   0.16133   0.18810
 Alpha virt. eigenvalues --    0.20349   0.21103   0.25273   0.27223   0.28185

  Beta  occ. eigenvalues --  -93.96434 -84.32060  -8.24566  -6.79099  -6.22497
  Beta  occ. eigenvalues --   -6.22089  -6.20889  -4.31381  -4.31338  -4.30145
  Beta  occ. eigenvalues --   -1.00266  -0.78462  -0.55358  -0.49812  -0.37990
  Beta  occ. eigenvalues --   -0.36544
  Beta virt. eigenvalues --   -0.00503   0.03711   0.06233   0.06342   0.10174
  Beta virt. eigenvalues --    0.11283   0.11445   0.13859   0.15237   0.16500
  Beta virt. eigenvalues --    0.19492   0.20654   0.21782   0.25990   0.28578

 Mulliken charges and spin densities:
               1          2
     1  S   -0.471267   0.865188
     2  P   -0.510517   0.066650
     3  H    0.490895   0.034081
     4  H    0.490889   0.034081
 Sum of Mulliken charges =  -0.00000   1.00000

 Dipole moment (field-independent basis, Debye):
    X=              2.0490    Y=             -0.0000    Z=              0.5419  Tot=              2.1195
                          Isotropic Fermi Contact Couplings
        Atom                 a.u.       MegaHertz       Gauss      10(-4) cm-1
     1  S(33)              0.16182      55.57981      19.83226      18.53943
     2  P(31)              0.20453     370.43234     132.17947     123.56293
     3  H(1)               0.01398      62.50185      22.30221      20.84837
     4  H(1)               0.01398      62.50173      22.30217      20.84833
 --------------------------------------------------------
       Center         ----  Spin Dipole Couplings  ----
                      3XX-RR        3YY-RR        3ZZ-RR
 --------------------------------------------------------

 Normal termination of Gaussian 16 at Wed Apr  9 00:16:35 2025.
