 Gaussian 16, Revision C.01,

 ----------------------------------------------------------------------
 #t hf aug-cc-pvdz symm=none int=(grid=ultrafine) guess=(read,tcheck) s
 table=(opt,rrhf)
 ----------------------------------------------------------------------
 -----
 title
 -----
 Symbolic Z-matrix:
 Charge =  0 Multiplicity = 1

 SCF Done:  E(RHF) =  -635.881710988     A.U. after   15 cycles
 Normal termination of Gaussian 16 at Tue Apr  8 22:39:19 2025.
 Gaussian 16:  ES64L-G16RevC.01  3-Jul-2019

 ----------------------------------------------------------------------
 #t hf aug-cc-pvdz iop(5/13=1,5/36=2,99/5=2) pseudo=read geom=check gue
 ss=(read,tcheck) scf=(maxcycle=1)
 ----------------------------------------------------------------------
 -----
 title
 -----
 Structure from the checkpoint file:  "BDE49_expt_1223_mol1.chk"
 Charge =  0 Multiplicity = 1

                         Standard orientation:
 ---------------------------------------------------------------------
 Center     Atomic      Atomic             Coordinates (Angstroms)
 Number     Number       Type             X           Y           Z
 ---------------------------------------------------------------------
      1          6           0       -0.543462    1.450806    0.502180
      2          6           0        0.583861    1.524139   -0.514198
      3          8           0        1.037612    0.230575   -0.951077
      4          1           0        1.416779    2.105344   -0.114480
      5          1           0        0.232226    1.978103   -1.441489
      6          7           0        1.921322   -0.432349   -0.030025
      7          8           0        2.225347    0.167445    0.971858
      8          8           0        2.244961   -1.513810   -0.413589
      9          8           0       -1.731576    0.880242   -0.075319
     10          1           0       -0.845689    2.461525    0.785078
     11          1           0       -0.254297    0.901705    1.396030
     12          7           0       -1.880557   -0.543381    0.107077
     13          8           0       -1.072526   -1.108362    0.798101
     14          8           0       -2.838414   -0.964371   -0.466525
 ---------------------------------------------------------------------

 SCF Done:  E(RHF) =  -636.491083690     A.U. after    2 cycles

 The electronic state is 1-A.
 Alpha  occ. eigenvalues --  -20.66810 -20.66640 -20.63306 -20.63220 -20.63141
 Alpha  occ. eigenvalues --  -20.63109 -15.87367 -15.87346 -11.34741 -11.34460
 Alpha  occ. eigenvalues --   -1.74838  -1.74738  -1.57626  -1.57582  -1.53924
 Alpha  occ. eigenvalues --   -1.52706  -1.10268  -1.01592  -0.94781  -0.88858
 Alpha  occ. eigenvalues --   -0.85354  -0.83258  -0.82143  -0.80770  -0.80162
 Alpha  occ. eigenvalues --   -0.79145  -0.70233  -0.69820  -0.66101  -0.61047
 Alpha  occ. eigenvalues --   -0.59115  -0.56919  -0.53363  -0.53055  -0.52630
 Alpha  occ. eigenvalues --   -0.52199  -0.50374  -0.49512  -0.49120
 Alpha virt. eigenvalues --    0.02658   0.03727   0.04373   0.05218   0.05799
 Alpha virt. eigenvalues --    0.06041   0.08882   0.10349   0.10764   0.11344
 Alpha virt. eigenvalues --    0.13205   0.13624   0.14472   0.15181   0.16094

 Mulliken charges:
               1
     1  C    0.480262
     2  C    0.425817
     3  O   -1.370376
     4  H    0.254572
     5  H    0.071536
     6  N    3.098394
     7  O   -1.235607
     8  O   -1.244872
     9  O   -1.319911
    10  H    0.068436
    11  H    0.240759
    12  N    2.864723
    13  O   -1.149226
    14  O   -1.184508
 Sum of Mulliken charges =  -0.00000

 Dipole moment (field-independent basis, Debye):
    X=              0.2765    Y=              4.8601    Z=              0.2477  Tot=              4.8742

 Test job not archived.
 1\1\GINC-SE219\SP\RHF\Aug-CC-pVDZ\C2H4N2O6\OHZDE\08-Apr-2025\0\\#t hf
 aug-cc-pvdz iop(5/13=1,5/36=2,99/5=2) pseudo=read geom=check guess=(re
 ad,tcheck) scf=(maxcycle=1)\\title\\0,1\C,0,-0.543462,1.450806,0.50218
 \C,0,0.583861,1.524139,-0.514198\O,0,1.037612,0.230575,-0.951077\H,0,1
 .416779,2.105344,-0.11448\H,0,0.232226,1.978103,-1.441489\N,0,1.921322
 ,-0.432349,-0.030025\O,0,2.225347,0.167445,0.971858\O,0,2.244961,-1.51
 381,-0.413589\O,0,-1.731576,0.880242,-0.075319\H,0,-0.845689,2.461525,
 0.785078\H,0,-0.254297,0.901705,1.39603\N,0,-1.880557,-0.543381,0.1070

 Normal termination of Gaussian 16 at Tue Apr  8 22:39:26 2025.
