 Gaussian 16, Revision C.01,

 ----------------------------------------------------------------------
 #t hf aug-cc-pvdz symm=none int=(grid=ultrafine) guess=(read,tcheck) s
 table=opt
 ----------------------------------------------------------------------
 -----
 title
 -----
 Symbolic Z-matrix:
 Charge =  0 Multiplicity = 2

 SCF Done:  E(UHF) =  -571.745958090     A.U. after   21 cycles
 Normal termination of Gaussian 16 at Tue Apr  8 23:40:51 2025.
 Gaussian 16:  ES64L-G16RevC.01  3-Jul-2019

 ----------------------------------------------------------------------
 #t hf aug-cc-pvdz iop(5/13=1,5/36=2,99/5=2) pseudo=read geom=check gue
 ss=(read,tcheck) scf=(maxcycle=1)
 ----------------------------------------------------------------------
 -----
 title
 -----
 Structure from the checkpoint file:  "BDE49_nonexpt_1635_mol2.chk"
 Charge =  0 Multiplicity = 2

                         Standard orientation:
 ---------------------------------------------------------------------
 Center     Atomic      Atomic             Coordinates (Angstroms)
 Number     Number       Type             X           Y           Z
 ---------------------------------------------------------------------
      1          6           0        1.205440    0.261300    0.165744
      2         15           0       -1.360438   -0.822310   -0.190483
      3          6           0       -2.030313    0.900848   -0.254041
      4          1           0       -2.446547    1.185798    0.718477
      5          1           0       -2.826394    0.951636   -0.999367
      6          1           0       -1.244444    1.618454   -0.505375
      7          8           0        1.183477    1.471570    0.109859
      8          6           0        2.277689   -0.557066   -0.526173
      9          1           0        1.828278   -1.348593   -1.133249
     10          1           0        2.909152   -1.045056    0.223950
     11          1           0        2.892041    0.091086   -1.149450
     12          6           0        0.131920   -0.516382    0.914738
     13          1           0       -0.182889    0.068194    1.782667
     14          1           0        0.501153   -1.491622    1.239107
 ---------------------------------------------------------------------

 SCF Done:  E(UHF) =  -572.028111308     A.U. after    2 cycles

 The electronic state is 2-A.
 Alpha  occ. eigenvalues --  -84.28437 -20.53741 -11.34855 -11.25517 -11.24900
 Alpha  occ. eigenvalues --  -11.23694  -6.75557  -4.28238  -4.27653  -4.27083
 Alpha  occ. eigenvalues --   -1.47344  -1.06391  -1.00439  -0.95429  -0.78309
 Alpha  occ. eigenvalues --   -0.73577  -0.66042  -0.65412  -0.61294  -0.58748
 Alpha  occ. eigenvalues --   -0.58055  -0.57035  -0.55118  -0.50911  -0.45869
 Alpha  occ. eigenvalues --   -0.42428  -0.37111  -0.31433
 Alpha virt. eigenvalues --    0.03397   0.04162   0.04266   0.04987   0.05841
 Alpha virt. eigenvalues --    0.06636   0.07438   0.07651   0.08956   0.10719
 Alpha virt. eigenvalues --    0.11592   0.12452   0.12971   0.13611   0.14730

  Beta  occ. eigenvalues --  -84.27755 -20.53724 -11.34756 -11.25652 -11.24896
  Beta  occ. eigenvalues --  -11.23827  -6.74691  -4.27142  -4.26710  -4.24878
  Beta  occ. eigenvalues --   -1.47289  -1.05768  -0.99520  -0.95304  -0.76057
  Beta  occ. eigenvalues --   -0.70307  -0.65832  -0.65027  -0.60877  -0.58628
  Beta  occ. eigenvalues --   -0.56888  -0.56851  -0.54823  -0.50718  -0.45664
  Beta  occ. eigenvalues --   -0.41756  -0.35164
  Beta virt. eigenvalues --    0.03391   0.03864   0.04298   0.04958   0.05181
  Beta virt. eigenvalues --    0.05871   0.06654   0.07470   0.08306   0.09113
  Beta virt. eigenvalues --    0.10938   0.11905   0.12721   0.13421   0.14566

 Mulliken charges and spin densities:
               1          2
     1  C    1.119097  -0.021793
     2  P    1.044258   1.225476
     3  C   -0.901855  -0.112499
     4  H    0.125128   0.009000
     5  H    0.086288  -0.001420
     6  H    0.102375   0.008247
     7  O   -1.357973   0.010201
     8  C   -0.642067   0.027418
     9  H    0.259623  -0.010450
    10  H    0.264876   0.001900
    11  H    0.117290  -0.000088
    12  C   -0.372615  -0.140537
    13  H    0.129977   0.010055
    14  H    0.025598  -0.005510
 Sum of Mulliken charges =  -0.00000   1.00000

 Dipole moment (field-independent basis, Debye):
    X=              0.0539    Y=             -1.9842    Z=              0.4678  Tot=              2.0393
                          Isotropic Fermi Contact Couplings
        Atom                 a.u.       MegaHertz       Gauss      10(-4) cm-1
     1  C(13)              0.02614      29.38970      10.48698       9.80335
     2  P(31)              0.21484     389.09593     138.83910     129.78843
     3  C(13)             -0.02528     -28.42123     -10.14140      -9.48030
     4  H(1)               0.01245      55.63542      19.85210      18.55798
     5  H(1)               0.00063       2.82626       1.00848       0.94274
     6  H(1)               0.00877      39.20283      13.98854      13.07666
     7  O(17)              0.00114      -0.69309      -0.24731      -0.23119
     8  C(13)             -0.00068      -0.76393      -0.27259      -0.25482

 Normal termination of Gaussian 16 at Tue Apr  8 23:40:55 2025.
