 Gaussian 16, Revision C.01,

 ----------------------------------------------------------------------
 #t hf aug-cc-pvdz symm=none int=(grid=ultrafine) guess=(read,tcheck) s
 table=(opt,rrhf)
 ----------------------------------------------------------------------
 -----
 title
 -----
 Symbolic Z-matrix:
 Charge =  0 Multiplicity = 1

 SCF Done:  E(RHF) =  -653.682578814     A.U. after   14 cycles
 Normal termination of Gaussian 16 at Wed Apr  9 00:22:03 2025.
 Gaussian 16:  ES64L-G16RevC.01  3-Jul-2019

 ----------------------------------------------------------------------
 #t hf aug-cc-pvdz iop(5/13=1,5/36=2,99/5=2) pseudo=read geom=check gue
 ss=(read,tcheck) scf=(maxcycle=1)
 ----------------------------------------------------------------------
 -----
 title
 -----
 Structure from the checkpoint file:  "BDE49_nonexpt_2639_mol1.chk"
 Charge =  0 Multiplicity = 1

                         Standard orientation:
 ---------------------------------------------------------------------
 Center     Atomic      Atomic             Coordinates (Angstroms)
 Number     Number       Type             X           Y           Z
 ---------------------------------------------------------------------
      1          9           0        1.450738   -1.393433    0.285705
      2         16           0        1.818451    0.108001   -0.373385
      3          6           0        0.567846    1.118166    0.451028
      4          6           0       -0.871061    0.985797   -0.054208
      5          1           0        0.648935    0.936450    1.526635
      6          6           0       -1.529533   -0.368210    0.235632
      7          1           0       -0.888525    1.181633   -1.131849
      8          1           0       -1.461399    1.782352    0.418302
      9          6           0       -2.982612   -0.428614   -0.241931
     10          1           0       -1.487139   -0.564502    1.313678
     11          1           0       -0.948308   -1.163254   -0.238507
     12          1           0       -3.595456    0.336113    0.245858
     13          1           0       -3.429987   -1.401566   -0.023197
     14          1           0       -3.051031   -0.268218   -1.322384
     15          1           0        0.953222    2.131041    0.271153
 ---------------------------------------------------------------------

 SCF Done:  E(RHF) =  -654.007027735     A.U. after    2 cycles

 The electronic state is 1-A.
 Alpha  occ. eigenvalues --  -94.02672 -26.45976 -11.28565 -11.24517 -11.23086
 Alpha  occ. eigenvalues --  -11.22624  -8.29965  -6.27777  -6.27454  -6.27186
 Alpha  occ. eigenvalues --   -1.55809  -1.10959  -1.03907  -0.94740  -0.85594
 Alpha  occ. eigenvalues --   -0.80021  -0.67292  -0.65652  -0.64384  -0.62415
 Alpha  occ. eigenvalues --   -0.60492  -0.59840  -0.56322  -0.54049  -0.50590
 Alpha  occ. eigenvalues --   -0.48904  -0.48223  -0.46229  -0.37317
 Alpha virt. eigenvalues --    0.03181   0.03847   0.03924   0.04995   0.06103
 Alpha virt. eigenvalues --    0.06679   0.06750   0.07629   0.09192   0.09361
 Alpha virt. eigenvalues --    0.10138   0.12229   0.13120   0.14379   0.15070

 Mulliken charges:
               1
     1  F   -0.679144
     2  S    0.962040
     3  C   -0.671757
     4  C   -0.359143
     5  H    0.215085
     6  C   -0.365062
     7  H    0.117655
     8  H    0.154350
     9  C   -0.413053
    10  H    0.120986
    11  H    0.179531
    12  H    0.166329
    13  H    0.123291
    14  H    0.169155
    15  H    0.279738
 Sum of Mulliken charges =  -0.00000

 Dipole moment (field-independent basis, Debye):
    X=             -1.2911    Y=              2.1598    Z=              0.3504  Tot=              2.5406

 Test job not archived.
 1\1\GINC-SE253\SP\RHF\Aug-CC-pVDZ\C4H9F1S1\OHZDE\09-Apr-2025\0\\#t hf
 aug-cc-pvdz iop(5/13=1,5/36=2,99/5=2) pseudo=read geom=check guess=(re
 ad,tcheck) scf=(maxcycle=1)\\title\\0,1\F,0,1.450738,-1.393433,0.28570
 5\S,0,1.818451,0.108001,-0.373385\C,0,0.567846,1.118166,0.451028\C,0,-
 0.871061,0.985797,-0.054208\H,0,0.648935,0.93645,1.526635\C,0,-1.52953
 3,-0.36821,0.235632\H,0,-0.888525,1.181633,-1.131849\H,0,-1.461399,1.7
 82352,0.418302\C,0,-2.982612,-0.428614,-0.241931\H,0,-1.487139,-0.5645
 02,1.313678\H,0,-0.948308,-1.163254,-0.238507\H,0,-3.595456,0.336113,0

 Normal termination of Gaussian 16 at Wed Apr  9 00:22:08 2025.
