 Gaussian 16, Revision C.01,

 ----------------------------------------------------------------------
 #t hf aug-cc-pvdz symm=none int=(grid=ultrafine) guess=(read,tcheck) s
 table=(opt,rrhf)
 ----------------------------------------------------------------------
 -----
 title
 -----
 Symbolic Z-matrix:
 Charge =  0 Multiplicity = 1

 SCF Done:  E(RHF) =  -798.563463620     A.U. after   15 cycles
 Normal termination of Gaussian 16 at Tue Apr  8 23:18:58 2025.
 Gaussian 16:  ES64L-G16RevC.01  3-Jul-2019

 ----------------------------------------------------------------------
 #t hf aug-cc-pvdz iop(5/13=1,5/36=2,99/5=2) pseudo=read geom=check gue
 ss=(read,tcheck) scf=(maxcycle=1)
 ----------------------------------------------------------------------
 -----
 title
 -----
 Structure from the checkpoint file:  "BDE49_nonexpt_1071_mol1.chk"
 Charge =  0 Multiplicity = 1

                         Standard orientation:
 ---------------------------------------------------------------------
 Center     Atomic      Atomic             Coordinates (Angstroms)
 Number     Number       Type             X           Y           Z
 ---------------------------------------------------------------------
      1         17           0       -1.889328   -0.018744    0.008346
      2          8           0       -0.369241   -0.823556   -0.251874
      3          6           0        0.768223    0.019535   -0.019956
      4          8           0        1.834186   -0.787820   -0.323086
      5          1           0        1.864829   -1.474091    0.354589
      6          8           0        0.720594    0.394540    1.320239
      7          1           0        1.387952    1.081113    1.438346
      8          8           0        0.844093    1.092653   -0.873161
      9          1           0        0.019411    1.587895   -0.792021
 ---------------------------------------------------------------------

 SCF Done:  E(RHF) =  -798.970252742     A.U. after    2 cycles

 The electronic state is 1-A.
 Alpha  occ. eigenvalues -- -105.63425 -20.64313 -20.59496 -20.59374 -20.59209
 Alpha  occ. eigenvalues --  -11.48647 -10.67645  -7.84625  -7.84101  -7.84059
 Alpha  occ. eigenvalues --   -1.61035  -1.48423  -1.47899  -1.47038  -1.05062
 Alpha  occ. eigenvalues --   -0.90525  -0.82638  -0.74129  -0.73292  -0.66677
 Alpha  occ. eigenvalues --   -0.64876  -0.61151  -0.58965  -0.56632  -0.53754
 Alpha  occ. eigenvalues --   -0.52134  -0.49761  -0.48212  -0.45958
 Alpha virt. eigenvalues --    0.03395   0.04337   0.05612   0.06270   0.09454
 Alpha virt. eigenvalues --    0.11654   0.13150   0.14727   0.14936   0.15212
 Alpha virt. eigenvalues --    0.16259   0.19086   0.20258   0.20998   0.21252

 Mulliken charges:
               1
     1  Cl   0.272254
     2  O   -1.282921
     3  C    3.959211
     4  O   -1.244456
     5  H    0.250401
     6  O   -1.208034
     7  H    0.223615
     8  O   -1.254561
     9  H    0.284490
 Sum of Mulliken charges =   0.00000

 Dipole moment (field-independent basis, Debye):
    X=              0.3366    Y=              1.1710    Z=              1.5726  Tot=              1.9894

 Test job not archived.
 1\1\GINC-SE049\SP\RHF\Aug-CC-pVDZ\C1H3Cl1O4\OHZDE\08-Apr-2025\0\\#t hf
  aug-cc-pvdz iop(5/13=1,5/36=2,99/5=2) pseudo=read geom=check guess=(r
 ead,tcheck) scf=(maxcycle=1)\\title\\0,1\Cl,0,-1.889328,-0.018744,0.00
 8346\O,0,-0.369241,-0.823556,-0.251874\C,0,0.768223,0.019535,-0.019956
 \O,0,1.834186,-0.78782,-0.323086\H,0,1.864829,-1.474091,0.354589\O,0,0
 .720594,0.39454,1.320239\H,0,1.387952,1.081113,1.438346\O,0,0.844093,1
 .092653,-0.873161\H,0,0.019411,1.587895,-0.792021\\Version=ES64L-G16Re
 vC.01\State=1-A\HF=-798.9702527\RMSD=7.981e-03\Dipole=0.1324442,0.4606

 Normal termination of Gaussian 16 at Tue Apr  8 23:19:01 2025.
