 Gaussian 16, Revision C.01,

 ----------------------------------------------------------------------
 #t hf aug-cc-pvdz symm=none int=(grid=ultrafine) guess=(read,tcheck) s
 table=(opt,rrhf)
 ----------------------------------------------------------------------
 -----
 title
 -----
 Symbolic Z-matrix:
 Charge =  0 Multiplicity = 1

 SCF Done:  E(RHF) =  -344.623457477     A.U. after   15 cycles
 Normal termination of Gaussian 16 at Tue Apr  8 22:42:10 2025.
 Gaussian 16:  ES64L-G16RevC.01  3-Jul-2019

 ----------------------------------------------------------------------
 #t hf aug-cc-pvdz iop(5/13=1,5/36=2,99/5=2) pseudo=read geom=check gue
 ss=(read,tcheck) scf=(maxcycle=1)
 ----------------------------------------------------------------------
 -----
 title
 -----
 Structure from the checkpoint file:  "BDE49_expt_1395_mol1.chk"
 Charge =  0 Multiplicity = 1

                         Standard orientation:
 ---------------------------------------------------------------------
 Center     Atomic      Atomic             Coordinates (Angstroms)
 Number     Number       Type             X           Y           Z
 ---------------------------------------------------------------------
      1          6           0        0.885595   -2.128047    0.000000
      2          6           0        1.805419   -1.076346    0.000000
      3          6           0        1.371054    0.240891    0.000000
      4          6           0       -0.473482   -1.838740    0.000000
      5          6           0       -0.926884   -0.517667    0.000000
      6          6           0        0.000000    0.528174    0.000000
      7          1           0        1.227964   -3.155999    0.000000
      8          1           0        2.869464   -1.285458    0.000000
      9          1           0        2.069658    1.068861    0.000000
     10          1           0       -1.200027   -2.643890    0.000000
     11          1           0       -1.990341   -0.320030    0.000000
     12          8           0       -0.325952    1.853082    0.000000
     13          6           0       -1.698627    2.212910    0.000000
     14          1           0       -1.721295    3.301608    0.000000
     15          1           0       -2.213131    1.841599    0.893787
     16          1           0       -2.213131    1.841599   -0.893787
 ---------------------------------------------------------------------

 SCF Done:  E(RHF) =  -344.979776681     A.U. after    2 cycles

 The electronic state is 1-A'.
 Alpha  occ. eigenvalues --  -20.57161 -11.30623 -11.29572 -11.24668 -11.24529
 Alpha  occ. eigenvalues --  -11.23795 -11.23370 -11.23290  -1.49565  -1.14927
 Alpha  occ. eigenvalues --   -1.02442  -1.01560  -0.94549  -0.84082  -0.81599
 Alpha  occ. eigenvalues --   -0.73095  -0.67338  -0.67149  -0.65604  -0.62876
 Alpha  occ. eigenvalues --   -0.60088  -0.58654  -0.53347  -0.53193  -0.52073
 Alpha  occ. eigenvalues --   -0.48707  -0.46892  -0.34871  -0.31762
 Alpha virt. eigenvalues --    0.03441   0.03644   0.03931   0.05057   0.05351
 Alpha virt. eigenvalues --    0.05389   0.07313   0.09062   0.10267   0.10404
 Alpha virt. eigenvalues --    0.11979   0.13006   0.13250   0.13611   0.14052

 Mulliken charges:
               1
     1  C   -0.045793
     2  C    0.662431
     3  C   -0.246872
     4  C    0.606103
     5  C   -0.316827
     6  C    2.109727
     7  H   -0.217368
     8  H   -0.214277
     9  H   -0.259491
    10  H   -0.224465
    11  H   -0.427035
    12  O   -1.862191
    13  C    0.116513
    14  H   -0.038143
    15  H    0.178844
    16  H    0.178844
 Sum of Mulliken charges =  -0.00000

 Dipole moment (field-independent basis, Debye):
    X=             -1.3129    Y=              0.0425    Z=              0.0000  Tot=              1.3136

 Test job not archived.
 1\1\GINC-SE247\SP\RHF\Aug-CC-pVDZ\C7H8O1\OHZDE\08-Apr-2025\0\\#t hf au
 g-cc-pvdz iop(5/13=1,5/36=2,99/5=2) pseudo=read geom=check guess=(read
 ,tcheck) scf=(maxcycle=1)\\title\\0,1\C,0,2.281208,0.330075,0.\C,0,1.8
 49478,-0.998744,0.\C,0,0.495758,-1.300785,0.\C,0,1.336302,1.348868,0.\
 C,0,-0.030467,1.061209,0.\C,0,-0.453548,-0.270669,0.\H,0,3.339372,0.56
 2866,0.\H,0,2.574327,-1.805288,0.\H,0,0.14278,-2.324987,0.\H,0,1.65536
 5,2.385369,0.\H,0,-0.745162,1.873129,0.\O,0,-1.758298,-0.669737,0.\C,0
 ,-2.77073,0.324595,0.\H,0,-3.717222,-0.213857,0.\H,0,-2.715545,0.95668

 Normal termination of Gaussian 16 at Tue Apr  8 22:42:16 2025.
