 Gaussian 16, Revision C.01,

 ----------------------------------------------------------------------
 #t hf aug-cc-pvdz symm=none int=(grid=ultrafine) guess=(read,tcheck) s
 table=opt
 ----------------------------------------------------------------------
 -----
 title
 -----
 Symbolic Z-matrix:
 Charge =  0 Multiplicity = 2

 SCF Done:  E(UHF) =  -597.532775745     A.U. after   19 cycles
 Normal termination of Gaussian 16 at Wed Apr  9 00:30:44 2025.
 Gaussian 16:  ES64L-G16RevC.01  3-Jul-2019

 ----------------------------------------------------------------------
 #t hf aug-cc-pvdz iop(5/13=1,5/36=2,99/5=2) pseudo=read geom=check gue
 ss=(read,tcheck) scf=(maxcycle=1)
 ----------------------------------------------------------------------
 -----
 title
 -----
 Structure from the checkpoint file:  "BDE49_nonexpt_34_mol2.chk"
 Charge =  0 Multiplicity = 2

                         Standard orientation:
 ---------------------------------------------------------------------
 Center     Atomic      Atomic             Coordinates (Angstroms)
 Number     Number       Type             X           Y           Z
 ---------------------------------------------------------------------
      1          5           0        0.061222    0.792536    0.000029
      2          6           0       -1.264363    0.134643    0.000013
      3          8           0       -2.308168   -0.352151    0.000004
      4         17           0        1.508459   -0.231024   -0.000015
      5          1           0        0.101601    1.974078    0.000006
 ---------------------------------------------------------------------

 SCF Done:  E(UHF) =  -597.737145062     A.U. after    2 cycles

 The electronic state is 2-A.
 Alpha  occ. eigenvalues -- -105.57513 -20.66706 -11.40114 -10.62471  -7.79313
 Alpha  occ. eigenvalues --   -7.79191  -7.79033  -7.67519  -1.60933  -1.08562
 Alpha  occ. eigenvalues --   -0.92711  -0.77724  -0.70938  -0.65577  -0.62907
 Alpha  occ. eigenvalues --   -0.56363  -0.51683  -0.47164  -0.34724
 Alpha virt. eigenvalues --    0.04298   0.04665   0.04853   0.04856   0.08441
 Alpha virt. eigenvalues --    0.09165   0.11471   0.12576   0.12600   0.13682
 Alpha virt. eigenvalues --    0.15992   0.17149   0.17516   0.18342   0.23741

  Beta  occ. eigenvalues -- -105.57462 -20.65303 -11.39651 -10.62418  -7.79377
  Beta  occ. eigenvalues --   -7.79006  -7.78890  -7.66916  -1.58031  -1.07752
  Beta  occ. eigenvalues --   -0.87383  -0.75628  -0.64421  -0.62046  -0.60466
  Beta  occ. eigenvalues --   -0.55911  -0.49090  -0.46993
  Beta virt. eigenvalues --    0.02159   0.04365   0.04757   0.05003   0.05779
  Beta virt. eigenvalues --    0.09269   0.09406   0.11559   0.12669   0.13003
  Beta virt. eigenvalues --    0.16092   0.16803   0.17465   0.18366   0.21385

 Mulliken charges and spin densities:
               1          2
     1  B    0.213229   0.336102
     2  C    0.592947   0.397071
     3  O   -0.739242   0.267597
     4  Cl  -0.310234   0.027583
     5  H    0.243300  -0.028352
 Sum of Mulliken charges =  -0.00000   1.00000

 Dipole moment (field-independent basis, Debye):
    X=             -0.6898    Y=              0.7927    Z=              0.0000  Tot=              1.0508
                          Isotropic Fermi Contact Couplings
        Atom                 a.u.       MegaHertz       Gauss      10(-4) cm-1
     1  B(11)              0.03574      51.26949      18.29423      17.10166
     2  C(13)             -0.01124     -12.63534      -4.50860      -4.21470
     3  O(17)              0.10738     -65.09599     -23.22787     -21.71368
     4  Cl(35)             0.02230       9.77568       3.48821       3.26082
     5  H(1)              -0.01089     -48.67739     -17.36930     -16.23703
 --------------------------------------------------------
       Center         ----  Spin Dipole Couplings  ----
                      3XX-RR        3YY-RR        3ZZ-RR

 1\1\GINC-SE212\SP\UHF\Aug-CC-pVDZ\C1H1B1Cl1O1(2)\OHZDE\09-Apr-2025\0\\
 #t hf aug-cc-pvdz iop(5/13=1,5/36=2,99/5=2) pseudo=read geom=check gue
 ss=(read,tcheck) scf=(maxcycle=1)\\title\\0,2\B,0,-0.061222,0.792536,-
 0.000029\C,0,1.264363,0.134643,-0.000013\O,0,2.308168,-0.352151,-0.000
 004\Cl,0,-1.508459,-0.231024,0.000015\H,0,-0.101601,1.974078,-0.000006
 \\Version=ES64L-G16RevC.01\State=2-A\HF=-597.7371451\S2=0.762438\S2-1=
 0.\S2A=0.750105\RMSD=7.791e-03\Dipole=0.2713881,0.3118588,-0.0000149\Q
 uadrupole=-1.8736882,1.1720003,0.701688,0.8673834,-0.0000088,-0.00002\

 Normal termination of Gaussian 16 at Wed Apr  9 00:30:46 2025.
