 Gaussian 16, Revision C.01,

 ----------------------------------------------------------------------
 #t hf aug-cc-pvdz symm=none int=(grid=ultrafine) guess=(read,tcheck) s
 table=(opt,rrhf)
 ----------------------------------------------------------------------
 -----
 title
 -----
 Symbolic Z-matrix:
 Charge =  0 Multiplicity = 1

 SCF Done:  E(RHF) =  -515.994435220     A.U. after   15 cycles
 Normal termination of Gaussian 16 at Wed Apr  9 00:40:47 2025.
 Gaussian 16:  ES64L-G16RevC.01  3-Jul-2019

 ----------------------------------------------------------------------
 #t hf aug-cc-pvdz iop(5/13=1,5/36=2,99/5=2) pseudo=read geom=check gue
 ss=(read,tcheck) scf=(maxcycle=1)
 ----------------------------------------------------------------------
 -----
 title
 -----
 Structure from the checkpoint file:  "BDE49_nonexpt_596_mol1.chk"
 Charge =  0 Multiplicity = 1

                         Standard orientation:
 ---------------------------------------------------------------------
 Center     Atomic      Atomic             Coordinates (Angstroms)
 Number     Number       Type             X           Y           Z
 ---------------------------------------------------------------------
      1          6           0        2.087010   -1.667627    0.257858
      2          6           0        0.711282   -1.788379    0.100071
      3          6           0        2.721203   -0.433221    0.177560
      4          6           0        1.965052    0.716327   -0.093756
      5          6           0        0.578549    0.596956   -0.269875
      6          6           0       -0.060603   -0.645832   -0.158892
      7          1           0        0.007614    1.472072   -0.561072
      8          1           0        3.794009   -0.354982    0.316476
      9          1           0        2.678221   -2.554714    0.458090
     10          1           0        0.227521   -2.754441    0.190717
     11          5           0       -2.482322    0.165642    0.038296
     12          8           0       -3.767544   -0.187390   -0.287110
     13          8           0       -2.267827    1.356297    0.689257
     14          7           0        2.573542    1.970173   -0.150191
     15          1           0        3.557125    1.958776   -0.376397
     16          1           0        2.073039    2.670098   -0.678192
     17          1           0       -4.399515    0.458046    0.041221
     18          1           0       -1.363651    1.461336    1.001251
     19          7           0       -1.449509   -0.759885   -0.318003
     20          1           0       -1.762978   -1.677019   -0.601181
 ---------------------------------------------------------------------

 SCF Done:  E(RHF) =  -516.519591062     A.U. after    2 cycles

 The electronic state is 1-A.
 Alpha  occ. eigenvalues --  -20.55257 -20.54674 -15.51540 -15.49867 -11.29393
 Alpha  occ. eigenvalues --  -11.29322 -11.25088 -11.23054 -11.22692 -11.22560
 Alpha  occ. eigenvalues --   -7.64894  -1.47542  -1.43444  -1.23571  -1.21723
 Alpha  occ. eigenvalues --   -1.11776  -1.01084  -0.99122  -0.85615  -0.84433
 Alpha  occ. eigenvalues --   -0.77965  -0.75253  -0.74203  -0.70893  -0.70214
 Alpha  occ. eigenvalues --   -0.67808  -0.64211  -0.62358  -0.60690  -0.58317
 Alpha  occ. eigenvalues --   -0.56376  -0.55902  -0.55059  -0.53702  -0.52192
 Alpha  occ. eigenvalues --   -0.50221  -0.48824  -0.44662  -0.33811  -0.30989
 Alpha virt. eigenvalues --    0.02914   0.03619   0.03934   0.04624   0.05035
 Alpha virt. eigenvalues --    0.05639   0.06438   0.07422   0.07776   0.08275
 Alpha virt. eigenvalues --    0.09329   0.09590   0.10629   0.10715   0.11736

 Mulliken charges:
               1
     1  C    0.344408
     2  C    0.285591
     3  C    0.603062
     4  C   -1.288880
     5  C    1.059452
     6  C   -1.775301
     7  H   -0.456198
     8  H   -0.292624
     9  H   -0.232642
    10  H   -0.321595
    11  B    1.462855
    12  O   -1.349881
    13  O   -1.330228
    14  N    0.720924
    15  H    0.031691
    16  H    0.031856
    17  H    0.491304
    18  H    0.656305
    19  N    1.387068
    20  H   -0.027171
 Sum of Mulliken charges =  -0.00000

 Dipole moment (field-independent basis, Debye):
    X=              1.6972    Y=              0.5305    Z=             -0.4884  Tot=              1.8440

 Test job not archived.
 1\1\GINC-SE041\SP\RHF\Aug-CC-pVDZ\C6H9B1N2O2\OHZDE\09-Apr-2025\0\\#t h
 f aug-cc-pvdz iop(5/13=1,5/36=2,99/5=2) pseudo=read geom=check guess=(
 read,tcheck) scf=(maxcycle=1)\\title\\0,1\C,0,-2.08701,1.667627,0.2578
 58\C,0,-0.711282,1.788379,0.100071\C,0,-2.721203,0.433221,0.17756\C,0,
 -1.965052,-0.716327,-0.093756\C,0,-0.578549,-0.596956,-0.269875\C,0,0.
 060603,0.645832,-0.158892\H,0,-0.007614,-1.472072,-0.561072\H,0,-3.794
 009,0.354982,0.316476\H,0,-2.678221,2.554714,0.45809\H,0,-0.227521,2.7
 54441,0.190717\B,0,2.482322,-0.165642,0.038296\O,0,3.767544,0.18739,-0

 Normal termination of Gaussian 16 at Wed Apr  9 00:41:00 2025.
