 Gaussian 16, Revision C.01,

 ----------------------------------------------------------------------
 #t hf aug-cc-pvdz symm=none int=(grid=ultrafine) guess=(read,tcheck) s
 table=(opt,rrhf)
 ----------------------------------------------------------------------
 -----
 title
 -----
 Symbolic Z-matrix:
 Charge =  0 Multiplicity = 1

 SCF Done:  E(RHF) =  -1043.29316614     A.U. after   11 cycles

 1\1\GINC-SE109\Stability\RHF\Aug-CC-pVDZ\B1Cl2F1\OHZDE\09-Apr-2025\0\\
 #t hf aug-cc-pvdz symm=none int=(grid=ultrafine) guess=(read,tcheck) s
 table=(opt,rrhf)\\title\\0,1\Cl,0,0.,1.528606,-0.49653\B,0,0.,0.,0.360
 609\Cl,0,0.,-1.528606,-0.49653\F,0,0.,0.,1.67544\\Version=ES64L-G16Rev
 C.01\HF=-1043.2931661\RMSD=7.009e-09\Dipole=0.,0.,-0.0928185\Quadrupol
 e=1.3192286,-0.0604233,-1.2588053,0.,0.,0.\PG=Unknown\\@
 The archive entry for this job was punched.

 Normal termination of Gaussian 16 at Wed Apr  9 00:09:28 2025.
 Gaussian 16:  ES64L-G16RevC.01  3-Jul-2019

 ----------------------------------------------------------------------
 #t hf aug-cc-pvdz iop(5/13=1,5/36=2,99/5=2) pseudo=read geom=check gue
 ss=(read,tcheck) scf=(maxcycle=1)
 ----------------------------------------------------------------------
 -----
 title
 -----
 Structure from the checkpoint file:  "BDE49_nonexpt_231_mol1.chk"
 Charge =  0 Multiplicity = 1

                         Standard orientation:
 ---------------------------------------------------------------------
 Center     Atomic      Atomic             Coordinates (Angstroms)
 Number     Number       Type             X           Y           Z
 ---------------------------------------------------------------------
      1         17           0        0.000000    1.528606   -0.496530
      2          5           0        0.000000   -0.000000    0.360609
      3         17           0       -0.000000   -1.528606   -0.496530
      4          9           0        0.000000   -0.000000    1.675440
 ---------------------------------------------------------------------

 SCF Done:  E(RHF) =  -1043.55634192     A.U. after    2 cycles

 The electronic state is 1-A1.
 Alpha  occ. eigenvalues -- -105.59494-105.59494 -26.51033 -10.64551 -10.64522
 Alpha  occ. eigenvalues --   -7.81446  -7.81424  -7.81127  -7.81125  -7.81092
 Alpha  occ. eigenvalues --   -7.81082  -7.78887  -1.64574  -1.12437  -1.08236
 Alpha  occ. eigenvalues --   -0.80764  -0.72177  -0.70079  -0.67333  -0.56954
 Alpha  occ. eigenvalues --   -0.53448  -0.52281  -0.49730  -0.48282
 Alpha virt. eigenvalues --    0.04785   0.05252   0.05586   0.05866   0.09662
 Alpha virt. eigenvalues --    0.12705   0.12730   0.14965   0.15354   0.17696
 Alpha virt. eigenvalues --    0.18222   0.19731   0.24107   0.24226   0.25376

 Mulliken charges:
               1
     1  Cl  -0.273559
     2  B    1.120898
     3  Cl  -0.273559
     4  F   -0.573780
 Sum of Mulliken charges =  -0.00000

 Dipole moment (field-independent basis, Debye):
    X=              0.0000    Y=             -0.0000    Z=             -0.1136  Tot=              0.1136

 Test job not archived.
 1\1\GINC-SE109\SP\RHF\Aug-CC-pVDZ\B1Cl2F1\OHZDE\09-Apr-2025\0\\#t hf a
 ug-cc-pvdz iop(5/13=1,5/36=2,99/5=2) pseudo=read geom=check guess=(rea
 d,tcheck) scf=(maxcycle=1)\\title\\0,1\Cl,0,0.,1.528606,-0.49653\B,0,0
 .,0.,0.360609\Cl,0,0.,-1.528606,-0.49653\F,0,0.,0.,1.67544\\Version=ES
 64L-G16RevC.01\State=1-A1\HF=-1043.5563419\RMSD=4.311e-03\Dipole=0.,0.
 ,-0.0446923\Quadrupole=1.1265414,-0.057734,-1.0688074,0.,0.,0.\PG=C02V
  [C2(B1F1),SGV(Cl2)]\\@

 Normal termination of Gaussian 16 at Wed Apr  9 00:09:30 2025.
