 Gaussian 16, Revision C.01,

 ----------------------------------------------------------------------
 #t hf aug-cc-pvdz symm=none int=(grid=ultrafine) guess=(read,tcheck) s
 table=(opt,rrhf)
 ----------------------------------------------------------------------
 -----
 title
 -----
 Symbolic Z-matrix:
 Charge =  0 Multiplicity = 1

 SCF Done:  E(RHF) =  -743.945771041     A.U. after   14 cycles
 Normal termination of Gaussian 16 at Wed Apr  9 00:47:33 2025.
 Gaussian 16:  ES64L-G16RevC.01  3-Jul-2019

 ----------------------------------------------------------------------
 #t hf aug-cc-pvdz iop(5/13=1,5/36=2,99/5=2) pseudo=read geom=check gue
 ss=(read,tcheck) scf=(maxcycle=1)
 ----------------------------------------------------------------------
 -----
 title
 -----
 Structure from the checkpoint file:  "BDE49_nonexpt_823_mol1.chk"
 Charge =  0 Multiplicity = 1

                         Standard orientation:
 ---------------------------------------------------------------------
 Center     Atomic      Atomic             Coordinates (Angstroms)
 Number     Number       Type             X           Y           Z
 ---------------------------------------------------------------------
      1          6           0       -0.666971   -0.386178    0.202779
      2          5           0        2.481846    0.224724   -0.144643
      3          9           0        2.394243    1.536153    0.067734
      4          9           0        3.550541   -0.181022   -0.816974
      5          6           0       -0.970471    0.977412    0.351249
      6          6           0       -1.694802   -1.252524   -0.201582
      7          6           0       -2.256799    1.454680    0.113104
      8          6           0       -3.265224    0.578031   -0.282955
      9          6           0       -2.982159   -0.776552   -0.441637
     10          1           0       -3.762201   -1.462285   -0.753564
     11          1           0       -1.490012   -2.310152   -0.333380
     12          1           0       -2.470942    2.510943    0.232947
     13          1           0       -4.266343    0.950024   -0.470427
     14          1           0       -0.195933    1.676870    0.647962
     15         14           0        1.057233   -1.048205    0.553283
     16          1           0        1.207109   -2.386315   -0.064883
     17          1           0        1.283324   -1.193230    2.016015
 ---------------------------------------------------------------------

 SCF Done:  E(RHF) =  -744.418058103     A.U. after    2 cycles

 The electronic state is 1-A.
 Alpha  occ. eigenvalues --  -69.53342 -26.48213 -26.48142 -11.25545 -11.25442
 Alpha  occ. eigenvalues --  -11.25403 -11.25047 -11.25019 -11.24237  -7.72166
 Alpha  occ. eigenvalues --   -6.20572  -3.95924  -3.95910  -3.95900  -1.63325
 Alpha  occ. eigenvalues --   -1.59119  -1.15988  -1.02442  -1.02433  -0.84657
 Alpha  occ. eigenvalues --   -0.84109  -0.81303  -0.76706  -0.74207  -0.71587
 Alpha  occ. eigenvalues --   -0.69354  -0.68281  -0.64833  -0.64088  -0.63366
 Alpha  occ. eigenvalues --   -0.62668  -0.60616  -0.56950  -0.52665  -0.51278
 Alpha  occ. eigenvalues --   -0.49239  -0.47427  -0.45560  -0.35390  -0.35241
 Alpha virt. eigenvalues --    0.03205   0.03518   0.03735   0.04501   0.04704
 Alpha virt. eigenvalues --    0.05144   0.06149   0.07177   0.07530   0.07898
 Alpha virt. eigenvalues --    0.08268   0.09167   0.09490   0.10238   0.11109

 Mulliken charges:
               1
     1  C   -0.343449
     2  B    1.328960
     3  F   -0.825041
     4  F   -0.706718
     5  C    0.310267
     6  C    0.109840
     7  C    0.467873
     8  C    0.169907
     9  C    0.469982
    10  H   -0.214293
    11  H   -0.335684
    12  H   -0.215248
    13  H   -0.209575
    14  H   -0.304938
    15  Si   0.520504
    16  H   -0.077056
    17  H   -0.145331
 Sum of Mulliken charges =  -0.00000

 Dipole moment (field-independent basis, Debye):
    X=             -1.7412    Y=             -0.3552    Z=              0.1772  Tot=              1.7859

 Test job not archived.
 1\1\GINC-SE184\SP\RHF\Aug-CC-pVDZ\C6H7B1F2Si1\OHZDE\09-Apr-2025\0\\#t
 hf aug-cc-pvdz iop(5/13=1,5/36=2,99/5=2) pseudo=read geom=check guess=
 (read,tcheck) scf=(maxcycle=1)\\title\\0,1\C,0,-0.666971,-0.386178,0.2
 02779\B,0,2.481846,0.224724,-0.144643\F,0,2.394243,1.536153,0.067734\F
 ,0,3.550541,-0.181022,-0.816974\C,0,-0.970471,0.977412,0.351249\C,0,-1
 .694802,-1.252524,-0.201582\C,0,-2.256799,1.45468,0.113104\C,0,-3.2652
 24,0.578031,-0.282955\C,0,-2.982159,-0.776552,-0.441637\H,0,-3.762201,
 -1.462285,-0.753564\H,0,-1.490012,-2.310152,-0.33338\H,0,-2.470942,2.5

 Normal termination of Gaussian 16 at Wed Apr  9 00:47:42 2025.
