 Gaussian 16, Revision C.01,

 ----------------------------------------------------------------------
 #t hf aug-cc-pvdz symm=none int=(grid=ultrafine) guess=(read,tcheck) s
 table=(opt,rrhf)
 ----------------------------------------------------------------------
 -----
 title
 -----
 Symbolic Z-matrix:
 Charge =  0 Multiplicity = 1

 SCF Done:  E(RHF) =  -1174.96108114     A.U. after   10 cycles
 Normal termination of Gaussian 16 at Tue Apr  8 22:58:46 2025.
 Gaussian 16:  ES64L-G16RevC.01  3-Jul-2019

 ----------------------------------------------------------------------
 #t hf aug-cc-pvdz iop(5/13=1,5/36=2,99/5=2) pseudo=read geom=check gue
 ss=(read,tcheck) scf=(maxcycle=1)
 ----------------------------------------------------------------------
 -----
 title
 -----
 Structure from the checkpoint file:  "BDE49_expt_1942_mol1.chk"
 Charge =  0 Multiplicity = 1

                         Standard orientation:
 ---------------------------------------------------------------------
 Center     Atomic      Atomic             Coordinates (Angstroms)
 Number     Number       Type             X           Y           Z
 ---------------------------------------------------------------------
      1         14           0       -1.167143   -0.000006   -0.000005
      2         14           0        1.167143    0.000006    0.000006
      3          9           0        1.723659   -1.078183    1.016335
      4          9           0        1.723651   -0.341087   -1.441897
      5          9           0        1.723634    1.419283    0.425555
      6          9           0       -1.723657    1.078191   -1.016327
      7          9           0       -1.723634   -1.419279   -0.425567
      8          9           0       -1.723653    0.341076    1.441899
 ---------------------------------------------------------------------

 SCF Done:  E(RHF) =  -1175.56004065     A.U. after    2 cycles

 The electronic state is 1-A.
 Alpha  occ. eigenvalues --  -69.70763 -69.70763 -26.50700 -26.50699 -26.50699
 Alpha  occ. eigenvalues --  -26.50699 -26.50698 -26.50698  -6.36628  -6.36616
 Alpha  occ. eigenvalues --   -4.11925  -4.11925  -4.11912  -4.11912  -4.11695
 Alpha  occ. eigenvalues --   -4.11594  -1.64661  -1.64429  -1.61257  -1.61257
 Alpha  occ. eigenvalues --   -1.61221  -1.61221  -0.86360  -0.83026  -0.75708
 Alpha  occ. eigenvalues --   -0.75708  -0.75182  -0.75182  -0.75171  -0.71006
 Alpha  occ. eigenvalues --   -0.69452  -0.69452  -0.69279  -0.69279  -0.66914
 Alpha  occ. eigenvalues --   -0.66913  -0.66294  -0.66293  -0.64888  -0.64792
 Alpha  occ. eigenvalues --   -0.52266
 Alpha virt. eigenvalues --    0.04478   0.05090   0.05090   0.05913   0.08169
 Alpha virt. eigenvalues --    0.08169   0.08367   0.11745   0.11745   0.14185
 Alpha virt. eigenvalues --    0.17934   0.17934   0.22279   0.22820   0.22820

 Mulliken charges:
               1
     1  Si   2.449840
     2  Si   2.449839
     3  F   -0.816614
     4  F   -0.816615
     5  F   -0.816610
     6  F   -0.816614
     7  F   -0.816610
     8  F   -0.816615
 Sum of Mulliken charges =   0.00000

 Dipole moment (field-independent basis, Debye):
    X=             -0.0000    Y=             -0.0000    Z=              0.0000  Tot=              0.0000

 Test job not archived.
 1\1\GINC-SE039\SP\RHF\Aug-CC-pVDZ\F6Si2\OHZDE\08-Apr-2025\0\\#t hf aug
 -cc-pvdz iop(5/13=1,5/36=2,99/5=2) pseudo=read geom=check guess=(read,
 tcheck) scf=(maxcycle=1)\\title\\0,1\Si,0,1.167143,0.000006,-0.000005\
 Si,0,-1.167143,-0.000006,0.000006\F,0,-1.723659,1.073554,1.021224\F,0,
 -1.723651,0.347635,-1.440332\F,0,-1.723634,-1.421202,0.419102\F,0,1.72
 3657,-1.073562,-1.021216\F,0,1.723634,1.421198,-0.419114\F,0,1.723653,
 -0.347624,1.440334\\Version=ES64L-G16RevC.01\State=1-A\HF=-1175.560040
 6\RMSD=1.988e-03\Dipole=0.0000004,0.0000007,0.000004\Quadrupole=-0.448

 Normal termination of Gaussian 16 at Tue Apr  8 22:58:52 2025.
