 Gaussian 16, Revision C.01,

 ----------------------------------------------------------------------
 #t hf aug-cc-pvdz symm=none int=(grid=ultrafine) guess=(read,tcheck) s
 table=(opt,rrhf)
 ----------------------------------------------------------------------
 -----
 title
 -----
 Symbolic Z-matrix:
 Charge =  0 Multiplicity = 1

 SCF Done:  E(RHF) =  -780.217421789     A.U. after   14 cycles
 Normal termination of Gaussian 16 at Tue Apr  8 23:41:16 2025.
 Gaussian 16:  ES64L-G16RevC.01  3-Jul-2019

 ----------------------------------------------------------------------
 #t hf aug-cc-pvdz iop(5/13=1,5/36=2,99/5=2) pseudo=read geom=check gue
 ss=(read,tcheck) scf=(maxcycle=1)
 ----------------------------------------------------------------------
 -----
 title
 -----
 Structure from the checkpoint file:  "BDE49_nonexpt_1570_mol1.chk"
 Charge =  0 Multiplicity = 1

                         Standard orientation:
 ---------------------------------------------------------------------
 Center     Atomic      Atomic             Coordinates (Angstroms)
 Number     Number       Type             X           Y           Z
 ---------------------------------------------------------------------
      1          6           0        2.268335    1.490151   -0.128151
      2          6           0        0.901985    1.019195   -0.649629
      3          6           0        3.302469    0.356461   -0.151667
      4          1           0        2.155929    1.856025    0.900578
      5          1           0        2.621059    2.338523   -0.723666
      6          6           0        2.799597   -0.874251    0.615018
      7          1           0        4.253182    0.700510    0.268088
      8          1           0        3.504849    0.074987   -1.193209
      9          6           0        1.431647   -1.347774    0.097720
     10          1           0        2.712668   -0.626540    1.680473
     11          1           0        3.525610   -1.690468    0.542531
     12          6           0        0.392021   -0.209028    0.127387
     13          1           0        1.082001   -2.195757    0.695650
     14          1           0        1.544458   -1.714033   -0.931442
     15          1           0        0.990079    0.761155   -1.713260
     16          1           0        0.171544    1.831039   -0.587575
     17          7           0       -2.291020    0.465490   -0.015891
     18          8           0       -3.608112    0.062016   -0.413188
     19          8           0       -2.289134    0.520216    1.412495
     20          1           0       -2.390521    1.462144    1.597602
     21          1           0       -3.980622    0.870491   -0.784257
     22         15           0       -1.217826   -0.832606   -0.580949
     23          1           0        0.207038    0.075554    1.167841
     24          1           0       -1.491099   -1.779339    0.447599
 ---------------------------------------------------------------------

 SCF Done:  E(RHF) =  -780.720219683     A.U. after    2 cycles

 The electronic state is 1-A.
 Alpha  occ. eigenvalues --  -84.28793 -20.58963 -20.58828 -15.60859 -11.23837
 Alpha  occ. eigenvalues --  -11.23430 -11.23046 -11.22925 -11.22823 -11.22717
 Alpha  occ. eigenvalues --   -6.75621  -4.28661  -4.28187  -4.27502  -1.53158
 Alpha  occ. eigenvalues --   -1.44079  -1.12561  -1.06700  -1.00921  -1.00624
 Alpha  occ. eigenvalues --   -0.85970  -0.84039  -0.78748  -0.75692  -0.72798
 Alpha  occ. eigenvalues --   -0.71470  -0.65631  -0.64301  -0.61429  -0.61141
 Alpha  occ. eigenvalues --   -0.60536  -0.59332  -0.54032  -0.53814  -0.51290
 Alpha  occ. eigenvalues --   -0.50443  -0.49526  -0.49208  -0.48160  -0.46174
 Alpha  occ. eigenvalues --   -0.44539  -0.43814  -0.41715  -0.33808
 Alpha virt. eigenvalues --    0.03091   0.03592   0.03648   0.03974   0.05282
 Alpha virt. eigenvalues --    0.05473   0.06007   0.06497   0.06894   0.07676
 Alpha virt. eigenvalues --    0.08379   0.09091   0.09448   0.10055   0.10894

 Mulliken charges:
               1
     1  C   -0.304668
     2  C   -0.412930
     3  C   -0.287123
     4  H    0.152872
     5  H    0.108011
     6  C   -0.202888
     7  H    0.114597
     8  H    0.151275
     9  C   -0.243247
    10  H    0.151819
    11  H    0.113191
    12  C    0.011053
    13  H    0.076570
    14  H    0.157150
    15  H    0.177917
    16  H    0.104031
    17  N    0.998211
    18  O   -0.952704
    19  O   -1.051691
    20  H    0.300899
    21  H    0.293634
    22  P    0.172581
    23  H    0.088210
    24  H    0.283229
 Sum of Mulliken charges =  -0.00000

 Dipole moment (field-independent basis, Debye):
    X=              1.0965    Y=              1.8816    Z=              0.2285  Tot=              2.1897

 Test job not archived.
 1\1\GINC-SE453\SP\RHF\Aug-CC-pVDZ\C6H14N1O2P1\OHZDE\08-Apr-2025\0\\#t
 hf aug-cc-pvdz iop(5/13=1,5/36=2,99/5=2) pseudo=read geom=check guess=
 (read,tcheck) scf=(maxcycle=1)\\title\\0,1\C,0,2.268335,1.490151,-0.12
 8151\C,0,0.901985,1.019195,-0.649629\C,0,3.302469,0.356461,-0.151667\H
 ,0,2.155929,1.856025,0.900578\H,0,2.621059,2.338523,-0.723666\C,0,2.79
 9597,-0.874251,0.615018\H,0,4.253182,0.70051,0.268088\H,0,3.504849,0.0
 74987,-1.193209\C,0,1.431647,-1.347774,0.09772\H,0,2.712668,-0.62654,1
 .680473\H,0,3.52561,-1.690468,0.542531\C,0,0.392021,-0.209028,0.127387

 Normal termination of Gaussian 16 at Tue Apr  8 23:41:31 2025.
