 Gaussian 16, Revision C.01,

 ----------------------------------------------------------------------
 #t hf aug-cc-pvdz symm=none int=(grid=ultrafine) guess=(read,tcheck) s
 table=opt
 ----------------------------------------------------------------------
 -----
 title
 -----
 Symbolic Z-matrix:
 Charge =  0 Multiplicity = 2

 SCF Done:  E(UHF) =  -655.646539235     A.U. after   15 cycles

 1\1\GINC-SE461\Stability\UHF\Aug-CC-pVDZ\H5O1Si2\OHZDE\09-Apr-2025\0\\
 #t hf aug-cc-pvdz symm=none int=(grid=ultrafine) guess=(read,tcheck) s
 table=opt\\title\\0,2\Si,0,0.659733,-0.527325,0.010869\O,0,1.74291,0.7
 28209,-0.079426\H,0,1.674243,1.443483,0.557282\Si,0,-1.606605,0.086001
 ,-0.014296\H,0,-2.059851,0.894528,-1.174894\H,0,-2.117276,0.700712,1.2
 39077\H,0,0.866435,-1.333993,1.240802\H,0,0.94939,-1.351876,-1.178883\
 \Version=ES64L-G16RevC.01\HF=-655.6465392\S2=0.759969\S2-1=0.\S2A=0.75
 0038\RMSD=4.625e-09\Dipole=-0.1822983,0.2213239,0.4046077\Quadrupole=-

 Normal termination of Gaussian 16 at Wed Apr  9 00:07:29 2025.
 Gaussian 16:  ES64L-G16RevC.01  3-Jul-2019

 ----------------------------------------------------------------------
 #t hf aug-cc-pvdz iop(5/13=1,5/36=2,99/5=2) pseudo=read geom=check gue
 ss=(read,tcheck) scf=(maxcycle=1)
 ----------------------------------------------------------------------
 -----
 title
 -----
 Structure from the checkpoint file:  "BDE49_nonexpt_2274_mol2.chk"
 Charge =  0 Multiplicity = 2

                         Standard orientation:
 ---------------------------------------------------------------------
 Center     Atomic      Atomic             Coordinates (Angstroms)
 Number     Number       Type             X           Y           Z
 ---------------------------------------------------------------------
      1         14           0        0.659733   -0.527325    0.010869
      2          8           0        1.742910    0.728209   -0.079426
      3          1           0        1.674243    1.443483    0.557282
      4         14           0       -1.606605    0.086001   -0.014296
      5          1           0       -2.059851    0.894528   -1.174894
      6          1           0       -2.117276    0.700712    1.239077
      7          1           0        0.866435   -1.333993    1.240802
      8          1           0        0.949390   -1.351876   -1.178883
 ---------------------------------------------------------------------

 SCF Done:  E(UHF) =  -655.786425077     A.U. after    2 cycles

 The electronic state is 2-A.
 Alpha  occ. eigenvalues --  -69.56573 -69.53542 -20.55490  -6.23180  -6.20875
 Alpha  occ. eigenvalues --   -3.98617  -3.98517  -3.98486  -3.96863  -3.95926
 Alpha  occ. eigenvalues --   -3.95901  -1.43960  -0.79327  -0.73066  -0.63675
 Alpha  occ. eigenvalues --   -0.56063  -0.54698  -0.50033  -0.46927  -0.42224
 Alpha  occ. eigenvalues --   -0.33035
 Alpha virt. eigenvalues --    0.03489   0.04118   0.05183   0.06115   0.07298
 Alpha virt. eigenvalues --    0.07328   0.07695   0.08158   0.08906   0.10199
 Alpha virt. eigenvalues --    0.10481   0.13019   0.14772   0.15411   0.15615

  Beta  occ. eigenvalues --  -69.56573 -69.52998 -20.55349  -6.23173  -6.20078
  Beta  occ. eigenvalues --   -3.98669  -3.98490  -3.98480  -3.95527  -3.95517
  Beta  occ. eigenvalues --   -3.94681  -1.43556  -0.78052  -0.69778  -0.63136
  Beta  occ. eigenvalues --   -0.55478  -0.54226  -0.49609  -0.46923  -0.40956
  Beta virt. eigenvalues --    0.01001   0.03749   0.04276   0.05996   0.06528
  Beta virt. eigenvalues --    0.07402   0.07665   0.07874   0.09046   0.09558
  Beta virt. eigenvalues --    0.10495   0.10663   0.14391   0.15573   0.16013

 Mulliken charges and spin densities:
               1          2
     1  Si   1.213997  -0.033723
     2  O   -1.300348  -0.004498
     3  H    0.414712  -0.011571
     4  Si   0.266892   1.129018
     5  H   -0.154358  -0.030683
     6  H   -0.151947  -0.040513
     7  H   -0.147811  -0.004029
     8  H   -0.141137  -0.004000
 Sum of Mulliken charges =  -0.00000   1.00000

 Dipole moment (field-independent basis, Debye):
    X=             -0.4137    Y=              0.6030    Z=              1.0015  Tot=              1.2400
                          Isotropic Fermi Contact Couplings
        Atom                 a.u.       MegaHertz       Gauss      10(-4) cm-1
     1  Si(29)             0.02066     -18.35807      -6.55062      -6.12359
     2  O(17)              0.01870     -11.33683      -4.04526      -3.78156
     3  H(1)              -0.00061      -2.70491      -0.96518      -0.90226
     4  Si(29)             0.45571    -405.00280    -144.51507    -135.09439
     5  H(1)              -0.00569     -25.42329      -9.07166      -8.48030
     6  H(1)              -0.00652     -29.14087     -10.39819      -9.72035
     7  H(1)              -0.00125      -5.56788      -1.98676      -1.85725
     8  H(1)              -0.00162      -7.22406      -2.57772      -2.40969

 Normal termination of Gaussian 16 at Wed Apr  9 00:07:31 2025.
