 Gaussian 16, Revision C.01,

 ----------------------------------------------------------------------
 #t hf aug-cc-pvdz symm=none int=(grid=ultrafine) guess=(read,tcheck) s
 table=(opt,rrhf)
 ----------------------------------------------------------------------
 -----
 title
 -----
 Symbolic Z-matrix:
 Charge =  0 Multiplicity = 1

 SCF Done:  E(RHF) =  -572.904730080     A.U. after   16 cycles
 Normal termination of Gaussian 16 at Wed Apr  9 00:07:46 2025.
 Gaussian 16:  ES64L-G16RevC.01  3-Jul-2019

 ----------------------------------------------------------------------
 #t hf aug-cc-pvdz iop(5/13=1,5/36=2,99/5=2) pseudo=read geom=check gue
 ss=(read,tcheck) scf=(maxcycle=1)
 ----------------------------------------------------------------------
 -----
 title
 -----
 Structure from the checkpoint file:  "BDE49_nonexpt_2259_mol1.chk"
 Charge =  0 Multiplicity = 1

                         Standard orientation:
 ---------------------------------------------------------------------
 Center     Atomic      Atomic             Coordinates (Angstroms)
 Number     Number       Type             X           Y           Z
 ---------------------------------------------------------------------
      1         14           0        0.790355    0.008134    0.356547
      2          8           0       -0.723414   -0.435964   -0.294435
      3          7           0       -1.883567    0.167238    0.312009
      4          8           0       -2.863467   -0.176405   -0.216026
      5          6           0        1.271901    1.702873   -0.262468
      6          1           0        1.339162    1.723215   -1.353917
      7          1           0        2.246326    1.995154    0.142137
      8          1           0        0.542683    2.456581    0.047193
      9          6           0        1.961279   -1.329523   -0.204680
     10          1           0        2.025275   -1.366771   -1.295412
     11          1           0        1.633933   -2.309919    0.149968
     12          1           0        2.965610   -1.143945    0.188708
     13          1           0        0.662990    0.019995    1.832174
 ---------------------------------------------------------------------

 SCF Done:  E(RHF) =  -573.220021854     A.U. after    2 cycles

 The electronic state is 1-A.
 Alpha  occ. eigenvalues --  -69.56049 -20.64479 -20.58375 -15.72870 -11.22573
 Alpha  occ. eigenvalues --  -11.22551  -6.22717  -3.98170  -3.98027  -3.97995
 Alpha  occ. eigenvalues --   -1.67751  -1.45661  -0.98878  -0.95861  -0.94537
 Alpha  occ. eigenvalues --   -0.78802  -0.74796  -0.69390  -0.66762  -0.58851
 Alpha  occ. eigenvalues --   -0.58368  -0.56768  -0.56409  -0.53077  -0.52082
 Alpha  occ. eigenvalues --   -0.47934  -0.45220  -0.44418
 Alpha virt. eigenvalues --    0.03262   0.04256   0.04528   0.04942   0.06322
 Alpha virt. eigenvalues --    0.06896   0.07332   0.07446   0.08672   0.09640
 Alpha virt. eigenvalues --    0.09951   0.12993   0.14380   0.15029   0.15822

 Mulliken charges:
               1
     1  Si   2.435202
     2  O   -1.763302
     3  N    1.599990
     4  O   -0.896041
     5  C   -0.627087
     6  H    0.072588
     7  H    0.015439
     8  H   -0.028819
     9  C   -0.576334
    10  H    0.102084
    11  H   -0.049666
    12  H    0.006567
    13  H   -0.290620
 Sum of Mulliken charges =   0.00000

 Dipole moment (field-independent basis, Debye):
    X=              2.4092    Y=              0.3870    Z=              0.0252  Tot=              2.4402

 Test job not archived.
 1\1\GINC-SE393\SP\RHF\Aug-CC-pVDZ\C2H7N1O2Si1\OHZDE\09-Apr-2025\0\\#t
 hf aug-cc-pvdz iop(5/13=1,5/36=2,99/5=2) pseudo=read geom=check guess=
 (read,tcheck) scf=(maxcycle=1)\\title\\0,1\Si,0,0.790355,0.008134,0.35
 6547\O,0,-0.723414,-0.435964,-0.294435\N,0,-1.883567,0.167238,0.312009
 \O,0,-2.863467,-0.176405,-0.216026\C,0,1.271901,1.702873,-0.262468\H,0
 ,1.339162,1.723215,-1.353917\H,0,2.246326,1.995154,0.142137\H,0,0.5426
 83,2.456581,0.047193\C,0,1.961279,-1.329523,-0.20468\H,0,2.025275,-1.3
 66771,-1.295412\H,0,1.633933,-2.309919,0.149968\H,0,2.96561,-1.143945,

 Normal termination of Gaussian 16 at Wed Apr  9 00:07:50 2025.
