 Gaussian 16, Revision C.01,

 ----------------------------------------------------------------------
 #t hf aug-cc-pvdz symm=none int=(grid=ultrafine) guess=(read,tcheck) s
 table=(opt,rrhf)
 ----------------------------------------------------------------------
 -----
 title
 -----
 Symbolic Z-matrix:
 Charge =  0 Multiplicity = 1

 SCF Done:  E(RHF) =  -205.450535599     A.U. after   12 cycles
 Normal termination of Gaussian 16 at Wed Apr  9 00:33:09 2025.
 Gaussian 16:  ES64L-G16RevC.01  3-Jul-2019

 ----------------------------------------------------------------------
 #t hf aug-cc-pvdz iop(5/13=1,5/36=2,99/5=2) pseudo=read geom=check gue
 ss=(read,tcheck) scf=(maxcycle=1)
 ----------------------------------------------------------------------
 -----
 title
 -----
 Structure from the checkpoint file:  "BDE49_nonexpt_3_mol1.chk"
 Charge =  0 Multiplicity = 1

                         Standard orientation:
 ---------------------------------------------------------------------
 Center     Atomic      Atomic             Coordinates (Angstroms)
 Number     Number       Type             X           Y           Z
 ---------------------------------------------------------------------
      1          5           0       -0.796531    0.574480    0.229974
      2          5           0        0.796535    0.574516   -0.229860
      3          6           0        1.945161   -0.285276    0.356631
      4          6           0       -1.945203   -0.285041   -0.356825
      5          6           0       -3.202831   -0.198870    0.107246
      6          6           0        3.202850   -0.198805   -0.107219
      7          1           0       -1.762173   -0.999693   -1.159238
      8          1           0       -3.457285    0.492625    0.905422
      9          1           0       -4.017063   -0.805844   -0.282314
     10          1           0        1.762049   -1.000374    1.158629
     11          1           0        3.457387    0.493136   -0.904983
     12          1           0        4.017050   -0.805965    0.282117
     13          1           0        1.124546    1.344911   -1.096371
     14          1           0       -1.124395    1.344170    1.097168
 ---------------------------------------------------------------------

 SCF Done:  E(RHF) =  -205.667939509     A.U. after    2 cycles

 The electronic state is 1-A.
 Alpha  occ. eigenvalues --  -11.26018 -11.26017 -11.21918 -11.21918  -7.56413
 Alpha  occ. eigenvalues --   -7.56404  -1.04057  -1.04038  -0.81850  -0.79401
 Alpha  occ. eigenvalues --   -0.71270  -0.67418  -0.63822  -0.59547  -0.56810
 Alpha  occ. eigenvalues --   -0.55146  -0.47118  -0.46804  -0.41652  -0.39015
 Alpha  occ. eigenvalues --   -0.38972
 Alpha virt. eigenvalues --    0.03581   0.03674   0.03766   0.04074   0.05258
 Alpha virt. eigenvalues --    0.05643   0.06033   0.06630   0.06642   0.07149
 Alpha virt. eigenvalues --    0.08089   0.08888   0.09074   0.11615   0.12206

 Mulliken charges:
               1
     1  B    0.130603
     2  B    0.130560
     3  C    0.222005
     4  C    0.222003
     5  C   -0.118258
     6  C   -0.118272
     7  H   -0.132959
     8  H   -0.079639
     9  H   -0.049839
    10  H   -0.132968
    11  H   -0.079636
    12  H   -0.049841
    13  H    0.028135
    14  H    0.028106
 Sum of Mulliken charges =  -0.00000

 Dipole moment (field-independent basis, Debye):
    X=             -0.0001    Y=             -0.7430    Z=             -0.0003  Tot=              0.7430

 Test job not archived.
 1\1\GINC-SE419\SP\RHF\Aug-CC-pVDZ\C4H8B2\OHZDE\09-Apr-2025\0\\#t hf au
 g-cc-pvdz iop(5/13=1,5/36=2,99/5=2) pseudo=read geom=check guess=(read
 ,tcheck) scf=(maxcycle=1)\\title\\0,1\B,0,-0.796531,0.57448,0.229974\B
 ,0,0.796535,0.574516,-0.22986\C,0,1.945161,-0.285276,0.356631\C,0,-1.9
 45203,-0.285041,-0.356825\C,0,-3.202831,-0.19887,0.107246\C,0,3.20285,
 -0.198805,-0.107219\H,0,-1.762173,-0.999693,-1.159238\H,0,-3.457285,0.
 492625,0.905422\H,0,-4.017063,-0.805844,-0.282314\H,0,1.762049,-1.0003
 74,1.158629\H,0,3.457387,0.493136,-0.904983\H,0,4.01705,-0.805965,0.28

 Normal termination of Gaussian 16 at Wed Apr  9 00:33:12 2025.
