 Gaussian 16, Revision C.01,

 ----------------------------------------------------------------------
 #t hf aug-cc-pvdz symm=none int=(grid=ultrafine) guess=(read,tcheck) s
 table=(opt,rrhf)
 ----------------------------------------------------------------------
 -----
 title
 -----
 Symbolic Z-matrix:
 Charge =  0 Multiplicity = 1

 SCF Done:  E(RHF) =  -1216.92364749     A.U. after   15 cycles
 Normal termination of Gaussian 16 at Wed Apr  9 00:27:24 2025.
 Gaussian 16:  ES64L-G16RevC.01  3-Jul-2019

 ----------------------------------------------------------------------
 #t hf aug-cc-pvdz iop(5/13=1,5/36=2,99/5=2) pseudo=read geom=check gue
 ss=(read,tcheck) scf=(maxcycle=1)
 ----------------------------------------------------------------------
 -----
 title
 -----
 Structure from the checkpoint file:  "BDE49_nonexpt_2716_mol1.chk"
 Charge =  0 Multiplicity = 1

                         Standard orientation:
 ---------------------------------------------------------------------
 Center     Atomic      Atomic             Coordinates (Angstroms)
 Number     Number       Type             X           Y           Z
 ---------------------------------------------------------------------
      1          6           0        2.226024    1.099100   -0.127861
      2          8           0        1.268144    1.630585   -0.603880
      3         16           0        2.420052   -0.727260   -0.007154
      4         16           0        0.649658   -1.394760   -0.837942
      5          6           0       -0.553426   -1.060355    0.510301
      6          8           0       -0.251678   -0.542064    1.544163
      7          6           0        3.401395    1.817456    0.495846
      8          1           0        3.149144    2.039018    1.536926
      9          1           0        3.559620    2.759248   -0.030860
     10          1           0        4.312971    1.218117    0.481854
     11          6           0       -1.957064   -1.499742    0.130566
     12          6           0       -2.996710   -0.404656    0.422578
     13          1           0       -2.167227   -2.390825    0.733266
     14          1           0       -1.991287   -1.805505   -0.919707
     15          6           0       -2.868565    0.820081   -0.491217
     16          1           0       -2.890434   -0.100470    1.468195
     17          1           0       -3.996006   -0.841108    0.317911
     18          6           0       -3.899369    1.905553   -0.171020
     19          1           0       -2.981366    0.503981   -1.535403
     20          1           0       -1.859761    1.237972   -0.406363
     21          1           0       -4.921473    1.528731   -0.279529
     22          1           0       -3.789090    2.764305   -0.838020
     23          1           0       -3.785895    2.266070    0.855828
 ---------------------------------------------------------------------

 SCF Done:  E(RHF) =  -1217.47709324     A.U. after    2 cycles

 The electronic state is 1-A.
 Alpha  occ. eigenvalues --  -93.99222 -93.99211 -20.56055 -20.55803 -11.38630
 Alpha  occ. eigenvalues --  -11.38101 -11.26634 -11.26290 -11.24113 -11.22900
 Alpha  occ. eigenvalues --  -11.22285  -8.27263  -8.27230  -6.25059  -6.25012
 Alpha  occ. eigenvalues --   -6.24825  -6.24797  -6.24616  -6.24594  -1.50417
 Alpha  occ. eigenvalues --   -1.50072  -1.12395  -1.09673  -1.04793  -1.01760
 Alpha  occ. eigenvalues --   -0.95156  -0.89094  -0.81257  -0.76737  -0.74103
 Alpha  occ. eigenvalues --   -0.68357  -0.66887  -0.65578  -0.63554  -0.63179
 Alpha  occ. eigenvalues --   -0.62551  -0.62007  -0.59030  -0.57588  -0.55225
 Alpha  occ. eigenvalues --   -0.54469  -0.53138  -0.52436  -0.49723  -0.48264
 Alpha  occ. eigenvalues --   -0.47818  -0.47495  -0.43215  -0.42467  -0.39253
 Alpha  occ. eigenvalues --   -0.37767
 Alpha virt. eigenvalues --    0.03268   0.03622   0.04010   0.04241   0.05110
 Alpha virt. eigenvalues --    0.05723   0.05914   0.06573   0.07108   0.07645
 Alpha virt. eigenvalues --    0.08294   0.09180   0.09690   0.09992   0.10720

 Mulliken charges:
               1
     1  C    0.981498
     2  O   -1.225451
     3  S    0.088835
     4  S   -0.008236
     5  C    1.340191
     6  O   -1.329551
     7  C   -0.530933
     8  H    0.302155
     9  H    0.191705
    10  H    0.217436
    11  C   -0.451456
    12  C   -0.308692
    13  H    0.287823
    14  H    0.206568
    15  C   -0.250602
    16  H    0.136149
    17  H    0.104731
    18  C   -0.445865
    19  H    0.111662
    20  H    0.121307
    21  H    0.159768
    22  H    0.127215
    23  H    0.173744
 Sum of Mulliken charges =  -0.00000

 Dipole moment (field-independent basis, Debye):
    X=              0.0944    Y=             -0.1431    Z=             -0.0490  Tot=              0.1783

 Test job not archived.
 1\1\GINC-SE368\SP\RHF\Aug-CC-pVDZ\C7H12O2S2\OHZDE\09-Apr-2025\0\\#t hf
  aug-cc-pvdz iop(5/13=1,5/36=2,99/5=2) pseudo=read geom=check guess=(r
 ead,tcheck) scf=(maxcycle=1)\\title\\0,1\C,0,2.226024,1.0991,-0.127861
 \O,0,1.268144,1.630585,-0.60388\S,0,2.420052,-0.72726,-0.007154\S,0,0.
 649658,-1.39476,-0.837942\C,0,-0.553426,-1.060355,0.510301\O,0,-0.2516
 78,-0.542064,1.544163\C,0,3.401395,1.817456,0.495846\H,0,3.149144,2.03
 9018,1.536926\H,0,3.55962,2.759248,-0.03086\H,0,4.312971,1.218117,0.48
 1854\C,0,-1.957064,-1.499742,0.130566\C,0,-2.99671,-0.404656,0.422578\

 Normal termination of Gaussian 16 at Wed Apr  9 00:27:37 2025.
