 Gaussian 16, Revision C.01,

 ----------------------------------------------------------------------
 #t hf aug-cc-pvdz symm=none int=(grid=ultrafine) guess=(read,tcheck) s
 table=opt
 ----------------------------------------------------------------------
 -----
 title
 -----
 Symbolic Z-matrix:
 Charge =  0 Multiplicity = 2

 SCF Done:  E(UHF) =  -1300.33733574     A.U. after   23 cycles
 Normal termination of Gaussian 16 at Tue Apr  8 23:46:17 2025.
 Gaussian 16:  ES64L-G16RevC.01  3-Jul-2019

 ----------------------------------------------------------------------
 #t hf aug-cc-pvdz iop(5/13=1,5/36=2,99/5=2) pseudo=read geom=check gue
 ss=(read,tcheck) scf=(maxcycle=1)
 ----------------------------------------------------------------------
 -----
 title
 -----
 Structure from the checkpoint file:  "BDE49_nonexpt_1766_mol2.chk"
 Charge =  0 Multiplicity = 2

                         Standard orientation:
 ---------------------------------------------------------------------
 Center     Atomic      Atomic             Coordinates (Angstroms)
 Number     Number       Type             X           Y           Z
 ---------------------------------------------------------------------
      1          6           0       -1.750756   -0.016269   -0.019455
      2         14           0        0.000781   -0.000310    0.550093
      3          7           0       -2.885040   -0.024553   -0.250272
      4         17           0        0.918395   -1.695201   -0.171626
      5         17           0        0.886833    1.711309   -0.171472
 ---------------------------------------------------------------------

 SCF Done:  E(UHF) =  -1300.60152003     A.U. after    2 cycles

 The electronic state is 2-A.
 Alpha  occ. eigenvalues -- -105.60479-105.60478 -69.68843 -15.56135 -11.28994
 Alpha  occ. eigenvalues --  -10.65480 -10.65468  -7.82470  -7.82465  -7.82043
 Alpha  occ. eigenvalues --   -7.82042  -7.81982  -7.81979  -6.35014  -4.10656
 Alpha  occ. eigenvalues --   -4.10004  -4.09972  -1.26956  -1.12269  -1.08645
 Alpha  occ. eigenvalues --   -0.83749  -0.68079  -0.62940  -0.60853  -0.57817
 Alpha  occ. eigenvalues --   -0.54775  -0.54639  -0.52197  -0.51745  -0.50244
 Alpha  occ. eigenvalues --   -0.40800
 Alpha virt. eigenvalues --    0.03808   0.04122   0.04462   0.05464   0.07157
 Alpha virt. eigenvalues --    0.07367   0.10490   0.11931   0.11984   0.13308
 Alpha virt. eigenvalues --    0.13472   0.15390   0.15929   0.16988   0.17623

  Beta  occ. eigenvalues -- -105.60361-105.60360 -69.68184 -15.55199 -11.29388
  Beta  occ. eigenvalues --  -10.65352 -10.65340  -7.82184  -7.82180  -7.81919
  Beta  occ. eigenvalues --   -7.81917  -7.81794  -7.81792  -6.33921  -4.09576
  Beta  occ. eigenvalues --   -4.09509  -4.08614  -1.25190  -1.11108  -1.07715
  Beta  occ. eigenvalues --   -0.81544  -0.66044  -0.61449  -0.59669  -0.54707
  Beta  occ. eigenvalues --   -0.53335  -0.52883  -0.51217  -0.50673  -0.49967
  Beta virt. eigenvalues --   -0.02661   0.04671   0.04853   0.05133   0.05492
  Beta virt. eigenvalues --    0.08220   0.08849   0.11325   0.12021   0.12299
  Beta virt. eigenvalues --    0.13400   0.13494   0.15698   0.17232   0.17557

 Mulliken charges and spin densities:
               1          2
     1  C   -1.194967  -0.253949
     2  Si   1.348900   0.873291
     3  N    0.735048   0.279765
     4  Cl  -0.444523   0.050441
     5  Cl  -0.444458   0.050453
 Sum of Mulliken charges =  -0.00000   1.00000

 Dipole moment (field-independent basis, Debye):
    X=              2.8566    Y=              0.0224    Z=              1.4574  Tot=              3.2070
                          Isotropic Fermi Contact Couplings
        Atom                 a.u.       MegaHertz       Gauss      10(-4) cm-1
     1  C(13)              0.02059      23.14604       8.25908       7.72069
     2  Si(29)             1.13039   -1004.60556    -358.46824    -335.10034
     3  N(14)              0.07091      22.91028       8.17496       7.64205
     4  Cl(35)             0.06495      28.47756      10.16150       9.49909
     5  Cl(35)             0.06495      28.47743      10.16145       9.49905
 --------------------------------------------------------
       Center         ----  Spin Dipole Couplings  ----
                      3XX-RR        3YY-RR        3ZZ-RR

 Normal termination of Gaussian 16 at Tue Apr  8 23:46:19 2025.
