 Gaussian 16, Revision C.01,

 ----------------------------------------------------------------------
 #t hf aug-cc-pvdz symm=none int=(grid=ultrafine) guess=(read,tcheck) s
 table=(opt,rrhf)
 ----------------------------------------------------------------------
 -----
 title
 -----
 Symbolic Z-matrix:
 Charge =  0 Multiplicity = 1

 SCF Done:  E(RHF) =  -334.092304823     A.U. after   14 cycles

 1\1\GINC-SE128\Stability\RHF\Aug-CC-pVDZ\C8H11B1\OHZDE\09-Apr-2025\0\\
 #t hf aug-cc-pvdz symm=none int=(grid=ultrafine) guess=(read,tcheck) s
 table=(opt,rrhf)\\title\\0,1\B,0,-1.706369,-0.000005,-0.000013\C,0,-0.
 137639,-0.000006,-0.000006\C,0,0.601276,1.199223,-0.043524\C,0,0.60128
 ,-1.199232,0.043518\C,0,1.992427,-1.20482,0.051705\C,0,2.691656,0.,0.0
 00003\C,0,1.992423,1.204817,-0.051703\H,0,3.776383,0.000002,0.000007\H
 ,0,2.532751,2.144308,-0.093452\H,0,0.076484,2.147264,-0.077741\H,0,0.0
 76492,-2.147275,0.077733\H,0,2.532759,-2.144308,0.093458\C,0,-2.528865

 Normal termination of Gaussian 16 at Wed Apr  9 00:30:17 2025.
 Gaussian 16:  ES64L-G16RevC.01  3-Jul-2019

 ----------------------------------------------------------------------
 #t hf aug-cc-pvdz iop(5/13=1,5/36=2,99/5=2) pseudo=read geom=check gue
 ss=(read,tcheck) scf=(maxcycle=1)
 ----------------------------------------------------------------------
 -----
 title
 -----
 Structure from the checkpoint file:  "BDE49_nonexpt_317_mol1.chk"
 Charge =  0 Multiplicity = 1

                         Standard orientation:
 ---------------------------------------------------------------------
 Center     Atomic      Atomic             Coordinates (Angstroms)
 Number     Number       Type             X           Y           Z
 ---------------------------------------------------------------------
      1          5           0        1.706369    0.000005   -0.000013
      2          6           0        0.137639    0.000006   -0.000006
      3          6           0       -0.601276   -1.199223   -0.043524
      4          6           0       -0.601280    1.199232    0.043518
      5          6           0       -1.992427    1.204820    0.051705
      6          6           0       -2.691656    0.000000    0.000003
      7          6           0       -1.992423   -1.204817   -0.051703
      8          1           0       -3.776383   -0.000002    0.000007
      9          1           0       -2.532751   -2.144308   -0.093452
     10          1           0       -0.076484   -2.147264   -0.077741
     11          1           0       -0.076492    2.147275    0.077733
     12          1           0       -2.532759    2.144308    0.093458
     13          6           0        2.528865    1.344484   -0.086356
     14          1           0        2.774563    1.649583    0.942812
     15          1           0        3.492685    1.207806   -0.587457
     16          1           0        2.015524    2.190470   -0.549312
     17          6           0        2.528837   -1.344492    0.086366
     18          1           0        2.015542   -2.190368    0.549578
     19          1           0        3.492780   -1.207797    0.587222
     20          1           0        2.774258   -1.649788   -0.942809
 ---------------------------------------------------------------------

 SCF Done:  E(RHF) =  -334.446660360     A.U. after    2 cycles

 The electronic state is 1-A.
 Alpha  occ. eigenvalues --  -11.25009 -11.24539 -11.24530 -11.24060 -11.24038
 Alpha  occ. eigenvalues --  -11.21666 -11.19889 -11.19860  -7.58118  -1.15020
 Alpha  occ. eigenvalues --   -1.01960  -1.01550  -0.96499  -0.92210  -0.83087
 Alpha  occ. eigenvalues --   -0.82760  -0.72237  -0.65746  -0.63908  -0.61738
 Alpha  occ. eigenvalues --   -0.59869  -0.58846  -0.56055  -0.53272  -0.53150
 Alpha  occ. eigenvalues --   -0.52623  -0.50674  -0.50483  -0.45384  -0.45100
 Alpha  occ. eigenvalues --   -0.34693  -0.34448
 Alpha virt. eigenvalues --    0.03347   0.03544   0.03560   0.04004   0.04862
 Alpha virt. eigenvalues --    0.05088   0.06581   0.06847   0.07157   0.07706
 Alpha virt. eigenvalues --    0.07835   0.08264   0.10010   0.10263   0.10312

 Mulliken charges:
               1
     1  B    0.731819
     2  C   -0.220096
     3  C    0.383370
     4  C    0.383489
     5  C    0.244625
     6  C    0.409396
     7  C    0.244662
     8  H   -0.208653
     9  H   -0.238991
    10  H   -0.403321
    11  H   -0.403340
    12  H   -0.238996
    13  C   -0.477172
    14  H    0.188681
    15  H   -0.006853
    16  H   -0.046641
    17  C   -0.477136
    18  H   -0.046594
    19  H   -0.006931
    20  H    0.188682
 Sum of Mulliken charges =  -0.00000

 Dipole moment (field-independent basis, Debye):
    X=             -0.4150    Y=             -0.0000    Z=             -0.0000  Tot=              0.4150

 Test job not archived.
 1\1\GINC-SE128\SP\RHF\Aug-CC-pVDZ\C8H11B1\OHZDE\09-Apr-2025\0\\#t hf a
 ug-cc-pvdz iop(5/13=1,5/36=2,99/5=2) pseudo=read geom=check guess=(rea
 d,tcheck) scf=(maxcycle=1)\\title\\0,1\B,0,-1.706369,-0.000005,-0.0000
 13\C,0,-0.137639,-0.000006,-0.000006\C,0,0.601276,1.199223,-0.043524\C
 ,0,0.60128,-1.199232,0.043518\C,0,1.992427,-1.20482,0.051705\C,0,2.691
 656,0.,0.000003\C,0,1.992423,1.204817,-0.051703\H,0,3.776383,0.000002,
 0.000007\H,0,2.532751,2.144308,-0.093452\H,0,0.076484,2.147264,-0.0777
 41\H,0,0.076492,-2.147275,0.077733\H,0,2.532759,-2.144308,0.093458\C,0

 Normal termination of Gaussian 16 at Wed Apr  9 00:30:28 2025.
