 Gaussian 16, Revision C.01,

 ----------------------------------------------------------------------
 #t hf aug-cc-pvdz symm=none int=(grid=ultrafine) guess=(read,tcheck) s
 table=(opt,rrhf)
 ----------------------------------------------------------------------
 -----
 title
 -----
 Symbolic Z-matrix:
 Charge =  0 Multiplicity = 1

 SCF Done:  E(RHF) =  -909.751545554     A.U. after   12 cycles
 Normal termination of Gaussian 16 at Tue Apr  8 22:46:41 2025.
 Gaussian 16:  ES64L-G16RevC.01  3-Jul-2019

 ----------------------------------------------------------------------
 #t hf aug-cc-pvdz iop(5/13=1,5/36=2,99/5=2) pseudo=read geom=check gue
 ss=(read,tcheck) scf=(maxcycle=1)
 ----------------------------------------------------------------------
 -----
 title
 -----
 Structure from the checkpoint file:  "BDE49_expt_1321_mol1.chk"
 Charge =  0 Multiplicity = 1

                         Standard orientation:
 ---------------------------------------------------------------------
 Center     Atomic      Atomic             Coordinates (Angstroms)
 Number     Number       Type             X           Y           Z
 ---------------------------------------------------------------------
      1          6           0        0.046991   -2.125867   -0.053191
      2          7           0        0.003433   -0.646287   -0.108041
      3          1           0       -0.590687   -2.577503   -0.817544
      4          1           0       -0.262276   -2.522945    0.922129
      5          1           0        1.060236   -2.493367   -0.237447
      6         14           0        1.576896    0.116523   -0.011345
      7         14           0       -1.578218    0.107735   -0.007472
      8          6           0       -2.893801   -1.180092   -0.413458
      9          1           0       -2.776952   -1.583378   -1.423786
     10          1           0       -3.880689   -0.708919   -0.361584
     11          1           0       -2.896757   -2.019807    0.286769
     12          6           0       -1.776258    1.517731   -1.241030
     13          1           0       -1.499470    1.200528   -2.250769
     14          1           0       -1.182366    2.397806   -0.987724
     15          1           0       -2.825762    1.830348   -1.267456
     16          6           0       -1.930991    0.764715    1.726144
     17          1           0       -2.933911    1.201082    1.784335
     18          1           0       -1.874853   -0.037296    2.468962
     19          1           0       -1.218106    1.539386    2.023574
     20          6           0        2.627151   -0.365939   -1.501806
     21          1           0        2.771506   -1.447330   -1.581152
     22          1           0        3.620743    0.089978   -1.436706
     23          1           0        2.162308   -0.024824   -2.431645
     24          6           0        1.447395    1.993379    0.024597
     25          1           0        1.094080    2.405765   -0.922953
     26          1           0        2.448179    2.400306    0.204386
     27          1           0        0.800428    2.364483    0.823640
     28          6           0        2.475578   -0.435452    1.553846
     29          1           0        3.480528   -0.002711    1.597890
     30          1           0        1.935003   -0.115530    2.450037
     31          1           0        2.586904   -1.522537    1.606165
 ---------------------------------------------------------------------

 SCF Done:  E(RHF) =  -910.186559661     A.U. after    2 cycles

 The electronic state is 1-A.
 Alpha  occ. eigenvalues --  -69.51870 -69.51852 -15.44933 -11.25925 -11.20619
 Alpha  occ. eigenvalues --  -11.20357 -11.20179 -11.20163 -11.20144 -11.20117
 Alpha  occ. eigenvalues --   -6.18623  -6.18559  -3.94005  -3.93962  -3.93949
 Alpha  occ. eigenvalues --   -3.93926  -3.93902  -3.93894  -1.14760  -0.97161
 Alpha  occ. eigenvalues --   -0.96649  -0.92988  -0.92429  -0.92039  -0.91907
 Alpha  occ. eigenvalues --   -0.89416  -0.70969  -0.64149  -0.60603  -0.60035
 Alpha  occ. eigenvalues --   -0.59371  -0.57150  -0.56348  -0.56180  -0.55806
 Alpha  occ. eigenvalues --   -0.54721  -0.54286  -0.53864  -0.53798  -0.53535
 Alpha  occ. eigenvalues --   -0.53324  -0.52914  -0.52545  -0.47534  -0.46196
 Alpha  occ. eigenvalues --   -0.43678  -0.43576  -0.43141  -0.37464
 Alpha virt. eigenvalues --    0.03267   0.03380   0.03584   0.03689   0.04764
 Alpha virt. eigenvalues --    0.04869   0.05208   0.05330   0.05517   0.07816
 Alpha virt. eigenvalues --    0.07922   0.07996   0.08278   0.08370   0.08926

 Mulliken charges:
               1
     1  C   -0.434061
     2  N   -0.032189
     3  H    0.132752
     4  H    0.199794
     5  H   -0.109292
     6  Si   2.220349
     7  Si   2.365237
     8  C   -0.591864
     9  H   -0.081346
    10  H   -0.150915
    11  H   -0.015397
    12  C   -0.541959
    13  H   -0.056617
    14  H   -0.074104
    15  H   -0.007867
    16  C   -0.579095
    17  H   -0.026920
    18  H   -0.033172
    19  H   -0.071977
    20  C   -0.536409
    21  H   -0.035462
    22  H   -0.050472
    23  H   -0.045042
    24  C   -0.570653
    25  H   -0.012717
    26  H   -0.162080
    27  H   -0.076285
    28  C   -0.505975
    29  H   -0.026898
    30  H   -0.047609
    31  H   -0.041754
 Sum of Mulliken charges =  -0.00000

 Dipole moment (field-independent basis, Debye):
    X=              0.0075    Y=             -0.2584    Z=              0.0448  Tot=              0.2624

 Test job not archived.
 1\1\GINC-SE084\SP\RHF\Aug-CC-pVDZ\C7H21N1Si2\OHZDE\08-Apr-2025\0\\#t h
 f aug-cc-pvdz iop(5/13=1,5/36=2,99/5=2) pseudo=read geom=check guess=(
 read,tcheck) scf=(maxcycle=1)\\title\\0,1\C,0,0.046991,-2.125867,-0.05
 3191\N,0,0.003433,-0.646287,-0.108041\H,0,-0.590687,-2.577503,-0.81754
 4\H,0,-0.262276,-2.522945,0.922129\H,0,1.060236,-2.493367,-0.237447\Si
 ,0,1.576896,0.116523,-0.011345\Si,0,-1.578218,0.107735,-0.007472\C,0,-
 2.893801,-1.180092,-0.413458\H,0,-2.776952,-1.583378,-1.423786\H,0,-3.
 880689,-0.708919,-0.361584\H,0,-2.896757,-2.019807,0.286769\C,0,-1.776

 Normal termination of Gaussian 16 at Tue Apr  8 22:47:16 2025.
