 Gaussian 16, Revision C.01,

 ----------------------------------------------------------------------
 #t hf aug-cc-pvdz symm=none int=(grid=ultrafine) guess=(read,tcheck) s
 table=(opt,rrhf)
 ----------------------------------------------------------------------
 -----
 title
 -----
 Symbolic Z-matrix:
 Charge =  0 Multiplicity = 1

 SCF Done:  E(RHF) =  -1258.16302131     A.U. after   13 cycles
 Normal termination of Gaussian 16 at Wed Apr  9 00:49:34 2025.
 Gaussian 16:  ES64L-G16RevC.01  3-Jul-2019

 ----------------------------------------------------------------------
 #t hf aug-cc-pvdz iop(5/13=1,5/36=2,99/5=2) pseudo=read geom=check gue
 ss=(read,tcheck) scf=(maxcycle=1)
 ----------------------------------------------------------------------
 -----
 title
 -----
 Structure from the checkpoint file:  "BDE49_nonexpt_894_mol1.chk"
 Charge =  0 Multiplicity = 1

                         Standard orientation:
 ---------------------------------------------------------------------
 Center     Atomic      Atomic             Coordinates (Angstroms)
 Number     Number       Type             X           Y           Z
 ---------------------------------------------------------------------
      1          6           0       -2.515769   -0.053349    0.000010
      2         16           0       -1.035945   -1.135238    0.000015
      3          1           0       -2.541189    0.567813    0.894466
      4          1           0       -3.378244   -0.719110    0.000012
      5          1           0       -2.541189    0.567805   -0.894452
      6          5           0        0.372211   -0.004967    0.000010
      7         16           0        2.064886   -0.680751   -0.000008
      8         16           0        0.129029    1.801028   -0.000014
      9          1           0        1.740152   -1.986425   -0.000001
     10          1           0        1.426504    2.154241   -0.000025
 ---------------------------------------------------------------------

 SCF Done:  E(RHF) =  -1258.41288420     A.U. after    2 cycles

 The electronic state is 1-A.
 Alpha  occ. eigenvalues --  -93.96248 -93.95937 -93.95370 -11.27935  -8.24546
 Alpha  occ. eigenvalues --   -8.24230  -8.23687  -7.67801  -6.22384  -6.22241
 Alpha  occ. eigenvalues --   -6.22071  -6.22070  -6.21929  -6.21753  -6.21507
 Alpha  occ. eigenvalues --   -6.21338  -6.21191  -1.08936  -1.04078  -1.00827
 Alpha  occ. eigenvalues --   -0.89943  -0.67085  -0.62049  -0.60969  -0.57911
 Alpha  occ. eigenvalues --   -0.56716  -0.48995  -0.46233  -0.46026  -0.44602
 Alpha  occ. eigenvalues --   -0.38358  -0.36918
 Alpha virt. eigenvalues --    0.03541   0.04235   0.04549   0.05244   0.06214
 Alpha virt. eigenvalues --    0.07104   0.07645   0.08483   0.09821   0.10012
 Alpha virt. eigenvalues --    0.12052   0.12914   0.13190   0.13585   0.13889

 Mulliken charges:
               1
     1  C   -0.842171
     2  S   -0.062705
     3  H    0.180668
     4  H    0.108223
     5  H    0.180669
     6  B    1.165946
     7  S   -0.722403
     8  S   -0.581744
     9  H    0.280677
    10  H    0.292839
 Sum of Mulliken charges =   0.00000

 Dipole moment (field-independent basis, Debye):
    X=             -1.0581    Y=              0.2489    Z=              0.0000  Tot=              1.0870

 Test job not archived.
 1\1\GINC-SE083\SP\RHF\Aug-CC-pVDZ\C1H5B1S3\OHZDE\09-Apr-2025\0\\#t hf
 aug-cc-pvdz iop(5/13=1,5/36=2,99/5=2) pseudo=read geom=check guess=(re
 ad,tcheck) scf=(maxcycle=1)\\title\\0,1\C,0,-2.515769,-0.053351,0.0000
 1\S,0,-1.035944,-1.135239,0.000015\H,0,-2.541189,0.567811,0.894466\H,0
 ,-3.378244,-0.719112,0.000012\H,0,-2.541189,0.567803,-0.894452\B,0,0.3
 72211,-0.004967,0.00001\S,0,2.064886,-0.68075,-0.000008\S,0,0.129028,1
 .801028,-0.000014\H,0,1.740153,-1.986424,-0.000001\H,0,1.426503,2.1542
 42,-0.000025\\Version=ES64L-G16RevC.01\State=1-A\HF=-1258.4128842\RMSD

 Normal termination of Gaussian 16 at Wed Apr  9 00:49:39 2025.
