 Gaussian 16, Revision C.01,

 ----------------------------------------------------------------------
 #t hf aug-cc-pvdz symm=none int=(grid=ultrafine) guess=(read,tcheck) s
 table=(opt,rrhf)
 ----------------------------------------------------------------------
 -----
 title
 -----
 Symbolic Z-matrix:
 Charge =  0 Multiplicity = 1

 SCF Done:  E(RHF) =  -949.323311400     A.U. after   14 cycles
 Normal termination of Gaussian 16 at Wed Apr  9 00:17:33 2025.
 Gaussian 16:  ES64L-G16RevC.01  3-Jul-2019

 ----------------------------------------------------------------------
 #t hf aug-cc-pvdz iop(5/13=1,5/36=2,99/5=2) pseudo=read geom=check gue
 ss=(read,tcheck) scf=(maxcycle=1)
 ----------------------------------------------------------------------
 -----
 title
 -----
 Structure from the checkpoint file:  "BDE49_nonexpt_2562_mol1.chk"
 Charge =  0 Multiplicity = 1

                         Standard orientation:
 ---------------------------------------------------------------------
 Center     Atomic      Atomic             Coordinates (Angstroms)
 Number     Number       Type             X           Y           Z
 ---------------------------------------------------------------------
      1         17           0        1.505957   -0.495423    0.000000
      2         16           0       -0.040550    0.894165   -0.000001
      3          6           0       -1.392515   -0.117312    0.000000
      4          7           0       -2.371055   -0.740083    0.000001
 ---------------------------------------------------------------------

 SCF Done:  E(RHF) =  -949.543354097     A.U. after    2 cycles

 The electronic state is 1-A.
 Alpha  occ. eigenvalues -- -105.62974 -94.08635 -15.55782 -11.33188 -10.67634
 Alpha  occ. eigenvalues --   -8.36235  -7.84584  -7.84091  -7.84056  -6.34015
 Alpha  occ. eigenvalues --   -6.33827  -6.33483  -1.27126  -1.17886  -1.02548
 Alpha  occ. eigenvalues --   -0.72955  -0.63760  -0.61062  -0.59923  -0.53726
 Alpha  occ. eigenvalues --   -0.51919  -0.51143  -0.42451
 Alpha virt. eigenvalues --   -0.00761   0.05261   0.07621   0.08887   0.10651
 Alpha virt. eigenvalues --    0.11537   0.11622   0.13488   0.14674   0.14934
 Alpha virt. eigenvalues --    0.15486   0.15845   0.16492   0.19069   0.22022

 Mulliken charges:
               1
     1  Cl  -0.167055
     2  S    0.635342
     3  C   -0.908598
     4  N    0.440311
 Sum of Mulliken charges =  -0.00000

 Dipole moment (field-independent basis, Debye):
    X=              2.6546    Y=              2.0907    Z=             -0.0000  Tot=              3.3791

 Test job not archived.
 1\1\GINC-SE072\SP\RHF\Aug-CC-pVDZ\C1Cl1N1S1\OHZDE\09-Apr-2025\0\\#t hf
  aug-cc-pvdz iop(5/13=1,5/36=2,99/5=2) pseudo=read geom=check guess=(r
 ead,tcheck) scf=(maxcycle=1)\\title\\0,1\Cl,0,1.505957,-0.495423,0.\S,
 0,-0.04055,0.894165,-0.000001\C,0,-1.392515,-0.117312,0.\N,0,-2.371055
 ,-0.740083,0.000001\\Version=ES64L-G16RevC.01\State=1-A\HF=-949.543354
 1\RMSD=1.132e-02\Dipole=1.0444015,0.8225554,-0.0000011\Quadrupole=-3.5
 550387,2.5462766,1.0087621,-3.3473901,0.0000046,-0.0000006\PG=C01 [X(C
 1Cl1N1S1)]\\@

 Normal termination of Gaussian 16 at Wed Apr  9 00:17:34 2025.
