 Gaussian 16, Revision C.01,

 ----------------------------------------------------------------------
 #t hf aug-cc-pvdz symm=none int=(grid=ultrafine) guess=(read,tcheck) s
 table=opt
 ----------------------------------------------------------------------
 -----
 title
 -----
 Symbolic Z-matrix:
 Charge =  0 Multiplicity = 2

 SCF Done:  E(UHF) =  -1354.95816846     A.U. after   25 cycles
 Normal termination of Gaussian 16 at Wed Apr  9 00:16:06 2025.
 Gaussian 16:  ES64L-G16RevC.01  3-Jul-2019

 ----------------------------------------------------------------------
 #t hf aug-cc-pvdz iop(5/13=1,5/36=2,99/5=2) pseudo=read geom=check gue
 ss=(read,tcheck) scf=(maxcycle=1)
 ----------------------------------------------------------------------
 -----
 title
 -----
 Structure from the checkpoint file:  "BDE49_nonexpt_2530_mol2.chk"
 Charge =  0 Multiplicity = 2

                         Standard orientation:
 ---------------------------------------------------------------------
 Center     Atomic      Atomic             Coordinates (Angstroms)
 Number     Number       Type             X           Y           Z
 ---------------------------------------------------------------------
      1         16           0        0.748464    1.539235   -0.088902
      2          6           0       -0.030561    0.037269    0.487128
      3         17           0       -1.722433   -0.153607   -0.094662
      4         17           0        1.032978   -1.305600   -0.085767
      5          1           0       -0.071316   -0.044852    1.566969
 ---------------------------------------------------------------------

 SCF Done:  E(UHF) =  -1355.20094617     A.U. after    2 cycles

 The electronic state is 2-A.
 Alpha  occ. eigenvalues -- -105.59947-105.59205 -94.00794 -11.41822 -10.64735
 Alpha  occ. eigenvalues --  -10.64020  -8.28892  -7.81771  -7.81283  -7.81222
 Alpha  occ. eigenvalues --   -7.80973  -7.80558  -7.80532  -6.28049  -6.26288
 Alpha  occ. eigenvalues --   -6.25926  -1.19995  -1.06782  -1.04336  -0.85501
 Alpha  occ. eigenvalues --   -0.67418  -0.63015  -0.60203  -0.51647  -0.49721
 Alpha  occ. eigenvalues --   -0.47418  -0.46754  -0.45550  -0.41557
 Alpha virt. eigenvalues --    0.03925   0.06202   0.07751   0.08206   0.10650
 Alpha virt. eigenvalues --    0.11441   0.12676   0.13791   0.14031   0.14849
 Alpha virt. eigenvalues --    0.16850   0.17486   0.18214   0.18308   0.20030

  Beta  occ. eigenvalues -- -105.59846-105.59190 -93.99882 -11.42013 -10.64625
  Beta  occ. eigenvalues --  -10.64004  -8.27843  -7.81501  -7.81162  -7.81100
  Beta  occ. eigenvalues --   -7.80932  -7.80531  -7.80519  -6.25782  -6.25377
  Beta  occ. eigenvalues --   -6.23987  -1.18823  -1.06302  -0.98373  -0.83202
  Beta  occ. eigenvalues --   -0.66635  -0.61467  -0.59042  -0.49740  -0.49074
  Beta  occ. eigenvalues --   -0.47038  -0.46191  -0.39382
  Beta virt. eigenvalues --   -0.02363   0.03964   0.06471   0.07888   0.08635
  Beta virt. eigenvalues --    0.10898   0.12262   0.13123   0.13931   0.14116
  Beta virt. eigenvalues --    0.15100   0.16890   0.17630   0.18358   0.18759

 Mulliken charges and spin densities:
               1          2
     1  S    0.531860   1.054370
     2  C   -1.109976  -0.106934
     3  Cl   0.075586   0.004030
     4  Cl   0.091583   0.046163
     5  H    0.410946   0.002370
 Sum of Mulliken charges =  -0.00000   1.00000

 Dipole moment (field-independent basis, Debye):
    X=              0.1964    Y=              0.4400    Z=              1.1926  Tot=              1.2863
                          Isotropic Fermi Contact Couplings
        Atom                 a.u.       MegaHertz       Gauss      10(-4) cm-1
     1  S(33)              0.20156      69.23136      24.70347      23.09310
     2  C(13)             -0.03105     -34.90424     -12.45470     -11.64280
     3  Cl(35)             0.00396       1.73817       0.62022       0.57979
     4  Cl(35)             0.05318      23.31930       8.32091       7.77848
     5  H(1)               0.00215       9.59585       3.42404       3.20083
 --------------------------------------------------------
       Center         ----  Spin Dipole Couplings  ----
                      3XX-RR        3YY-RR        3ZZ-RR

 Normal termination of Gaussian 16 at Wed Apr  9 00:16:09 2025.
