 Gaussian 16, Revision C.01,

 ----------------------------------------------------------------------
 #t hf aug-cc-pvdz symm=none int=(grid=ultrafine) guess=(read,tcheck) s
 table=(opt,rrhf)
 ----------------------------------------------------------------------
 -----
 title
 -----
 Symbolic Z-matrix:
 Charge =  0 Multiplicity = 1

 SCF Done:  E(RHF) =  -496.413295634     A.U. after   12 cycles
 Normal termination of Gaussian 16 at Wed Apr  9 00:36:29 2025.
 Gaussian 16:  ES64L-G16RevC.01  3-Jul-2019

 ----------------------------------------------------------------------
 #t hf aug-cc-pvdz iop(5/13=1,5/36=2,99/5=2) pseudo=read geom=check gue
 ss=(read,tcheck) scf=(maxcycle=1)
 ----------------------------------------------------------------------
 -----
 title
 -----
 Structure from the checkpoint file:  "BDE49_nonexpt_443_mol1.chk"
 Charge =  0 Multiplicity = 1

                         Standard orientation:
 ---------------------------------------------------------------------
 Center     Atomic      Atomic             Coordinates (Angstroms)
 Number     Number       Type             X           Y           Z
 ---------------------------------------------------------------------
      1          6           0       -1.269665   -1.410775    0.055613
      2          6           0       -2.640883   -0.868813    0.483513
      3          6           0       -2.997945    0.419560   -0.270203
      4          6           0       -1.895116    1.476145   -0.120073
      5          6           0       -0.524935    0.928247   -0.544622
      6          6           0        1.208844   -0.915495   -0.249949
      7          6           0       -0.152828   -0.362757    0.208726
      8          5           0        2.455859   -0.030269    0.054104
      9          9           0        3.613870   -0.205804   -0.577013
     10          9           0        2.450968    0.922734    0.983688
     11          1           0       -1.316409   -1.727229   -0.995639
     12          1           0       -1.019634   -2.305506    0.636923
     13          1           0       -2.626899   -0.663775    1.561815
     14          1           0       -3.411611   -1.629555    0.322772
     15          1           0       -3.953762    0.815745    0.087477
     16          1           0       -3.134707    0.188796   -1.334776
     17          1           0       -1.844014    1.798859    0.927700
     18          1           0       -2.139670    2.367212   -0.707092
     19          1           0        0.244861    1.690091   -0.382574
     20          1           0       -0.537773    0.716534   -1.623015
     21          1           0        1.188393   -1.155416   -1.320616
     22          1           0        1.398248   -1.882368    0.243195
     23          1           0       -0.074688   -0.111093    1.275214
 ---------------------------------------------------------------------

 SCF Done:  E(RHF) =  -496.917830963     A.U. after    2 cycles

 The electronic state is 1-A.
 Alpha  occ. eigenvalues --  -26.47088 -26.46994 -11.23947 -11.22862 -11.22826
 Alpha  occ. eigenvalues --  -11.22736 -11.22715 -11.22638 -11.22528  -7.70822
 Alpha  occ. eigenvalues --   -1.62227  -1.58041  -1.12828  -1.04166  -1.00622
 Alpha  occ. eigenvalues --   -0.93951  -0.84008  -0.82040  -0.79051  -0.76256
 Alpha  occ. eigenvalues --   -0.73230  -0.69801  -0.68800  -0.65664  -0.62515
 Alpha  occ. eigenvalues --   -0.62044  -0.61693  -0.61089  -0.60650  -0.56839
 Alpha  occ. eigenvalues --   -0.54645  -0.53742  -0.52553  -0.49738  -0.49227
 Alpha  occ. eigenvalues --   -0.48257  -0.46032  -0.44177  -0.43557
 Alpha virt. eigenvalues --    0.03083   0.03144   0.03402   0.03819   0.05197
 Alpha virt. eigenvalues --    0.05306   0.05600   0.05912   0.06253   0.08133
 Alpha virt. eigenvalues --    0.08447   0.08892   0.09312   0.09515   0.10403

 Mulliken charges:
               1
     1  C    0.102744
     2  C   -0.235266
     3  C   -0.223449
     4  C   -0.262672
     5  C   -0.073725
     6  C    0.133783
     7  C   -1.109835
     8  B    1.703135
     9  F   -0.863462
    10  F   -0.720507
    11  H    0.186587
    12  H    0.084779
    13  H    0.164667
    14  H    0.105047
    15  H    0.098066
    16  H    0.150967
    17  H    0.164988
    18  H    0.100853
    19  H    0.053804
    20  H    0.158560
    21  H    0.077605
    22  H    0.150673
    23  H    0.052659
 Sum of Mulliken charges =   0.00000

 Dipole moment (field-independent basis, Debye):
    X=             -1.7223    Y=             -0.8416    Z=             -0.1968  Tot=              1.9270

 Test job not archived.
 1\1\GINC-SE165\SP\RHF\Aug-CC-pVDZ\C7H13B1F2\OHZDE\09-Apr-2025\0\\#t hf
  aug-cc-pvdz iop(5/13=1,5/36=2,99/5=2) pseudo=read geom=check guess=(r
 ead,tcheck) scf=(maxcycle=1)\\title\\0,1\C,0,-1.269665,-1.410775,0.055
 613\C,0,-2.640883,-0.868813,0.483513\C,0,-2.997945,0.41956,-0.270203\C
 ,0,-1.895116,1.476145,-0.120073\C,0,-0.524935,0.928247,-0.544622\C,0,1
 .208844,-0.915495,-0.249949\C,0,-0.152828,-0.362757,0.208726\B,0,2.455
 859,-0.030269,0.054104\F,0,3.61387,-0.205804,-0.577013\F,0,2.450968,0.
 922734,0.983688\H,0,-1.316409,-1.727229,-0.995639\H,0,-1.019634,-2.305

 Normal termination of Gaussian 16 at Wed Apr  9 00:36:45 2025.
