 Gaussian 16, Revision C.01,

 ----------------------------------------------------------------------
 #t hf aug-cc-pvdz symm=none int=(grid=ultrafine) guess=(read,tcheck) s
 table=(opt,rrhf)
 ----------------------------------------------------------------------
 -----
 title
 -----
 Symbolic Z-matrix:
 Charge =  0 Multiplicity = 1

 SCF Done:  E(RHF) =  -563.472862934     A.U. after   13 cycles
 Normal termination of Gaussian 16 at Tue Apr  8 22:36:33 2025.
 Gaussian 16:  ES64L-G16RevC.01  3-Jul-2019

 ----------------------------------------------------------------------
 #t hf aug-cc-pvdz iop(5/13=1,5/36=2,99/5=2) pseudo=read geom=check gue
 ss=(read,tcheck) scf=(maxcycle=1)
 ----------------------------------------------------------------------
 -----
 title
 -----
 Structure from the checkpoint file:  "BDE49_expt_1128_mol1.chk"
 Charge =  0 Multiplicity = 1

                         Standard orientation:
 ---------------------------------------------------------------------
 Center     Atomic      Atomic             Coordinates (Angstroms)
 Number     Number       Type             X           Y           Z
 ---------------------------------------------------------------------
      1          6           0        0.472379    0.407321   -0.000043
      2          8           0        0.775931    1.565405   -0.000015
      3          8           0        1.294444   -0.637512   -0.000010
      4          6           0       -0.993060   -0.089210   -0.000000
      5          6           0        2.705941   -0.324898    0.000012
      6          1           0        3.211887   -1.286315    0.000042
      7          1           0        2.961879    0.249673    0.890590
      8          1           0        2.961914    0.249637   -0.890578
      9          9           0       -1.833035    0.945466    0.000028
     10          9           0       -1.239639   -0.839140   -1.088563
     11          9           0       -1.239575   -0.839149    1.088572
 ---------------------------------------------------------------------

 SCF Done:  E(RHF) =  -564.002541086     A.U. after    2 cycles

 The electronic state is 1-A.
 Alpha  occ. eigenvalues --  -26.52390 -26.52387 -26.52095 -20.62893 -20.58134
 Alpha  occ. eigenvalues --  -11.54547 -11.43646 -11.32463  -1.73291  -1.63156
 Alpha  occ. eigenvalues --   -1.63070  -1.58488  -1.49798  -1.05879  -0.97566
 Alpha  occ. eigenvalues --   -0.88021  -0.82832  -0.82730  -0.80337  -0.72118
 Alpha  occ. eigenvalues --   -0.71662  -0.69669  -0.68892  -0.68293  -0.65255
 Alpha  occ. eigenvalues --   -0.65189  -0.63458  -0.60628  -0.58610  -0.56194
 Alpha  occ. eigenvalues --   -0.49030  -0.48640
 Alpha virt. eigenvalues --    0.03089   0.05090   0.05244   0.07329   0.08594
 Alpha virt. eigenvalues --    0.10044   0.10621   0.13120   0.13189   0.13209
 Alpha virt. eigenvalues --    0.14873   0.14892   0.15184   0.17097   0.18546

 Mulliken charges:
               1
     1  C    1.170247
     2  O   -1.054233
     3  O   -1.156578
     4  C    2.653960
     5  C    0.197830
     6  H    0.021878
     7  H    0.177310
     8  H    0.177311
     9  F   -0.754431
    10  F   -0.716645
    11  F   -0.716650
 Sum of Mulliken charges =  -0.00000

 Dipole moment (field-independent basis, Debye):
    X=              2.7637    Y=             -1.2556    Z=             -0.0000  Tot=              3.0355

 Test job not archived.
 1\1\GINC-SE334\SP\RHF\Aug-CC-pVDZ\C3H3F3O2\OHZDE\08-Apr-2025\0\\#t hf
 aug-cc-pvdz iop(5/13=1,5/36=2,99/5=2) pseudo=read geom=check guess=(re
 ad,tcheck) scf=(maxcycle=1)\\title\\0,1\C,0,0.472379,0.407321,-0.00004
 3\O,0,0.775931,1.565405,-0.000015\O,0,1.294444,-0.637512,-0.00001\C,0,
 -0.99306,-0.08921,0.\C,0,2.705941,-0.324898,0.000012\H,0,3.211887,-1.2
 86315,0.000042\H,0,2.961879,0.249673,0.89059\H,0,2.961914,0.249637,-0.
 890578\F,0,-1.833035,0.945466,0.000028\F,0,-1.239639,-0.83914,-1.08856
 3\F,0,-1.239575,-0.839149,1.088572\\Version=ES64L-G16RevC.01\State=1-A

 Normal termination of Gaussian 16 at Tue Apr  8 22:36:37 2025.
