 Gaussian 16, Revision C.01,

 ----------------------------------------------------------------------
 #t hf aug-cc-pvdz symm=none int=(grid=ultrafine) guess=(read,tcheck) s
 table=(opt,rrhf)
 ----------------------------------------------------------------------
 -----
 title
 -----
 Symbolic Z-matrix:
 Charge =  0 Multiplicity = 1

 SCF Done:  E(RHF) =  -457.409410566     A.U. after   16 cycles
 Normal termination of Gaussian 16 at Tue Apr  8 22:37:46 2025.
 Gaussian 16:  ES64L-G16RevC.01  3-Jul-2019

 ----------------------------------------------------------------------
 #t hf aug-cc-pvdz iop(5/13=1,5/36=2,99/5=2) pseudo=read geom=check gue
 ss=(read,tcheck) scf=(maxcycle=1)
 ----------------------------------------------------------------------
 -----
 title
 -----
 Structure from the checkpoint file:  "BDE49_expt_1120_mol1.chk"
 Charge =  0 Multiplicity = 1

                         Standard orientation:
 ---------------------------------------------------------------------
 Center     Atomic      Atomic             Coordinates (Angstroms)
 Number     Number       Type             X           Y           Z
 ---------------------------------------------------------------------
      1          6           0       -0.903942   -1.105467   -0.521499
      2          6           0       -2.226157   -1.194316   -0.089957
      3          6           0       -2.898476   -0.052363    0.338709
      4          6           0       -2.242282    1.177420    0.334536
      5          6           0       -0.920815    1.263760   -0.094781
      6          6           0       -0.232523    0.124408   -0.530298
      7          1           0       -0.389140   -1.997268   -0.865175
      8          1           0       -2.760890    2.070834    0.663293
      9          1           0       -0.416408    2.224458   -0.097051
     10          1           0       -2.731341   -2.153447   -0.096092
     11          1           0       -3.928041   -0.119026    0.670866
     12          6           0        2.271334   -0.020746    0.126526
     13          8           0        3.433989    0.201134   -0.057375
     14          8           0        1.833964   -0.516034    1.306069
     15          1           0        0.870448   -0.605842    1.285463
     16          6           0        1.211155    0.212836   -0.964649
     17          1           0        1.425029   -0.523263   -1.745553
     18          1           0        1.436946    1.189565   -1.396828
 ---------------------------------------------------------------------

 SCF Done:  E(RHF) =  -457.872194478     A.U. after    2 cycles

 The electronic state is 1-A.
 Alpha  occ. eigenvalues --  -20.59710 -20.52905 -11.39408 -11.27561 -11.27330
 Alpha  occ. eigenvalues --  -11.26727 -11.26648 -11.26618 -11.26541 -11.26435
 Alpha  occ. eigenvalues --   -1.54044  -1.45184  -1.18344  -1.08415  -1.04032
 Alpha  occ. eigenvalues --   -0.98896  -0.86063  -0.85079  -0.82258  -0.74566
 Alpha  occ. eigenvalues --   -0.71737  -0.68460  -0.67670  -0.65384  -0.63449
 Alpha  occ. eigenvalues --   -0.62084  -0.60815  -0.56730  -0.56007  -0.53902
 Alpha  occ. eigenvalues --   -0.52526  -0.52315  -0.46595  -0.44286  -0.37019
 Alpha  occ. eigenvalues --   -0.36374
 Alpha virt. eigenvalues --    0.02602   0.02957   0.03449   0.04628   0.04880
 Alpha virt. eigenvalues --    0.05637   0.07267   0.07844   0.08393   0.08700
 Alpha virt. eigenvalues --    0.08779   0.10760   0.11344   0.12656   0.13023

 Mulliken charges:
               1
     1  C    0.231005
     2  C    0.069209
     3  C    0.100908
     4  C    0.133970
     5  C    0.180924
     6  C    1.120462
     7  H   -0.321339
     8  H   -0.224299
     9  H   -0.301493
    10  H   -0.224705
    11  H   -0.210018
    12  C    1.958146
    13  O   -1.277016
    14  O   -1.315063
    15  H    0.536695
    16  C   -0.804980
    17  H    0.206702
    18  H    0.140893
 Sum of Mulliken charges =   0.00000

 Dipole moment (field-independent basis, Debye):
    X=             -5.2856    Y=             -0.1615    Z=             -0.9398  Tot=              5.3709

 Test job not archived.
 1\1\GINC-SE247\SP\RHF\Aug-CC-pVDZ\C8H8O2\OHZDE\08-Apr-2025\0\\#t hf au
 g-cc-pvdz iop(5/13=1,5/36=2,99/5=2) pseudo=read geom=check guess=(read
 ,tcheck) scf=(maxcycle=1)\\title\\0,1\C,0,-0.903942,-1.105467,-0.52149
 9\C,0,-2.226157,-1.194316,-0.089957\C,0,-2.898476,-0.052363,0.338709\C
 ,0,-2.242282,1.17742,0.334536\C,0,-0.920815,1.26376,-0.094781\C,0,-0.2
 32523,0.124408,-0.530298\H,0,-0.38914,-1.997268,-0.865175\H,0,-2.76089
 ,2.070834,0.663293\H,0,-0.416408,2.224458,-0.097051\H,0,-2.731341,-2.1
 53447,-0.096092\H,0,-3.928041,-0.119026,0.670866\C,0,2.271334,-0.02074

 Normal termination of Gaussian 16 at Tue Apr  8 22:37:55 2025.
