 Gaussian 16, Revision C.01,

 ----------------------------------------------------------------------
 #t hf aug-cc-pvdz symm=none int=(grid=ultrafine) guess=(read,tcheck) s
 table=(opt,rrhf)
 ----------------------------------------------------------------------
 -----
 title
 -----
 Symbolic Z-matrix:
 Charge =  0 Multiplicity = 1

 SCF Done:  E(RHF) =  -409.947812650     A.U. after   13 cycles
 Normal termination of Gaussian 16 at Tue Apr  8 22:39:58 2025.
 Gaussian 16:  ES64L-G16RevC.01  3-Jul-2019

 ----------------------------------------------------------------------
 #t hf aug-cc-pvdz iop(5/13=1,5/36=2,99/5=2) pseudo=read geom=check gue
 ss=(read,tcheck) scf=(maxcycle=1)
 ----------------------------------------------------------------------
 -----
 title
 -----
 Structure from the checkpoint file:  "BDE49_expt_1276_mol1.chk"
 Charge =  0 Multiplicity = 1

                         Standard orientation:
 ---------------------------------------------------------------------
 Center     Atomic      Atomic             Coordinates (Angstroms)
 Number     Number       Type             X           Y           Z
 ---------------------------------------------------------------------
      1          6           0        0.583909    0.000000    0.030603
      2          7           0       -0.773088   -0.000000   -0.625460
      3          9           0       -1.475099   -1.094429   -0.066201
      4          9           0       -1.475099    1.094429   -0.066201
      5          6           0        0.491719   -0.000004    1.560339
      6          1           0       -0.032714    0.885457    1.920498
      7          1           0        1.499429   -0.000004    1.982559
      8          1           0       -0.032713   -0.885466    1.920494
      9          6           0        1.277509    1.262186   -0.501168
     10          1           0        0.787131    2.164710   -0.135326
     11          1           0        1.269305    1.279549   -1.593504
     12          1           0        2.316313    1.269034   -0.163815
     13          6           0        1.277512   -1.262182   -0.501174
     14          1           0        0.787139   -2.164708   -0.135334
     15          1           0        2.316317   -1.269026   -0.163822
     16          1           0        1.269306   -1.279541   -1.593510
 ---------------------------------------------------------------------

 SCF Done:  E(RHF) =  -410.353963995     A.U. after    2 cycles

 The electronic state is 1-A.
 Alpha  occ. eigenvalues --  -26.48892 -26.48886 -15.70257 -11.30378 -11.24386
 Alpha  occ. eigenvalues --  -11.24359 -11.23819  -1.64596  -1.56174  -1.18376
 Alpha  occ. eigenvalues --   -1.04001  -0.96101  -0.96054  -0.82029  -0.74662
 Alpha  occ. eigenvalues --   -0.73945  -0.71518  -0.65587  -0.64621  -0.60834
 Alpha  occ. eigenvalues --   -0.60546  -0.59729  -0.56457  -0.56268  -0.55542
 Alpha  occ. eigenvalues --   -0.53951  -0.51285  -0.50359  -0.48417
 Alpha virt. eigenvalues --    0.03513   0.04178   0.04187   0.04861   0.06275
 Alpha virt. eigenvalues --    0.06297   0.07226   0.07330   0.09843   0.11298
 Alpha virt. eigenvalues --    0.13879   0.13989   0.14034   0.15344   0.15495

 Mulliken charges:
               1
     1  C   -3.698214
     2  N    2.079397
     3  F   -0.710160
     4  F   -0.710161
     5  C    0.392217
     6  H    0.224277
     7  H    0.260024
     8  H    0.224275
     9  C    0.268575
    10  H    0.228159
    11  H    0.220253
    12  H    0.252186
    13  C    0.268575
    14  H    0.228156
    15  H    0.252189
    16  H    0.220253
 Sum of Mulliken charges =  -0.00000

 Dipole moment (field-independent basis, Debye):
    X=              2.9161    Y=              0.0000    Z=              0.8020  Tot=              3.0244

 Test job not archived.
 1\1\GINC-SE094\SP\RHF\Aug-CC-pVDZ\C4H9F2N1\OHZDE\08-Apr-2025\0\\#t hf
 aug-cc-pvdz iop(5/13=1,5/36=2,99/5=2) pseudo=read geom=check guess=(re
 ad,tcheck) scf=(maxcycle=1)\\title\\0,1\C,0,-0.583909,0.,0.030603\N,0,
 0.773088,0.,-0.62546\F,0,1.475099,1.094429,-0.066201\F,0,1.475099,-1.0
 94429,-0.066201\C,0,-0.491719,0.000004,1.560339\H,0,0.032714,-0.885457
 ,1.920498\H,0,-1.499429,0.000004,1.982559\H,0,0.032713,0.885466,1.9204
 94\C,0,-1.277509,-1.262186,-0.501168\H,0,-0.787132,-2.16471,-0.135326\
 H,0,-1.269305,-1.279549,-1.593504\H,0,-2.316313,-1.269033,-0.163815\C,

 Normal termination of Gaussian 16 at Tue Apr  8 22:40:03 2025.
