 Gaussian 16, Revision C.01,

 ----------------------------------------------------------------------
 #t hf aug-cc-pvdz symm=none int=(grid=ultrafine) guess=(read,tcheck) s
 table=(opt,rrhf)
 ----------------------------------------------------------------------
 -----
 title
 -----
 Symbolic Z-matrix:
 Charge =  0 Multiplicity = 1

 SCF Done:  E(RHF) =  -849.547084426     A.U. after   16 cycles
 Normal termination of Gaussian 16 at Tue Apr  8 23:36:17 2025.
 Gaussian 16:  ES64L-G16RevC.01  3-Jul-2019

 ----------------------------------------------------------------------
 #t hf aug-cc-pvdz iop(5/13=1,5/36=2,99/5=2) pseudo=read geom=check gue
 ss=(read,tcheck) scf=(maxcycle=1)
 ----------------------------------------------------------------------
 -----
 title
 -----
 Structure from the checkpoint file:  "BDE49_nonexpt_1520_mol1.chk"
 Charge =  0 Multiplicity = 1

                         Standard orientation:
 ---------------------------------------------------------------------
 Center     Atomic      Atomic             Coordinates (Angstroms)
 Number     Number       Type             X           Y           Z
 ---------------------------------------------------------------------
      1         15           0        0.041196    0.657726   -0.834551
      2          7           0       -1.372253    0.228759    0.046557
      3          7           0        1.211770   -0.608355   -0.007626
      4          9           0        0.486118    1.911558    0.045777
      5          8           0        0.791885   -1.754883   -0.193022
      6          8           0        2.224910   -0.299292    0.566591
      7          8           0       -1.963173   -0.918589   -0.505387
      8          8           0       -1.139938    0.058395    1.427621
      9          1           0       -1.868987    0.536610    1.843897
     10          1           0       -1.310109   -1.634407   -0.376571
 ---------------------------------------------------------------------

 SCF Done:  E(RHF) =  -850.069898993     A.U. after    2 cycles

 The electronic state is 1-A.
 Alpha  occ. eigenvalues --  -84.46118 -26.52632 -20.63726 -20.63061 -20.62392
 Alpha  occ. eigenvalues --  -20.60867 -15.78859 -15.66029  -6.91790  -4.44603
 Alpha  occ. eigenvalues --   -4.44103  -4.43353  -1.68814  -1.64574  -1.58776
 Alpha  occ. eigenvalues --   -1.52955  -1.49066  -1.13495  -1.01621  -0.88479
 Alpha  occ. eigenvalues --   -0.81742  -0.80288  -0.76952  -0.75775  -0.74760
 Alpha  occ. eigenvalues --   -0.72142  -0.69898  -0.68512  -0.66098  -0.56420
 Alpha  occ. eigenvalues --   -0.53228  -0.52781  -0.51623  -0.47980  -0.47302
 Alpha  occ. eigenvalues --   -0.43941
 Alpha virt. eigenvalues --    0.03494   0.03557   0.05708   0.06033   0.06504
 Alpha virt. eigenvalues --    0.07994   0.11376   0.12442   0.13665   0.13934
 Alpha virt. eigenvalues --    0.14382   0.16317   0.17466   0.18452   0.19360

 Mulliken charges:
               1
     1  P    1.485645
     2  N    1.381685
     3  N    2.053165
     4  F   -0.756949
     5  O   -1.286979
     6  O   -1.251958
     7  O   -1.162695
     8  O   -1.206155
     9  H    0.338559
    10  H    0.405683
 Sum of Mulliken charges =   0.00000

 Dipole moment (field-independent basis, Debye):
    X=             -1.9303    Y=              1.7465    Z=             -0.7470  Tot=              2.7082

 Test job not archived.
 1\1\GINC-SE331\SP\RHF\Aug-CC-pVDZ\F1H2N2O4P1\OHZDE\08-Apr-2025\0\\#t h
 f aug-cc-pvdz iop(5/13=1,5/36=2,99/5=2) pseudo=read geom=check guess=(
 read,tcheck) scf=(maxcycle=1)\\title\\0,1\P,0,0.041196,0.657726,-0.834
 551\N,0,-1.372253,0.228759,0.046557\N,0,1.21177,-0.608355,-0.007626\F,
 0,0.486118,1.911558,0.045777\O,0,0.791885,-1.754883,-0.193022\O,0,2.22
 491,-0.299292,0.566591\O,0,-1.963173,-0.918589,-0.505387\O,0,-1.139938
 ,0.058395,1.427621\H,0,-1.868987,0.53661,1.843897\H,0,-1.310109,-1.634
 407,-0.376571\\Version=ES64L-G16RevC.01\State=1-A\HF=-850.069899\RMSD=

 Normal termination of Gaussian 16 at Tue Apr  8 23:36:21 2025.
