 Gaussian 16, Revision C.01,

 ----------------------------------------------------------------------
 #t hf aug-cc-pvdz symm=none int=(grid=ultrafine) guess=(read,tcheck) s
 table=(opt,rrhf)
 ----------------------------------------------------------------------
 -----
 title
 -----
 Symbolic Z-matrix:
 Charge =  0 Multiplicity = 1

 SCF Done:  E(RHF) =  -1076.33570858     A.U. after   13 cycles
 Normal termination of Gaussian 16 at Wed Apr  9 00:18:39 2025.
 Gaussian 16:  ES64L-G16RevC.01  3-Jul-2019

 ----------------------------------------------------------------------
 #t hf aug-cc-pvdz iop(5/13=1,5/36=2,99/5=2) pseudo=read geom=check gue
 ss=(read,tcheck) scf=(maxcycle=1)
 ----------------------------------------------------------------------
 -----
 title
 -----
 Structure from the checkpoint file:  "BDE49_nonexpt_257_mol1.chk"
 Charge =  0 Multiplicity = 1

                         Standard orientation:
 ---------------------------------------------------------------------
 Center     Atomic      Atomic             Coordinates (Angstroms)
 Number     Number       Type             X           Y           Z
 ---------------------------------------------------------------------
      1          5           0       -0.505422   -0.000004    0.056389
      2         17           0       -1.404080   -1.537663   -0.058952
      3         17           0       -1.404048    1.537678   -0.058950
      4          7           0        0.846174   -0.000011    0.196792
      5          6           0        2.048468   -0.000013    0.535003
      6          6           0        3.203272   -0.000008   -0.421675
      7          1           0        2.859727   -0.000017   -1.455268
      8          1           0        3.831114   -0.879010   -0.241235
      9          1           0        3.831094    0.879011   -0.241245
     10          1           0        2.309698   -0.000017    1.602621
 ---------------------------------------------------------------------

 SCF Done:  E(RHF) =  -1076.64816919     A.U. after    2 cycles

 The electronic state is 1-A.
 Alpha  occ. eigenvalues -- -105.55636-105.55636 -15.51841 -11.34713 -11.26620
 Alpha  occ. eigenvalues --  -10.60649 -10.60613  -7.77541  -7.77518  -7.77229
 Alpha  occ. eigenvalues --   -7.77227  -7.77213  -7.77203  -7.71138  -1.25982
 Alpha  occ. eigenvalues --   -1.08671  -1.03772  -1.03156  -0.90002  -0.76075
 Alpha  occ. eigenvalues --   -0.66208  -0.62913  -0.62857  -0.58390  -0.58183
 Alpha  occ. eigenvalues --   -0.52305  -0.48829  -0.48296  -0.46254  -0.44345
 Alpha  occ. eigenvalues --   -0.43104
 Alpha virt. eigenvalues --    0.02765   0.03943   0.04459   0.05289   0.06528
 Alpha virt. eigenvalues --    0.06817   0.07086   0.07381   0.08429   0.12385
 Alpha virt. eigenvalues --    0.12465   0.12913   0.13636   0.14011   0.14127

 Mulliken charges:
               1
     1  B    0.319951
     2  Cl  -0.369116
     3  Cl  -0.369120
     4  N    1.085766
     5  C   -0.758674
     6  C   -0.461355
     7  H    0.105730
     8  H    0.233959
     9  H    0.233962
    10  H   -0.021103
 Sum of Mulliken charges =  -0.00000

 Dipole moment (field-independent basis, Debye):
    X=              4.7810    Y=             -0.0000    Z=              0.6950  Tot=              4.8312

 Test job not archived.
 1\1\GINC-SE455\SP\RHF\Aug-CC-pVDZ\C2H4B1Cl2N1\OHZDE\09-Apr-2025\0\\#t
 hf aug-cc-pvdz iop(5/13=1,5/36=2,99/5=2) pseudo=read geom=check guess=
 (read,tcheck) scf=(maxcycle=1)\\title\\0,1\B,0,-0.505422,-0.000004,0.0
 56389\Cl,0,-1.40408,-1.537663,-0.058952\Cl,0,-1.404048,1.537678,-0.058
 95\N,0,0.846174,-0.000011,0.196792\C,0,2.048468,-0.000013,0.535003\C,0
 ,3.203272,-0.000008,-0.421675\H,0,2.859727,-0.000017,-1.455268\H,0,3.8
 31114,-0.87901,-0.241235\H,0,3.831094,0.879011,-0.241245\H,0,2.309698,
 -0.000017,1.602621\\Version=ES64L-G16RevC.01\State=1-A\HF=-1076.648169

 Normal termination of Gaussian 16 at Wed Apr  9 00:18:42 2025.
