 Gaussian 16, Revision C.01,

 ----------------------------------------------------------------------
 #t hf aug-cc-pvdz symm=none int=(grid=ultrafine) guess=(read,tcheck) s
 table=(opt,rrhf)
 ----------------------------------------------------------------------
 -----
 title
 -----
 Symbolic Z-matrix:
 Charge =  0 Multiplicity = 1

 SCF Done:  E(RHF) =  -1203.60414677     A.U. after   15 cycles
 Normal termination of Gaussian 16 at Tue Apr  8 22:51:23 2025.
 Gaussian 16:  ES64L-G16RevC.01  3-Jul-2019

 ----------------------------------------------------------------------
 #t hf aug-cc-pvdz iop(5/13=1,5/36=2,99/5=2) pseudo=read geom=check gue
 ss=(read,tcheck) scf=(maxcycle=1)
 ----------------------------------------------------------------------
 -----
 title
 -----
 Structure from the checkpoint file:  "BDE49_expt_1732_mol1.chk"
 Charge =  0 Multiplicity = 1

                         Standard orientation:
 ---------------------------------------------------------------------
 Center     Atomic      Atomic             Coordinates (Angstroms)
 Number     Number       Type             X           Y           Z
 ---------------------------------------------------------------------
      1          6           0        2.232373   -0.000001    1.290153
      2          6           0        0.859746   -0.000001    1.096188
      3          6           0        3.067118   -0.000000    0.170966
      4          7           0        2.615594    0.000001   -1.084152
      5          6           0        1.292262    0.000001   -1.259386
      6          6           0        0.370052    0.000000   -0.211536
      7          1           0        2.655442   -0.000002    2.287298
      8          1           0        0.176112   -0.000002    1.937091
      9          1           0        0.946390    0.000002   -2.290445
     10          6           0       -1.092518    0.000000   -0.527631
     11         17           0       -1.921694    1.480605    0.106171
     12         17           0       -1.921694   -1.480605    0.106169
     13          1           0       -1.270428    0.000001   -1.597571
     14          1           0        4.146737   -0.000000    0.290383
 ---------------------------------------------------------------------

 SCF Done:  E(RHF) =  -1204.04400351     A.U. after    2 cycles

 The electronic state is 1-A.
 Alpha  occ. eigenvalues -- -105.58221-105.58221 -15.52143 -11.39376 -11.30229
 Alpha  occ. eigenvalues --  -11.29922 -11.28459 -11.27905 -11.26530 -10.63011
 Alpha  occ. eigenvalues --  -10.63004  -7.79950  -7.79950  -7.79550  -7.79550
 Alpha  occ. eigenvalues --   -7.79550  -7.79547  -1.27894  -1.18377  -1.10269
 Alpha  occ. eigenvalues --   -1.05789  -1.04967  -0.93135  -0.89591  -0.84205
 Alpha  occ. eigenvalues --   -0.75005  -0.72782  -0.68459  -0.63500  -0.61927
 Alpha  occ. eigenvalues --   -0.61515  -0.61243  -0.56927  -0.56442  -0.49276
 Alpha  occ. eigenvalues --   -0.48859  -0.46683  -0.46134  -0.45688  -0.41562
 Alpha  occ. eigenvalues --   -0.37332
 Alpha virt. eigenvalues --    0.03135   0.03757   0.04342   0.05737   0.05777
 Alpha virt. eigenvalues --    0.05885   0.07738   0.08341   0.08734   0.10425
 Alpha virt. eigenvalues --    0.10666   0.11783   0.11897   0.12256   0.13480

 Mulliken charges:
               1
     1  C    0.425201
     2  C    0.206218
     3  C   -0.853783
     4  N    0.962102
     5  C   -1.059816
     6  C    1.990364
     7  H   -0.174012
     8  H   -0.229442
     9  H   -0.207414
    10  C   -0.917658
    11  Cl  -0.020439
    12  Cl  -0.020439
    13  H    0.058123
    14  H   -0.159005
 Sum of Mulliken charges =   0.00000

 Dipole moment (field-independent basis, Debye):
    X=              0.6825    Y=             -0.0000    Z=              1.1885  Tot=              1.3705

 Test job not archived.
 1\1\GINC-SE226\SP\RHF\Aug-CC-pVDZ\C6H5Cl2N1\OHZDE\08-Apr-2025\0\\#t hf
  aug-cc-pvdz iop(5/13=1,5/36=2,99/5=2) pseudo=read geom=check guess=(r
 ead,tcheck) scf=(maxcycle=1)\\title\\0,1\C,0,2.232373,-0.000001,1.2901
 53\C,0,0.859746,-0.000001,1.096188\C,0,3.067118,0.,0.170966\N,0,2.6155
 94,0.000001,-1.084152\C,0,1.292262,0.000001,-1.259386\C,0,0.370052,0.,
 -0.211536\H,0,2.655442,-0.000002,2.287298\H,0,0.176112,-0.000002,1.937
 091\H,0,0.94639,0.000002,-2.290445\C,0,-1.092518,0.,-0.527631\Cl,0,-1.
 921694,1.480605,0.106171\Cl,0,-1.921694,-1.480605,0.106169\H,0,-1.2704

 Normal termination of Gaussian 16 at Tue Apr  8 22:51:30 2025.
