 Gaussian 16, Revision C.01,

 ----------------------------------------------------------------------
 #t hf aug-cc-pvdz symm=none int=(grid=ultrafine) guess=(read,tcheck) s
 table=opt
 ----------------------------------------------------------------------
 -----
 title
 -----
 Symbolic Z-matrix:
 Charge =  0 Multiplicity = 2

 SCF Done:  E(UHF) =  -596.635432329     A.U. after   16 cycles
 Normal termination of Gaussian 16 at Wed Apr  9 00:04:28 2025.
 Gaussian 16:  ES64L-G16RevC.01  3-Jul-2019

 ----------------------------------------------------------------------
 #t hf aug-cc-pvdz iop(5/13=1,5/36=2,99/5=2) pseudo=read geom=check gue
 ss=(read,tcheck) scf=(maxcycle=1)
 ----------------------------------------------------------------------
 -----
 title
 -----
 Structure from the checkpoint file:  "BDE49_nonexpt_2176_mol2.chk"
 Charge =  0 Multiplicity = 2

                         Standard orientation:
 ---------------------------------------------------------------------
 Center     Atomic      Atomic             Coordinates (Angstroms)
 Number     Number       Type             X           Y           Z
 ---------------------------------------------------------------------
      1         14           0       -0.847967   -0.605610   -0.203120
      2          8           0       -1.128365   -0.732342    1.424028
      3          6           0        0.567020    0.669688   -0.341714
      4          6           0        1.881855    0.178741    0.294159
      5          6           0        2.516282   -1.022168   -0.414018
      6          1           0        1.703479   -0.064302    1.347515
      7          1           0        2.596663    1.012117    0.293220
      8          1           0        1.849656   -1.890163   -0.409013
      9          1           0        3.450387   -1.318253    0.070951
     10          1           0        2.742989   -0.789050   -1.459332
     11          6           0        0.094912    2.006859    0.264728
     12          1           0        0.737317    0.813566   -1.417877
     13          1           0       -0.094588    1.901934    1.335857
     14          1           0       -0.828272    2.356752   -0.203484
     15          1           0        0.858970    2.780805    0.129446
     16          1           0       -1.969743   -1.101199    1.705228
     17          8           0       -2.261026   -0.017882   -0.870543
     18          1           0       -2.420596   -0.220595   -1.795635
 ---------------------------------------------------------------------

 SCF Done:  E(UHF) =  -596.988159063     A.U. after    2 cycles

 The electronic state is 2-A.
 Alpha  occ. eigenvalues --  -69.57294 -20.55047 -20.54547 -11.22830 -11.22522
 Alpha  occ. eigenvalues --  -11.22283 -11.22157  -6.23671  -3.99406  -3.98846
 Alpha  occ. eigenvalues --   -3.98639  -1.44741  -1.42228  -1.07419  -0.98313
 Alpha  occ. eigenvalues --   -0.86442  -0.80567  -0.75059  -0.69759  -0.63153
 Alpha  occ. eigenvalues --   -0.60738  -0.59772  -0.58490  -0.57433  -0.55309
 Alpha  occ. eigenvalues --   -0.52354  -0.51852  -0.51095  -0.49836  -0.48136
 Alpha  occ. eigenvalues --   -0.46766  -0.44705  -0.31628
 Alpha virt. eigenvalues --    0.03180   0.03799   0.04028   0.04476   0.05898
 Alpha virt. eigenvalues --    0.06297   0.06458   0.06942   0.07005   0.09205
 Alpha virt. eigenvalues --    0.09474   0.09639   0.09888   0.10573   0.13432

  Beta  occ. eigenvalues --  -69.56812 -20.54668 -20.54206 -11.22862 -11.22259
  Beta  occ. eigenvalues --  -11.22137 -11.22112  -6.22895  -3.98557  -3.98411
  Beta  occ. eigenvalues --   -3.97589  -1.43716  -1.41226  -1.07004  -0.98047
  Beta  occ. eigenvalues --   -0.86180  -0.79485  -0.74276  -0.69386  -0.62758
  Beta  occ. eigenvalues --   -0.59525  -0.58614  -0.57110  -0.56571  -0.54486
  Beta  occ. eigenvalues --   -0.52135  -0.50354  -0.49888  -0.49425  -0.47770
  Beta  occ. eigenvalues --   -0.46641  -0.42104
  Beta virt. eigenvalues --    0.02482   0.03804   0.04018   0.04341   0.05930
  Beta virt. eigenvalues --    0.06313   0.06474   0.06808   0.07040   0.07683
  Beta virt. eigenvalues --    0.09278   0.09559   0.09897   0.10032   0.10663

 Mulliken charges and spin densities:
               1          2
     1  Si   2.289052   0.938225
     2  O   -1.486494   0.045540
     3  C   -0.864924   0.064709
     4  C   -0.210038   0.023486
     5  C   -0.298810   0.010818
     6  H    0.109772   0.001300
     7  H    0.157324   0.001038
     8  H    0.163236  -0.015548
     9  H    0.123252  -0.000359
    10  H    0.155900   0.003299
    11  C   -0.213850  -0.036737
    12  H    0.177543  -0.021086
    13  H    0.201935  -0.003404
    14  H    0.106540  -0.000667
    15  H    0.136915   0.003119
    16  H    0.405063  -0.003017
    17  O   -1.360907   0.008054
    18  H    0.408493  -0.018770
 Sum of Mulliken charges =  -0.00000   1.00000

 Dipole moment (field-independent basis, Debye):
    X=             -0.1994    Y=             -0.4711    Z=             -1.3097  Tot=              1.4060
                          Isotropic Fermi Contact Couplings
        Atom                 a.u.       MegaHertz       Gauss      10(-4) cm-1
     1  Si(29)             0.66690    -592.69580    -211.48860    -197.70204
     2  O(17)              0.03804     -23.06037      -8.22851      -7.69211
     3  C(13)              0.07215      81.11232      28.94289      27.05616
     4  C(13)             -0.00657      -7.38097      -2.63371      -2.46203
     5  C(13)              0.00306       3.43692       1.22638       1.14643
     6  H(1)               0.00028       1.23453       0.44051       0.41180
     7  H(1)               0.00109       4.87961       1.74116       1.62766
     8  H(1)               0.00020       0.90714       0.32369       0.30259

 Normal termination of Gaussian 16 at Wed Apr  9 00:04:37 2025.
