 Gaussian 16, Revision C.01,

 ----------------------------------------------------------------------
 #t hf aug-cc-pvdz symm=none int=(grid=ultrafine) guess=(read,tcheck) s
 table=(opt,rrhf)
 ----------------------------------------------------------------------
 -----
 title
 -----
 Symbolic Z-matrix:
 Charge =  0 Multiplicity = 1

 SCF Done:  E(RHF) =  -573.179485675     A.U. after   14 cycles
 Normal termination of Gaussian 16 at Tue Apr  8 23:32:32 2025.
 Gaussian 16:  ES64L-G16RevC.01  3-Jul-2019

 ----------------------------------------------------------------------
 #t hf aug-cc-pvdz iop(5/13=1,5/36=2,99/5=2) pseudo=read geom=check gue
 ss=(read,tcheck) scf=(maxcycle=1)
 ----------------------------------------------------------------------
 -----
 title
 -----
 Structure from the checkpoint file:  "BDE49_nonexpt_1403_mol1.chk"
 Charge =  0 Multiplicity = 1

                         Standard orientation:
 ---------------------------------------------------------------------
 Center     Atomic      Atomic             Coordinates (Angstroms)
 Number     Number       Type             X           Y           Z
 ---------------------------------------------------------------------
      1         15           0        0.000000   -1.138744   -0.136137
      2          6           0        1.307882    0.127036    0.025752
      3          6           0        0.728153    1.349412   -0.007600
      4          6           0       -0.728153    1.349412   -0.007600
      5          6           0       -1.307882    0.127036    0.025752
      6          1           0       -1.299188    2.273513   -0.032027
      7          1           0        1.299188    2.273513   -0.032027
      8          6           0       -2.778022   -0.169055    0.037808
      9          1           0       -3.359049    0.755752    0.084128
     10          1           0       -3.060047   -0.783662    0.899748
     11          1           0       -3.088273   -0.717490   -0.857680
     12          6           0        2.778022   -0.169055    0.037808
     13          1           0        3.088273   -0.717490   -0.857681
     14          1           0        3.060047   -0.783662    0.899747
     15          1           0        3.359049    0.755752    0.084128
     16          1           0        0.000000   -1.663788    1.182200
 ---------------------------------------------------------------------

 SCF Done:  E(RHF) =  -573.470018812     A.U. after    2 cycles

 The electronic state is 1-A.
 Alpha  occ. eigenvalues --  -84.26716 -11.24436 -11.24415 -11.23936 -11.23890
 Alpha  occ. eigenvalues --  -11.23842 -11.23841  -6.73927  -4.26734  -4.26680
 Alpha  occ. eigenvalues --   -4.25799  -1.13771  -1.04206  -0.97833  -0.89200
 Alpha  occ. eigenvalues --   -0.88634  -0.72577  -0.70070  -0.65926  -0.59043
 Alpha  occ. eigenvalues --   -0.58134  -0.58010  -0.57576  -0.55542  -0.51961
 Alpha  occ. eigenvalues --   -0.49672  -0.44524  -0.43555  -0.32826  -0.31113
 Alpha virt. eigenvalues --    0.03627   0.03681   0.04077   0.05019   0.05146
 Alpha virt. eigenvalues --    0.05857   0.06363   0.08196   0.08589   0.08795
 Alpha virt. eigenvalues --    0.09314   0.11525   0.11771   0.12604   0.13590

 Mulliken charges:
               1
     1  P    0.604401
     2  C    0.017943
     3  C   -0.161146
     4  C   -0.161146
     5  C    0.017943
     6  H   -0.223560
     7  H   -0.223560
     8  C   -0.847494
     9  H    0.118166
    10  H    0.223209
    11  H    0.251987
    12  C   -0.847494
    13  H    0.251989
    14  H    0.223208
    15  H    0.118166
    16  H    0.637387
 Sum of Mulliken charges =  -0.00000

 Dipole moment (field-independent basis, Debye):
    X=              0.0000    Y=              0.3248    Z=              0.4013  Tot=              0.5163

 Test job not archived.
 1\1\GINC-SE039\SP\RHF\Aug-CC-pVDZ\C6H9P1\OHZDE\08-Apr-2025\0\\#t hf au
 g-cc-pvdz iop(5/13=1,5/36=2,99/5=2) pseudo=read geom=check guess=(read
 ,tcheck) scf=(maxcycle=1)\\title\\0,1\P,0,0.,-1.138744,-0.136137\C,0,1
 .307882,0.127036,0.025752\C,0,0.728153,1.349412,-0.0076\C,0,-0.728153,
 1.349412,-0.0076\C,0,-1.307882,0.127036,0.025752\H,0,-1.299188,2.27351
 3,-0.032027\H,0,1.299188,2.273513,-0.032027\C,0,-2.778022,-0.169055,0.
 037808\H,0,-3.359049,0.755752,0.084128\H,0,-3.060047,-0.783662,0.89974
 8\H,0,-3.088273,-0.71749,-0.85768\C,0,2.778022,-0.169055,0.037808\H,0,

 Normal termination of Gaussian 16 at Tue Apr  8 23:32:41 2025.
