 Gaussian 16, Revision C.01,

 ----------------------------------------------------------------------
 #t hf aug-cc-pvdz symm=none int=(grid=ultrafine) guess=(read,tcheck) s
 table=opt
 ----------------------------------------------------------------------
 -----
 title
 -----
 Symbolic Z-matrix:
 Charge =  0 Multiplicity = 2

 SCF Done:  E(UHF) =  -442.413447975     A.U. after   20 cycles
 Normal termination of Gaussian 16 at Tue Apr  8 23:50:22 2025.
 Gaussian 16:  ES64L-G16RevC.01  3-Jul-2019

 ----------------------------------------------------------------------
 #t hf aug-cc-pvdz iop(5/13=1,5/36=2,99/5=2) pseudo=read geom=check gue
 ss=(read,tcheck) scf=(maxcycle=1)
 ----------------------------------------------------------------------
 -----
 title
 -----
 Structure from the checkpoint file:  "BDE49_nonexpt_1870_mol2.chk"
 Charge =  0 Multiplicity = 2

                         Standard orientation:
 ---------------------------------------------------------------------
 Center     Atomic      Atomic             Coordinates (Angstroms)
 Number     Number       Type             X           Y           Z
 ---------------------------------------------------------------------
      1         14           0        1.551288   -0.196339   -0.024997
      2          6           0       -0.038875    0.830521   -0.261606
      3          1           0        1.886039   -0.323288    1.416804
      4          1           0        1.409254   -1.539289   -0.638586
      5          6           0       -1.212256    0.146105    0.390551
      6          1           0        0.129899    1.811755    0.192699
      7          1           0       -0.229617    0.941382   -1.331323
      8          8           0       -2.015501   -0.536897   -0.194215
      9          1           0       -1.282816    0.293593    1.490415
 ---------------------------------------------------------------------

 SCF Done:  E(UHF) =  -442.597209017     A.U. after    2 cycles

 The electronic state is 2-A.
 Alpha  occ. eigenvalues --  -69.55659 -20.54948 -11.35083 -11.25321  -6.22758
 Alpha  occ. eigenvalues --   -3.98715  -3.97806  -3.97787  -1.48299  -1.03172
 Alpha  occ. eigenvalues --   -0.81537  -0.74063  -0.68394  -0.63794  -0.58457
 Alpha  occ. eigenvalues --   -0.55856  -0.50112  -0.47354  -0.42861  -0.34842
 Alpha virt. eigenvalues --    0.03128   0.03917   0.04252   0.05109   0.07051
 Alpha virt. eigenvalues --    0.07619   0.08259   0.09141   0.09817   0.12193
 Alpha virt. eigenvalues --    0.12939   0.14619   0.15023   0.15190   0.15795

  Beta  occ. eigenvalues --  -69.55090 -20.54644 -11.35131 -11.25305  -6.21892
  Beta  occ. eigenvalues --   -3.97418  -3.97396  -3.96542  -1.47627  -1.02709
  Beta  occ. eigenvalues --   -0.81147  -0.70250  -0.68008  -0.63319  -0.58173
  Beta  occ. eigenvalues --   -0.54733  -0.49262  -0.46310  -0.41915
  Beta virt. eigenvalues --    0.01237   0.03372   0.04119   0.04722   0.05536
  Beta virt. eigenvalues --    0.07223   0.08133   0.08698   0.09543   0.10490
  Beta virt. eigenvalues --    0.12257   0.14137   0.14992   0.15499   0.15578

 Mulliken charges and spin densities:
               1          2
     1  Si   0.809150   0.968552
     2  C   -0.856068  -0.008638
     3  H   -0.165518   0.010409
     4  H   -0.140173   0.018272
     5  C    1.008612  -0.067271
     6  H    0.179925   0.002279
     7  H    0.113309  -0.001606
     8  O   -1.096061   0.074561
     9  H    0.146823   0.003443
 Sum of Mulliken charges =  -0.00000   1.00000

 Dipole moment (field-independent basis, Debye):
    X=              2.0565    Y=              1.8855    Z=              0.9115  Tot=              2.9351
                          Isotropic Fermi Contact Couplings
        Atom                 a.u.       MegaHertz       Gauss      10(-4) cm-1
     1  Si(29)             0.60551    -538.13481    -192.01988    -179.50245
     2  C(13)              0.00866       9.73870       3.47501       3.24848
     3  H(1)               0.00238      10.63766       3.79578       3.54834
     4  H(1)               0.00450      20.09683       7.17105       6.70358
     5  C(13)              0.01275      14.32966       5.11318       4.77986
     6  H(1)               0.00066       2.95428       1.05416       0.98544
     7  H(1)               0.00071       3.19427       1.13980       1.06549
     8  O(17)              0.02296     -13.91630      -4.96568      -4.64198

 Normal termination of Gaussian 16 at Tue Apr  8 23:50:25 2025.
