 Gaussian 16, Revision C.01,

 ----------------------------------------------------------------------
 #t hf aug-cc-pvdz symm=none int=(grid=ultrafine) guess=(read,tcheck) s
 table=(opt,rrhf)
 ----------------------------------------------------------------------
 -----
 title
 -----
 Symbolic Z-matrix:
 Charge =  0 Multiplicity = 1

 SCF Done:  E(RHF) =  -235.389620233     A.U. after   11 cycles
 Normal termination of Gaussian 16 at Tue Apr  8 22:53:14 2025.
 Gaussian 16:  ES64L-G16RevC.01  3-Jul-2019

 ----------------------------------------------------------------------
 #t hf aug-cc-pvdz iop(5/13=1,5/36=2,99/5=2) pseudo=read geom=check gue
 ss=(read,tcheck) scf=(maxcycle=1)
 ----------------------------------------------------------------------
 -----
 title
 -----
 Structure from the checkpoint file:  "BDE49_expt_17_mol1.chk"
 Charge =  0 Multiplicity = 1

                         Standard orientation:
 ---------------------------------------------------------------------
 Center     Atomic      Atomic             Coordinates (Angstroms)
 Number     Number       Type             X           Y           Z
 ---------------------------------------------------------------------
      1          6           0       -1.616497    0.989496   -0.000006
      2          6           0       -0.436356   -0.000579   -0.000001
      3          1           0       -2.574311    0.459994   -0.000006
      4          1           0       -1.590700    1.634070   -0.884342
      5          1           0       -1.590702    1.634077    0.884324
      6          6           0        0.878380    0.822885   -0.000002
      7          6           0        2.192336    0.033560    0.000003
      8          1           0        0.863542    1.483676    0.875555
      9          1           0        0.863544    1.483669   -0.875564
     10          1           0        2.288443   -0.603286    0.883213
     11          1           0        3.044975    0.718355    0.000002
     12          1           0        2.288446   -0.603293   -0.883201
     13          6           0       -0.528963   -0.884362   -1.257931
     14          1           0       -0.448818   -0.282749   -2.169135
     15          1           0       -1.487939   -1.410736   -1.290059
     16          1           0        0.260351   -1.640106   -1.283770
     17          6           0       -0.528967   -0.884352    1.257936
     18          1           0       -0.448825   -0.282732    2.169136
     19          1           0        0.260347   -1.640096    1.283784
     20          1           0       -1.487943   -1.410726    1.290066
 ---------------------------------------------------------------------

 SCF Done:  E(RHF) =  -235.657343355     A.U. after    2 cycles

 The electronic state is 1-A.
 Alpha  occ. eigenvalues --  -11.23582 -11.22243 -11.21931 -11.21686 -11.21683
 Alpha  occ. eigenvalues --  -11.21648  -1.10724  -0.99658  -0.92871  -0.92831
 Alpha  occ. eigenvalues --   -0.85177  -0.72876  -0.62911  -0.62840  -0.60339
 Alpha  occ. eigenvalues --   -0.58589  -0.55690  -0.53711  -0.53108  -0.51538
 Alpha  occ. eigenvalues --   -0.50789  -0.49181  -0.45628  -0.45472  -0.44581
 Alpha virt. eigenvalues --    0.03639   0.03781   0.03897   0.04077   0.06058
 Alpha virt. eigenvalues --    0.06207   0.06362   0.06491   0.06627   0.09358
 Alpha virt. eigenvalues --    0.09570   0.09867   0.09919   0.10367   0.13076

 Mulliken charges:
               1
     1  C    0.350548
     2  C   -3.065835
     3  H    0.170443
     4  H    0.202221
     5  H    0.202219
     6  C    0.276394
     7  C   -0.348798
     8  H    0.115582
     9  H    0.115582
    10  H    0.175343
    11  H    0.117541
    12  H    0.175341
    13  C    0.188897
    14  H    0.201685
    15  H    0.190153
    16  H    0.175976
    17  C    0.188896
    18  H    0.201685
    19  H    0.175975
    20  H    0.190152
 Sum of Mulliken charges =  -0.00000

 Dipole moment (field-independent basis, Debye):
    X=              0.0376    Y=              0.0359    Z=             -0.0000  Tot=              0.0520

 Test job not archived.
 1\1\GINC-SE252\SP\RHF\Aug-CC-pVDZ\C6H14\OHZDE\08-Apr-2025\0\\#t hf aug
 -cc-pvdz iop(5/13=1,5/36=2,99/5=2) pseudo=read geom=check guess=(read,
 tcheck) scf=(maxcycle=1)\\title\\0,1\C,0,-1.616497,0.989496,-0.000006\
 C,0,-0.436356,-0.000579,-0.000001\H,0,-2.574311,0.459995,-0.000006\H,0
 ,-1.5907,1.63407,-0.884342\H,0,-1.590702,1.634077,0.884324\C,0,0.87838
 ,0.822885,-0.000002\C,0,2.192336,0.03356,0.000003\H,0,0.863542,1.48367
 6,0.875555\H,0,0.863544,1.483669,-0.875564\H,0,2.288443,-0.603286,0.88
 3213\H,0,3.044975,0.718354,0.000002\H,0,2.288446,-0.603293,-0.883201\C

 Normal termination of Gaussian 16 at Tue Apr  8 22:53:21 2025.
