 Gaussian 16, Revision C.01,

 ----------------------------------------------------------------------
 #t hf aug-cc-pvdz symm=none int=(grid=ultrafine) guess=(read,tcheck) s
 table=(opt,rrhf)
 ----------------------------------------------------------------------
 -----
 title
 -----
 Symbolic Z-matrix:
 Charge =  0 Multiplicity = 1

 SCF Done:  E(RHF) =  -381.511989963     A.U. after   11 cycles
 Normal termination of Gaussian 16 at Tue Apr  8 23:12:47 2025.
 Gaussian 16:  ES64L-G16RevC.01  3-Jul-2019

 ----------------------------------------------------------------------
 #t hf aug-cc-pvdz iop(5/13=1,5/36=2,99/5=2) pseudo=read geom=check gue
 ss=(read,tcheck) scf=(maxcycle=1)
 ----------------------------------------------------------------------
 -----
 title
 -----
 Structure from the checkpoint file:  "BDE49_expt_817_mol1.chk"
 Charge =  0 Multiplicity = 1

                         Standard orientation:
 ---------------------------------------------------------------------
 Center     Atomic      Atomic             Coordinates (Angstroms)
 Number     Number       Type             X           Y           Z
 ---------------------------------------------------------------------
      1         15           0        0.070326   -0.675971   -0.000000
      2          1           0       -0.886515   -0.865209    1.032015
      3          6           0        0.070326    1.192480   -0.000000
      4          1           0       -0.886515   -0.865209   -1.032015
      5          1           0        0.612025    1.542422    0.881396
      6          1           0       -0.927861    1.630256    0.000000
      7          1           0        0.612025    1.542422   -0.881396
 ---------------------------------------------------------------------

 SCF Done:  E(RHF) =  -381.605658489     A.U. after    2 cycles

 The electronic state is 1-A'.
 Alpha  occ. eigenvalues --  -84.26932 -11.24171  -6.73999  -4.26297  -4.26261
 Alpha  occ. eigenvalues --   -4.25595  -0.98644  -0.80390  -0.58548  -0.58240
 Alpha  occ. eigenvalues --   -0.48268  -0.47192  -0.34027
 Alpha virt. eigenvalues --    0.03700   0.04799   0.05212   0.05752   0.08242
 Alpha virt. eigenvalues --    0.09672   0.11184   0.11464   0.15272   0.15934
 Alpha virt. eigenvalues --    0.16632   0.16900   0.19978   0.21841   0.24646

 Mulliken charges:
               1
     1  P   -0.402021
     2  H    0.408498
     3  C   -0.765284
     4  H    0.408498
     5  H    0.128001
     6  H    0.094307
     7  H    0.128001
 Sum of Mulliken charges =   0.00000

 Dipole moment (field-independent basis, Debye):
    X=             -0.3853    Y=              0.8624    Z=             -0.0000  Tot=              0.9445

 Test job not archived.
 1\1\GINC-SE084\SP\RHF\Aug-CC-pVDZ\C1H5P1\OHZDE\08-Apr-2025\0\\#t hf au
 g-cc-pvdz iop(5/13=1,5/36=2,99/5=2) pseudo=read geom=check guess=(read
 ,tcheck) scf=(maxcycle=1)\\title\\0,1\P,0,0.070326,-0.675971,0.\H,0,-0
 .886515,-0.865209,1.032015\C,0,0.070326,1.19248,0.\H,0,-0.886515,-0.86
 5209,-1.032015\H,0,0.612025,1.542422,0.881396\H,0,-0.927861,1.630256,0
 .\H,0,0.612025,1.542422,-0.881396\\Version=ES64L-G16RevC.01\State=1-A'
 \HF=-381.6056585\RMSD=3.194e-02\Dipole=-0.1515847,0.3392867,0.\Quadrup
 ole=-0.5488225,-0.2807071,0.8295296,1.0363298,0.,0.\PG=CS [SG(C1H1P1),

 Normal termination of Gaussian 16 at Tue Apr  8 23:12:49 2025.
