 Gaussian 16, Revision C.01,

 ----------------------------------------------------------------------
 #t hf aug-cc-pvdz symm=none int=(grid=ultrafine) guess=(read,tcheck) s
 table=(opt,rrhf)
 ----------------------------------------------------------------------
 -----
 title
 -----
 Symbolic Z-matrix:
 Charge =  0 Multiplicity = 1

 SCF Done:  E(RHF) =  -734.112758426     A.U. after   17 cycles
 Normal termination of Gaussian 16 at Tue Apr  8 23:12:15 2025.
 Gaussian 16:  ES64L-G16RevC.01  3-Jul-2019

 ----------------------------------------------------------------------
 #t hf aug-cc-pvdz iop(5/13=1,5/36=2,99/5=2) pseudo=read geom=check gue
 ss=(read,tcheck) scf=(maxcycle=1)
 ----------------------------------------------------------------------
 -----
 title
 -----
 Structure from the checkpoint file:  "BDE49_expt_679_mol1.chk"
 Charge =  0 Multiplicity = 1

                         Standard orientation:
 ---------------------------------------------------------------------
 Center     Atomic      Atomic             Coordinates (Angstroms)
 Number     Number       Type             X           Y           Z
 ---------------------------------------------------------------------
      1          6           0       -0.619047    1.309638   -0.022324
      2          6           0        0.766940    1.426849   -0.010811
      3          6           0       -1.205090    0.047072   -0.032328
      4          6           0       -0.401073   -1.097907   -0.029949
      5          6           0        0.978323   -0.978837   -0.018042
      6          6           0        1.582761    0.289352   -0.007019
      7          1           0        1.220459    2.411950   -0.006574
      8          1           0       -1.241748    2.194715   -0.030445
      9          1           0       -0.861618   -2.078023   -0.046416
     10          1           0        1.605688   -1.860795   -0.019439
     11          6           0        3.038479    0.458252    0.004415
     12          7           0        3.823950   -0.547891    0.005761
     13          1           0        3.444486    1.471165    0.011985
     14          8           0        5.158563   -0.150501    0.017689
     15          1           0        5.633134   -0.988296    0.017339
     16          6           0       -2.700460   -0.101354    0.003033
     17          9           0       -3.336836    1.017398   -0.404213
     18          9           0       -3.125067   -1.114473   -0.784978
     19          9           0       -3.147158   -0.372909    1.252509
 ---------------------------------------------------------------------

 SCF Done:  E(RHF) =  -734.818154987     A.U. after    2 cycles

 The electronic state is 1-A.
 Alpha  occ. eigenvalues --  -26.50699 -26.50470 -26.50137 -20.60106 -15.58133
 Alpha  occ. eigenvalues --  -11.52461 -11.30102 -11.28289 -11.28148 -11.27572
 Alpha  occ. eigenvalues --  -11.27415 -11.27254 -11.26751  -1.71100  -1.61212
 Alpha  occ. eigenvalues --   -1.60679  -1.51912  -1.21504  -1.18007  -1.08037
 Alpha  occ. eigenvalues --   -1.04938  -0.97253  -0.89496  -0.87585  -0.82309
 Alpha  occ. eigenvalues --   -0.80521  -0.80296  -0.79723  -0.75421  -0.71771
 Alpha  occ. eigenvalues --   -0.68890  -0.68597  -0.67069  -0.66275  -0.64631
 Alpha  occ. eigenvalues --   -0.63889  -0.63287  -0.62251  -0.62031  -0.61665
 Alpha  occ. eigenvalues --   -0.59605  -0.54711  -0.54449  -0.53412  -0.49022
 Alpha  occ. eigenvalues --   -0.45276  -0.37470  -0.35903
 Alpha virt. eigenvalues --    0.03175   0.03497   0.03970   0.04257   0.04909
 Alpha virt. eigenvalues --    0.06202   0.07342   0.07911   0.08790   0.09011
 Alpha virt. eigenvalues --    0.09564   0.10235   0.11959   0.13051   0.13187

 Mulliken charges:
               1
     1  C    0.008804
     2  C    0.384953
     3  C    0.179873
     4  C   -0.177316
     5  C    0.147123
     6  C    1.312165
     7  H   -0.319432
     8  H   -0.266357
     9  H   -0.293922
    10  H   -0.289742
    11  C   -1.468757
    12  N    1.552366
    13  H   -0.229058
    14  O   -1.111783
    15  H    0.282893
    16  C    2.706242
    17  F   -0.843216
    18  F   -0.812624
    19  F   -0.762213
 Sum of Mulliken charges =  -0.00000

 Dipole moment (field-independent basis, Debye):
    X=              2.0203    Y=              0.7477    Z=             -0.0726  Tot=              2.1555

 Test job not archived.
 1\1\GINC-SE074\SP\RHF\Aug-CC-pVDZ\C8H6F3N1O1\OHZDE\08-Apr-2025\0\\#t h
 f aug-cc-pvdz iop(5/13=1,5/36=2,99/5=2) pseudo=read geom=check guess=(
 read,tcheck) scf=(maxcycle=1)\\title\\0,1\C,0,-0.619047,1.309638,-0.02
 2324\C,0,0.76694,1.426849,-0.010811\C,0,-1.20509,0.047072,-0.032328\C,
 0,-0.401073,-1.097907,-0.029949\C,0,0.978323,-0.978837,-0.018042\C,0,1
 .582761,0.289352,-0.007019\H,0,1.220459,2.41195,-0.006574\H,0,-1.24174
 8,2.194715,-0.030445\H,0,-0.861618,-2.078023,-0.046416\H,0,1.605688,-1
 .860795,-0.019439\C,0,3.038479,0.458252,0.004415\N,0,3.82395,-0.547891

 Normal termination of Gaussian 16 at Tue Apr  8 23:12:27 2025.
