 Gaussian 16, Revision C.01,

 ----------------------------------------------------------------------
 #t hf aug-cc-pvdz symm=none int=(grid=ultrafine) guess=(read,tcheck) s
 table=(opt,rrhf)
 ----------------------------------------------------------------------
 -----
 title
 -----
 Symbolic Z-matrix:
 Charge =  0 Multiplicity = 1

 SCF Done:  E(RHF) =  -605.023655723     A.U. after   13 cycles
 Normal termination of Gaussian 16 at Wed Apr  9 00:35:12 2025.
 Gaussian 16:  ES64L-G16RevC.01  3-Jul-2019

 ----------------------------------------------------------------------
 #t hf aug-cc-pvdz iop(5/13=1,5/36=2,99/5=2) pseudo=read geom=check gue
 ss=(read,tcheck) scf=(maxcycle=1)
 ----------------------------------------------------------------------
 -----
 title
 -----
 Structure from the checkpoint file:  "BDE49_nonexpt_415_mol1.chk"
 Charge =  0 Multiplicity = 1

                         Standard orientation:
 ---------------------------------------------------------------------
 Center     Atomic      Atomic             Coordinates (Angstroms)
 Number     Number       Type             X           Y           Z
 ---------------------------------------------------------------------
      1          9           0       -1.591427   -1.268132   -1.378932
      2          5           0       -1.278123   -0.472961   -0.377283
      3          9           0       -2.279244    0.002452    0.354693
      4          6           0        0.220705    0.010050   -0.086589
      5          8           0        0.540843    0.169734    1.279647
      6          8           0        0.350004    1.285558   -0.692469
      7          8           0        1.081096   -0.863146   -0.734831
      8          6           0        0.335593   -0.993742    2.075971
      9          1           0        0.703198   -0.754532    3.072859
     10          1           0        0.887309   -1.850603    1.678628
     11          1           0       -0.729904   -1.247260    2.147208
     12          6           0       -0.170208    2.417703    0.014308
     13          1           0       -0.006182    3.269229   -0.645204
     14          1           0        0.354849    2.569019    0.957681
     15          1           0       -1.242429    2.316419    0.210517
     16          6           0        2.458344   -0.459437   -0.788452
     17          1           0        3.004103   -1.328713   -1.152115
     18          1           0        2.825074   -0.178845    0.201756
     19          1           0        2.588481    0.376596   -1.476969
 ---------------------------------------------------------------------

 SCF Done:  E(RHF) =  -605.616553902     A.U. after    2 cycles

 The electronic state is 1-A.
 Alpha  occ. eigenvalues --  -26.48565 -26.48168 -20.56585 -20.56231 -20.55982
 Alpha  occ. eigenvalues --  -11.39292 -11.29760 -11.28716 -11.28221  -7.72515
 Alpha  occ. eigenvalues --   -1.63632  -1.59571  -1.54451  -1.45173  -1.44554
 Alpha  occ. eigenvalues --   -1.00277  -0.95341  -0.93870  -0.85136  -0.80013
 Alpha  occ. eigenvalues --   -0.75319  -0.74937  -0.72203  -0.70759  -0.69427
 Alpha  occ. eigenvalues --   -0.66118  -0.64750  -0.63409  -0.63211  -0.62327
 Alpha  occ. eigenvalues --   -0.60891  -0.59819  -0.59215  -0.56164  -0.53682
 Alpha  occ. eigenvalues --   -0.50288  -0.48595  -0.46031  -0.44640  -0.42578
 Alpha virt. eigenvalues --    0.03309   0.03949   0.04153   0.04208   0.06052
 Alpha virt. eigenvalues --    0.06250   0.06476   0.06579   0.06871   0.08663
 Alpha virt. eigenvalues --    0.09526   0.09712   0.10657   0.12864   0.13463

 Mulliken charges:
               1
     1  F   -0.856532
     2  B    1.744604
     3  F   -0.756120
     4  C    3.504131
     5  O   -1.711917
     6  O   -1.609638
     7  O   -1.672945
     8  C    0.164620
     9  H    0.003487
    10  H    0.200591
    11  H    0.086812
    12  C    0.131463
    13  H   -0.010395
    14  H    0.187287
    15  H    0.085757
    16  C    0.124029
    17  H    0.001679
    18  H    0.195898
    19  H    0.187189
 Sum of Mulliken charges =  -0.00000

 Dipole moment (field-independent basis, Debye):
    X=              1.1239    Y=              0.4124    Z=              1.8327  Tot=              2.1891

 Test job not archived.
 1\1\GINC-SE120\SP\RHF\Aug-CC-pVDZ\C4H9B1F2O3\OHZDE\09-Apr-2025\0\\#t h
 f aug-cc-pvdz iop(5/13=1,5/36=2,99/5=2) pseudo=read geom=check guess=(
 read,tcheck) scf=(maxcycle=1)\\title\\0,1\F,0,-1.591427,-1.268132,-1.3
 78932\B,0,-1.278123,-0.472961,-0.377283\F,0,-2.279244,0.002453,0.35469
 3\C,0,0.220705,0.01005,-0.086589\O,0,0.540843,0.169734,1.279647\O,0,0.
 350004,1.285558,-0.692469\O,0,1.081096,-0.863146,-0.734831\C,0,0.33559
 3,-0.993742,2.075971\H,0,0.703198,-0.754532,3.072859\H,0,0.887309,-1.8
 50603,1.678628\H,0,-0.729904,-1.24726,2.147208\C,0,-0.170207,2.417703,

 Normal termination of Gaussian 16 at Wed Apr  9 00:35:22 2025.
