 Gaussian 16, Revision C.01,

 ----------------------------------------------------------------------
 #t hf aug-cc-pvdz symm=none int=(grid=ultrafine) guess=(read,tcheck) s
 table=(opt,rrhf)
 ----------------------------------------------------------------------
 -----
 title
 -----
 Symbolic Z-matrix:
 Charge =  0 Multiplicity = 1

 SCF Done:  E(RHF) =  -1423.63164791     A.U. after   14 cycles
 Normal termination of Gaussian 16 at Wed Apr  9 00:16:38 2025.
 Gaussian 16:  ES64L-G16RevC.01  3-Jul-2019

 ----------------------------------------------------------------------
 #t hf aug-cc-pvdz iop(5/13=1,5/36=2,99/5=2) pseudo=read geom=check gue
 ss=(read,tcheck) scf=(maxcycle=1)
 ----------------------------------------------------------------------
 -----
 title
 -----
 Structure from the checkpoint file:  "BDE49_nonexpt_2549_mol1.chk"
 Charge =  0 Multiplicity = 1

                         Standard orientation:
 ---------------------------------------------------------------------
 Center     Atomic      Atomic             Coordinates (Angstroms)
 Number     Number       Type             X           Y           Z
 ---------------------------------------------------------------------
      1         17           0       -2.206778   -0.391006    0.005343
      2         16           0       -0.756876    1.111012   -0.021019
      3         15           0        1.037620   -0.006501   -0.022406
      4          8           0        2.101907    0.990996   -0.077997
      5          8           0        0.977690   -1.009798    1.224194
      6          1           0        1.006779   -0.560587    2.078545
      7          8           0        0.986705   -1.055450   -1.208242
      8          1           0        0.523762   -1.876970   -1.000622
 ---------------------------------------------------------------------

 SCF Done:  E(RHF) =  -1424.03441837     A.U. after    2 cycles

 The electronic state is 1-A.
 Alpha  occ. eigenvalues -- -105.61155 -94.03626 -84.47715 -20.62751 -20.62251
 Alpha  occ. eigenvalues --  -20.53348 -10.65816  -8.31499  -7.82760  -7.82309
 Alpha  occ. eigenvalues --   -7.82271  -6.92821  -6.29259  -6.29021  -6.28738
 Alpha  occ. eigenvalues --   -4.46956  -4.46170  -4.44918  -1.57085  -1.50311
 Alpha  occ. eigenvalues --   -1.42092  -1.14178  -0.97999  -0.86531  -0.78672
 Alpha  occ. eigenvalues --   -0.70306  -0.66370  -0.61412  -0.61012  -0.58461
 Alpha  occ. eigenvalues --   -0.56609  -0.53861  -0.53729  -0.49879  -0.49301
 Alpha  occ. eigenvalues --   -0.44978  -0.40984
 Alpha virt. eigenvalues --    0.02724   0.03117   0.04580   0.07284   0.09404
 Alpha virt. eigenvalues --    0.09987   0.10972   0.11326   0.12716   0.13659
 Alpha virt. eigenvalues --    0.14393   0.15749   0.16562   0.18171   0.19040

 Mulliken charges:
               1
     1  Cl  -0.296132
     2  S   -0.277427
     3  P    3.556346
     4  O   -1.329584
     5  O   -1.229208
     6  H    0.399731
     7  O   -1.198370
     8  H    0.374645
 Sum of Mulliken charges =  -0.00000

 Dipole moment (field-independent basis, Debye):
    X=             -1.7028    Y=             -2.4986    Z=              1.8173  Tot=              3.5277

 Test job not archived.
 1\1\GINC-SE335\SP\RHF\Aug-CC-pVDZ\Cl1H2O3P1S1\OHZDE\09-Apr-2025\0\\#t
 hf aug-cc-pvdz iop(5/13=1,5/36=2,99/5=2) pseudo=read geom=check guess=
 (read,tcheck) scf=(maxcycle=1)\\title\\0,1\Cl,0,-2.206778,-0.391006,0.
 005343\S,0,-0.756876,1.111012,-0.021019\P,0,1.03762,-0.006501,-0.02240
 6\O,0,2.101907,0.990996,-0.077997\O,0,0.97769,-1.009798,1.224194\H,0,1
 .006779,-0.560587,2.078545\O,0,0.986705,-1.05545,-1.208242\H,0,0.52376
 2,-1.87697,-1.000622\\Version=ES64L-G16RevC.01\State=1-A\HF=-1424.0344
 184\RMSD=9.211e-03\Dipole=-0.6699257,-0.9830226,0.7149788\Quadrupole=-

 Normal termination of Gaussian 16 at Wed Apr  9 00:16:40 2025.
