 Gaussian 16, Revision C.01,

 ----------------------------------------------------------------------
 #t hf aug-cc-pvdz symm=none int=(grid=ultrafine) guess=(read,tcheck) s
 table=opt
 ----------------------------------------------------------------------
 -----
 title
 -----
 Symbolic Z-matrix:
 Charge =  0 Multiplicity = 2

 SCF Done:  E(UHF) =  -779.923656217     A.U. after   22 cycles
 Normal termination of Gaussian 16 at Tue Apr  8 23:57:23 2025.
 Gaussian 16:  ES64L-G16RevC.01  3-Jul-2019

 ----------------------------------------------------------------------
 #t hf aug-cc-pvdz iop(5/13=1,5/36=2,99/5=2) pseudo=read geom=check gue
 ss=(read,tcheck) scf=(maxcycle=1)
 ----------------------------------------------------------------------
 -----
 title
 -----
 Structure from the checkpoint file:  "BDE49_nonexpt_2047_mol2.chk"
 Charge =  0 Multiplicity = 2

                         Standard orientation:
 ---------------------------------------------------------------------
 Center     Atomic      Atomic             Coordinates (Angstroms)
 Number     Number       Type             X           Y           Z
 ---------------------------------------------------------------------
      1         14           0       -1.545618   -0.539268   -0.101280
      2          6           0        1.397026   -0.112224   -0.006364
      3          7           0        2.330535   -0.797614   -0.028921
      4         16           0        0.065220    0.942015    0.034572
      5          1           0       -2.747267    0.296052    0.148033
      6          1           0       -1.353505   -1.561901    0.957363
 ---------------------------------------------------------------------

 SCF Done:  E(UHF) =  -780.098839173     A.U. after    2 cycles

 The electronic state is 2-A.
 Alpha  occ. eigenvalues --  -94.01201 -69.60373 -15.52849 -11.31264  -8.29403
 Alpha  occ. eigenvalues --   -6.27280  -6.27218  -6.27069  -6.26835  -4.03087
 Alpha  occ. eigenvalues --   -4.02332  -4.02196  -1.24697  -1.09284  -0.79026
 Alpha  occ. eigenvalues --   -0.67795  -0.60631  -0.57236  -0.56380  -0.53349
 Alpha  occ. eigenvalues --   -0.47669  -0.44154  -0.36841
 Alpha virt. eigenvalues --    0.02799   0.03911   0.05306   0.05490   0.07711
 Alpha virt. eigenvalues --    0.09021   0.09649   0.09943   0.11248   0.12199
 Alpha virt. eigenvalues --    0.12902   0.13113   0.14201   0.16374   0.16404

  Beta  occ. eigenvalues --  -94.01120 -69.59788 -15.52814 -11.31290  -8.29309
  Beta  occ. eigenvalues --   -6.27158  -6.26917  -6.26612  -6.26359  -4.01942
  Beta  occ. eigenvalues --   -4.01820  -4.00956  -1.24636  -1.08655  -0.75595
  Beta  occ. eigenvalues --   -0.66582  -0.60390  -0.56627  -0.55792  -0.52088
  Beta  occ. eigenvalues --   -0.46485  -0.41956
  Beta virt. eigenvalues --   -0.00855   0.03150   0.04178   0.05463   0.06654
  Beta virt. eigenvalues --    0.08381   0.09185   0.09978   0.10806   0.11593
  Beta virt. eigenvalues --    0.12790   0.13396   0.13659   0.15073   0.16671

 Mulliken charges and spin densities:
               1          2
     1  Si   0.938405   0.847654
     2  C   -1.272878  -0.018580
     3  N    0.587361   0.011112
     4  S    0.016794   0.053043
     5  H   -0.141315   0.039245
     6  H   -0.128366   0.067526
 Sum of Mulliken charges =  -0.00000   1.00000

 Dipole moment (field-independent basis, Debye):
    X=             -4.8223    Y=              1.0519    Z=              0.0278  Tot=              4.9358
                          Isotropic Fermi Contact Couplings
        Atom                 a.u.       MegaHertz       Gauss      10(-4) cm-1
     1  Si(29)             0.74285    -660.19352    -235.57347    -220.21686
     2  C(13)             -0.00234      -2.63540      -0.94038      -0.87908
     3  N(14)              0.00251       0.81176       0.28966       0.27077
     4  S(33)              0.03350      11.50569       4.10551       3.83788
     5  H(1)               0.00830      37.08240      13.23192      12.36936
     6  H(1)               0.01683      75.21076      26.83707      25.08761
 --------------------------------------------------------
       Center         ----  Spin Dipole Couplings  ----

 1\1\GINC-SE457\SP\UHF\Aug-CC-pVDZ\C1H2N1S1Si1(2)\OHZDE\08-Apr-2025\0\\
 #t hf aug-cc-pvdz iop(5/13=1,5/36=2,99/5=2) pseudo=read geom=check gue
 ss=(read,tcheck) scf=(maxcycle=1)\\title\\0,2\Si,0,-1.545618,-0.539268
 ,-0.10128\C,0,1.397026,-0.112224,-0.006364\N,0,2.330535,-0.797613,-0.0
 28921\S,0,0.06522,0.942015,0.034572\H,0,-2.747267,0.296051,0.148033\H,
 0,-1.353505,-1.561901,0.957363\\Version=ES64L-G16RevC.01\State=2-A\HF=
 -780.0988392\S2=0.755408\S2-1=0.\S2A=0.750015\RMSD=1.134e-02\Dipole=-1
 .8972525,0.4138521,0.0109289\Quadrupole=-2.6320381,1.463025,1.1690131,

 Normal termination of Gaussian 16 at Tue Apr  8 23:57:26 2025.
