 Gaussian 16, Revision C.01,

 ----------------------------------------------------------------------
 #t hf aug-cc-pvdz symm=none int=(grid=ultrafine) guess=(read,tcheck) s
 table=(opt,rrhf)
 ----------------------------------------------------------------------
 -----
 title
 -----
 Symbolic Z-matrix:
 Charge =  0 Multiplicity = 1

 SCF Done:  E(RHF) =  -685.185878797     A.U. after   14 cycles
 Normal termination of Gaussian 16 at Wed Apr  9 00:54:01 2025.
 Gaussian 16:  ES64L-G16RevC.01  3-Jul-2019

 ----------------------------------------------------------------------
 #t hf aug-cc-pvdz iop(5/13=1,5/36=2,99/5=2) pseudo=read geom=check gue
 ss=(read,tcheck) scf=(maxcycle=1)
 ----------------------------------------------------------------------
 -----
 title
 -----
 Structure from the checkpoint file:  "BDE49_nonexpt_962_mol1.chk"
 Charge =  0 Multiplicity = 1

                         Standard orientation:
 ---------------------------------------------------------------------
 Center     Atomic      Atomic             Coordinates (Angstroms)
 Number     Number       Type             X           Y           Z
 ---------------------------------------------------------------------
      1          9           0        1.917407   -1.584632   -0.848592
      2          7           0        0.516920   -1.815966   -0.628122
      3          6           0        0.328534   -1.996355    0.811891
      4          6           0        0.010754   -0.672525    0.212149
      5          6           0        0.986900    0.460950    0.466948
      6          8           0        1.621109    0.591444    1.480224
      7          8           0        1.049792    1.270036   -0.592495
      8          6           0        1.958739    2.382297   -0.474835
      9          6           0       -1.440279   -0.363189   -0.052552
     10          8           0       -2.247691   -1.199621   -0.362361
     11          8           0       -1.717203    0.930430    0.160529
     12          6           0       -3.096417    1.311869   -0.022742
     13          1           0        1.224822   -2.041124    1.417649
     14          1           0       -0.485546   -2.669406    1.052142
     15          1           0        2.976599    2.020913   -0.324523
     16          1           0        1.672276    3.017549    0.364233
     17          1           0        1.875953    2.922381   -1.414542
     18          1           0       -3.739150    0.742566    0.649589
     19          1           0       -3.134779    2.372806    0.210789
     20          1           0       -3.402725    1.131174   -1.053488
 ---------------------------------------------------------------------

 SCF Done:  E(RHF) =  -685.856154699     A.U. after    2 cycles

 The electronic state is 1-A.
 Alpha  occ. eigenvalues --  -26.48118 -20.61372 -20.60533 -20.55676 -20.55642
 Alpha  occ. eigenvalues --  -15.63963 -11.41840 -11.41655 -11.32889 -11.31323
 Alpha  occ. eigenvalues --  -11.30917 -11.30669  -1.59348  -1.56859  -1.56143
 Alpha  occ. eigenvalues --   -1.47592  -1.47269  -1.29322  -1.04908  -0.99812
 Alpha  occ. eigenvalues --   -0.94275  -0.91217  -0.84984  -0.79449  -0.77775
 Alpha  occ. eigenvalues --   -0.75285  -0.70566  -0.70180  -0.69350  -0.69201
 Alpha  occ. eigenvalues --   -0.68255  -0.66987  -0.64104  -0.61765  -0.59990
 Alpha  occ. eigenvalues --   -0.59437  -0.56717  -0.56340  -0.55365  -0.54167
 Alpha  occ. eigenvalues --   -0.53000  -0.48761  -0.47773  -0.47254  -0.46673
 Alpha  occ. eigenvalues --   -0.44887
 Alpha virt. eigenvalues --    0.03031   0.03847   0.04274   0.04745   0.05493
 Alpha virt. eigenvalues --    0.05700   0.06736   0.07390   0.08386   0.09404
 Alpha virt. eigenvalues --    0.11377   0.11602   0.11833   0.12338   0.12858

 Mulliken charges:
               1
     1  F   -0.700757
     2  N    1.099210
     3  C    0.179461
     4  C   -0.897577
     5  C    2.451465
     6  O   -1.277495
     7  O   -1.385845
     8  C    0.219593
     9  C    2.140307
    10  O   -1.401681
    11  O   -1.359810
    12  C    0.247203
    13  H    0.031804
    14  H   -0.110905
    15  H    0.181514
    16  H    0.185746
    17  H    0.029408
    18  H    0.166097
    19  H    0.005865
    20  H    0.196398
 Sum of Mulliken charges =  -0.00000

 Dipole moment (field-independent basis, Debye):
    X=             -1.1981    Y=              3.0809    Z=              1.1401  Tot=              3.4967

 Test job not archived.
 1\1\GINC-SE462\SP\RHF\Aug-CC-pVDZ\C6H8F1N1O4\OHZDE\09-Apr-2025\0\\#t h
 f aug-cc-pvdz iop(5/13=1,5/36=2,99/5=2) pseudo=read geom=check guess=(
 read,tcheck) scf=(maxcycle=1)\\title\\0,1\F,0,1.917407,-1.584632,-0.84
 8592\N,0,0.51692,-1.815966,-0.628122\C,0,0.328534,-1.996355,0.811891\C
 ,0,0.010754,-0.672525,0.212149\C,0,0.9869,0.46095,0.466948\O,0,1.62110
 9,0.591444,1.480224\O,0,1.049792,1.270036,-0.592495\C,0,1.958739,2.382
 297,-0.474835\C,0,-1.440279,-0.363189,-0.052552\O,0,-2.247691,-1.19962
 1,-0.362361\O,0,-1.717203,0.93043,0.160529\C,0,-3.096417,1.311869,-0.0

 Normal termination of Gaussian 16 at Wed Apr  9 00:54:29 2025.
