 Gaussian 16, Revision C.01,

 ----------------------------------------------------------------------
 #t hf aug-cc-pvdz symm=none int=(grid=ultrafine) guess=(read,tcheck) s
 table=(opt,rrhf)
 ----------------------------------------------------------------------
 -----
 title
 -----
 Symbolic Z-matrix:
 Charge =  0 Multiplicity = 1

 SCF Done:  E(RHF) =  -247.023684769     A.U. after   13 cycles
 Normal termination of Gaussian 16 at Tue Apr  8 22:39:44 2025.
 Gaussian 16:  ES64L-G16RevC.01  3-Jul-2019

 ----------------------------------------------------------------------
 #t hf aug-cc-pvdz iop(5/13=1,5/36=2,99/5=2) pseudo=read geom=check gue
 ss=(read,tcheck) scf=(maxcycle=1)
 ----------------------------------------------------------------------
 -----
 title
 -----
 Structure from the checkpoint file:  "BDE49_expt_1318_mol1.chk"
 Charge =  0 Multiplicity = 1

                         Standard orientation:
 ---------------------------------------------------------------------
 Center     Atomic      Atomic             Coordinates (Angstroms)
 Number     Number       Type             X           Y           Z
 ---------------------------------------------------------------------
      1          6           0        0.862724   -0.648994   -0.000000
      2          7           0       -0.347136   -0.018344   -0.000000
      3          6           0       -1.594134   -0.756623    0.000002
      4          1           0       -2.192376   -0.521638   -0.887799
      5          1           0       -2.192373   -0.521639    0.887804
      6          1           0       -1.384970   -1.827742   -0.000000
      7          8           0        1.947249   -0.103637   -0.000002
      8          6           0       -0.411949    1.433464    0.000001
      9          1           0        0.607292    1.815134   -0.000002
     10          1           0       -0.937788    1.798215    0.889184
     11          1           0       -0.937794    1.798215   -0.889179
     12          1           0        0.750125   -1.750126   -0.000002
 ---------------------------------------------------------------------

 SCF Done:  E(RHF) =  -247.280082575     A.U. after    2 cycles

 The electronic state is 1-A.
 Alpha  occ. eigenvalues --  -20.50944 -15.53139 -11.35491 -11.28621 -11.26936
 Alpha  occ. eigenvalues --   -1.45564  -1.25916  -0.99589  -0.96871  -0.79660
 Alpha  occ. eigenvalues --   -0.72589  -0.67604  -0.67071  -0.59847  -0.57966
 Alpha  occ. eigenvalues --   -0.57661  -0.55390  -0.53774  -0.42538  -0.39970
 Alpha virt. eigenvalues --    0.03003   0.04374   0.04633   0.04919   0.06496
 Alpha virt. eigenvalues --    0.06960   0.07614   0.09914   0.10014   0.13032
 Alpha virt. eigenvalues --    0.13896   0.14954   0.15398   0.15425   0.16678

 Mulliken charges:
               1
     1  C    0.597438
     2  N    0.548156
     3  C   -0.441465
     4  H    0.171340
     5  H    0.171338
     6  H    0.023963
     7  O   -1.097078
     8  C   -0.390059
     9  H    0.010527
    10  H    0.161931
    11  H    0.161932
    12  H    0.081978
 Sum of Mulliken charges =  -0.00000

 Dipole moment (field-independent basis, Debye):
    X=             -3.9881    Y=             -0.6641    Z=              0.0000  Tot=              4.0430

 Test job not archived.
 1\1\GINC-SE097\SP\RHF\Aug-CC-pVDZ\C3H7N1O1\OHZDE\08-Apr-2025\0\\#t hf
 aug-cc-pvdz iop(5/13=1,5/36=2,99/5=2) pseudo=read geom=check guess=(re
 ad,tcheck) scf=(maxcycle=1)\\title\\0,1\C,0,0.862724,-0.648994,0.\N,0,
 -0.347136,-0.018344,0.\C,0,-1.594134,-0.756623,0.000002\H,0,-2.192376,
 -0.521639,-0.887799\H,0,-2.192373,-0.52164,0.887804\H,0,-1.38497,-1.82
 7742,0.\O,0,1.947249,-0.103636,-0.000002\C,0,-0.411949,1.433464,0.0000
 01\H,0,0.607291,1.815134,-0.000002\H,0,-0.937789,1.798215,0.889184\H,0
 ,-0.937795,1.798215,-0.889179\H,0,0.750125,-1.750126,-0.000002\\Versio

 Normal termination of Gaussian 16 at Tue Apr  8 22:39:47 2025.
