 Gaussian 16, Revision C.01,

 ----------------------------------------------------------------------
 #t hf aug-cc-pvdz symm=none int=(grid=ultrafine) guess=(read,tcheck) s
 table=opt
 ----------------------------------------------------------------------
 -----
 title
 -----
 Symbolic Z-matrix:
 Charge =  0 Multiplicity = 2

 SCF Done:  E(UHF) =  -625.832568275     A.U. after   21 cycles
 Normal termination of Gaussian 16 at Tue Apr  8 23:00:50 2025.
 Gaussian 16:  ES64L-G16RevC.01  3-Jul-2019

 ----------------------------------------------------------------------
 #t hf aug-cc-pvdz iop(5/13=1,5/36=2,99/5=2) pseudo=read geom=check gue
 ss=(read,tcheck) scf=(maxcycle=1)
 ----------------------------------------------------------------------
 -----
 title
 -----
 Structure from the checkpoint file:  "BDE49_expt_1981_mol2.chk"
 Charge =  0 Multiplicity = 2

                         Standard orientation:
 ---------------------------------------------------------------------
 Center     Atomic      Atomic             Coordinates (Angstroms)
 Number     Number       Type             X           Y           Z
 ---------------------------------------------------------------------
      1          6           0       -0.965371   -0.751265    0.260316
      2         16           0        0.619833    0.069809   -0.266177
      3          6           0       -2.183549    0.078850   -0.106398
      4          1           0       -0.835325   -0.878214    1.337729
      5          1           0       -0.933707   -1.728314   -0.222466
      6          1           0       -2.134361    1.066355    0.353018
      7          1           0       -3.086650   -0.424041    0.249522
      8          1           0       -2.273143    0.204114   -1.187628
      9          8           0        0.581969    1.441490    0.254895
     10          8           0        1.697953   -0.856784    0.095749
 ---------------------------------------------------------------------

 SCF Done:  E(UHF) =  -626.123325184     A.U. after    2 cycles

 The electronic state is 2-A.
 Alpha  occ. eigenvalues --  -94.16685 -20.57756 -20.57630 -11.31558 -11.26641
 Alpha  occ. eigenvalues --   -8.42689  -6.41026  -6.40474  -6.40142  -1.56684
 Alpha  occ. eigenvalues --   -1.46583  -1.10699  -0.95598  -0.85893  -0.70779
 Alpha  occ. eigenvalues --   -0.69302  -0.67504  -0.65017  -0.60715  -0.57577
 Alpha  occ. eigenvalues --   -0.54991  -0.54532  -0.50014  -0.49477  -0.40527
 Alpha virt. eigenvalues --    0.02814   0.03921   0.04220   0.05630   0.07185
 Alpha virt. eigenvalues --    0.08880   0.10862   0.10910   0.11802   0.14345
 Alpha virt. eigenvalues --    0.14559   0.15472   0.15965   0.16754   0.17445

  Beta  occ. eigenvalues --  -94.16328 -20.56289 -20.56193 -11.31053 -11.26681
  Beta  occ. eigenvalues --   -8.42236  -6.40443  -6.40202  -6.39255  -1.53590
  Beta  occ. eigenvalues --   -1.42584  -1.09129  -0.93231  -0.81918  -0.68242
  Beta  occ. eigenvalues --   -0.67851  -0.64666  -0.60294  -0.59388  -0.56768
  Beta  occ. eigenvalues --   -0.54309  -0.48190  -0.47045  -0.43164
  Beta virt. eigenvalues --    0.00025   0.03118   0.03976   0.04276   0.06166
  Beta virt. eigenvalues --    0.07229   0.09073   0.11074   0.11139   0.11866
  Beta virt. eigenvalues --    0.14432   0.14723   0.15704   0.16040   0.17176

 Mulliken charges and spin densities:
               1          2
     1  C   -0.841765   0.233624
     2  S    2.801288   0.247291
     3  C   -0.347905  -0.040146
     4  H    0.254674  -0.000987
     5  H    0.228018  -0.015890
     6  H    0.206642  -0.000705
     7  H    0.160475   0.001823
     8  H    0.170334   0.000645
     9  O   -1.316304   0.289862
    10  O   -1.315458   0.284482
 Sum of Mulliken charges =  -0.00000   1.00000

 Dipole moment (field-independent basis, Debye):
    X=             -4.1218    Y=             -1.5912    Z=             -0.6493  Tot=              4.4657
                          Isotropic Fermi Contact Couplings
        Atom                 a.u.       MegaHertz       Gauss      10(-4) cm-1
     1  C(13)              0.07578      85.18744      30.39700      28.41547
     2  S(33)              0.41039     140.95815      50.29737      47.01858
     3  C(13)             -0.00781      -8.77878      -3.13249      -2.92829
     4  H(1)               0.00243      10.88369       3.88357       3.63041
     5  H(1)              -0.00373     -16.68143      -5.95235      -5.56433
     6  H(1)               0.00045       2.02093       0.72112       0.67411
     7  H(1)               0.00174       7.79850       2.78270       2.60130
     8  H(1)               0.00025       1.12486       0.40138       0.37521

 Normal termination of Gaussian 16 at Tue Apr  8 23:00:54 2025.
