 Gaussian 16, Revision C.01,

 ----------------------------------------------------------------------
 #t hf aug-cc-pvdz symm=none int=(grid=ultrafine) guess=(read,tcheck) s
 table=(opt,rrhf)
 ----------------------------------------------------------------------
 -----
 title
 -----
 Symbolic Z-matrix:
 Charge =  0 Multiplicity = 1

 SCF Done:  E(RHF) =  -444.229212583     A.U. after   12 cycles
 Normal termination of Gaussian 16 at Wed Apr  9 00:06:32 2025.
 Gaussian 16:  ES64L-G16RevC.01  3-Jul-2019

 ----------------------------------------------------------------------
 #t hf aug-cc-pvdz iop(5/13=1,5/36=2,99/5=2) pseudo=read geom=check gue
 ss=(read,tcheck) scf=(maxcycle=1)
 ----------------------------------------------------------------------
 -----
 title
 -----
 Structure from the checkpoint file:  "BDE49_nonexpt_2238_mol1.chk"
 Charge =  0 Multiplicity = 1

                         Standard orientation:
 ---------------------------------------------------------------------
 Center     Atomic      Atomic             Coordinates (Angstroms)
 Number     Number       Type             X           Y           Z
 ---------------------------------------------------------------------
      1         14           0        1.657093   -0.007375   -0.000002
      2          8           0        0.056254   -0.397538   -0.000001
      3          6           0       -1.024451    0.538066    0.000004
      4          6           0       -2.336829   -0.225061    0.000001
      5          1           0       -0.956900    1.182667   -0.886312
      6          1           0       -0.956899    1.182657    0.886327
      7          1           0       -2.407162   -0.860935   -0.885210
      8          1           0       -3.182779    0.468286    0.000005
      9          1           0       -2.407161   -0.860944    0.885205
     10          1           0        2.393030   -1.286018   -0.000009
     11          1           0        2.018111    0.789902    1.200055
     12          1           0        2.018107    0.789913   -1.200054
 ---------------------------------------------------------------------

 SCF Done:  E(RHF) =  -444.427624732     A.U. after    2 cycles

 The electronic state is 1-A.
 Alpha  occ. eigenvalues --  -69.55421 -20.53545 -11.29548 -11.22848  -6.22047
 Alpha  occ. eigenvalues --   -3.97551  -3.97407  -3.97381  -1.43806  -1.02269
 Alpha  occ. eigenvalues --   -0.85060  -0.75120  -0.65974  -0.63106  -0.59341
 Alpha  occ. eigenvalues --   -0.54647  -0.53952  -0.49643  -0.49415  -0.45751
 Alpha  occ. eigenvalues --   -0.43060
 Alpha virt. eigenvalues --    0.03772   0.04256   0.04439   0.04659   0.05972
 Alpha virt. eigenvalues --    0.07059   0.07435   0.07822   0.09306   0.09699
 Alpha virt. eigenvalues --    0.10723   0.13669   0.14233   0.15175   0.15382

 Mulliken charges:
               1
     1  Si   1.505474
     2  O   -1.644224
     3  C    0.556628
     4  C   -0.462338
     5  H    0.087048
     6  H    0.087047
     7  H    0.157096
     8  H    0.172097
     9  H    0.157095
    10  H   -0.183767
    11  H   -0.216078
    12  H   -0.216078
 Sum of Mulliken charges =  -0.00000

 Dipole moment (field-independent basis, Debye):
    X=             -0.6256    Y=              0.9838    Z=              0.0000  Tot=              1.1659

 Test job not archived.
 1\1\GINC-SE273\SP\RHF\Aug-CC-pVDZ\C2H8O1Si1\OHZDE\09-Apr-2025\0\\#t hf
  aug-cc-pvdz iop(5/13=1,5/36=2,99/5=2) pseudo=read geom=check guess=(r
 ead,tcheck) scf=(maxcycle=1)\\title\\0,1\Si,0,1.657093,-0.007375,-0.00
 0002\O,0,0.056254,-0.397538,-0.000001\C,0,-1.024451,0.538066,0.000004\
 C,0,-2.336829,-0.225061,0.000001\H,0,-0.9569,1.182667,-0.886312\H,0,-0
 .956899,1.182657,0.886327\H,0,-2.407162,-0.860935,-0.88521\H,0,-3.1827
 79,0.468286,0.000005\H,0,-2.407161,-0.860944,0.885205\H,0,2.39303,-1.2
 86018,-0.000009\H,0,2.018111,0.789902,1.200055\H,0,2.018107,0.789913,-

 Normal termination of Gaussian 16 at Wed Apr  9 00:06:36 2025.
