 Gaussian 16, Revision C.01,

 ----------------------------------------------------------------------
 #t hf aug-cc-pvdz symm=none int=(grid=ultrafine) guess=(read,tcheck) s
 table=(opt,rrhf)
 ----------------------------------------------------------------------
 -----
 title
 -----
 Symbolic Z-matrix:
 Charge =  0 Multiplicity = 1

 SCF Done:  E(RHF) =  -799.691205129     A.U. after   15 cycles
 Normal termination of Gaussian 16 at Tue Apr  8 23:07:39 2025.
 Gaussian 16:  ES64L-G16RevC.01  3-Jul-2019

 ----------------------------------------------------------------------
 #t hf aug-cc-pvdz iop(5/13=1,5/36=2,99/5=2) pseudo=read geom=check gue
 ss=(read,tcheck) scf=(maxcycle=1)
 ----------------------------------------------------------------------
 -----
 title
 -----
 Structure from the checkpoint file:  "BDE49_expt_449_mol1.chk"
 Charge =  0 Multiplicity = 1

                         Standard orientation:
 ---------------------------------------------------------------------
 Center     Atomic      Atomic             Coordinates (Angstroms)
 Number     Number       Type             X           Y           Z
 ---------------------------------------------------------------------
      1          6           0       -0.857044    1.252041    0.020652
      2          6           0        0.524766    1.389371   -0.010746
      3          6           0       -1.420083   -0.019529   -0.003601
      4          6           0       -0.610263   -1.148029   -0.058257
      5          6           0        0.773151   -1.010148   -0.091470
      6          6           0        1.359170    0.262317   -0.070242
      7          1           0        0.961247    2.383297    0.005777
      8          1           0       -1.492810    2.126937    0.066956
      9          1           0       -1.058124   -2.133623   -0.074265
     10          1           0        1.414804   -1.879075   -0.131364
     11          7           0        2.743691    0.442066   -0.162382
     12          7           0        3.565839   -0.658762    0.145849
     13          1           0        4.368341   -0.657738   -0.471531
     14          1           0        3.881854   -0.638377    1.113034
     15          1           0        3.061063    1.340820    0.181661
     16         17           0       -3.171840   -0.198912    0.041614
 ---------------------------------------------------------------------

 SCF Done:  E(RHF) =  -800.119398016     A.U. after    2 cycles

 The electronic state is 1-A.
 Alpha  occ. eigenvalues -- -105.56057 -15.54338 -15.53675 -11.29203 -11.28951
 Alpha  occ. eigenvalues --  -11.25569 -11.25355 -11.24495 -11.23761 -10.60837
 Alpha  occ. eigenvalues --   -7.77802  -7.77415  -7.77392  -1.30307  -1.17556
 Alpha  occ. eigenvalues --   -1.11382  -1.05524  -1.02768  -0.95681  -0.86070
 Alpha  occ. eigenvalues --   -0.82041  -0.75800  -0.74336  -0.72607  -0.65757
 Alpha  occ. eigenvalues --   -0.64617  -0.62539  -0.60688  -0.56062  -0.53396
 Alpha  occ. eigenvalues --   -0.52130  -0.51407  -0.48460  -0.45441  -0.44591
 Alpha  occ. eigenvalues --   -0.35666  -0.31191
 Alpha virt. eigenvalues --    0.02348   0.03976   0.04869   0.04960   0.05595
 Alpha virt. eigenvalues --    0.06175   0.07926   0.09416   0.09505   0.10205
 Alpha virt. eigenvalues --    0.10533   0.12678   0.13107   0.13629   0.14259

 Mulliken charges:
               1
     1  C    0.045966
     2  C    0.982437
     3  C   -0.079953
     4  C    0.114684
     5  C    0.876354
     6  C   -1.443970
     7  H   -0.323083
     8  H   -0.164829
     9  H   -0.175718
    10  H   -0.322221
    11  N    0.519934
    12  N   -0.005403
    13  H    0.148584
    14  H    0.159031
    15  H    0.030711
    16  Cl  -0.362525
 Sum of Mulliken charges =   0.00000

 Dipole moment (field-independent basis, Debye):
    X=              4.2243    Y=              1.1238    Z=              1.0244  Tot=              4.4896

 Test job not archived.
 1\1\GINC-SE453\SP\RHF\Aug-CC-pVDZ\C6H7Cl1N2\OHZDE\08-Apr-2025\0\\#t hf
  aug-cc-pvdz iop(5/13=1,5/36=2,99/5=2) pseudo=read geom=check guess=(r
 ead,tcheck) scf=(maxcycle=1)\\title\\0,1\C,0,-0.857044,1.252041,0.0206
 52\C,0,0.524766,1.389371,-0.010746\C,0,-1.420083,-0.019529,-0.003601\C
 ,0,-0.610263,-1.148029,-0.058257\C,0,0.773151,-1.010148,-0.09147\C,0,1
 .35917,0.262317,-0.070242\H,0,0.961247,2.383297,0.005777\H,0,-1.49281,
 2.126937,0.066956\H,0,-1.058124,-2.133623,-0.074265\H,0,1.414804,-1.87
 9075,-0.131364\N,0,2.743691,0.442066,-0.162382\N,0,3.565839,-0.658762,

 Normal termination of Gaussian 16 at Tue Apr  8 23:07:46 2025.
