 Gaussian 16, Revision C.01,

 ----------------------------------------------------------------------
 #t hf aug-cc-pvdz symm=none int=(grid=ultrafine) guess=(read,tcheck) s
 table=opt
 ----------------------------------------------------------------------
 -----
 title
 -----
 Symbolic Z-matrix:
 Charge =  0 Multiplicity = 2

 SCF Done:  E(UHF) =  -661.635244226     A.U. after   17 cycles
 Normal termination of Gaussian 16 at Tue Apr  8 23:53:24 2025.
 Gaussian 16:  ES64L-G16RevC.01  3-Jul-2019

 ----------------------------------------------------------------------
 #t hf aug-cc-pvdz iop(5/13=1,5/36=2,99/5=2) pseudo=read geom=check gue
 ss=(read,tcheck) scf=(maxcycle=1)
 ----------------------------------------------------------------------
 -----
 title
 -----
 Structure from the checkpoint file:  "BDE49_nonexpt_1933_mol3.chk"
 Charge =  0 Multiplicity = 2

                         Standard orientation:
 ---------------------------------------------------------------------
 Center     Atomic      Atomic             Coordinates (Angstroms)
 Number     Number       Type             X           Y           Z
 ---------------------------------------------------------------------
      1          6           0        1.551284    0.403503   -0.380862
      2         16           0       -0.028620   -0.132165    0.076630
      3          8           0       -0.403220   -1.247347   -0.752365
      4          8           0       -0.104540   -0.180336    1.507713
      5          8           0       -0.944543    1.139428   -0.359312
      6          1           0       -1.321643    0.945269   -1.230024
      7          1           0        2.213549   -0.327442   -0.821663
      8          1           0        1.876737    1.381845   -0.057506
 ---------------------------------------------------------------------

 SCF Done:  E(UHF) =  -661.958373692     A.U. after    2 cycles

 The electronic state is 2-A.
 Alpha  occ. eigenvalues --  -94.25208 -20.62995 -20.56424 -20.55975 -11.32552
 Alpha  occ. eigenvalues --   -8.49919  -6.48074  -6.47939  -6.47700  -1.62504
 Alpha  occ. eigenvalues --   -1.49841  -1.47159  -1.09681  -0.89077  -0.77444
 Alpha  occ. eigenvalues --   -0.72827  -0.70891  -0.68096  -0.63765  -0.57956
 Alpha  occ. eigenvalues --   -0.53722  -0.52753  -0.50345  -0.49080  -0.44784
 Alpha virt. eigenvalues --    0.02901   0.04245   0.04681   0.09242   0.10739
 Alpha virt. eigenvalues --    0.11276   0.11618   0.13451   0.15467   0.16775
 Alpha virt. eigenvalues --    0.18151   0.18662   0.19394   0.22204   0.23411

  Beta  occ. eigenvalues --  -94.25286 -20.62917 -20.56391 -20.55723 -11.30048
  Beta  occ. eigenvalues --   -8.50023  -6.48136  -6.48012  -6.47916  -1.62317
  Beta  occ. eigenvalues --   -1.49592  -1.46796  -1.03667  -0.86602  -0.76687
  Beta  occ. eigenvalues --   -0.72004  -0.70077  -0.66813  -0.63354  -0.56821
  Beta  occ. eigenvalues --   -0.52651  -0.50949  -0.48959  -0.48298
  Beta virt. eigenvalues --    0.02093   0.03324   0.04498   0.04763   0.09852
  Beta virt. eigenvalues --    0.11188   0.11451   0.12721   0.13919   0.15917
  Beta virt. eigenvalues --    0.16987   0.18472   0.18931   0.19651   0.22889

 Mulliken charges and spin densities:
               1          2
     1  C   -0.473718   1.248162
     2  S    3.982614  -0.088314
     3  O   -1.464785   0.007417
     4  O   -1.411434   0.020304
     5  O   -1.218287   0.004296
     6  H    0.331513  -0.003577
     7  H    0.138903  -0.100667
     8  H    0.115195  -0.087621
 Sum of Mulliken charges =  -0.00000   1.00000

 Dipole moment (field-independent basis, Debye):
    X=              2.1339    Y=              2.2839    Z=             -2.8668  Tot=              4.2412
                          Isotropic Fermi Contact Couplings
        Atom                 a.u.       MegaHertz       Gauss      10(-4) cm-1
     1  C(13)              0.21081     236.99094      84.56426      79.05167
     2  S(33)             -0.10982     -37.71877     -13.45900     -12.58163
     3  O(17)              0.00265      -1.60750      -0.57359      -0.53620
     4  O(17)              0.02325     -14.09432      -5.02920      -4.70136
     5  O(17)              0.00461      -2.79568      -0.99757      -0.93254
     6  H(1)              -0.00045      -1.99865      -0.71317      -0.66668
     7  H(1)              -0.02476    -110.67602     -39.49196     -36.91755
     8  H(1)              -0.02329    -104.08326     -37.13949     -34.71844

 Normal termination of Gaussian 16 at Tue Apr  8 23:53:26 2025.
