 Gaussian 16, Revision C.01,

 ----------------------------------------------------------------------
 #t hf aug-cc-pvdz symm=none int=(grid=ultrafine) guess=(read,tcheck) s
 table=(opt,rrhf)
 ----------------------------------------------------------------------
 -----
 title
 -----
 Symbolic Z-matrix:
 Charge =  0 Multiplicity = 1

 SCF Done:  E(RHF) =  -513.565124222     A.U. after   15 cycles
 Normal termination of Gaussian 16 at Tue Apr  8 23:10:00 2025.
 Gaussian 16:  ES64L-G16RevC.01  3-Jul-2019

 ----------------------------------------------------------------------
 #t hf aug-cc-pvdz iop(5/13=1,5/36=2,99/5=2) pseudo=read geom=check gue
 ss=(read,tcheck) scf=(maxcycle=1)
 ----------------------------------------------------------------------
 -----
 title
 -----
 Structure from the checkpoint file:  "BDE49_expt_476_mol1.chk"
 Charge =  0 Multiplicity = 1

                         Standard orientation:
 ---------------------------------------------------------------------
 Center     Atomic      Atomic             Coordinates (Angstroms)
 Number     Number       Type             X           Y           Z
 ---------------------------------------------------------------------
      1          6           0       -1.363495    0.099420   -0.001728
      2          6           0       -0.913077    1.424832   -0.005682
      3          6           0        0.453575    1.692145   -0.007171
      4          6           0       -0.464431   -0.962288    0.003885
      5          6           0        0.909340   -0.680069    0.002678
      6          6           0        1.378460    0.628972   -0.003420
      7          1           0       -1.645302    2.223150   -0.013098
      8          7           0        0.919240    3.007204   -0.074413
      9          1           0        0.262991    3.705714    0.242413
     10          1           0        1.839389    3.154437    0.313611
     11          8           0       -2.719826   -0.051130    0.000349
     12          6           0       -3.253026   -1.366999    0.003333
     13          1           0       -2.949605   -1.925891   -0.888856
     14          1           0       -4.335663   -1.248909    0.003217
     15          1           0       -2.949411   -1.922125    0.897886
     16          1           0        2.437228    0.849590   -0.017918
     17          8           0        1.717424   -1.781242    0.008064
     18          6           0        3.123339   -1.591786   -0.003930
     19          1           0        3.558181   -2.590279   -0.002007
     20          1           0        3.464508   -1.048249    0.884621
     21          1           0        3.450359   -1.057271   -0.903020
     22          1           0       -0.772252   -1.996985    0.008952
 ---------------------------------------------------------------------

 SCF Done:  E(RHF) =  -514.092711761     A.U. after    2 cycles

 The electronic state is 1-A.
 Alpha  occ. eigenvalues --  -20.57077 -20.56788 -15.50951 -11.30955 -11.30693
 Alpha  occ. eigenvalues --  -11.29340 -11.28961 -11.28880 -11.21824 -11.21291
 Alpha  occ. eigenvalues --  -11.21078  -1.49426  -1.49083  -1.22382  -1.12306
 Alpha  occ. eigenvalues --   -1.02084  -1.00087  -0.94604  -0.94001  -0.83273
 Alpha  occ. eigenvalues --   -0.81564  -0.73803  -0.73307  -0.67735  -0.67423
 Alpha  occ. eigenvalues --   -0.65937  -0.65560  -0.64843  -0.64612  -0.60711
 Alpha  occ. eigenvalues --   -0.57144  -0.55900  -0.54397  -0.53619  -0.51378
 Alpha  occ. eigenvalues --   -0.49794  -0.49708  -0.49383  -0.41918  -0.31348
 Alpha  occ. eigenvalues --   -0.30627
 Alpha virt. eigenvalues --    0.03047   0.03673   0.03900   0.04831   0.04981
 Alpha virt. eigenvalues --    0.05178   0.06195   0.06642   0.08095   0.09017
 Alpha virt. eigenvalues --    0.10089   0.10440   0.11719   0.11942   0.12819

 Mulliken charges:
               1
     1  C    2.357040
     2  C    0.375759
     3  C   -0.957021
     4  C   -0.726893
     5  C    2.337107
     6  C    0.096869
     7  H   -0.318208
     8  N    0.713138
     9  H    0.035448
    10  H    0.031250
    11  O   -1.944770
    12  C    0.132790
    13  H    0.196451
    14  H   -0.064289
    15  H    0.195642
    16  H   -0.425917
    17  O   -2.018895
    18  C    0.139231
    19  H   -0.056483
    20  H    0.181727
    21  H    0.187402
    22  H   -0.467380
 Sum of Mulliken charges =  -0.00000

 Dipole moment (field-independent basis, Debye):
    X=              1.3156    Y=              0.0059    Z=              1.0051  Tot=              1.6556

 Test job not archived.
 1\1\GINC-SE364\SP\RHF\Aug-CC-pVDZ\C8H11N1O2\OHZDE\08-Apr-2025\0\\#t hf
  aug-cc-pvdz iop(5/13=1,5/36=2,99/5=2) pseudo=read geom=check guess=(r
 ead,tcheck) scf=(maxcycle=1)\\title\\0,1\C,0,-1.363495,0.09942,-0.0017
 28\C,0,-0.913077,1.424832,-0.005682\C,0,0.453575,1.692145,-0.007171\C,
 0,-0.464431,-0.962288,0.003885\C,0,0.90934,-0.680069,0.002678\C,0,1.37
 846,0.628972,-0.00342\H,0,-1.645302,2.22315,-0.013098\N,0,0.91924,3.00
 7204,-0.074413\H,0,0.262991,3.705714,0.242413\H,0,1.839389,3.154437,0.
 313611\O,0,-2.719826,-0.05113,0.000349\C,0,-3.253026,-1.366999,0.00333

 Normal termination of Gaussian 16 at Tue Apr  8 23:10:14 2025.
