 Gaussian 16, Revision C.01,

 ----------------------------------------------------------------------
 #t hf aug-cc-pvdz symm=none int=(grid=ultrafine) guess=(read,tcheck) s
 table=(opt,rrhf)
 ----------------------------------------------------------------------
 -----
 title
 -----
 Symbolic Z-matrix:
 Charge =  0 Multiplicity = 1

 SCF Done:  E(RHF) =  -408.377772498     A.U. after   11 cycles
 Normal termination of Gaussian 16 at Tue Apr  8 23:49:27 2025.
 Gaussian 16:  ES64L-G16RevC.01  3-Jul-2019

 ----------------------------------------------------------------------
 #t hf aug-cc-pvdz iop(5/13=1,5/36=2,99/5=2) pseudo=read geom=check gue
 ss=(read,tcheck) scf=(maxcycle=1)
 ----------------------------------------------------------------------
 -----
 title
 -----
 Structure from the checkpoint file:  "BDE49_nonexpt_1829_mol1.chk"
 Charge =  0 Multiplicity = 1

                         Standard orientation:
 ---------------------------------------------------------------------
 Center     Atomic      Atomic             Coordinates (Angstroms)
 Number     Number       Type             X           Y           Z
 ---------------------------------------------------------------------
      1          6           0       -1.098813   -0.475693   -0.446333
      2         14           0        0.677614   -0.622728    0.178386
      3          6           0       -1.929236    0.641025    0.211070
      4          1           0       -1.994741    0.505244    1.294711
      5          1           0       -2.951434    0.662588   -0.178151
      6          1           0       -1.493071    1.627953    0.031181
      7          6           0        1.682896    0.934327   -0.150794
      8          1           0        1.330570   -1.779817   -0.488324
      9          1           0        0.661083   -0.894371    1.640598
     10          1           0        1.725415    1.156683   -1.221102
     11          1           0        2.709578    0.815274    0.206439
     12          1           0        1.253277    1.802281    0.357084
     13          1           0       -1.587563   -1.444671   -0.290250
     14          1           0       -1.068800   -0.330925   -1.533248
 ---------------------------------------------------------------------

 SCF Done:  E(RHF) =  -408.550195809     A.U. after    2 cycles

 The electronic state is 1-A.
 Alpha  occ. eigenvalues --  -69.51331 -11.23019 -11.21770 -11.21441  -6.18407
 Alpha  occ. eigenvalues --   -3.93767  -3.93759  -3.93744  -1.02416  -0.94769
 Alpha  occ. eigenvalues --   -0.84786  -0.68943  -0.61113  -0.58698  -0.56416
 Alpha  occ. eigenvalues --   -0.55186  -0.52406  -0.50184  -0.45896  -0.45203
 Alpha  occ. eigenvalues --   -0.42758
 Alpha virt. eigenvalues --    0.03662   0.03957   0.04168   0.04243   0.06269
 Alpha virt. eigenvalues --    0.06642   0.06908   0.07276   0.08330   0.09549
 Alpha virt. eigenvalues --    0.09997   0.10955   0.12308   0.14184   0.14834

 Mulliken charges:
               1
     1  C   -0.577632
     2  Si   1.413382
     3  C   -0.421845
     4  H    0.150950
     5  H    0.097699
     6  H    0.147149
     7  C   -0.627540
     8  H   -0.253120
     9  H   -0.175079
    10  H    0.105037
    11  H   -0.051536
    12  H    0.057996
    13  H    0.015098
    14  H    0.119442
 Sum of Mulliken charges =  -0.00000

 Dipole moment (field-independent basis, Debye):
    X=             -0.3239    Y=              0.5404    Z=             -0.3636  Tot=              0.7274

 Test job not archived.
 1\1\GINC-SE247\SP\RHF\Aug-CC-pVDZ\C3H10Si1\OHZDE\08-Apr-2025\0\\#t hf
 aug-cc-pvdz iop(5/13=1,5/36=2,99/5=2) pseudo=read geom=check guess=(re
 ad,tcheck) scf=(maxcycle=1)\\title\\0,1\C,0,-1.098813,-0.475693,-0.446
 333\Si,0,0.677614,-0.622728,0.178386\C,0,-1.929236,0.641025,0.21107\H,
 0,-1.994741,0.505244,1.294711\H,0,-2.951434,0.662587,-0.178151\H,0,-1.
 493072,1.627953,0.031181\C,0,1.682896,0.934327,-0.150794\H,0,1.33057,-
 1.779817,-0.488324\H,0,0.661083,-0.894371,1.640598\H,0,1.725415,1.1566
 83,-1.221102\H,0,2.709578,0.815274,0.206439\H,0,1.253276,1.802281,0.35

 Normal termination of Gaussian 16 at Tue Apr  8 23:49:30 2025.
