 Gaussian 16, Revision C.01,

 ----------------------------------------------------------------------
 #t hf aug-cc-pvdz symm=none int=(grid=ultrafine) guess=(read,tcheck) s
 table=(opt,rrhf)
 ----------------------------------------------------------------------
 -----
 title
 -----
 Symbolic Z-matrix:
 Charge =  0 Multiplicity = 1

 SCF Done:  E(RHF) =  -413.706913871     A.U. after   13 cycles
 Normal termination of Gaussian 16 at Tue Apr  8 22:30:22 2025.
 Gaussian 16:  ES64L-G16RevC.01  3-Jul-2019

 ----------------------------------------------------------------------
 #t hf aug-cc-pvdz iop(5/13=1,5/36=2,99/5=2) pseudo=read geom=check gue
 ss=(read,tcheck) scf=(maxcycle=1)
 ----------------------------------------------------------------------
 -----
 title
 -----
 Structure from the checkpoint file:  "BDE49_expt_1022_mol1.chk"
 Charge =  0 Multiplicity = 1

                         Standard orientation:
 ---------------------------------------------------------------------
 Center     Atomic      Atomic             Coordinates (Angstroms)
 Number     Number       Type             X           Y           Z
 ---------------------------------------------------------------------
      1          6           0       -0.371488   -0.018643   -0.000000
      2          9           0       -0.327276    1.328396   -0.000001
      3          9           0       -1.085540   -0.398528    1.085363
      4          9           0       -1.085541   -0.398530   -1.085361
      5          6           0        0.983576   -0.649373   -0.000000
      6          6           0        2.111242    0.046603   -0.000000
      7          1           0        0.964323   -1.733358    0.000001
      8          1           0        2.107148    1.129761   -0.000001
      9          1           0        3.073760   -0.449966   -0.000000
 ---------------------------------------------------------------------

 SCF Done:  E(RHF) =  -414.096198509     A.U. after    2 cycles

 The electronic state is 1-A.
 Alpha  occ. eigenvalues --  -26.50504 -26.50051 -26.50048 -11.52105 -11.28007
 Alpha  occ. eigenvalues --  -11.27865  -1.70822  -1.60992  -1.60486  -1.10891
 Alpha  occ. eigenvalues --   -0.96385  -0.86080  -0.80752  -0.80284  -0.75848
 Alpha  occ. eigenvalues --   -0.69020  -0.68166  -0.65734  -0.63082  -0.62719
 Alpha  occ. eigenvalues --   -0.61537  -0.61061  -0.54600  -0.42645
 Alpha virt. eigenvalues --    0.03240   0.04420   0.05384   0.08281   0.09045
 Alpha virt. eigenvalues --    0.10442   0.10862   0.13163   0.13604   0.15222
 Alpha virt. eigenvalues --    0.15563   0.15867   0.17059   0.18258   0.21295

 Mulliken charges:
               1
     1  C    2.433589
     2  F   -0.808218
     3  F   -0.728402
     4  F   -0.728402
     5  C    0.087639
     6  C   -0.044450
     7  H   -0.140155
     8  H   -0.024181
     9  H   -0.047419
 Sum of Mulliken charges =  -0.00000

 Dipole moment (field-independent basis, Debye):
    X=              2.5515    Y=             -0.6374    Z=             -0.0000  Tot=              2.6299

 Test job not archived.
 1\1\GINC-SE048\SP\RHF\Aug-CC-pVDZ\C3H3F3\OHZDE\08-Apr-2025\0\\#t hf au
 g-cc-pvdz iop(5/13=1,5/36=2,99/5=2) pseudo=read geom=check guess=(read
 ,tcheck) scf=(maxcycle=1)\\title\\0,1\C,0,-0.371488,-0.018643,0.\F,0,-
 0.327276,1.328396,-0.000001\F,0,-1.08554,-0.398528,1.085363\F,0,-1.085
 541,-0.39853,-1.085361\C,0,0.983576,-0.649373,0.\C,0,2.111242,0.046603
 ,0.\H,0,0.964323,-1.733358,0.000001\H,0,2.107148,1.129761,-0.000001\H,
 0,3.07376,-0.449966,0.\\Version=ES64L-G16RevC.01\State=1-A\HF=-414.096
 1985\RMSD=1.049e-02\Dipole=1.0038179,-0.2507611,-0.000001\Quadrupole=2

 Normal termination of Gaussian 16 at Tue Apr  8 22:30:25 2025.
