 Gaussian 16, Revision C.01,

 ----------------------------------------------------------------------
 #t hf aug-cc-pvdz symm=none int=(grid=ultrafine) guess=(read,tcheck) s
 table=(opt,rrhf)
 ----------------------------------------------------------------------
 -----
 title
 -----
 Symbolic Z-matrix:
 Charge =  0 Multiplicity = 1

 SCF Done:  E(RHF) =  -926.842633067     A.U. after   15 cycles
 Normal termination of Gaussian 16 at Tue Apr  8 23:28:06 2025.
 Gaussian 16:  ES64L-G16RevC.01  3-Jul-2019

 ----------------------------------------------------------------------
 #t hf aug-cc-pvdz iop(5/13=1,5/36=2,99/5=2) pseudo=read geom=check gue
 ss=(read,tcheck) scf=(maxcycle=1)
 ----------------------------------------------------------------------
 -----
 title
 -----
 Structure from the checkpoint file:  "BDE49_nonexpt_1282_mol1.chk"
 Charge =  0 Multiplicity = 1

                         Standard orientation:
 ---------------------------------------------------------------------
 Center     Atomic      Atomic             Coordinates (Angstroms)
 Number     Number       Type             X           Y           Z
 ---------------------------------------------------------------------
      1          6           0       -0.115692    0.137259   -0.506948
      2          7           0       -0.250243    1.572703   -0.026163
      3         15           0        1.587906   -0.443091   -0.082242
      4          8           0        0.042922    1.797169    1.149378
      5          8           0       -0.667928    2.398335   -0.808726
      6          8           0        2.640747    0.335385   -0.738336
      7          8           0        1.526273   -1.989617   -0.486414
      8          1           0       -0.188328    0.200962   -1.592449
      9          6           0       -1.249944   -0.711806    0.087815
     10          6           0       -2.654322   -0.276386   -0.349675
     11          1           0       -1.167297   -0.698481    1.177636
     12          1           0       -1.063493   -1.742141   -0.227876
     13          6           0       -3.740869   -1.196217    0.214345
     14          1           0       -2.707559   -0.267949   -1.444097
     15          1           0       -2.844913    0.751925   -0.026407
     16          1           0       -3.603308   -2.227602   -0.123656
     17          1           0       -4.733524   -0.870407   -0.104835
     18          1           0       -3.727665   -1.199986    1.308193
     19          1           0        2.244764   -2.221251   -1.087588
     20          8           0        1.582853   -0.552888    1.505176
     21          1           0        1.290457    0.288191    1.895995
 ---------------------------------------------------------------------

 SCF Done:  E(RHF) =  -927.473124348     A.U. after    2 cycles

 The electronic state is 1-A.
 Alpha  occ. eigenvalues --  -84.45246 -20.62151 -20.61542 -20.60990 -20.60245
 Alpha  occ. eigenvalues --  -20.52035 -15.81025 -11.33877 -11.27839 -11.25815
 Alpha  occ. eigenvalues --  -11.24469  -6.90483  -4.44676  -4.44040  -4.43375
 Alpha  occ. eigenvalues --   -1.69405  -1.55461  -1.53139  -1.49173  -1.40626
 Alpha  occ. eigenvalues --   -1.17007  -1.07622  -0.97733  -0.91285  -0.86654
 Alpha  occ. eigenvalues --   -0.84110  -0.79086  -0.77678  -0.76111  -0.73233
 Alpha  occ. eigenvalues --   -0.70796  -0.67003  -0.66019  -0.63328  -0.62160
 Alpha  occ. eigenvalues --   -0.59410  -0.57815  -0.57470  -0.55959  -0.55033
 Alpha  occ. eigenvalues --   -0.52177  -0.51847  -0.51090  -0.50758  -0.49639
 Alpha  occ. eigenvalues --   -0.47501  -0.47032  -0.45729
 Alpha virt. eigenvalues --    0.02707   0.03197   0.03658   0.04110   0.04499
 Alpha virt. eigenvalues --    0.05003   0.06136   0.07066   0.07703   0.08762
 Alpha virt. eigenvalues --    0.09329   0.09631   0.10630   0.11433   0.13033

 Mulliken charges:
               1
     1  C   -0.959099
     2  N    2.714832
     3  P    4.810256
     4  O   -1.478743
     5  O   -1.365261
     6  O   -1.539037
     7  O   -1.431113
     8  H   -0.015606
     9  C   -0.432098
    10  C   -0.159614
    11  H    0.103675
    12  H    0.118786
    13  C   -0.417082
    14  H    0.120014
    15  H    0.138083
    16  H    0.153862
    17  H    0.125269
    18  H    0.176347
    19  H    0.398843
    20  O   -1.522659
    21  H    0.460343
 Sum of Mulliken charges =  -0.00000

 Dipole moment (field-independent basis, Debye):
    X=             -2.9353    Y=             -3.9320    Z=             -0.5291  Tot=              4.9352

 Test job not archived.
 1\1\GINC-SE453\SP\RHF\Aug-CC-pVDZ\C4H10N1O5P1\OHZDE\08-Apr-2025\0\\#t
 hf aug-cc-pvdz iop(5/13=1,5/36=2,99/5=2) pseudo=read geom=check guess=
 (read,tcheck) scf=(maxcycle=1)\\title\\0,1\C,0,-0.115692,0.137259,-0.5
 06948\N,0,-0.250243,1.572703,-0.026163\P,0,1.587906,-0.443091,-0.08224
 2\O,0,0.042922,1.797169,1.149378\O,0,-0.667928,2.398335,-0.808726\O,0,
 2.640747,0.335384,-0.738336\O,0,1.526273,-1.989617,-0.486414\H,0,-0.18
 8328,0.200962,-1.592449\C,0,-1.249944,-0.711806,0.087815\C,0,-2.654322
 ,-0.276385,-0.349675\H,0,-1.167297,-0.698481,1.177636\H,0,-1.063493,-1

 Normal termination of Gaussian 16 at Tue Apr  8 23:28:20 2025.
