 Gaussian 16, Revision C.01,

 ----------------------------------------------------------------------
 #t hf aug-cc-pvdz symm=none int=(grid=ultrafine) guess=(read,tcheck) s
 table=(opt,rrhf)
 ----------------------------------------------------------------------
 -----
 title
 -----
 Symbolic Z-matrix:
 Charge =  0 Multiplicity = 1

 SCF Done:  E(RHF) =  -2127.16225511     A.U. after   10 cycles
 Normal termination of Gaussian 16 at Tue Apr  8 22:58:38 2025.
 Gaussian 16:  ES64L-G16RevC.01  3-Jul-2019

 ----------------------------------------------------------------------
 #t hf aug-cc-pvdz iop(5/13=1,5/36=2,99/5=2) pseudo=read geom=check gue
 ss=(read,tcheck) scf=(maxcycle=1)
 ----------------------------------------------------------------------
 -----
 title
 -----
 Structure from the checkpoint file:  "BDE49_expt_1945_mol1.chk"
 Charge =  0 Multiplicity = 1

                         Standard orientation:
 ---------------------------------------------------------------------
 Center     Atomic      Atomic             Coordinates (Angstroms)
 Number     Number       Type             X           Y           Z
 ---------------------------------------------------------------------
      1         14           0        0.000006    0.000001   -0.000011
      2         17           0       -0.613466    1.941743   -0.155905
      3         17           0       -1.117979   -1.169319   -1.246516
      4         17           0        1.969404   -0.135858   -0.523472
      5         17           0       -0.237963   -0.636566    1.925903
 ---------------------------------------------------------------------

 SCF Done:  E(RHF) =  -2127.50086697     A.U. after    2 cycles

 The electronic state is 1-A.
 Alpha  occ. eigenvalues -- -105.59686-105.59686-105.59686-105.59686 -69.72231
 Alpha  occ. eigenvalues --  -10.64754 -10.64738 -10.64738 -10.64738  -7.81641
 Alpha  occ. eigenvalues --   -7.81633  -7.81633  -7.81633  -7.81286  -7.81286
 Alpha  occ. eigenvalues --   -7.81281  -7.81281  -7.81281  -7.81280  -7.81280
 Alpha  occ. eigenvalues --   -7.81280  -6.37598  -4.12953  -4.12953  -4.12953
 Alpha  occ. eigenvalues --   -1.14677  -1.07909  -1.07909  -1.07909  -0.73961
 Alpha  occ. eigenvalues --   -0.61443  -0.61443  -0.61443  -0.53520  -0.53520
 Alpha  occ. eigenvalues --   -0.51510  -0.51510  -0.51510  -0.48608  -0.48608
 Alpha  occ. eigenvalues --   -0.48607
 Alpha virt. eigenvalues --    0.04841   0.06044   0.06044   0.06044   0.09123
 Alpha virt. eigenvalues --    0.11874   0.11874   0.11874   0.13287   0.13287
 Alpha virt. eigenvalues --    0.15911   0.15911   0.15911   0.18222   0.18222

 Mulliken charges:
               1
     1  Si   1.783139
     2  Cl  -0.445788
     3  Cl  -0.445782
     4  Cl  -0.445785
     5  Cl  -0.445785
 Sum of Mulliken charges =  -0.00000

 Dipole moment (field-independent basis, Debye):
    X=              0.0000    Y=             -0.0000    Z=             -0.0001  Tot=              0.0001

 Test job not archived.
 1\1\GINC-SE162\SP\RHF\Aug-CC-pVDZ\Cl4Si1\OHZDE\08-Apr-2025\0\\#t hf au
 g-cc-pvdz iop(5/13=1,5/36=2,99/5=2) pseudo=read geom=check guess=(read
 ,tcheck) scf=(maxcycle=1)\\title\\0,1\Si,0,0.000006,0.000001,-0.000011
 \Cl,0,-0.639293,1.935848,-0.121695\Cl,0,-1.105025,-1.162601,-1.264225\
 Cl,0,1.969951,-0.100931,-0.529279\Cl,0,-0.225639,-0.672316,1.915208\\V
 ersion=ES64L-G16RevC.01\State=1-A\HF=-2127.500867\RMSD=2.861e-03\Dipol
 e=0.0000133,-0.0000094,-0.00003\Quadrupole=0.0000658,-0.0000233,-0.000
 0425,0.000023,0.0000105,0.0000414\PG=C01 [X(Cl4Si1)]\\@

 Normal termination of Gaussian 16 at Tue Apr  8 22:58:40 2025.
