 Gaussian 16, Revision C.01,

 ----------------------------------------------------------------------
 #t hf aug-cc-pvdz symm=none int=(grid=ultrafine) guess=(read,tcheck) s
 table=(opt,rrhf)
 ----------------------------------------------------------------------
 -----
 title
 -----
 Symbolic Z-matrix:
 Charge =  0 Multiplicity = 1

 SCF Done:  E(RHF) =  -456.403327444     A.U. after   12 cycles
 Normal termination of Gaussian 16 at Tue Apr  8 23:39:06 2025.
 Gaussian 16:  ES64L-G16RevC.01  3-Jul-2019

 ----------------------------------------------------------------------
 #t hf aug-cc-pvdz iop(5/13=1,5/36=2,99/5=2) pseudo=read geom=check gue
 ss=(read,tcheck) scf=(maxcycle=1)
 ----------------------------------------------------------------------
 -----
 title
 -----
 Structure from the checkpoint file:  "BDE49_nonexpt_1600_mol1.chk"
 Charge =  0 Multiplicity = 1

                         Standard orientation:
 ---------------------------------------------------------------------
 Center     Atomic      Atomic             Coordinates (Angstroms)
 Number     Number       Type             X           Y           Z
 ---------------------------------------------------------------------
      1         15           0       -0.113527   -0.588361   -0.113026
      2          6           0        1.423074    0.425964    0.000443
      3          1           0        1.351815    1.162293    0.803576
      4          1           0        1.600645    0.940824   -0.945756
      5          1           0        2.270170   -0.238822    0.195872
      6          8           0       -1.254963    0.619504    0.116950
      7          1           0       -0.053825   -1.065643    1.226062
      8          1           0       -1.964633    0.514947   -0.522617
 ---------------------------------------------------------------------

 SCF Done:  E(RHF) =  -456.569147198     A.U. after    2 cycles

 The electronic state is 1-A.
 Alpha  occ. eigenvalues --  -84.30906 -20.56073 -11.23674  -6.77391  -4.30265
 Alpha  occ. eigenvalues --   -4.29473  -4.28980  -1.44565  -0.98661  -0.80264
 Alpha  occ. eigenvalues --   -0.65479  -0.59917  -0.57044  -0.54584  -0.53963
 Alpha  occ. eigenvalues --   -0.44239  -0.33443
 Alpha virt. eigenvalues --    0.03914   0.04410   0.05111   0.06014   0.07353
 Alpha virt. eigenvalues --    0.09573   0.10189   0.11246   0.14451   0.15431
 Alpha virt. eigenvalues --    0.16804   0.16942   0.19713   0.21545   0.22834

 Mulliken charges:
               1
     1  P    1.051354
     2  C   -0.853516
     3  H    0.097904
     4  H    0.116902
     5  H    0.125225
     6  O   -1.224623
     7  H    0.273233
     8  H    0.413521
 Sum of Mulliken charges =  -0.00000

 Dipole moment (field-independent basis, Debye):
    X=              0.2055    Y=             -0.1376    Z=             -0.5688  Tot=              0.6203

 Test job not archived.
 1\1\GINC-SE454\SP\RHF\Aug-CC-pVDZ\C1H5O1P1\OHZDE\08-Apr-2025\0\\#t hf
 aug-cc-pvdz iop(5/13=1,5/36=2,99/5=2) pseudo=read geom=check guess=(re
 ad,tcheck) scf=(maxcycle=1)\\title\\0,1\P,0,-0.113527,-0.588361,-0.113
 026\C,0,1.423074,0.425964,0.000443\H,0,1.351816,1.162293,0.803576\H,0,
 1.600646,0.940823,-0.945756\H,0,2.27017,-0.238823,0.195872\O,0,-1.2549
 63,0.619504,0.11695\H,0,-0.053825,-1.065643,1.226062\H,0,-1.964633,0.5
 14948,-0.522617\\Version=ES64L-G16RevC.01\State=1-A\HF=-456.5691472\RM
 SD=1.996e-02\Dipole=0.0808688,-0.054143,-0.2237997\Quadrupole=2.327932

 Normal termination of Gaussian 16 at Tue Apr  8 23:39:08 2025.
