 Gaussian 16, Revision C.01,

 ----------------------------------------------------------------------
 #t hf aug-cc-pvdz symm=none int=(grid=ultrafine) guess=(read,tcheck) s
 table=(opt,rrhf)
 ----------------------------------------------------------------------
 -----
 title
 -----
 Symbolic Z-matrix:
 Charge =  0 Multiplicity = 1

 SCF Done:  E(RHF) =  -385.032782774     A.U. after   13 cycles

 1\1\GINC-SE086\Stability\RHF\Aug-CC-pVDZ\C6H14O2\OHZDE\08-Apr-2025\0\\
 #t hf aug-cc-pvdz symm=none int=(grid=ultrafine) guess=(read,tcheck) s
 table=(opt,rrhf)\\title\\0,1\C,0,1.662005,-0.104394,0.320361\O,0,0.540
 114,0.489667,-0.352594\O,0,-0.540114,-0.489666,-0.352594\C,0,-1.662006
 ,0.104394,0.320361\C,0,2.658018,1.040182,0.474331\C,0,-2.658018,-1.040
 183,0.47433\H,0,2.225539,1.857856,1.054229\H,0,2.949351,1.426162,-0.50
 5836\H,0,-2.225538,-1.857857,1.054228\H,0,-2.949351,-1.426163,-0.50583
 6\C,0,2.219277,-1.285807,-0.466786\H,0,1.449125,-2.044529,-0.608526\H,

 Normal termination of Gaussian 16 at Tue Apr  8 22:57:02 2025.
 Gaussian 16:  ES64L-G16RevC.01  3-Jul-2019

 ----------------------------------------------------------------------
 #t hf aug-cc-pvdz iop(5/13=1,5/36=2,99/5=2) pseudo=read geom=check gue
 ss=(read,tcheck) scf=(maxcycle=1)
 ----------------------------------------------------------------------
 -----
 title
 -----
 Structure from the checkpoint file:  "BDE49_expt_1855_mol1.chk"
 Charge =  0 Multiplicity = 1

                         Standard orientation:
 ---------------------------------------------------------------------
 Center     Atomic      Atomic             Coordinates (Angstroms)
 Number     Number       Type             X           Y           Z
 ---------------------------------------------------------------------
      1          6           0       -1.662005    0.104394    0.320361
      2          8           0       -0.540114   -0.489667   -0.352594
      3          8           0        0.540114    0.489666   -0.352594
      4          6           0        1.662006   -0.104394    0.320361
      5          6           0       -2.658018   -1.040182    0.474331
      6          6           0        2.658018    1.040183    0.474330
      7          1           0       -2.225539   -1.857856    1.054229
      8          1           0       -2.949351   -1.426162   -0.505836
      9          1           0        2.225538    1.857857    1.054228
     10          1           0        2.949351    1.426163   -0.505836
     11          6           0       -2.219277    1.285807   -0.466786
     12          1           0       -1.449125    2.044529   -0.608526
     13          1           0       -3.059178    1.739594    0.067467
     14          1           0       -2.567739    0.956038   -1.449394
     15          6           0        2.219278   -1.285806   -0.466786
     16          1           0        1.449127   -2.044530   -0.608526
     17          1           0        3.059180   -1.739593    0.067467
     18          1           0        2.567740   -0.956038   -1.449394
     19          1           0        1.325567   -0.440839    1.309464
     20          1           0        3.556308    0.686213    0.985919
     21          1           0       -1.325567    0.440839    1.309464
     22          1           0       -3.556308   -0.686211    0.985919
 ---------------------------------------------------------------------

 SCF Done:  E(RHF) =  -385.442280616     A.U. after    2 cycles

 The electronic state is 1-A.
 Alpha  occ. eigenvalues --  -20.59339 -20.59338 -11.28882 -11.28878 -11.22822
 Alpha  occ. eigenvalues --  -11.22821 -11.21975 -11.21975  -1.56362  -1.29813
 Alpha  occ. eigenvalues --   -1.04939  -1.02842  -0.93980  -0.93943  -0.81032
 Alpha  occ. eigenvalues --   -0.79294  -0.69069  -0.66740  -0.64590  -0.62453
 Alpha  occ. eigenvalues --   -0.58235  -0.57830  -0.57164  -0.54813  -0.54780
 Alpha  occ. eigenvalues --   -0.53024  -0.52724  -0.51024  -0.50631  -0.49791
 Alpha  occ. eigenvalues --   -0.46431  -0.44428  -0.41367
 Alpha virt. eigenvalues --    0.03536   0.03921   0.04004   0.04295   0.05551
 Alpha virt. eigenvalues --    0.05711   0.05859   0.06871   0.06917   0.08134
 Alpha virt. eigenvalues --    0.08815   0.08867   0.09154   0.09781   0.13532

 Mulliken charges:
               1
     1  C    0.357367
     2  O   -0.990432
     3  O   -0.990432
     4  C    0.357365
     5  C   -0.260073
     6  C   -0.260071
     7  H    0.151923
     8  H    0.200053
     9  H    0.151924
    10  H    0.200051
    11  C   -0.362121
    12  H    0.159573
    13  H    0.182688
    14  H    0.223382
    15  C   -0.362123
    16  H    0.159574
    17  H    0.182690
    18  H    0.223380
    19  H    0.150205
    20  H    0.187436
    21  H    0.150205
    22  H    0.187436
 Sum of Mulliken charges =  -0.00000

 Dipole moment (field-independent basis, Debye):
    X=              0.0000    Y=              0.0000    Z=              1.4871  Tot=              1.4871

 Test job not archived.
 1\1\GINC-SE086\SP\RHF\Aug-CC-pVDZ\C6H14O2\OHZDE\08-Apr-2025\0\\#t hf a
 ug-cc-pvdz iop(5/13=1,5/36=2,99/5=2) pseudo=read geom=check guess=(rea
 d,tcheck) scf=(maxcycle=1)\\title\\0,1\C,0,1.662005,-0.104394,0.320361
 \O,0,0.540114,0.489667,-0.352594\O,0,-0.540114,-0.489666,-0.352594\C,0
 ,-1.662006,0.104394,0.320361\C,0,2.658018,1.040182,0.474331\C,0,-2.658
 018,-1.040183,0.47433\H,0,2.225539,1.857856,1.054229\H,0,2.949351,1.42
 6162,-0.505836\H,0,-2.225538,-1.857857,1.054228\H,0,-2.949351,-1.42616
 3,-0.505836\C,0,2.219277,-1.285807,-0.466786\H,0,1.449125,-2.044529,-0

 Normal termination of Gaussian 16 at Tue Apr  8 22:57:13 2025.
