 Gaussian 16, Revision C.01,

 ----------------------------------------------------------------------
 #t hf aug-cc-pvdz symm=none int=(grid=ultrafine) guess=(read,tcheck) s
 table=(opt,rrhf)
 ----------------------------------------------------------------------
 -----
 title
 -----
 Symbolic Z-matrix:
 Charge =  0 Multiplicity = 1

 SCF Done:  E(RHF) =  -709.445320254     A.U. after   12 cycles
 Normal termination of Gaussian 16 at Tue Apr  8 23:41:12 2025.
 Gaussian 16:  ES64L-G16RevC.01  3-Jul-2019

 ----------------------------------------------------------------------
 #t hf aug-cc-pvdz iop(5/13=1,5/36=2,99/5=2) pseudo=read geom=check gue
 ss=(read,tcheck) scf=(maxcycle=1)
 ----------------------------------------------------------------------
 -----
 title
 -----
 Structure from the checkpoint file:  "BDE49_nonexpt_1658_mol1.chk"
 Charge =  0 Multiplicity = 1

                         Standard orientation:
 ---------------------------------------------------------------------
 Center     Atomic      Atomic             Coordinates (Angstroms)
 Number     Number       Type             X           Y           Z
 ---------------------------------------------------------------------
      1         15           0        1.869962   -0.184301   -0.051986
      2         14           0       -0.259652    0.583183   -0.131686
      3          6           0       -1.674709   -0.139051    0.831156
      4          6           0       -1.635968   -0.543255   -0.669258
      5          1           0       -1.424614   -1.588006   -0.877002
      6          1           0       -2.429892   -0.149792   -1.296774
      7          1           0       -2.491234    0.509740    1.134858
      8          1           0       -1.485136   -0.932854    1.547240
      9          1           0        1.480906   -1.464367    0.422290
     10          1           0        2.145631    0.316565    1.248478
     11          1           0       -0.345909    2.002495   -0.527087
 ---------------------------------------------------------------------

 SCF Done:  E(RHF) =  -709.611515052     A.U. after    2 cycles

 The electronic state is 1-A.
 Alpha  occ. eigenvalues --  -84.27359 -69.53340 -11.22822 -11.22691  -6.74597
 Alpha  occ. eigenvalues --   -6.20509  -4.26890  -4.26746  -4.26253  -3.95936
 Alpha  occ. eigenvalues --   -3.95808  -3.95748  -1.04619  -0.86968  -0.81408
 Alpha  occ. eigenvalues --   -0.68444  -0.62910  -0.57643  -0.51817  -0.51338
 Alpha  occ. eigenvalues --   -0.44600  -0.43289  -0.36902  -0.33951
 Alpha virt. eigenvalues --    0.03690   0.04171   0.04345   0.04891   0.06490
 Alpha virt. eigenvalues --    0.06922   0.07558   0.07631   0.08901   0.10459
 Alpha virt. eigenvalues --    0.11185   0.12216   0.13118   0.13805   0.14669

 Mulliken charges:
               1
     1  P   -1.180095
     2  Si   1.304144
     3  C   -0.111706
     4  C   -0.103307
     5  H   -0.085457
     6  H   -0.106371
     7  H   -0.126473
     8  H   -0.099716
     9  H    0.334646
    10  H    0.363839
    11  H   -0.189505
 Sum of Mulliken charges =   0.00000

 Dipole moment (field-independent basis, Debye):
    X=              0.1206    Y=             -0.0923    Z=              0.3777  Tot=              0.4070

 Test job not archived.
 1\1\GINC-SE362\SP\RHF\Aug-CC-pVDZ\C2H7P1Si1\OHZDE\08-Apr-2025\0\\#t hf
  aug-cc-pvdz iop(5/13=1,5/36=2,99/5=2) pseudo=read geom=check guess=(r
 ead,tcheck) scf=(maxcycle=1)\\title\\0,1\P,0,1.869962,-0.184301,-0.051
 986\Si,0,-0.259652,0.583183,-0.131686\C,0,-1.674709,-0.139051,0.831156
 \C,0,-1.635968,-0.543255,-0.669258\H,0,-1.424614,-1.588006,-0.877002\H
 ,0,-2.429892,-0.149792,-1.296774\H,0,-2.491234,0.50974,1.134858\H,0,-1
 .485136,-0.932854,1.54724\H,0,1.480906,-1.464367,0.42229\H,0,2.145631,
 0.316565,1.248478\H,0,-0.345909,2.002495,-0.527087\\Version=ES64L-G16R

 Normal termination of Gaussian 16 at Tue Apr  8 23:41:16 2025.
