 Gaussian 16, Revision C.01,

 ----------------------------------------------------------------------
 #t hf aug-cc-pvdz symm=none int=(grid=ultrafine) guess=(read,tcheck) s
 table=(opt,rrhf)
 ----------------------------------------------------------------------
 -----
 title
 -----
 Symbolic Z-matrix:
 Charge =  0 Multiplicity = 1

 SCF Done:  E(RHF) =  -633.544193315     A.U. after   14 cycles
 Normal termination of Gaussian 16 at Wed Apr  9 00:43:22 2025.
 Gaussian 16:  ES64L-G16RevC.01  3-Jul-2019

 ----------------------------------------------------------------------
 #t hf aug-cc-pvdz iop(5/13=1,5/36=2,99/5=2) pseudo=read geom=check gue
 ss=(read,tcheck) scf=(maxcycle=1)
 ----------------------------------------------------------------------
 -----
 title
 -----
 Structure from the checkpoint file:  "BDE49_nonexpt_728_mol1.chk"
 Charge =  0 Multiplicity = 1

                         Standard orientation:
 ---------------------------------------------------------------------
 Center     Atomic      Atomic             Coordinates (Angstroms)
 Number     Number       Type             X           Y           Z
 ---------------------------------------------------------------------
      1          6           0       -1.074865   -0.423562    0.453464
      2          5           0        1.678732    0.373133   -0.016394
      3          8           0        1.200960    1.642327   -0.105442
      4          8           0        3.028122    0.233066    0.114382
      5          6           0       -2.105721   -0.116228   -0.341366
      6          6           0       -3.384333    0.529475    0.104964
      7          1           0       -2.037921   -0.356849   -1.402026
      8          1           0       -3.384775    0.727772    1.178926
      9          1           0       -4.241322   -0.112036   -0.128003
     10          1           0       -3.552602    1.476176   -0.420139
     11          1           0        0.239735    1.663405   -0.159780
     12          1           0        3.322914   -0.678875    0.161993
     13         15           0        0.470681   -1.165242   -0.200879
     14          1           0       -1.143163   -0.208942    1.518581
     15          1           0        0.900099   -1.838925    0.971704
 ---------------------------------------------------------------------

 SCF Done:  E(RHF) =  -633.889415201     A.U. after    2 cycles

 The electronic state is 1-A.
 Alpha  occ. eigenvalues --  -84.26138 -20.55978 -20.55586 -11.26593 -11.25262
 Alpha  occ. eigenvalues --  -11.24824  -7.65307  -6.73448  -4.26196  -4.25860
 Alpha  occ. eigenvalues --   -4.25324  -1.48074  -1.44328  -1.09127  -0.96800
 Alpha  occ. eigenvalues --   -0.85634  -0.79382  -0.75991  -0.67120  -0.63512
 Alpha  occ. eigenvalues --   -0.62084  -0.60878  -0.58813  -0.58514  -0.57001
 Alpha  occ. eigenvalues --   -0.53493  -0.49178  -0.48625  -0.44274  -0.38877
 Alpha  occ. eigenvalues --   -0.32748
 Alpha virt. eigenvalues --    0.03279   0.03591   0.04123   0.04652   0.05318
 Alpha virt. eigenvalues --    0.06363   0.06462   0.07553   0.08301   0.08940
 Alpha virt. eigenvalues --    0.09517   0.10197   0.10842   0.11444   0.12086

 Mulliken charges:
               1
     1  C   -0.017293
     2  B    1.956021
     3  O   -1.351480
     4  O   -1.274869
     5  C    0.174397
     6  C   -0.773277
     7  H   -0.110962
     8  H    0.112119
     9  H    0.228247
    10  H    0.233501
    11  H    0.709219
    12  H    0.541953
    13  P   -0.517861
    14  H   -0.242597
    15  H    0.332884
 Sum of Mulliken charges =  -0.00000

 Dipole moment (field-independent basis, Debye):
    X=             -2.5170    Y=             -1.3076    Z=              0.4481  Tot=              2.8715

 Test job not archived.
 1\1\GINC-SE462\SP\RHF\Aug-CC-pVDZ\C3H8B1O2P1\OHZDE\09-Apr-2025\0\\#t h
 f aug-cc-pvdz iop(5/13=1,5/36=2,99/5=2) pseudo=read geom=check guess=(
 read,tcheck) scf=(maxcycle=1)\\title\\0,1\C,0,-1.074865,-0.423562,0.45
 3464\B,0,1.678732,0.373133,-0.016394\O,0,1.20096,1.642327,-0.105442\O,
 0,3.028122,0.233066,0.114382\C,0,-2.105721,-0.116228,-0.341366\C,0,-3.
 384333,0.529475,0.104964\H,0,-2.037921,-0.356849,-1.402026\H,0,-3.3847
 75,0.727772,1.178926\H,0,-4.241322,-0.112036,-0.128003\H,0,-3.552602,1
 .476176,-0.420139\H,0,0.239735,1.663405,-0.15978\H,0,3.322914,-0.67887

 Normal termination of Gaussian 16 at Wed Apr  9 00:43:27 2025.
