 Gaussian 16, Revision C.01,

 ----------------------------------------------------------------------
 #t hf aug-cc-pvdz symm=none int=(grid=ultrafine) guess=(read,tcheck) s
 table=(opt,rrhf)
 ----------------------------------------------------------------------
 -----
 title
 -----
 Symbolic Z-matrix:
 Charge =  0 Multiplicity = 1

 SCF Done:  E(RHF) =  -1124.43584627     A.U. after   15 cycles
 Normal termination of Gaussian 16 at Wed Apr  9 00:19:37 2025.
 Gaussian 16:  ES64L-G16RevC.01  3-Jul-2019

 ----------------------------------------------------------------------
 #t hf aug-cc-pvdz iop(5/13=1,5/36=2,99/5=2) pseudo=read geom=check gue
 ss=(read,tcheck) scf=(maxcycle=1)
 ----------------------------------------------------------------------
 -----
 title
 -----
 Structure from the checkpoint file:  "BDE49_nonexpt_2586_mol1.chk"
 Charge =  0 Multiplicity = 1

                         Standard orientation:
 ---------------------------------------------------------------------
 Center     Atomic      Atomic             Coordinates (Angstroms)
 Number     Number       Type             X           Y           Z
 ---------------------------------------------------------------------
      1         17           0        2.435608   -0.093387   -0.380417
      2         16           0        0.791006   -0.850124    0.642631
      3          6           0       -0.596608   -0.143249   -0.387683
      4          8           0       -0.562095    1.212331   -0.615897
      5          8           0       -1.680717   -0.578383    0.380729
      6          6           0       -0.578406    2.063928    0.538962
      7          1           0       -0.733532    3.071291    0.157234
      8          1           0        0.375280    2.013094    1.069351
      9          1           0       -1.390216    1.790736    1.215650
     10          6           0       -2.869286   -0.829653   -0.375479
     11          1           0       -3.639573   -1.102443    0.343871
     12          1           0       -2.717973   -1.657443   -1.077069
     13          1           0       -3.178092    0.065910   -0.922590
     14          1           0       -0.569017   -0.609319   -1.374908
 ---------------------------------------------------------------------

 SCF Done:  E(RHF) =  -1124.84692473     A.U. after    2 cycles

 The electronic state is 1-A.
 Alpha  occ. eigenvalues -- -105.57804 -94.00443 -20.58144 -20.57427 -11.39579
 Alpha  occ. eigenvalues --  -11.30645 -11.29044 -10.62492  -8.28164  -7.79434
 Alpha  occ. eigenvalues --   -7.78997  -7.78966  -6.25965  -6.25693  -6.25428
 Alpha  occ. eigenvalues --   -1.53370  -1.46525  -1.11661  -1.01594  -0.96446
 Alpha  occ. eigenvalues --   -0.92450  -0.83059  -0.72924  -0.71115  -0.68491
 Alpha  occ. eigenvalues --   -0.63333  -0.62692  -0.59773  -0.55676  -0.54672
 Alpha  occ. eigenvalues --   -0.52855  -0.50941  -0.49437  -0.47479  -0.45942
 Alpha  occ. eigenvalues --   -0.42311  -0.37262
 Alpha virt. eigenvalues --    0.03242   0.04080   0.04289   0.05289   0.06132
 Alpha virt. eigenvalues --    0.06701   0.07152   0.07850   0.09134   0.11348
 Alpha virt. eigenvalues --    0.12618   0.12993   0.13602   0.14724   0.15097

 Mulliken charges:
               1
     1  Cl  -0.313847
     2  S    0.349319
     3  C    1.391238
     4  O   -1.329126
     5  O   -1.218406
     6  C    0.094923
     7  H   -0.005359
     8  H    0.217270
     9  H    0.184230
    10  C    0.155943
    11  H    0.009452
    12  H    0.138671
    13  H    0.206781
    14  H    0.118913
 Sum of Mulliken charges =  -0.00000

 Dipole moment (field-independent basis, Debye):
    X=             -3.1767    Y=              0.3496    Z=             -0.3326  Tot=              3.2131

 Test job not archived.
 1\1\GINC-SE015\SP\RHF\Aug-CC-pVDZ\C3H7Cl1O2S1\OHZDE\09-Apr-2025\0\\#t
 hf aug-cc-pvdz iop(5/13=1,5/36=2,99/5=2) pseudo=read geom=check guess=
 (read,tcheck) scf=(maxcycle=1)\\title\\0,1\Cl,0,2.435608,-0.093387,-0.
 380417\S,0,0.791006,-0.850124,0.642631\C,0,-0.596608,-0.143249,-0.3876
 83\O,0,-0.562095,1.212331,-0.615897\O,0,-1.680717,-0.578383,0.380729\C
 ,0,-0.578406,2.063928,0.538962\H,0,-0.733532,3.071291,0.157234\H,0,0.3
 7528,2.013094,1.069351\H,0,-1.390216,1.790736,1.21565\C,0,-2.869286,-0
 .829653,-0.375479\H,0,-3.639573,-1.102443,0.343871\H,0,-2.717973,-1.65

 Normal termination of Gaussian 16 at Wed Apr  9 00:19:43 2025.
