 Gaussian 16, Revision C.01,

 ----------------------------------------------------------------------
 #t hf aug-cc-pvdz symm=none int=(grid=ultrafine) guess=(read,tcheck) s
 table=opt
 ----------------------------------------------------------------------
 -----
 title
 -----
 Symbolic Z-matrix:
 Charge =  0 Multiplicity = 2

 SCF Done:  E(UHF) =  -706.000709288     A.U. after   18 cycles
 Normal termination of Gaussian 16 at Tue Apr  8 23:06:36 2025.
 Gaussian 16:  ES64L-G16RevC.01  3-Jul-2019

 ----------------------------------------------------------------------
 #t hf aug-cc-pvdz iop(5/13=1,5/36=2,99/5=2) pseudo=read geom=check gue
 ss=(read,tcheck) scf=(maxcycle=1)
 ----------------------------------------------------------------------
 -----
 title
 -----
 Structure from the checkpoint file:  "BDE49_expt_388_mol2.chk"
 Charge =  0 Multiplicity = 2

                         Standard orientation:
 ---------------------------------------------------------------------
 Center     Atomic      Atomic             Coordinates (Angstroms)
 Number     Number       Type             X           Y           Z
 ---------------------------------------------------------------------
      1          8           0        0.668535   -1.262878   -0.439977
      2          6           0        2.046809   -0.891202   -0.456345
      3          6           0        2.206847    0.287501    0.503445
      4          1           0        2.336724   -0.601443   -1.472682
      5          1           0        2.616971   -1.767686   -0.146763
      6         16           0        0.691328    1.281941    0.215162
      7          1           0        3.089287    0.886024    0.279423
      8          1           0        2.236340   -0.039017    1.543996
      9          6           0       -0.134254   -0.146089   -0.506717
     10          6           0       -1.596758   -0.418165   -0.288998
     11          6           0       -1.890315   -0.943134    1.133104
     12          6           0       -2.452800    0.809404   -0.628400
     13          1           0       -1.849189   -1.218086   -0.996753
     14          1           0       -2.245762    1.637007    0.057457
     15          1           0       -3.515586    0.569310   -0.541533
     16          1           0       -2.261872    1.156705   -1.646500
     17          1           0       -1.673936   -0.174460    1.880358
     18          1           0       -1.277167   -1.819085    1.354142
     19          1           0       -2.942517   -1.227189    1.229549
 ---------------------------------------------------------------------

 SCF Done:  E(UHF) =  -706.384895429     A.U. after    2 cycles

 The electronic state is 2-A.
 Alpha  occ. eigenvalues --  -93.94825 -20.57244 -11.30899 -11.30485 -11.27739
 Alpha  occ. eigenvalues --  -11.24144 -11.22412 -11.22065  -8.22953  -6.20741
 Alpha  occ. eigenvalues --   -6.20616  -6.20442  -1.50217  -1.10274  -1.08584
 Alpha  occ. eigenvalues --   -0.99716  -0.93199  -0.85995  -0.84346  -0.75383
 Alpha  occ. eigenvalues --   -0.69996  -0.67506  -0.63268  -0.62261  -0.59894
 Alpha  occ. eigenvalues --   -0.57704  -0.55207  -0.54189  -0.52127  -0.51386
 Alpha  occ. eigenvalues --   -0.49435  -0.48466  -0.47609  -0.45343  -0.39895
 Alpha  occ. eigenvalues --   -0.29381
 Alpha virt. eigenvalues --    0.03386   0.03953   0.04056   0.04361   0.05535
 Alpha virt. eigenvalues --    0.05710   0.05867   0.07022   0.07427   0.08756
 Alpha virt. eigenvalues --    0.09140   0.10421   0.11735   0.12611   0.13345

  Beta  occ. eigenvalues --  -93.94775 -20.56828 -11.30500 -11.28273 -11.27739
  Beta  occ. eigenvalues --  -11.24311 -11.22382 -11.21888  -8.22889  -6.20747
  Beta  occ. eigenvalues --   -6.20620  -6.20189  -1.48822  -1.08907  -1.08125
  Beta  occ. eigenvalues --   -0.98421  -0.92852  -0.84865  -0.83403  -0.73511
  Beta  occ. eigenvalues --   -0.68635  -0.67118  -0.62738  -0.59952  -0.58389
  Beta  occ. eigenvalues --   -0.56629  -0.54624  -0.53995  -0.50835  -0.49597
  Beta  occ. eigenvalues --   -0.48764  -0.47920  -0.46233  -0.44512  -0.36273
  Beta virt. eigenvalues --    0.03388   0.03950   0.04052   0.04365   0.05499
  Beta virt. eigenvalues --    0.05707   0.05849   0.07035   0.07429   0.08757
  Beta virt. eigenvalues --    0.09145   0.10473   0.11425   0.12533   0.12811

 Mulliken charges and spin densities:
               1          2
     1  O   -1.470397   0.032272
     2  C    0.506197  -0.022406
     3  C   -0.778328   0.006471
     4  H    0.176464  -0.008326
     5  H    0.004008   0.000489
     6  S    0.448648  -0.013031
     7  H    0.182504   0.001680
     8  H    0.133409  -0.003457
     9  C    0.809872   1.163077
    10  C   -0.957216  -0.200531
    11  C   -0.244817   0.046600
    12  C   -0.142238   0.020504
    13  H    0.236473  -0.001797
    14  H    0.239215  -0.003127
    15  H    0.144666  -0.000921
    16  H    0.183450  -0.007737
    17  H    0.238129  -0.007790
    18  H    0.151683  -0.004117
    19  H    0.138277   0.002146
 Sum of Mulliken charges =  -0.00000   1.00000

 Dipole moment (field-independent basis, Debye):
    X=              1.3577    Y=             -0.7487    Z=              0.2420  Tot=              1.5692
                          Isotropic Fermi Contact Couplings
        Atom                 a.u.       MegaHertz       Gauss      10(-4) cm-1
     1  O(17)              0.03939     -23.88053      -8.52117      -7.96569
     2  C(13)             -0.00194      -2.18513      -0.77971      -0.72888
     3  C(13)             -0.00089      -0.99567      -0.35528      -0.33212
     4  H(1)               0.00018       0.81791       0.29185       0.27282
     5  H(1)              -0.00065      -2.89051      -1.03140      -0.96417
     6  S(33)              0.05930      20.36724       7.26754       6.79378
     7  H(1)              -0.00069      -3.10518      -1.10801      -1.03578
     8  H(1)               0.00108       4.81422       1.71783       1.60585

 Normal termination of Gaussian 16 at Tue Apr  8 23:06:46 2025.
