 Gaussian 16, Revision C.01,

 ----------------------------------------------------------------------
 #t hf aug-cc-pvdz symm=none int=(grid=ultrafine) guess=(read,tcheck) s
 table=(opt,rrhf)
 ----------------------------------------------------------------------
 -----
 title
 -----
 Symbolic Z-matrix:
 Charge =  0 Multiplicity = 1

 SCF Done:  E(RHF) =  -613.301152962     A.U. after   12 cycles
 Normal termination of Gaussian 16 at Wed Apr  9 00:30:58 2025.
 Gaussian 16:  ES64L-G16RevC.01  3-Jul-2019

 ----------------------------------------------------------------------
 #t hf aug-cc-pvdz iop(5/13=1,5/36=2,99/5=2) pseudo=read geom=check gue
 ss=(read,tcheck) scf=(maxcycle=1)
 ----------------------------------------------------------------------
 -----
 title
 -----
 Structure from the checkpoint file:  "BDE49_nonexpt_360_mol1.chk"
 Charge =  0 Multiplicity = 1

                         Standard orientation:
 ---------------------------------------------------------------------
 Center     Atomic      Atomic             Coordinates (Angstroms)
 Number     Number       Type             X           Y           Z
 ---------------------------------------------------------------------
      1          9           0       -1.935192   -0.845782   -0.000117
      2          9           0       -1.304640    1.321927    0.000060
      3          5           0       -0.953795    0.047107    0.000062
      4         14           0        0.978899   -0.576134    0.000032
      5          9           0        1.966100    0.701127   -0.000035
      6          1           0        1.264034   -1.382526    1.206680
      7          1           0        1.263943   -1.382565   -1.206610
 ---------------------------------------------------------------------

 SCF Done:  E(RHF) =  -613.626621125     A.U. after    2 cycles

 The electronic state is 1-A.
 Alpha  occ. eigenvalues --  -69.59215 -26.49519 -26.49340 -26.45943  -7.73628
 Alpha  occ. eigenvalues --   -6.25932  -4.01366  -4.01151  -4.01143  -1.64590
 Alpha  occ. eigenvalues --   -1.60512  -1.56953  -0.83120  -0.79118  -0.75600
 Alpha  occ. eigenvalues --   -0.71882  -0.70647  -0.65278  -0.65200  -0.64576
 Alpha  occ. eigenvalues --   -0.63661  -0.62850  -0.50544  -0.47085
 Alpha virt. eigenvalues --    0.03935   0.04322   0.04515   0.04925   0.07286
 Alpha virt. eigenvalues --    0.07551   0.07801   0.08413   0.10635   0.12839
 Alpha virt. eigenvalues --    0.13472   0.16188   0.18602   0.20901   0.24029

 Mulliken charges:
               1
     1  F   -0.693055
     2  F   -0.728256
     3  B    1.192320
     4  Si   1.373042
     5  F   -0.827231
     6  H   -0.158415
     7  H   -0.158405
 Sum of Mulliken charges =   0.00000

 Dipole moment (field-independent basis, Debye):
    X=              0.0853    Y=             -1.3256    Z=              0.0003  Tot=              1.3284

 Test job not archived.
 1\1\GINC-SE150\SP\RHF\Aug-CC-pVDZ\B1F3H2Si1\OHZDE\09-Apr-2025\0\\#t hf
  aug-cc-pvdz iop(5/13=1,5/36=2,99/5=2) pseudo=read geom=check guess=(r
 ead,tcheck) scf=(maxcycle=1)\\title\\0,1\F,0,1.935192,-0.845782,0.0001
 17\F,0,1.30464,1.321927,-0.00006\B,0,0.953795,0.047107,-0.000062\Si,0,
 -0.978899,-0.576134,-0.000032\F,0,-1.9661,0.701127,0.000035\H,0,-1.264
 034,-1.382526,-1.20668\H,0,-1.263943,-1.382565,1.20661\\Version=ES64L-
 G16RevC.01\State=1-A\HF=-613.6266211\RMSD=5.406e-03\Dipole=-0.0335422,
 -0.5215452,-0.0001126\Quadrupole=-2.52882,-0.3014059,2.8302259,1.57676

 Normal termination of Gaussian 16 at Wed Apr  9 00:31:01 2025.
