 Gaussian 16, Revision C.01,

 ----------------------------------------------------------------------
 #t hf aug-cc-pvdz symm=none int=(grid=ultrafine) guess=(read,tcheck) s
 table=(opt,rrhf)
 ----------------------------------------------------------------------
 -----
 title
 -----
 Symbolic Z-matrix:
 Charge =  0 Multiplicity = 1

 SCF Done:  E(RHF) =  -309.104423159     A.U. after   14 cycles

 1\1\GINC-SE118\Stability\RHF\Aug-CC-pVDZ\C6H12O1\OHZDE\08-Apr-2025\0\\
 #t hf aug-cc-pvdz symm=none int=(grid=ultrafine) guess=(read,tcheck) s
 table=(opt,rrhf)\\title\\0,1\C,0,1.125006,0.231028,-0.408964\C,0,2.102
 991,-0.947171,-0.473208\C,0,-0.262168,-0.228682,0.055923\O,0,-0.390104
 ,-1.056479,0.930812\C,0,-1.461832,0.422581,-0.617213\H,0,1.786143,-1.6
 8859,-1.211661\H,0,2.155897,-1.444911,0.496734\H,0,3.103786,-0.602645,
 -0.746905\C,0,1.623172,1.324887,0.557922\H,0,1.022315,0.677675,-1.4049
 15\H,0,2.598299,1.699991,0.236518\H,0,1.727309,0.918439,1.567173\H,0,0

 Normal termination of Gaussian 16 at Tue Apr  8 22:35:27 2025.
 Gaussian 16:  ES64L-G16RevC.01  3-Jul-2019

 ----------------------------------------------------------------------
 #t hf aug-cc-pvdz iop(5/13=1,5/36=2,99/5=2) pseudo=read geom=check gue
 ss=(read,tcheck) scf=(maxcycle=1)
 ----------------------------------------------------------------------
 -----
 title
 -----
 Structure from the checkpoint file:  "BDE49_expt_1091_mol1.chk"
 Charge =  0 Multiplicity = 1

                         Standard orientation:
 ---------------------------------------------------------------------
 Center     Atomic      Atomic             Coordinates (Angstroms)
 Number     Number       Type             X           Y           Z
 ---------------------------------------------------------------------
      1          6           0        1.125006    0.231028   -0.408964
      2          6           0        2.102991   -0.947171   -0.473208
      3          6           0       -0.262168   -0.228682    0.055923
      4          8           0       -0.390104   -1.056479    0.930812
      5          6           0       -1.461832    0.422581   -0.617213
      6          1           0        1.786143   -1.688590   -1.211661
      7          1           0        2.155897   -1.444911    0.496734
      8          1           0        3.103786   -0.602645   -0.746905
      9          6           0        1.623172    1.324887    0.557922
     10          1           0        1.022315    0.677675   -1.404915
     11          1           0        2.598299    1.699991    0.236518
     12          1           0        1.727309    0.918439    1.567173
     13          1           0        0.936605    2.175087    0.603074
     14          6           0       -2.802441    0.061455    0.014961
     15          1           0       -1.431302    0.123106   -1.674008
     16          1           0       -1.300913    1.508029   -0.628576
     17          1           0       -2.950958   -1.019647    0.017405
     18          1           0       -3.627265    0.524925   -0.531522
     19          1           0       -2.847454    0.395789    1.053653
 ---------------------------------------------------------------------

 SCF Done:  E(RHF) =  -309.435732436     A.U. after    2 cycles

 The electronic state is 1-A.
 Alpha  occ. eigenvalues --  -20.52970 -11.33030 -11.24859 -11.24686 -11.23714
 Alpha  occ. eigenvalues --  -11.22676 -11.22669  -1.46488  -1.09259  -1.04779
 Alpha  occ. eigenvalues --   -0.93926  -0.91059  -0.82755  -0.72853  -0.67991
 Alpha  occ. eigenvalues --   -0.63785  -0.63038  -0.61115  -0.57634  -0.56161
 Alpha  occ. eigenvalues --   -0.55148  -0.52796  -0.52055  -0.51289  -0.49956
 Alpha  occ. eigenvalues --   -0.48850  -0.47485  -0.39659
 Alpha virt. eigenvalues --    0.03133   0.03536   0.03715   0.04435   0.05551
 Alpha virt. eigenvalues --    0.05944   0.06192   0.06777   0.07585   0.08640
 Alpha virt. eigenvalues --    0.09042   0.09689   0.12282   0.13252   0.14238

 Mulliken charges:
               1
     1  C   -1.173464
     2  C   -0.063778
     3  C    1.545407
     4  O   -1.466917
     5  C   -0.521417
     6  H    0.158036
     7  H    0.261456
     8  H    0.159756
     9  C   -0.144681
    10  H    0.159052
    11  H    0.140587
    12  H    0.255908
    13  H    0.118222
    14  C   -0.372383
    15  H    0.263244
    16  H    0.198536
    17  H    0.178389
    18  H    0.138244
    19  H    0.165803
 Sum of Mulliken charges =  -0.00000

 Dipole moment (field-independent basis, Debye):
    X=              0.3735    Y=              2.0221    Z=             -2.0236  Tot=              2.8850

 Test job not archived.
 1\1\GINC-SE118\SP\RHF\Aug-CC-pVDZ\C6H12O1\OHZDE\08-Apr-2025\0\\#t hf a
 ug-cc-pvdz iop(5/13=1,5/36=2,99/5=2) pseudo=read geom=check guess=(rea
 d,tcheck) scf=(maxcycle=1)\\title\\0,1\C,0,1.125006,0.231028,-0.408964
 \C,0,2.102991,-0.947171,-0.473208\C,0,-0.262168,-0.228682,0.055923\O,0
 ,-0.390104,-1.056479,0.930812\C,0,-1.461832,0.422581,-0.617213\H,0,1.7
 86143,-1.68859,-1.211661\H,0,2.155897,-1.444911,0.496734\H,0,3.103786,
 -0.602645,-0.746905\C,0,1.623172,1.324887,0.557922\H,0,1.022315,0.6776
 75,-1.404915\H,0,2.598299,1.699991,0.236518\H,0,1.727309,0.918439,1.56

 Normal termination of Gaussian 16 at Tue Apr  8 22:35:35 2025.
