 Gaussian 16, Revision C.01,

 ----------------------------------------------------------------------
 #t hf aug-cc-pvdz symm=none int=(grid=ultrafine) guess=(read,tcheck) s
 table=(opt,rrhf)
 ----------------------------------------------------------------------
 -----
 title
 -----
 Symbolic Z-matrix:
 Charge =  0 Multiplicity = 1

 SCF Done:  E(RHF) =  -1120.87745546     A.U. after   14 cycles
 Normal termination of Gaussian 16 at Tue Apr  8 23:45:56 2025.
 Gaussian 16:  ES64L-G16RevC.01  3-Jul-2019

 ----------------------------------------------------------------------
 #t hf aug-cc-pvdz iop(5/13=1,5/36=2,99/5=2) pseudo=read geom=check gue
 ss=(read,tcheck) scf=(maxcycle=1)
 ----------------------------------------------------------------------
 -----
 title
 -----
 Structure from the checkpoint file:  "BDE49_nonexpt_1725_mol1.chk"
 Charge =  0 Multiplicity = 1

                         Standard orientation:
 ---------------------------------------------------------------------
 Center     Atomic      Atomic             Coordinates (Angstroms)
 Number     Number       Type             X           Y           Z
 ---------------------------------------------------------------------
      1         16           0       -0.085186   -0.382692   -1.251889
      2         15           0        1.326260    0.048133    0.252668
      3          8           0        1.103220   -0.603138    1.543613
      4          6           0       -1.681092   -0.648612   -0.300479
      5          6           0       -1.664006   -1.986871    0.437509
      6          1           0       -1.426764   -2.807886   -0.241662
      7          1           0       -2.651591   -2.176108    0.871209
      8          1           0       -0.927040   -1.974004    1.241004
      9          6           0       -2.079145    0.527040    0.600380
     10          6           0       -2.280329    1.864995   -0.112381
     11          1           0       -1.344452    0.625940    1.404469
     12          1           0       -3.018836    0.234245    1.085046
     13          1           0       -1.347196    2.234765   -0.540815
     14          1           0       -2.646129    2.619382    0.588470
     15          1           0       -3.011340    1.779560   -0.922604
     16          1           0       -2.383338   -0.702917   -1.139867
     17          8           0        2.700894   -0.264873   -0.525963
     18          1           0        2.845385   -1.211132   -0.651383
     19          8           0        1.445605    1.637002    0.388020
     20          1           0        1.610056    2.087987   -0.449182
 ---------------------------------------------------------------------

 SCF Done:  E(RHF) =  -1121.37967454     A.U. after    2 cycles

 The electronic state is 1-A.
 Alpha  occ. eigenvalues --  -93.96121 -84.44980 -20.60253 -20.59854 -20.50938
 Alpha  occ. eigenvalues --  -11.29223 -11.24180 -11.23096 -11.23007  -8.24391
 Alpha  occ. eigenvalues --   -6.90043  -6.22184  -6.22003  -6.21822  -4.44154
 Alpha  occ. eigenvalues --   -4.43394  -4.42390  -1.54283  -1.47869  -1.39648
 Alpha  occ. eigenvalues --   -1.11975  -1.01959  -0.98117  -0.87700  -0.84888
 Alpha  occ. eigenvalues --   -0.79159  -0.75345  -0.67568  -0.65017  -0.63779
 Alpha  occ. eigenvalues --   -0.60888  -0.60588  -0.58977  -0.58029  -0.57511
 Alpha  occ. eigenvalues --   -0.55096  -0.53839  -0.51274  -0.50741  -0.49875
 Alpha  occ. eigenvalues --   -0.49452  -0.46716  -0.46027  -0.42440  -0.38641
 Alpha virt. eigenvalues --    0.03339   0.03607   0.03713   0.04397   0.05218
 Alpha virt. eigenvalues --    0.05992   0.06567   0.07624   0.08145   0.08405
 Alpha virt. eigenvalues --    0.09675   0.10275   0.11442   0.12656   0.13173

 Mulliken charges:
               1
     1  S   -0.423168
     2  P    4.030210
     3  O   -1.571192
     4  C   -0.404851
     5  C   -0.353984
     6  H    0.142623
     7  H    0.166650
     8  H    0.206020
     9  C   -0.368412
    10  C   -0.371372
    11  H    0.106345
    12  H    0.150717
    13  H    0.192540
    14  H    0.130336
    15  H    0.164346
    16  H    0.206695
    17  O   -1.356143
    18  H    0.376079
    19  O   -1.380474
    20  H    0.357033
 Sum of Mulliken charges =  -0.00000

 Dipole moment (field-independent basis, Debye):
    X=             -1.1635    Y=              0.1809    Z=             -2.7868  Tot=              3.0253

 Test job not archived.
 1\1\GINC-SE187\SP\RHF\Aug-CC-pVDZ\C4H11O3P1S1\OHZDE\08-Apr-2025\0\\#t
 hf aug-cc-pvdz iop(5/13=1,5/36=2,99/5=2) pseudo=read geom=check guess=
 (read,tcheck) scf=(maxcycle=1)\\title\\0,1\S,0,-0.085186,-0.382692,-1.
 251889\P,0,1.32626,0.048133,0.252668\O,0,1.10322,-0.603138,1.543613\C,
 0,-1.681092,-0.648612,-0.300479\C,0,-1.664006,-1.986871,0.437509\H,0,-
 1.426764,-2.807886,-0.241662\H,0,-2.651591,-2.176108,0.871209\H,0,-0.9
 2704,-1.974004,1.241004\C,0,-2.079145,0.52704,0.60038\C,0,-2.280329,1.
 864995,-0.112381\H,0,-1.344452,0.62594,1.404469\H,0,-3.018836,0.234245

 Normal termination of Gaussian 16 at Tue Apr  8 23:46:08 2025.
