 Gaussian 16, Revision C.01,

 ----------------------------------------------------------------------
 #t hf aug-cc-pvdz symm=none int=(grid=ultrafine) guess=(read,tcheck) s
 table=(opt,rrhf)
 ----------------------------------------------------------------------
 -----
 title
 -----
 Symbolic Z-matrix:
 Charge =  0 Multiplicity = 1

 SCF Done:  E(RHF) =  -474.408159170     A.U. after   14 cycles
 Normal termination of Gaussian 16 at Tue Apr  8 23:33:03 2025.
 Gaussian 16:  ES64L-G16RevC.01  3-Jul-2019

 ----------------------------------------------------------------------
 #t hf aug-cc-pvdz iop(5/13=1,5/36=2,99/5=2) pseudo=read geom=check gue
 ss=(read,tcheck) scf=(maxcycle=1)
 ----------------------------------------------------------------------
 -----
 title
 -----
 Structure from the checkpoint file:  "BDE49_nonexpt_1451_mol1.chk"
 Charge =  0 Multiplicity = 1

                         Standard orientation:
 ---------------------------------------------------------------------
 Center     Atomic      Atomic             Coordinates (Angstroms)
 Number     Number       Type             X           Y           Z
 ---------------------------------------------------------------------
      1          6           0       -1.363230   -1.036798    0.002495
      2          6           0       -0.472269    0.185886    0.014796
      3          1           0       -1.097877   -1.705524   -0.822468
      4          1           0       -2.413485   -0.751924   -0.102168
      5          1           0       -1.244429   -1.606690    0.929159
      6         15           0        1.361901   -0.123297   -0.119313
      7          7           0       -0.856359    1.396711    0.009903
      8          1           0       -1.880020    1.454127    0.001306
      9          1           0        1.449219   -1.135638    0.871585
     10          1           0        1.765581    0.923603    0.739216
 ---------------------------------------------------------------------

 SCF Done:  E(RHF) =  -474.593953271     A.U. after    2 cycles

 The electronic state is 1-A.
 Alpha  occ. eigenvalues --  -84.27812 -15.49697 -11.30441 -11.25619  -6.74992
 Alpha  occ. eigenvalues --   -4.27590  -4.27403  -4.26616  -1.22282  -1.00881
 Alpha  occ. eigenvalues --   -0.89795  -0.75995  -0.66781  -0.61903  -0.60658
 Alpha  occ. eigenvalues --   -0.53298  -0.50205  -0.48012  -0.43376  -0.35060
 Alpha virt. eigenvalues --    0.03301   0.04755   0.04961   0.05388   0.06612
 Alpha virt. eigenvalues --    0.07828   0.09371   0.10243   0.11426   0.12177
 Alpha virt. eigenvalues --    0.13157   0.14614   0.15507   0.15788   0.16692

 Mulliken charges:
               1
     1  C   -0.506876
     2  C   -1.335346
     3  H    0.246832
     4  H    0.073511
     5  H    0.220856
     6  P   -0.293330
     7  N    0.606633
     8  H    0.100061
     9  H    0.422253
    10  H    0.465405
 Sum of Mulliken charges =  -0.00000

 Dipole moment (field-independent basis, Debye):
    X=             -1.0285    Y=             -2.5801    Z=              0.4415  Tot=              2.8124

 Test job not archived.
 1\1\GINC-SE345\SP\RHF\Aug-CC-pVDZ\C2H6N1P1\OHZDE\08-Apr-2025\0\\#t hf
 aug-cc-pvdz iop(5/13=1,5/36=2,99/5=2) pseudo=read geom=check guess=(re
 ad,tcheck) scf=(maxcycle=1)\\title\\0,1\C,0,-1.36323,-1.036798,0.00249
 5\C,0,-0.472269,0.185886,0.014796\H,0,-1.097877,-1.705524,-0.822468\H,
 0,-2.413485,-0.751924,-0.102168\H,0,-1.244429,-1.60669,0.929159\P,0,1.
 361901,-0.123297,-0.119313\N,0,-0.856359,1.396711,0.009903\H,0,-1.8800
 2,1.454127,0.001306\H,0,1.449219,-1.135638,0.871585\H,0,1.765581,0.923
 603,0.739216\\Version=ES64L-G16RevC.01\State=1-A\HF=-474.5939533\RMSD=

 Normal termination of Gaussian 16 at Tue Apr  8 23:33:06 2025.
