 Gaussian 16, Revision C.01,

 ----------------------------------------------------------------------
 #t hf aug-cc-pvdz symm=none int=(grid=ultrafine) guess=(read,tcheck) s
 table=(opt,rrhf)
 ----------------------------------------------------------------------
 -----
 title
 -----
 Symbolic Z-matrix:
 Charge =  0 Multiplicity = 1

 SCF Done:  E(RHF) =  -764.378725138     A.U. after   14 cycles
 Normal termination of Gaussian 16 at Wed Apr  9 00:23:34 2025.
 Gaussian 16:  ES64L-G16RevC.01  3-Jul-2019

 ----------------------------------------------------------------------
 #t hf aug-cc-pvdz iop(5/13=1,5/36=2,99/5=2) pseudo=read geom=check gue
 ss=(read,tcheck) scf=(maxcycle=1)
 ----------------------------------------------------------------------
 -----
 title
 -----
 Structure from the checkpoint file:  "BDE49_nonexpt_2681_mol1.chk"
 Charge =  0 Multiplicity = 1

                         Standard orientation:
 ---------------------------------------------------------------------
 Center     Atomic      Atomic             Coordinates (Angstroms)
 Number     Number       Type             X           Y           Z
 ---------------------------------------------------------------------
      1          9           0       -2.400080    0.300983    0.066742
      2         16           0       -1.224269   -0.859908   -0.207296
      3          6           0        0.263336    0.215424    0.073673
      4          8           0        1.229021   -0.791754   -0.124593
      5          8           0        0.294247    0.743624    1.360330
      6          6           0        2.598163   -0.377732   -0.090865
      7          1           0        2.862773    0.203178   -0.979843
      8          1           0        3.186783   -1.293436   -0.073546
      9          1           0        2.804840    0.208063    0.808535
     10          6           0        0.315908    1.378696   -0.900769
     11          1           0        0.444832    1.009653   -1.917946
     12          1           0        1.134908    2.052527   -0.640106
     13          1           0       -0.619148    1.935213   -0.837322
     14          1           0        0.123457    0.021194    1.978151
 ---------------------------------------------------------------------

 SCF Done:  E(RHF) =  -764.802041713     A.U. after    2 cycles

 The electronic state is 1-A.
 Alpha  occ. eigenvalues --  -94.02914 -26.46329 -20.58035 -20.57828 -11.40011
 Alpha  occ. eigenvalues --  -11.30267 -11.24569  -8.30248  -6.28032  -6.27704
 Alpha  occ. eigenvalues --   -6.27436  -1.56327  -1.53116  -1.46047  -1.07062
 Alpha  occ. eigenvalues --   -0.99163  -0.94514  -0.82167  -0.74172  -0.70647
 Alpha  occ. eigenvalues --   -0.68395  -0.64802  -0.64452  -0.61372  -0.61058
 Alpha  occ. eigenvalues --   -0.60014  -0.57454  -0.56600  -0.54400  -0.49545
 Alpha  occ. eigenvalues --   -0.46409  -0.44790  -0.38402
 Alpha virt. eigenvalues --    0.03256   0.04207   0.04389   0.05237   0.06397
 Alpha virt. eigenvalues --    0.07270   0.07506   0.08018   0.09930   0.11424
 Alpha virt. eigenvalues --    0.12841   0.13315   0.14382   0.15532   0.15791

 Mulliken charges:
               1
     1  F   -0.692489
     2  S    0.960187
     3  C    1.445333
     4  O   -1.386627
     5  O   -1.327080
     6  C    0.189363
     7  H    0.161625
     8  H   -0.015238
     9  H    0.182614
    10  C   -0.366974
    11  H    0.237630
    12  H    0.186581
    13  H    0.164874
    14  H    0.260202
 Sum of Mulliken charges =   0.00000

 Dipole moment (field-independent basis, Debye):
    X=              3.0135    Y=              0.1161    Z=             -0.0993  Tot=              3.0173

 Test job not archived.
 1\1\GINC-SE284\SP\RHF\Aug-CC-pVDZ\C3H7F1O2S1\OHZDE\09-Apr-2025\0\\#t h
 f aug-cc-pvdz iop(5/13=1,5/36=2,99/5=2) pseudo=read geom=check guess=(
 read,tcheck) scf=(maxcycle=1)\\title\\0,1\F,0,-2.40008,0.300983,0.0667
 42\S,0,-1.224269,-0.859908,-0.207296\C,0,0.263336,0.215424,0.073673\O,
 0,1.229021,-0.791754,-0.124593\O,0,0.294247,0.743624,1.36033\C,0,2.598
 163,-0.377732,-0.090865\H,0,2.862773,0.203178,-0.979843\H,0,3.186783,-
 1.293436,-0.073546\H,0,2.80484,0.208063,0.808535\C,0,0.315908,1.378696
 ,-0.900769\H,0,0.444832,1.009653,-1.917946\H,0,1.134908,2.052527,-0.64

 Normal termination of Gaussian 16 at Wed Apr  9 00:23:39 2025.
