 Gaussian 16, Revision C.01,

 ----------------------------------------------------------------------
 #t hf aug-cc-pvdz symm=none int=(grid=ultrafine) guess=(read,tcheck) s
 table=(opt,rrhf)
 ----------------------------------------------------------------------
 -----
 title
 -----
 Symbolic Z-matrix:
 Charge =  0 Multiplicity = 1

 SCF Done:  E(RHF) =  -806.107861530     A.U. after   12 cycles

 1\1\GINC-SE334\Stability\RHF\Aug-CC-pVDZ\H6O3Si2\OHZDE\09-Apr-2025\0\\
 #t hf aug-cc-pvdz symm=none int=(grid=ultrafine) guess=(read,tcheck) s
 table=(opt,rrhf)\\title\\0,1\Si,0,-0.922972,-0.015727,0.379276\Si,0,1.
 305699,-0.719004,0.07755\O,0,-1.94962,-0.894519,-0.571194\H,0,-2.87431
 6,-0.96927,-0.32489\O,0,2.150763,0.664872,-0.275761\H,0,1.41819,-1.707
 596,-1.021863\H,0,1.865477,-1.334353,1.304917\H,0,1.594119,1.436616,-0
 .427077\O,0,-0.751985,1.565533,-0.112752\H,0,-1.483264,-0.019238,1.758
 192\H,0,-1.47166,2.192986,-0.007185\\Version=ES64L-G16RevC.01\HF=-806.

 Normal termination of Gaussian 16 at Wed Apr  9 00:09:34 2025.
 Gaussian 16:  ES64L-G16RevC.01  3-Jul-2019

 ----------------------------------------------------------------------
 #t hf aug-cc-pvdz iop(5/13=1,5/36=2,99/5=2) pseudo=read geom=check gue
 ss=(read,tcheck) scf=(maxcycle=1)
 ----------------------------------------------------------------------
 -----
 title
 -----
 Structure from the checkpoint file:  "BDE49_nonexpt_2337_mol1.chk"
 Charge =  0 Multiplicity = 1

                         Standard orientation:
 ---------------------------------------------------------------------
 Center     Atomic      Atomic             Coordinates (Angstroms)
 Number     Number       Type             X           Y           Z
 ---------------------------------------------------------------------
      1         14           0       -0.922972   -0.015727    0.379276
      2         14           0        1.305699   -0.719004    0.077550
      3          8           0       -1.949620   -0.894519   -0.571194
      4          1           0       -2.874316   -0.969271   -0.324890
      5          8           0        2.150763    0.664872   -0.275761
      6          1           0        1.418191   -1.707596   -1.021863
      7          1           0        1.865477   -1.334353    1.304917
      8          1           0        1.594119    1.436616   -0.427077
      9          8           0       -0.751985    1.565533   -0.112752
     10          1           0       -1.483264   -0.019238    1.758192
     11          1           0       -1.471660    2.192986   -0.007185
 ---------------------------------------------------------------------

 SCF Done:  E(RHF) =  -806.400902312     A.U. after    2 cycles

 The electronic state is 1-A.
 Alpha  occ. eigenvalues --  -69.58425 -69.54999 -20.56083 -20.55742 -20.53738
 Alpha  occ. eigenvalues --   -6.24717  -6.21701  -4.00212  -4.00081  -3.99976
 Alpha  occ. eigenvalues --   -3.97163  -3.97036  -3.97004  -1.45497  -1.43469
 Alpha  occ. eigenvalues --   -1.42144  -0.80223  -0.74484  -0.71086  -0.64530
 Alpha  occ. eigenvalues --   -0.63621  -0.56798  -0.55374  -0.54227  -0.54015
 Alpha  occ. eigenvalues --   -0.50148  -0.48695  -0.44653  -0.40654
 Alpha virt. eigenvalues --    0.02584   0.04184   0.04722   0.05684   0.06674
 Alpha virt. eigenvalues --    0.07156   0.07844   0.08277   0.08965   0.09830
 Alpha virt. eigenvalues --    0.10448   0.11010   0.13172   0.14359   0.14868

 Mulliken charges:
               1
     1  Si   2.314576
     2  Si   0.968552
     3  O   -1.363047
     4  H    0.404054
     5  O   -1.509853
     6  H   -0.113556
     7  H   -0.097444
     8  H    0.562180
     9  O   -1.364492
    10  H   -0.204982
    11  H    0.404012
 Sum of Mulliken charges =  -0.00000

 Dipole moment (field-independent basis, Debye):
    X=             -3.5879    Y=              0.8574    Z=              1.1427  Tot=              3.8619

 Test job not archived.
 1\1\GINC-SE334\SP\RHF\Aug-CC-pVDZ\H6O3Si2\OHZDE\09-Apr-2025\0\\#t hf a
 ug-cc-pvdz iop(5/13=1,5/36=2,99/5=2) pseudo=read geom=check guess=(rea
 d,tcheck) scf=(maxcycle=1)\\title\\0,1\Si,0,-0.922972,-0.015727,0.3792
 76\Si,0,1.305699,-0.719004,0.07755\O,0,-1.94962,-0.894519,-0.571194\H,
 0,-2.874316,-0.96927,-0.32489\O,0,2.150763,0.664872,-0.275761\H,0,1.41
 819,-1.707596,-1.021863\H,0,1.865477,-1.334353,1.304917\H,0,1.594119,1
 .436616,-0.427077\O,0,-0.751985,1.565533,-0.112752\H,0,-1.483264,-0.01
 9238,1.758192\H,0,-1.47166,2.192986,-0.007185\\Version=ES64L-G16RevC.0

 Normal termination of Gaussian 16 at Wed Apr  9 00:09:37 2025.
