 Gaussian 16, Revision C.01,

 ----------------------------------------------------------------------
 #t hf aug-cc-pvdz symm=none int=(grid=ultrafine) guess=(read,tcheck) s
 table=(opt,rrhf)
 ----------------------------------------------------------------------
 -----
 title
 -----
 Symbolic Z-matrix:
 Charge =  0 Multiplicity = 1

 SCF Done:  E(RHF) =  -641.214361432     A.U. after   15 cycles
 Normal termination of Gaussian 16 at Wed Apr  9 00:53:40 2025.
 Gaussian 16:  ES64L-G16RevC.01  3-Jul-2019

 ----------------------------------------------------------------------
 #t hf aug-cc-pvdz iop(5/13=1,5/36=2,99/5=2) pseudo=read geom=check gue
 ss=(read,tcheck) scf=(maxcycle=1)
 ----------------------------------------------------------------------
 -----
 title
 -----
 Structure from the checkpoint file:  "BDE49_nonexpt_996_mol1.chk"
 Charge =  0 Multiplicity = 1

                         Standard orientation:
 ---------------------------------------------------------------------
 Center     Atomic      Atomic             Coordinates (Angstroms)
 Number     Number       Type             X           Y           Z
 ---------------------------------------------------------------------
      1          6           0       -1.851696    0.544723    0.000038
      2         16           0       -0.663019   -0.817395   -0.000080
      3          1           0       -1.742850    1.153091   -0.895635
      4          1           0       -1.742852    1.152936    0.895817
      5          1           0       -2.830758    0.058695   -0.000005
      6          7           0        0.896184    0.141549    0.000008
      7          8           0        0.826113    1.351527   -0.000091
      8          8           0        1.894093   -0.544725    0.000194
 ---------------------------------------------------------------------

 SCF Done:  E(RHF) =  -641.509413668     A.U. after    2 cycles

 The electronic state is 1-A.
 Alpha  occ. eigenvalues --  -94.03352 -20.60791 -20.60587 -15.80998 -11.30304
 Alpha  occ. eigenvalues --   -8.31129  -6.28922  -6.28674  -6.28428  -1.69024
 Alpha  occ. eigenvalues --   -1.53293  -1.14452  -0.99878  -0.87397  -0.77541
 Alpha  occ. eigenvalues --   -0.76202  -0.75975  -0.63333  -0.62308  -0.54950
 Alpha  occ. eigenvalues --   -0.49695  -0.47562  -0.46872  -0.41880
 Alpha virt. eigenvalues --    0.02764   0.04698   0.04909   0.05784   0.06318
 Alpha virt. eigenvalues --    0.07318   0.11002   0.12564   0.12618   0.14202
 Alpha virt. eigenvalues --    0.14537   0.15625   0.16735   0.17862   0.20898

 Mulliken charges:
               1
     1  C   -0.710612
     2  S    0.600160
     3  H    0.225235
     4  H    0.225215
     5  H    0.203983
     6  N    1.780425
     7  O   -1.129950
     8  O   -1.194456
 Sum of Mulliken charges =  -0.00000

 Dipole moment (field-independent basis, Debye):
    X=             -4.2618    Y=              0.0080    Z=             -0.0001  Tot=              4.2618

 Test job not archived.
 1\1\GINC-SE131\SP\RHF\Aug-CC-pVDZ\C1H3N1O2S1\OHZDE\09-Apr-2025\0\\#t h
 f aug-cc-pvdz iop(5/13=1,5/36=2,99/5=2) pseudo=read geom=check guess=(
 read,tcheck) scf=(maxcycle=1)\\title\\0,1\C,0,-1.851696,0.544724,0.000
 038\S,0,-0.663019,-0.817395,-0.00008\H,0,-1.74285,1.153092,-0.895635\H
 ,0,-1.742852,1.152937,0.895817\H,0,-2.830758,0.058696,-0.000005\N,0,0.
 896184,0.141549,0.000008\O,0,0.826114,1.351527,-0.000091\O,0,1.894093,
 -0.544726,0.000194\\Version=ES64L-G16RevC.01\State=1-A\HF=-641.5094137
 \RMSD=1.315e-02\Dipole=-1.6767271,0.0031596,-0.0000198\Quadrupole=1.31

 Normal termination of Gaussian 16 at Wed Apr  9 00:53:42 2025.
