 Gaussian 16, Revision C.01,

 ----------------------------------------------------------------------
 #t hf aug-cc-pvdz symm=none int=(grid=ultrafine) guess=(read,tcheck) s
 table=(opt,rrhf)
 ----------------------------------------------------------------------
 -----
 title
 -----
 Symbolic Z-matrix:
 Charge =  0 Multiplicity = 1

 SCF Done:  E(RHF) =  -366.164799566     A.U. after   11 cycles

 1\1\GINC-SE423\Stability\RHF\Aug-CC-pVDZ\H4O1Si1\OHZDE\08-Apr-2025\0\\
 #t hf aug-cc-pvdz symm=none int=(grid=ultrafine) guess=(read,tcheck) s
 table=(opt,rrhf)\\title\\0,1\O,0,-1.11563,0.111076,0.\Si,0,0.533026,-0
 .008916,0.\H,0,-1.640786,-0.691727,0.000003\H,0,1.033278,1.378424,-0.0
 00018\H,0,1.03509,-0.725254,-1.198592\H,0,1.035092,-0.725223,1.19861\\
 Version=ES64L-G16RevC.01\HF=-366.1647996\RMSD=3.206e-09\Dipole=-0.0186
 039,-0.5472885,0.0000015\Quadrupole=0.486396,0.2965074,-0.7829035,2.25
 24688,-0.000011,-0.000005\PG=Unknown\\@

 Normal termination of Gaussian 16 at Tue Apr  8 23:56:17 2025.
 Gaussian 16:  ES64L-G16RevC.01  3-Jul-2019

 ----------------------------------------------------------------------
 #t hf aug-cc-pvdz iop(5/13=1,5/36=2,99/5=2) pseudo=read geom=check gue
 ss=(read,tcheck) scf=(maxcycle=1)
 ----------------------------------------------------------------------
 -----
 title
 -----
 Structure from the checkpoint file:  "BDE49_nonexpt_2009_mol1.chk"
 Charge =  0 Multiplicity = 1

                         Standard orientation:
 ---------------------------------------------------------------------
 Center     Atomic      Atomic             Coordinates (Angstroms)
 Number     Number       Type             X           Y           Z
 ---------------------------------------------------------------------
      1          8           0       -1.115630    0.111076   -0.000000
      2         14           0        0.533026   -0.008916   -0.000000
      3          1           0       -1.640786   -0.691727    0.000003
      4          1           0        1.033278    1.378424   -0.000018
      5          1           0        1.035090   -0.725254   -1.198592
      6          1           0        1.035092   -0.725223    1.198610
 ---------------------------------------------------------------------

 SCF Done:  E(RHF) =  -366.276614972     A.U. after    2 cycles

 The electronic state is 1-A.
 Alpha  occ. eigenvalues --  -69.56015 -20.55212  -6.22631  -3.98142  -3.97991
 Alpha  occ. eigenvalues --   -3.97965  -1.43740  -0.77606  -0.65662  -0.55486
 Alpha  occ. eigenvalues --   -0.55322  -0.47783  -0.45612
 Alpha virt. eigenvalues --    0.03401   0.04704   0.05800   0.06081   0.07691
 Alpha virt. eigenvalues --    0.09346   0.09409   0.14802   0.16676   0.19129
 Alpha virt. eigenvalues --    0.19208   0.21361   0.22791   0.24008   0.26500

 Mulliken charges:
               1
     1  O   -1.263968
     2  Si   1.587991
     3  H    0.397167
     4  H   -0.229652
     5  H   -0.245768
     6  H   -0.245769
 Sum of Mulliken charges =   0.00000

 Dipole moment (field-independent basis, Debye):
    X=             -0.0674    Y=             -1.3521    Z=              0.0000  Tot=              1.3537

 Test job not archived.
 1\1\GINC-SE423\SP\RHF\Aug-CC-pVDZ\H4O1Si1\OHZDE\08-Apr-2025\0\\#t hf a
 ug-cc-pvdz iop(5/13=1,5/36=2,99/5=2) pseudo=read geom=check guess=(rea
 d,tcheck) scf=(maxcycle=1)\\title\\0,1\O,0,-1.11563,0.111076,0.\Si,0,0
 .533026,-0.008916,0.\H,0,-1.640786,-0.691727,0.000003\H,0,1.033278,1.3
 78424,-0.000018\H,0,1.03509,-0.725254,-1.198592\H,0,1.035092,-0.725223
 ,1.19861\\Version=ES64L-G16RevC.01\State=1-A\HF=-366.276615\RMSD=5.546
 e-03\Dipole=-0.0265364,-0.5319429,0.0000014\Quadrupole=0.4983938,0.302
 6924,-0.8010863,2.23343,-0.000011,-0.000005\PG=C01 [X(H4O1Si1)]\\@

 Normal termination of Gaussian 16 at Tue Apr  8 23:56:18 2025.
