 Gaussian 16, Revision C.01,

 ----------------------------------------------------------------------
 #t hf aug-cc-pvdz symm=none int=(grid=ultrafine) guess=(read,tcheck) s
 table=(opt,rrhf)
 ----------------------------------------------------------------------
 -----
 title
 -----
 Symbolic Z-matrix:
 Charge =  0 Multiplicity = 1

 SCF Done:  E(RHF) =  -457.894645350     A.U. after   15 cycles
 Normal termination of Gaussian 16 at Wed Apr  9 00:28:14 2025.
 Gaussian 16:  ES64L-G16RevC.01  3-Jul-2019

 ----------------------------------------------------------------------
 #t hf aug-cc-pvdz iop(5/13=1,5/36=2,99/5=2) pseudo=read geom=check gue
 ss=(read,tcheck) scf=(maxcycle=1)
 ----------------------------------------------------------------------
 -----
 title
 -----
 Structure from the checkpoint file:  "BDE49_nonexpt_286_mol1.chk"
 Charge =  0 Multiplicity = 1

                         Standard orientation:
 ---------------------------------------------------------------------
 Center     Atomic      Atomic             Coordinates (Angstroms)
 Number     Number       Type             X           Y           Z
 ---------------------------------------------------------------------
      1          6           0        0.080964    0.510912    0.484041
      2          5           0       -1.262075   -0.241833    0.005102
      3          7           0        1.305183   -0.262058    0.018883
      4          8           0       -1.340675   -1.581053   -0.163425
      5          8           0       -2.352354    0.548728   -0.179938
      6          8           0        1.350009   -1.458460    0.321342
      7          8           0        2.165147    0.314450   -0.613614
      8          1           0        0.121357    0.377745    1.571933
      9          6           0        0.176064    1.986198    0.123044
     10          1           0        0.191805    2.130757   -0.957688
     11          1           0        1.071575    2.445803    0.542859
     12          1           0       -0.705078    2.493819    0.517902
     13          1           0       -0.491546   -2.011731    0.025569
     14          1           0       -3.133204    0.035199   -0.415695
 ---------------------------------------------------------------------

 SCF Done:  E(RHF) =  -458.347517252     A.U. after    2 cycles

 The electronic state is 1-A.
 Alpha  occ. eigenvalues --  -20.60850 -20.59357 -20.57747 -20.56841 -15.79481
 Alpha  occ. eigenvalues --  -11.30648 -11.25341  -7.66846  -1.67929  -1.51688
 Alpha  occ. eigenvalues --   -1.49888  -1.45883  -1.13896  -0.98445  -0.86758
 Alpha  occ. eigenvalues --   -0.81230  -0.77461  -0.75903  -0.75811  -0.72631
 Alpha  occ. eigenvalues --   -0.64276  -0.62419  -0.58913  -0.58388  -0.57494
 Alpha  occ. eigenvalues --   -0.55297  -0.51065  -0.50532  -0.49550  -0.48777
 Alpha  occ. eigenvalues --   -0.46176
 Alpha virt. eigenvalues --    0.03091   0.03557   0.04367   0.04856   0.05735
 Alpha virt. eigenvalues --    0.06246   0.06659   0.07297   0.08458   0.10038
 Alpha virt. eigenvalues --    0.10531   0.12461   0.13676   0.14136   0.15661

 Mulliken charges:
               1
     1  C   -0.622735
     2  B    1.706865
     3  N    2.554141
     4  O   -1.303065
     5  O   -1.166991
     6  O   -1.459719
     7  O   -1.285721
     8  H    0.110657
     9  C   -0.264146
    10  H    0.198184
    11  H    0.171361
    12  H    0.167793
    13  H    0.675000
    14  H    0.518379
 Sum of Mulliken charges =  -0.00000

 Dipole moment (field-independent basis, Debye):
    X=             -2.3357    Y=              1.4233    Z=              1.0978  Tot=              2.9473

 Test job not archived.
 1\1\GINC-SE103\SP\RHF\Aug-CC-pVDZ\C2H6B1N1O4\OHZDE\09-Apr-2025\0\\#t h
 f aug-cc-pvdz iop(5/13=1,5/36=2,99/5=2) pseudo=read geom=check guess=(
 read,tcheck) scf=(maxcycle=1)\\title\\0,1\C,0,0.080964,0.510912,0.4840
 41\B,0,-1.262075,-0.241833,0.005102\N,0,1.305183,-0.262058,0.018883\O,
 0,-1.340675,-1.581053,-0.163425\O,0,-2.352354,0.548728,-0.179938\O,0,1
 .350009,-1.45846,0.321342\O,0,2.165147,0.31445,-0.613614\H,0,0.121357,
 0.377745,1.571933\C,0,0.176064,1.986198,0.123044\H,0,0.191805,2.130757
 ,-0.957688\H,0,1.071575,2.445803,0.542859\H,0,-0.705078,2.493819,0.517

 Normal termination of Gaussian 16 at Wed Apr  9 00:28:19 2025.
