 Gaussian 16, Revision C.01,

 ----------------------------------------------------------------------
 #t hf aug-cc-pvdz symm=none int=(grid=ultrafine) guess=(read,tcheck) s
 table=opt
 ----------------------------------------------------------------------
 -----
 title
 -----
 Symbolic Z-matrix:
 Charge =  0 Multiplicity = 2

 SCF Done:  E(UHF) =  -870.102621333     A.U. after   16 cycles
 Normal termination of Gaussian 16 at Tue Apr  8 22:45:16 2025.
 Gaussian 16:  ES64L-G16RevC.01  3-Jul-2019

 ----------------------------------------------------------------------
 #t hf aug-cc-pvdz iop(5/13=1,5/36=2,99/5=2) pseudo=read geom=check gue
 ss=(read,tcheck) scf=(maxcycle=1)
 ----------------------------------------------------------------------
 -----
 title
 -----
 Structure from the checkpoint file:  "BDE49_expt_1321_mol2.chk"
 Charge =  0 Multiplicity = 2

                         Standard orientation:
 ---------------------------------------------------------------------
 Center     Atomic      Atomic             Coordinates (Angstroms)
 Number     Number       Type             X           Y           Z
 ---------------------------------------------------------------------
      1          7           0       -0.000001    0.000004   -0.535694
      2         14           0        1.656803   -0.006739   -0.050026
      3         14           0       -1.656804    0.006738   -0.050021
      4          6           0       -1.952109   -0.464758    1.751730
      5          1           0       -1.588116   -1.474906    1.964164
      6          1           0       -3.020757   -0.444811    1.991051
      7          1           0       -1.444719    0.223274    2.434203
      8          6           0       -2.599238   -1.188763   -1.156250
      9          1           0       -2.231549   -2.212069   -1.036344
     10          1           0       -2.487516   -0.913835   -2.208148
     11          1           0       -3.666274   -1.187975   -0.910738
     12          6           0       -2.250960    1.775586   -0.340133
     13          1           0       -3.316417    1.849524   -0.098005
     14          1           0       -1.713263    2.488551    0.290392
     15          1           0       -2.114594    2.069852   -1.383284
     16          6           0        2.599221    1.188825   -1.156202
     17          1           0        2.487498    0.913945   -2.208113
     18          1           0        3.666258    1.188036   -0.910694
     19          1           0        2.231522    2.212121   -1.036247
     20          6           0        1.952111    0.464676    1.751747
     21          1           0        1.588110    1.474810    1.964229
     22          1           0        3.020760    0.444727    1.991063
     23          1           0        1.444730   -0.223394    2.434189
     24          6           0        2.250976   -1.775567   -0.340223
     25          1           0        3.316434   -1.849507   -0.098099
     26          1           0        1.713286   -2.488568    0.290267
     27          1           0        2.114613   -2.069784   -1.383389
 ---------------------------------------------------------------------

 SCF Done:  E(UHF) =  -870.489500198     A.U. after    2 cycles

 The electronic state is 2-A.
 Alpha  occ. eigenvalues --  -69.52290 -69.52290 -15.48403 -11.20808 -11.20805
 Alpha  occ. eigenvalues --  -11.20699 -11.20695 -11.20487 -11.20483  -6.19105
 Alpha  occ. eigenvalues --   -6.19028  -3.94481  -3.94434  -3.94401  -3.94401
 Alpha  occ. eigenvalues --   -3.94387  -3.94383  -1.13554  -0.96954  -0.96515
 Alpha  occ. eigenvalues --   -0.93218  -0.92586  -0.92558  -0.92258  -0.72019
 Alpha  occ. eigenvalues --   -0.61186  -0.59620  -0.58233  -0.57648  -0.56684
 Alpha  occ. eigenvalues --   -0.56623  -0.56305  -0.55871  -0.54989  -0.54643
 Alpha  occ. eigenvalues --   -0.54221  -0.53451  -0.53398  -0.52667  -0.50664
 Alpha  occ. eigenvalues --   -0.49678  -0.44489  -0.43718  -0.41728  -0.40985
 Alpha virt. eigenvalues --    0.03259   0.03436   0.03678   0.03956   0.04781
 Alpha virt. eigenvalues --    0.05203   0.05211   0.05625   0.05744   0.07779
 Alpha virt. eigenvalues --    0.08024   0.08034   0.08523   0.08670   0.09453

  Beta  occ. eigenvalues --  -69.52347 -69.52347 -15.45408 -11.20703 -11.20700
  Beta  occ. eigenvalues --  -11.20684 -11.20680 -11.20441 -11.20437  -6.19189
  Beta  occ. eigenvalues --   -6.19112  -3.94627  -3.94578  -3.94486  -3.94485
  Beta  occ. eigenvalues --   -3.94435  -3.94432  -1.03306  -0.96781  -0.94360
  Beta  occ. eigenvalues --   -0.92935  -0.92535  -0.92505  -0.91939  -0.70561
  Beta  occ. eigenvalues --   -0.60627  -0.58012  -0.57229  -0.56794  -0.56582
  Beta  occ. eigenvalues --   -0.56389  -0.56000  -0.54782  -0.54471  -0.54435
  Beta  occ. eigenvalues --   -0.54210  -0.53422  -0.53370  -0.49262  -0.47679
  Beta  occ. eigenvalues --   -0.44150  -0.43780  -0.43432  -0.39068
  Beta virt. eigenvalues --    0.02803   0.03270   0.03440   0.03966   0.04786
  Beta virt. eigenvalues --    0.04926   0.05206   0.05216   0.05723   0.05744
  Beta virt. eigenvalues --    0.07784   0.08024   0.08035   0.08537   0.08671

 Mulliken charges and spin densities:
               1          2
     1  N    0.086789   1.146708
     2  Si   2.008288  -0.129245
     3  Si   2.008289  -0.129246
     4  C   -0.621531   0.003106
     5  H   -0.040617   0.003541
     6  H   -0.015455  -0.000526
     7  H   -0.056041  -0.000041
     8  C   -0.555430   0.010083
     9  H   -0.027698   0.004845
    10  H   -0.014891  -0.002983
    11  H   -0.028082  -0.000008
    12  C   -0.618600   0.030904
    13  H   -0.033161   0.000929
    14  H   -0.029172   0.004447
    15  H   -0.011004   0.001596
    16  C   -0.555427   0.010083
    17  H   -0.014889  -0.002982
    18  H   -0.028082  -0.000008
    19  H   -0.027699   0.004845
    20  C   -0.621529   0.003105
    21  H   -0.040619   0.003541
    22  H   -0.015457  -0.000526
    23  H   -0.056040  -0.000041
    24  C   -0.618601   0.030903
    25  H   -0.033164   0.000928
    26  H   -0.029174   0.004447
    27  H   -0.011003   0.001596
 Sum of Mulliken charges =   0.00000   1.00000

 Dipole moment (field-independent basis, Debye):
    X=             -0.0000    Y=             -0.0000    Z=              0.7892  Tot=              0.7892
                          Isotropic Fermi Contact Couplings
        Atom                 a.u.       MegaHertz       Gauss      10(-4) cm-1
     1  N(14)              0.25826      83.44588      29.77556      27.83455
     2  Si(29)            -0.06422      57.07513      20.36583      19.03822
     3  Si(29)            -0.06422      57.07507      20.36580      19.03819
     4  C(13)             -0.00167      -1.87748      -0.66993      -0.62626
     5  H(1)              -0.00014      -0.61163      -0.21825      -0.20402
     6  H(1)              -0.00034      -1.52078      -0.54265      -0.50728
     7  H(1)              -0.00010      -0.44751      -0.15968      -0.14927
     8  C(13)              0.00874       9.82366       3.50533       3.27682

 Normal termination of Gaussian 16 at Tue Apr  8 22:45:39 2025.
