 Gaussian 16, Revision C.01,

 ----------------------------------------------------------------------
 #t hf aug-cc-pvdz symm=none int=(grid=ultrafine) guess=(read,tcheck) s
 table=(opt,rrhf)
 ----------------------------------------------------------------------
 -----
 title
 -----
 Symbolic Z-matrix:
 Charge =  0 Multiplicity = 1

 SCF Done:  E(RHF) =  -874.302177277     A.U. after   13 cycles
 Normal termination of Gaussian 16 at Tue Apr  8 22:46:31 2025.
 Gaussian 16:  ES64L-G16RevC.01  3-Jul-2019

 ----------------------------------------------------------------------
 #t hf aug-cc-pvdz iop(5/13=1,5/36=2,99/5=2) pseudo=read geom=check gue
 ss=(read,tcheck) scf=(maxcycle=1)
 ----------------------------------------------------------------------
 -----
 title
 -----
 Structure from the checkpoint file:  "BDE49_expt_1591_mol1.chk"
 Charge =  0 Multiplicity = 1

                         Standard orientation:
 ---------------------------------------------------------------------
 Center     Atomic      Atomic             Coordinates (Angstroms)
 Number     Number       Type             X           Y           Z
 ---------------------------------------------------------------------
      1          6           0        0.981697    1.638087    0.797075
      2         16           0        0.981697    0.340471   -0.494338
      3          1           0        1.982927    2.075740    0.778776
      4          1           0        0.794418    1.214724    1.783365
      5          1           0        0.245582    2.406190    0.564810
      6         16           0       -0.981697   -0.340471   -0.494338
      7          6           0       -0.981697   -1.638087    0.797075
      8          1           0       -1.982927   -2.075740    0.778776
      9          1           0       -0.794418   -1.214724    1.783365
     10          1           0       -0.245582   -2.406190    0.564810
 ---------------------------------------------------------------------

 SCF Done:  E(RHF) =  -874.514774165     A.U. after    2 cycles

 The electronic state is 1-A.
 Alpha  occ. eigenvalues --  -93.96885 -93.96878 -11.27140 -11.27139  -8.24821
 Alpha  occ. eigenvalues --   -8.24798  -6.22636  -6.22595  -6.22414  -6.22406
 Alpha  occ. eigenvalues --   -6.22183  -6.22183  -1.10939  -1.02385  -0.91705
 Alpha  occ. eigenvalues --   -0.81062  -0.61701  -0.60561  -0.60328  -0.58729
 Alpha  occ. eigenvalues --   -0.53725  -0.49824  -0.44543  -0.36517  -0.35821
 Alpha virt. eigenvalues --    0.03509   0.03967   0.05085   0.05312   0.06488
 Alpha virt. eigenvalues --    0.07792   0.08666   0.09437   0.12327   0.13716
 Alpha virt. eigenvalues --    0.14016   0.14550   0.15550   0.15697   0.16349

 Mulliken charges:
               1
     1  C   -0.699069
     2  S    0.107050
     3  H    0.182358
     4  H    0.188705
     5  H    0.220956
     6  S    0.107050
     7  C   -0.699069
     8  H    0.182358
     9  H    0.188705
    10  H    0.220956
 Sum of Mulliken charges =   0.00000

 Dipole moment (field-independent basis, Debye):
    X=              0.0000    Y=              0.0000    Z=              2.3241  Tot=              2.3241

 Test job not archived.
 1\1\GINC-SE095\SP\RHF\Aug-CC-pVDZ\C2H6S2\OHZDE\08-Apr-2025\0\\#t hf au
 g-cc-pvdz iop(5/13=1,5/36=2,99/5=2) pseudo=read geom=check guess=(read
 ,tcheck) scf=(maxcycle=1)\\title\\0,1\C,0,0.981697,1.638087,0.797075\S
 ,0,0.981697,0.340471,-0.494338\H,0,1.982927,2.07574,0.778776\H,0,0.794
 418,1.214724,1.783365\H,0,0.245582,2.40619,0.56481\S,0,-0.981697,-0.34
 0471,-0.494338\C,0,-0.981697,-1.638087,0.797075\H,0,-1.982927,-2.07574
 ,0.778776\H,0,-0.794418,-1.214724,1.783365\H,0,-0.245582,-2.40619,0.56
 481\\Version=ES64L-G16RevC.01\State=1-A\HF=-874.5147742\RMSD=4.659e-03

 Normal termination of Gaussian 16 at Tue Apr  8 22:46:33 2025.
