 Gaussian 16, Revision C.01,

 ----------------------------------------------------------------------
 #t hf aug-cc-pvdz symm=none int=(grid=ultrafine) guess=(read,tcheck) s
 table=(opt,rrhf)
 ----------------------------------------------------------------------
 -----
 title
 -----
 Symbolic Z-matrix:
 Charge =  0 Multiplicity = 1

 SCF Done:  E(RHF) =  -1200.56533473     A.U. after   15 cycles
 Normal termination of Gaussian 16 at Tue Apr  8 22:38:32 2025.
 Gaussian 16:  ES64L-G16RevC.01  3-Jul-2019

 ----------------------------------------------------------------------
 #t hf aug-cc-pvdz iop(5/13=1,5/36=2,99/5=2) pseudo=read geom=check gue
 ss=(read,tcheck) scf=(maxcycle=1)
 ----------------------------------------------------------------------
 -----
 title
 -----
 Structure from the checkpoint file:  "BDE49_expt_1241_mol1.chk"
 Charge =  0 Multiplicity = 1

                         Standard orientation:
 ---------------------------------------------------------------------
 Center     Atomic      Atomic             Coordinates (Angstroms)
 Number     Number       Type             X           Y           Z
 ---------------------------------------------------------------------
      1          6           0        0.225957    0.000003    0.321654
      2          7           0       -1.268097   -0.000048   -0.204874
      3          8           0       -1.427405   -0.000047   -1.401843
      4          8           0       -2.127763   -0.000038    0.654286
      5          6           0        0.270089    0.000008    1.830218
      6          1           0       -0.229198    0.887784    2.216209
      7          1           0        1.312733    0.000045    2.147110
      8          1           0       -0.229135   -0.887802    2.216213
      9         17           0        0.984973   -1.469542   -0.355178
     10         17           0        0.984871    1.469597   -0.355186
 ---------------------------------------------------------------------

 SCF Done:  E(RHF) =  -1200.98984569     A.U. after    2 cycles

 The electronic state is 1-A.
 Alpha  occ. eigenvalues -- -105.61230-105.61230 -20.61710 -20.61592 -15.81401
 Alpha  occ. eigenvalues --  -11.46326 -11.28492 -10.66056 -10.66029  -7.83001
 Alpha  occ. eigenvalues --   -7.82990  -7.82562  -7.82562  -7.82549  -7.82548
 Alpha  occ. eigenvalues --   -1.70048  -1.54167  -1.23249  -1.08800  -1.04594
 Alpha  occ. eigenvalues --   -1.01536  -0.85513  -0.77360  -0.77277  -0.76956
 Alpha  occ. eigenvalues --   -0.66569  -0.65145  -0.61346  -0.57745  -0.55476
 Alpha  occ. eigenvalues --   -0.51287  -0.50825  -0.50133  -0.48357  -0.48287
 Alpha  occ. eigenvalues --   -0.46862
 Alpha virt. eigenvalues --    0.03554   0.03640   0.05036   0.05536   0.06858
 Alpha virt. eigenvalues --    0.08546   0.08934   0.12149   0.12470   0.13485
 Alpha virt. eigenvalues --    0.13952   0.16113   0.16432   0.16808   0.17024

 Mulliken charges:
               1
     1  C   -1.114464
     2  N    2.586044
     3  O   -1.377293
     4  O   -1.252037
     5  C    0.287326
     6  H    0.243550
     7  H    0.194269
     8  H    0.243544
     9  Cl   0.094528
    10  Cl   0.094533
 Sum of Mulliken charges =   0.00000

 Dipole moment (field-independent basis, Debye):
    X=              2.1909    Y=              0.0001    Z=              2.4785  Tot=              3.3080

 Test job not archived.
 1\1\GINC-SE367\SP\RHF\Aug-CC-pVDZ\C2H3Cl2N1O2\OHZDE\08-Apr-2025\0\\#t
 hf aug-cc-pvdz iop(5/13=1,5/36=2,99/5=2) pseudo=read geom=check guess=
 (read,tcheck) scf=(maxcycle=1)\\title\\0,1\C,0,0.225957,0.000003,0.321
 654\N,0,-1.268097,-0.00005,-0.204874\O,0,-1.427405,-0.000049,-1.401843
 \O,0,-2.127763,-0.000041,0.654286\C,0,0.270089,0.000008,1.830218\H,0,-
 0.229199,0.887784,2.216209\H,0,1.312733,0.000047,2.14711\H,0,-0.229134
 ,-0.887802,2.216213\Cl,0,0.984975,-1.469541,-0.355178\Cl,0,0.984869,1.
 469598,-0.355186\\Version=ES64L-G16RevC.01\State=1-A\HF=-1200.9898457\

 Normal termination of Gaussian 16 at Tue Apr  8 22:38:36 2025.
