 Gaussian 16, Revision C.01,

 ----------------------------------------------------------------------
 #t hf aug-cc-pvdz symm=none int=(grid=ultrafine) guess=(read,tcheck) s
 table=opt
 ----------------------------------------------------------------------
 -----
 title
 -----
 Symbolic Z-matrix:
 Charge =  0 Multiplicity = 2

 SCF Done:  E(UHF) =  -622.616397172     A.U. after   20 cycles
 Normal termination of Gaussian 16 at Tue Apr  8 22:46:28 2025.
 Gaussian 16:  ES64L-G16RevC.01  3-Jul-2019

 ----------------------------------------------------------------------
 #t hf aug-cc-pvdz iop(5/13=1,5/36=2,99/5=2) pseudo=read geom=check gue
 ss=(read,tcheck) scf=(maxcycle=1)
 ----------------------------------------------------------------------
 -----
 title
 -----
 Structure from the checkpoint file:  "BDE49_expt_1596_mol2.chk"
 Charge =  0 Multiplicity = 2

                         Standard orientation:
 ---------------------------------------------------------------------
 Center     Atomic      Atomic             Coordinates (Angstroms)
 Number     Number       Type             X           Y           Z
 ---------------------------------------------------------------------
      1         16           0       -0.142855    0.066672    0.253968
      2          8           0        1.220510   -0.799481   -0.108017
      3          8           0        0.069803    1.437927   -0.188172
      4          8           0       -1.250024   -0.749911   -0.197072
      5          1           0        1.963374   -0.175029   -0.117400
 ---------------------------------------------------------------------

 SCF Done:  E(UHF) =  -622.890542394     A.U. after    2 cycles

 The electronic state is 2-A.
 Alpha  occ. eigenvalues --  -94.24303 -20.65481 -20.61319 -20.61259  -8.49621
 Alpha  occ. eigenvalues --   -6.47924  -6.47314  -6.47145  -1.63901  -1.52148
 Alpha  occ. eigenvalues --   -1.50988  -0.96225  -0.78951  -0.73809  -0.72985
 Alpha  occ. eigenvalues --   -0.67859  -0.60397  -0.56915  -0.55376  -0.52724
 Alpha  occ. eigenvalues --   -0.45791
 Alpha virt. eigenvalues --    0.03152   0.08041   0.08942   0.09244   0.13317
 Alpha virt. eigenvalues --    0.16555   0.18496   0.19551   0.20405   0.21270
 Alpha virt. eigenvalues --    0.22256   0.25592   0.26542   0.26967   0.27736

  Beta  occ. eigenvalues --  -94.23878 -20.64735 -20.59926 -20.59868  -8.49035
  Beta  occ. eigenvalues --   -6.47332  -6.47132  -6.46030  -1.61074  -1.49404
  Beta  occ. eigenvalues --   -1.46963  -0.90604  -0.76189  -0.70561  -0.67824
  Beta  occ. eigenvalues --   -0.64368  -0.55166  -0.54374  -0.51513  -0.48215
  Beta virt. eigenvalues --   -0.01756   0.03621   0.08465   0.09148   0.09515
  Beta virt. eigenvalues --    0.14262   0.17402   0.18743   0.20406   0.20929
  Beta virt. eigenvalues --    0.21841   0.23532   0.26234   0.27061   0.28008

 Mulliken charges and spin densities:
               1          2
     1  S    2.982076   0.348945
     2  O   -1.134148   0.121051
     3  O   -1.158912   0.259353
     4  O   -1.120205   0.288269
     5  H    0.431189  -0.017619
 Sum of Mulliken charges =  -0.00000   1.00000

 Dipole moment (field-independent basis, Debye):
    X=              2.5753    Y=              0.1258    Z=              1.1700  Tot=              2.8314
                          Isotropic Fermi Contact Couplings
        Atom                 a.u.       MegaHertz       Gauss      10(-4) cm-1
     1  S(33)              0.72178     247.91201      88.46117      82.69454
     2  O(17)              0.07852     -47.59570     -16.98333     -15.87622
     3  O(17)              0.07588     -45.99810     -16.41326     -15.34331
     4  O(17)              0.08108     -49.14842     -17.53738     -16.39415
     5  H(1)              -0.00331     -14.78859      -5.27694      -4.93294
 --------------------------------------------------------
       Center         ----  Spin Dipole Couplings  ----
                      3XX-RR        3YY-RR        3ZZ-RR

 Normal termination of Gaussian 16 at Tue Apr  8 22:46:30 2025.
