 Gaussian 16, Revision C.01,

 ----------------------------------------------------------------------
 #t hf aug-cc-pvdz symm=none int=(grid=ultrafine) guess=(read,tcheck) s
 table=(opt,rrhf)
 ----------------------------------------------------------------------
 -----
 title
 -----
 Symbolic Z-matrix:
 Charge =  0 Multiplicity = 1

 SCF Done:  E(RHF) =  -1752.59203245     A.U. after   12 cycles

 1\1\GINC-SE219\Stability\RHF\Aug-CC-pVDZ\C2Cl3F3\OHZDE\08-Apr-2025\0\\
 #t hf aug-cc-pvdz symm=none int=(grid=ultrafine) guess=(read,tcheck) s
 table=(opt,rrhf)\\title\\0,1\C,0,1.178002,-0.000015,0.00005\C,0,-0.386
 851,0.000007,0.000001\F,0,1.642457,0.893267,-0.877192\F,0,1.642406,-1.
 206384,-0.334942\F,0,1.642386,0.313035,1.21231\Cl,0,-0.962578,1.627554
 ,0.451214\Cl,0,-0.962687,-1.204552,1.183812\Cl,0,-0.962508,-0.422956,-
 1.635137\\Version=ES64L-G16RevC.01\HF=-1752.5920324\RMSD=6.296e-09\Dip
 ole=-0.2884976,0.0000063,0.0000099\Quadrupole=-0.8188557,0.4094954,0.4

 Normal termination of Gaussian 16 at Tue Apr  8 22:28:26 2025.
 Gaussian 16:  ES64L-G16RevC.01  3-Jul-2019

 ----------------------------------------------------------------------
 #t hf aug-cc-pvdz iop(5/13=1,5/36=2,99/5=2) pseudo=read geom=check gue
 ss=(read,tcheck) scf=(maxcycle=1)
 ----------------------------------------------------------------------
 -----
 title
 -----
 Structure from the checkpoint file:  "BDE49_expt_1000_mol1.chk"
 Charge =  0 Multiplicity = 1

                         Standard orientation:
 ---------------------------------------------------------------------
 Center     Atomic      Atomic             Coordinates (Angstroms)
 Number     Number       Type             X           Y           Z
 ---------------------------------------------------------------------
      1          6           0       -1.178002   -0.000013   -0.000050
      2          6           0        0.386851    0.000007   -0.000001
      3          9           0       -1.642457    0.865876    0.904241
      4          9           0       -1.642406   -1.216111    0.297695
      5          9           0       -1.642386    0.350159   -1.202112
      6         17           0        0.962578    1.640657   -0.400963
      7         17           0        0.962687   -1.167587   -1.220286
      8         17           0        0.962508   -0.473027    1.621360
 ---------------------------------------------------------------------

 SCF Done:  E(RHF) =  -1753.15820309     A.U. after    2 cycles

 The electronic state is 1-A.
 Alpha  occ. eigenvalues -- -105.61728-105.61728-105.61728 -26.53484 -26.53484
 Alpha  occ. eigenvalues --  -26.53479 -11.56451 -11.48155 -10.66558 -10.66558
 Alpha  occ. eigenvalues --  -10.66537  -7.83506  -7.83506  -7.83494  -7.83052
 Alpha  occ. eigenvalues --   -7.83052  -7.83050  -7.83044  -7.83041  -7.83041
 Alpha  occ. eigenvalues --   -1.74862  -1.64579  -1.64579  -1.24511  -1.09265
 Alpha  occ. eigenvalues --   -1.09265  -1.01646  -0.90052  -0.84203  -0.84203
 Alpha  occ. eigenvalues --   -0.78268  -0.71865  -0.71865  -0.67184  -0.67183
 Alpha  occ. eigenvalues --   -0.64752  -0.64419  -0.64419  -0.63419  -0.53319
 Alpha  occ. eigenvalues --   -0.53319  -0.50365  -0.49200  -0.49199  -0.47806
 Alpha virt. eigenvalues --    0.05726   0.07811   0.07811   0.08057   0.08878
 Alpha virt. eigenvalues --    0.11100   0.11100   0.13025   0.13026   0.13707
 Alpha virt. eigenvalues --    0.16521   0.16521   0.16789   0.18395   0.18566

 Mulliken charges:
               1
     1  C    2.912733
     2  C   -1.254398
     3  F   -0.689538
     4  F   -0.689540
     5  F   -0.689545
     6  Cl   0.136760
     7  Cl   0.136763
     8  Cl   0.136767
 Sum of Mulliken charges =  -0.00000

 Dipole moment (field-independent basis, Debye):
    X=              0.5550    Y=              0.0000    Z=             -0.0000  Tot=              0.5550

 Test job not archived.
 1\1\GINC-SE219\SP\RHF\Aug-CC-pVDZ\C2Cl3F3\OHZDE\08-Apr-2025\0\\#t hf a
 ug-cc-pvdz iop(5/13=1,5/36=2,99/5=2) pseudo=read geom=check guess=(rea
 d,tcheck) scf=(maxcycle=1)\\title\\0,1\C,0,1.178002,-0.000015,0.00005\
 C,0,-0.386851,0.000007,0.000001\F,0,1.642457,0.893267,-0.877192\F,0,1.
 642406,-1.206384,-0.334942\F,0,1.642386,0.313035,1.21231\Cl,0,-0.96257
 8,1.627554,0.451214\Cl,0,-0.962687,-1.204552,1.183812\Cl,0,-0.962508,-
 0.422956,-1.635137\\Version=ES64L-G16RevC.01\State=1-A\HF=-1753.158203
 1\RMSD=5.082e-03\Dipole=-0.2183484,0.0000044,0.0000105\Quadrupole=-0.7

 Normal termination of Gaussian 16 at Tue Apr  8 22:28:31 2025.
