 Gaussian 16, Revision C.01,

 ----------------------------------------------------------------------
 #t hf aug-cc-pvdz symm=none int=(grid=ultrafine) guess=(read,tcheck) s
 table=(opt,rrhf)
 ----------------------------------------------------------------------
 -----
 title
 -----
 Symbolic Z-matrix:
 Charge =  0 Multiplicity = 1

 SCF Done:  E(RHF) =  -684.422839598     A.U. after   16 cycles

 1\1\GINC-SE038\Stability\RHF\Aug-CC-pVDZ\Cl1H1O3\OHZDE\08-Apr-2025\0\\
 #t hf aug-cc-pvdz symm=none int=(grid=ultrafine) guess=(read,tcheck) s
 table=(opt,rrhf)\\title\\0,1\Cl,0,1.433611,-0.256271,0.038151\O,0,0.00
 2981,0.81202,-0.326615\O,0,-1.066786,0.476904,0.432666\O,0,-1.794423,-
 0.575987,-0.223605\H,0,-1.505563,-1.346891,0.291873\\Version=ES64L-G16
 RevC.01\HF=-684.4228396\RMSD=4.737e-09\Dipole=0.1502533,-0.7455004,0.3
 492051\Quadrupole=-0.5939751,1.6673668,-1.0733917,1.0666512,-0.791504,
 -1.0031092\PG=Unknown\\@

 Normal termination of Gaussian 16 at Tue Apr  8 23:17:49 2025.
 Gaussian 16:  ES64L-G16RevC.01  3-Jul-2019

 ----------------------------------------------------------------------
 #t hf aug-cc-pvdz iop(5/13=1,5/36=2,99/5=2) pseudo=read geom=check gue
 ss=(read,tcheck) scf=(maxcycle=1)
 ----------------------------------------------------------------------
 -----
 title
 -----
 Structure from the checkpoint file:  "BDE49_nonexpt_1048_mol1.chk"
 Charge =  0 Multiplicity = 1

                         Standard orientation:
 ---------------------------------------------------------------------
 Center     Atomic      Atomic             Coordinates (Angstroms)
 Number     Number       Type             X           Y           Z
 ---------------------------------------------------------------------
      1         17           0        1.433611   -0.256271    0.038151
      2          8           0        0.002981    0.812020   -0.326615
      3          8           0       -1.066786    0.476904    0.432666
      4          8           0       -1.794423   -0.575987   -0.223605
      5          1           0       -1.505563   -1.346891    0.291873
 ---------------------------------------------------------------------

 SCF Done:  E(RHF) =  -684.709889830     A.U. after    2 cycles

 The electronic state is 1-A.
 Alpha  occ. eigenvalues -- -105.64026 -20.72378 -20.72031 -20.65916 -10.68243
 Alpha  occ. eigenvalues --   -7.85183  -7.84673  -7.84641  -1.72573  -1.48776
 Alpha  occ. eigenvalues --   -1.22247  -1.03242  -0.77814  -0.73087  -0.72215
 Alpha  occ. eigenvalues --   -0.64258  -0.56668  -0.54311  -0.50332  -0.49655
 Alpha  occ. eigenvalues --   -0.47584
 Alpha virt. eigenvalues --    0.02655   0.03932   0.11254   0.11955   0.13217
 Alpha virt. eigenvalues --    0.14807   0.16181   0.16979   0.19757   0.21707
 Alpha virt. eigenvalues --    0.22056   0.24089   0.26619   0.27334   0.27830

 Mulliken charges:
               1
     1  Cl   0.249259
     2  O   -0.373084
     3  O    0.126428
     4  O   -0.442168
     5  H    0.439565
 Sum of Mulliken charges =   0.00000

 Dipole moment (field-independent basis, Debye):
    X=              0.1464    Y=             -1.7061    Z=              0.8300  Tot=              1.9029

 Test job not archived.
 1\1\GINC-SE038\SP\RHF\Aug-CC-pVDZ\Cl1H1O3\OHZDE\08-Apr-2025\0\\#t hf a
 ug-cc-pvdz iop(5/13=1,5/36=2,99/5=2) pseudo=read geom=check guess=(rea
 d,tcheck) scf=(maxcycle=1)\\title\\0,1\Cl,0,1.433611,-0.256271,0.03815
 1\O,0,0.002981,0.81202,-0.326615\O,0,-1.066786,0.476904,0.432666\O,0,-
 1.794423,-0.575987,-0.223605\H,0,-1.505563,-1.346891,0.291873\\Version
 =ES64L-G16RevC.01\State=1-A\HF=-684.7098898\RMSD=9.848e-03\Dipole=0.05
 76004,-0.6712166,0.3265381\Quadrupole=-0.7324188,1.7386713,-1.0062525,
 1.1063006,-0.7936851,-1.0059282\PG=C01 [X(Cl1H1O3)]\\@

 Normal termination of Gaussian 16 at Tue Apr  8 23:17:51 2025.
