 Gaussian 16, Revision C.01,

 ----------------------------------------------------------------------
 #t hf aug-cc-pvdz symm=none int=(grid=ultrafine) guess=(read,tcheck) s
 table=(opt,rrhf)
 ----------------------------------------------------------------------
 -----
 title
 -----
 Symbolic Z-matrix:
 Charge =  0 Multiplicity = 1

 SCF Done:  E(RHF) =  -705.863842876     A.U. after   14 cycles
 Normal termination of Gaussian 16 at Tue Apr  8 22:38:31 2025.
 Gaussian 16:  ES64L-G16RevC.01  3-Jul-2019

 ----------------------------------------------------------------------
 #t hf aug-cc-pvdz iop(5/13=1,5/36=2,99/5=2) pseudo=read geom=check gue
 ss=(read,tcheck) scf=(maxcycle=1)
 ----------------------------------------------------------------------
 -----
 title
 -----
 Structure from the checkpoint file:  "BDE49_expt_1233_mol1.chk"
 Charge =  0 Multiplicity = 1

                         Standard orientation:
 ---------------------------------------------------------------------
 Center     Atomic      Atomic             Coordinates (Angstroms)
 Number     Number       Type             X           Y           Z
 ---------------------------------------------------------------------
      1          6           0        0.252350   -0.347447    0.000007
      2          7           0       -1.193817   -0.812576   -0.000042
      3          8           0       -2.036004    0.028981   -0.000065
      4          6           0        0.866448   -0.916003   -1.277327
      5          1           0        0.395068   -0.478916   -2.158760
      6          1           0        0.724338   -1.998986   -1.300525
      7          6           0        0.866364   -0.916011    1.277377
      8         17           0        0.389803    1.463604    0.000017
      9          1           0        0.724253   -1.998994    1.300559
     10          1           0        0.394927   -0.478930    2.158783
     11          1           0        1.934226   -0.696251    1.303657
     12          1           0        1.934312   -0.696243   -1.303534
 ---------------------------------------------------------------------

 SCF Done:  E(RHF) =  -706.188257926     A.U. after    2 cycles

 The electronic state is 1-A.
 Alpha  occ. eigenvalues -- -105.56418 -20.63434 -15.65760 -11.35715 -11.26183
 Alpha  occ. eigenvalues --  -11.26155 -10.61230  -7.78164  -7.77792  -7.77788
 Alpha  occ. eigenvalues --   -1.61998  -1.17950  -1.03544  -0.98147  -0.98060
 Alpha  occ. eigenvalues --   -0.80779  -0.71504  -0.71268  -0.66443  -0.63251
 Alpha  occ. eigenvalues --   -0.59848  -0.58750  -0.57347  -0.53888  -0.52550
 Alpha  occ. eigenvalues --   -0.46406  -0.45550  -0.42197
 Alpha virt. eigenvalues --    0.03501   0.04282   0.04717   0.05240   0.06134
 Alpha virt. eigenvalues --    0.06928   0.07521   0.08898   0.10955   0.12475
 Alpha virt. eigenvalues --    0.13775   0.14265   0.15759   0.16151   0.16560

 Mulliken charges:
               1
     1  C   -1.958521
     2  N    1.360579
     3  O   -1.001722
     4  C    0.143650
     5  H    0.151682
     6  H    0.262131
     7  C    0.143651
     8  Cl  -0.020130
     9  H    0.262130
    10  H    0.151682
    11  H    0.252434
    12  H    0.252435
 Sum of Mulliken charges =  -0.00000

 Dipole moment (field-independent basis, Debye):
    X=              2.1849    Y=             -1.6485    Z=              0.0001  Tot=              2.7370

 Test job not archived.
 1\1\GINC-SE339\SP\RHF\Aug-CC-pVDZ\C3H6Cl1N1O1\OHZDE\08-Apr-2025\0\\#t
 hf aug-cc-pvdz iop(5/13=1,5/36=2,99/5=2) pseudo=read geom=check guess=
 (read,tcheck) scf=(maxcycle=1)\\title\\0,1\C,0,0.252349,-0.347448,0.00
 0007\N,0,-1.193819,-0.812573,-0.000042\O,0,-2.036004,0.028986,-0.00006
 5\C,0,0.866446,-0.916005,-1.277327\H,0,0.395067,-0.478917,-2.15876\H,0
 ,0.724333,-1.998988,-1.300525\C,0,0.866362,-0.916013,1.277377\Cl,0,0.3
 89806,1.463603,0.000017\H,0,0.724248,-1.998996,1.300559\H,0,0.394926,-
 0.478931,2.158783\H,0,1.934224,-0.696256,1.303657\H,0,1.93431,-0.69624

 Normal termination of Gaussian 16 at Tue Apr  8 22:38:35 2025.
