 Gaussian 16, Revision C.01,

 ----------------------------------------------------------------------
 #t hf aug-cc-pvdz symm=none int=(grid=ultrafine) guess=(read,tcheck) s
 table=(opt,rrhf)
 ----------------------------------------------------------------------
 -----
 title
 -----
 Symbolic Z-matrix:
 Charge =  0 Multiplicity = 1

 SCF Done:  E(RHF) =  -1007.80452929     A.U. after   14 cycles
 Normal termination of Gaussian 16 at Wed Apr  9 00:22:39 2025.
 Gaussian 16:  ES64L-G16RevC.01  3-Jul-2019

 ----------------------------------------------------------------------
 #t hf aug-cc-pvdz iop(5/13=1,5/36=2,99/5=2) pseudo=read geom=check gue
 ss=(read,tcheck) scf=(maxcycle=1)
 ----------------------------------------------------------------------
 -----
 title
 -----
 Structure from the checkpoint file:  "BDE49_nonexpt_2664_mol1.chk"
 Charge =  0 Multiplicity = 1

                         Standard orientation:
 ---------------------------------------------------------------------
 Center     Atomic      Atomic             Coordinates (Angstroms)
 Number     Number       Type             X           Y           Z
 ---------------------------------------------------------------------
      1          9           0        1.567329   -1.169673   -0.000043
      2         16           0        1.299817    0.481322    0.000027
      3          6           0       -0.483644    0.623224    0.000149
      4          8           0       -0.900338    1.748433   -0.000078
      5         16           0       -1.517792   -0.823909   -0.000022
      6          1           0       -0.513796   -1.718367    0.000037
 ---------------------------------------------------------------------

 SCF Done:  E(RHF) =  -1008.11614740     A.U. after    2 cycles

 The electronic state is 1-A.
 Alpha  occ. eigenvalues --  -94.08019 -94.00864 -26.51085 -20.58828 -11.43603
 Alpha  occ. eigenvalues --   -8.35367  -8.29048  -6.33130  -6.32825  -6.32529
 Alpha  occ. eigenvalues --   -6.26868  -6.26722  -6.26493  -1.61055  -1.53502
 Alpha  occ. eigenvalues --   -1.11597  -1.04730  -0.80267  -0.73930  -0.69299
 Alpha  occ. eigenvalues --   -0.69265  -0.65937  -0.61358  -0.59616  -0.55080
 Alpha  occ. eigenvalues --   -0.44350  -0.42842  -0.42336
 Alpha virt. eigenvalues --    0.03698   0.05834   0.06746   0.07815   0.08163
 Alpha virt. eigenvalues --    0.09671   0.11179   0.11893   0.12971   0.13552
 Alpha virt. eigenvalues --    0.14747   0.15392   0.16438   0.17151   0.19923

 Mulliken charges:
               1
     1  F   -0.702685
     2  S    1.102864
     3  C    0.007148
     4  O   -0.937661
     5  S    0.106764
     6  H    0.423569
 Sum of Mulliken charges =  -0.00000

 Dipole moment (field-independent basis, Debye):
    X=              0.6440    Y=             -1.7930    Z=              0.0003  Tot=              1.9052

 Test job not archived.
 1\1\GINC-SE165\SP\RHF\Aug-CC-pVDZ\C1H1F1O1S2\OHZDE\09-Apr-2025\0\\#t h
 f aug-cc-pvdz iop(5/13=1,5/36=2,99/5=2) pseudo=read geom=check guess=(
 read,tcheck) scf=(maxcycle=1)\\title\\0,1\F,0,1.567329,-1.169673,-0.00
 0043\S,0,1.299817,0.481322,0.000027\C,0,-0.483644,0.623224,0.000149\O,
 0,-0.900338,1.748434,-0.000078\S,0,-1.517792,-0.823908,-0.000022\H,0,-
 0.513797,-1.718367,0.000037\\Version=ES64L-G16RevC.01\State=1-A\HF=-10
 08.1161474\RMSD=5.819e-03\Dipole=0.2533586,-0.7054291,0.0001225\Quadru
 pole=0.3020858,-0.1442028,-0.1578829,2.990818,-0.0000926,0.0004373\PG=

 Normal termination of Gaussian 16 at Wed Apr  9 00:22:41 2025.
