 Gaussian 16, Revision C.01,

 ----------------------------------------------------------------------
 #t hf aug-cc-pvdz symm=none int=(grid=ultrafine) guess=(read,tcheck) s
 table=(opt,rrhf)
 ----------------------------------------------------------------------
 -----
 title
 -----
 Symbolic Z-matrix:
 Charge =  0 Multiplicity = 1

 SCF Done:  E(RHF) =  -1031.74589200     A.U. after   12 cycles

 1\1\GINC-SE096\Stability\RHF\Aug-CC-pVDZ\C1Cl2O1\OHZDE\08-Apr-2025\0\\
 #t hf aug-cc-pvdz symm=none int=(grid=ultrafine) guess=(read,tcheck) s
 table=(opt,rrhf)\\title\\0,1\C,0,0.000001,0.507678,0.00065\O,0,-0.0004
 03,1.679588,-0.000109\Cl,0,-1.461396,-0.484927,-0.000086\Cl,0,1.461585
 ,-0.484647,-0.000092\\Version=ES64L-G16RevC.01\HF=-1031.745892\RMSD=8.
 453e-09\Dipole=0.0004587,-0.5426726,0.0004434\Quadrupole=1.4304011,-2.
 1860064,0.7556053,0.0002228,-0.0000014,0.0017833\PG=Unknown\\@
 The archive entry for this job was punched.

 Normal termination of Gaussian 16 at Tue Apr  8 22:49:29 2025.
 Gaussian 16:  ES64L-G16RevC.01  3-Jul-2019

 ----------------------------------------------------------------------
 #t hf aug-cc-pvdz iop(5/13=1,5/36=2,99/5=2) pseudo=read geom=check gue
 ss=(read,tcheck) scf=(maxcycle=1)
 ----------------------------------------------------------------------
 -----
 title
 -----
 Structure from the checkpoint file:  "BDE49_expt_1708_mol1.chk"
 Charge =  0 Multiplicity = 1

                         Standard orientation:
 ---------------------------------------------------------------------
 Center     Atomic      Atomic             Coordinates (Angstroms)
 Number     Number       Type             X           Y           Z
 ---------------------------------------------------------------------
      1          6           0        0.000001    0.507678    0.000650
      2          8           0       -0.000403    1.679588   -0.000109
      3         17           0       -1.461396   -0.484928   -0.000086
      4         17           0        1.461585   -0.484647   -0.000092
 ---------------------------------------------------------------------

 SCF Done:  E(RHF) =  -1032.00173143     A.U. after    2 cycles

 The electronic state is 1-A.
 Alpha  occ. eigenvalues -- -105.62121-105.62117 -20.61969 -11.49028 -10.66965
 Alpha  occ. eigenvalues --  -10.66960  -7.83910  -7.83897  -7.83475  -7.83471
 Alpha  occ. eigenvalues --   -7.83451  -7.83447  -1.57626  -1.16826  -1.09648
 Alpha  occ. eigenvalues --   -0.81699  -0.71549  -0.71033  -0.65634  -0.53997
 Alpha  occ. eigenvalues --   -0.51154  -0.50639  -0.49865  -0.48338
 Alpha virt. eigenvalues --    0.05637   0.08062   0.08699   0.09051   0.10396
 Alpha virt. eigenvalues --    0.11029   0.12692   0.14434   0.15146   0.15433
 Alpha virt. eigenvalues --    0.17515   0.18036   0.25956   0.26217   0.28175

 Mulliken charges:
               1
     1  C    0.478238
     2  O   -0.732401
     3  Cl   0.127007
     4  Cl   0.127155
 Sum of Mulliken charges =  -0.00000

 Dipole moment (field-independent basis, Debye):
    X=              0.0011    Y=             -1.1850    Z=              0.0010  Tot=              1.1850

 Test job not archived.
 1\1\GINC-SE096\SP\RHF\Aug-CC-pVDZ\C1Cl2O1\OHZDE\08-Apr-2025\0\\#t hf a
 ug-cc-pvdz iop(5/13=1,5/36=2,99/5=2) pseudo=read geom=check guess=(rea
 d,tcheck) scf=(maxcycle=1)\\title\\0,1\C,0,0.000001,0.507678,0.00065\O
 ,0,-0.000403,1.679588,-0.000109\Cl,0,-1.461396,-0.484927,-0.000086\Cl,
 0,1.461585,-0.484647,-0.000092\\Version=ES64L-G16RevC.01\State=1-A\HF=
 -1032.0017314\RMSD=5.874e-03\Dipole=0.0004292,-0.4662297,0.0003949\Qua
 drupole=1.3458505,-1.9766675,0.630817,0.0001297,-0.0000014,0.0016887\P
 G=C01 [X(C1Cl2O1)]\\@

 Normal termination of Gaussian 16 at Tue Apr  8 22:49:31 2025.
