 Gaussian 16, Revision C.01,

 ----------------------------------------------------------------------
 #t hf aug-cc-pvdz symm=none int=(grid=ultrafine) guess=(read,tcheck) s
 table=(opt,rrhf)
 ----------------------------------------------------------------------
 -----
 title
 -----
 Symbolic Z-matrix:
 Charge =  0 Multiplicity = 1

 SCF Done:  E(RHF) =  -803.541924721     A.U. after   17 cycles
 Normal termination of Gaussian 16 at Tue Apr  8 22:42:27 2025.
 Gaussian 16:  ES64L-G16RevC.01  3-Jul-2019

 ----------------------------------------------------------------------
 #t hf aug-cc-pvdz iop(5/13=1,5/36=2,99/5=2) pseudo=read geom=check gue
 ss=(read,tcheck) scf=(maxcycle=1)
 ----------------------------------------------------------------------
 -----
 title
 -----
 Structure from the checkpoint file:  "BDE49_expt_1402_mol1.chk"
 Charge =  0 Multiplicity = 1

                         Standard orientation:
 ---------------------------------------------------------------------
 Center     Atomic      Atomic             Coordinates (Angstroms)
 Number     Number       Type             X           Y           Z
 ---------------------------------------------------------------------
      1          6           0        2.304945   -0.934502   -0.000006
      2          6           0        1.855194    0.385285   -0.000005
      3          6           0        0.495456    0.658106   -0.000002
      4          6           0        1.380032   -1.971190   -0.000005
      5          6           0        0.011996   -1.701065   -0.000002
      6          6           0       -0.451939   -0.381953    0.000000
      7          1           0        3.368112   -1.141156   -0.000008
      8          1           0        2.554847    1.211436   -0.000006
      9         17           0       -0.054486    2.319423    0.000000
     10          1           0        1.714967   -3.001949   -0.000006
     11          1           0       -0.692613   -2.521542   -0.000001
     12          8           0       -1.757920   -0.022257    0.000002
     13          6           0       -2.746405   -1.043321    0.000012
     14          1           0       -3.703104   -0.524418    0.000018
     15          1           0       -2.674128   -1.671336    0.894704
     16          1           0       -2.674142   -1.671339   -0.894679
 ---------------------------------------------------------------------

 SCF Done:  E(RHF) =  -803.969803799     A.U. after    2 cycles

 The electronic state is 1-A.
 Alpha  occ. eigenvalues -- -105.56462 -20.58212 -11.32432 -11.30330 -11.30264
 Alpha  occ. eigenvalues --  -11.25960 -11.25738 -11.25160 -11.24683 -10.61244
 Alpha  occ. eigenvalues --   -7.78215  -7.77810  -7.77796  -1.50969  -1.17814
 Alpha  occ. eigenvalues --   -1.09514  -1.03295  -0.99450  -0.95464  -0.84437
 Alpha  occ. eigenvalues --   -0.82837  -0.73666  -0.69564  -0.67457  -0.66695
 Alpha  occ. eigenvalues --   -0.64030  -0.60637  -0.59646  -0.56082  -0.54784
 Alpha  occ. eigenvalues --   -0.53988  -0.49950  -0.49159  -0.47156  -0.45589
 Alpha  occ. eigenvalues --   -0.35353  -0.32580
 Alpha virt. eigenvalues --    0.03111   0.03466   0.04032   0.05118   0.05263
 Alpha virt. eigenvalues --    0.06281   0.08527   0.08833   0.09226   0.10703
 Alpha virt. eigenvalues --    0.11154   0.12352   0.13077   0.13197   0.13514

 Mulliken charges:
               1
     1  C    0.421660
     2  C    0.285900
     3  C   -0.128906
     4  C    0.163417
     5  C    0.209306
     6  C    1.725737
     7  H   -0.211322
     8  H   -0.159431
     9  Cl  -0.311929
    10  H   -0.220032
    11  H   -0.452138
    12  O   -1.795397
    13  C    0.148150
    14  H   -0.031095
    15  H    0.178041
    16  H    0.178040
 Sum of Mulliken charges =  -0.00000

 Dipole moment (field-independent basis, Debye):
    X=             -0.3627    Y=             -3.0130    Z=              0.0000  Tot=              3.0348

 Test job not archived.
 1\1\GINC-SE423\SP\RHF\Aug-CC-pVDZ\C7H7Cl1O1\OHZDE\08-Apr-2025\0\\#t hf
  aug-cc-pvdz iop(5/13=1,5/36=2,99/5=2) pseudo=read geom=check guess=(r
 ead,tcheck) scf=(maxcycle=1)\\title\\0,1\C,0,2.304946,-0.934501,-0.000
 006\C,0,1.855194,0.385286,-0.000005\C,0,0.495456,0.658106,-0.000002\C,
 0,1.380033,-1.971189,-0.000005\C,0,0.011997,-1.701065,-0.000002\C,0,-0
 .451939,-0.381953,0.\H,0,3.368113,-1.141154,-0.000008\H,0,2.554846,1.2
 11437,-0.000006\Cl,0,-0.054487,2.319423,0.\H,0,1.714969,-3.001948,-0.0
 00006\H,0,-0.692611,-2.521543,-0.000001\O,0,-1.75792,-0.022258,0.00000

 Normal termination of Gaussian 16 at Tue Apr  8 22:42:36 2025.
