 Gaussian 16, Revision C.01,

 ----------------------------------------------------------------------
 #t hf aug-cc-pvdz symm=none int=(grid=ultrafine) guess=(read,tcheck) s
 table=(opt,rrhf)
 ----------------------------------------------------------------------
 -----
 title
 -----
 Symbolic Z-matrix:
 Charge =  0 Multiplicity = 1

 SCF Done:  E(RHF) =  -841.672882994     A.U. after   13 cycles
 Normal termination of Gaussian 16 at Tue Apr  8 23:54:33 2025.
 Gaussian 16:  ES64L-G16RevC.01  3-Jul-2019

 ----------------------------------------------------------------------
 #t hf aug-cc-pvdz iop(5/13=1,5/36=2,99/5=2) pseudo=read geom=check gue
 ss=(read,tcheck) scf=(maxcycle=1)
 ----------------------------------------------------------------------
 -----
 title
 -----
 Structure from the checkpoint file:  "BDE49_nonexpt_1964_mol1.chk"
 Charge =  0 Multiplicity = 1

                         Standard orientation:
 ---------------------------------------------------------------------
 Center     Atomic      Atomic             Coordinates (Angstroms)
 Number     Number       Type             X           Y           Z
 ---------------------------------------------------------------------
      1         14           0       -1.912015   -0.066795   -0.288473
      2          6           0       -0.525293   -0.475301    0.951449
      3          1           0       -2.289541    1.355785   -0.231847
      4          1           0       -3.075041   -0.888098    0.131581
      5          1           0       -1.537419   -0.468763   -1.660077
      6         16           0        1.075422    0.273572    0.444750
      7          8           0        0.714941    1.431476   -0.440877
      8          6           0        1.632918   -1.079778   -0.653565
      9          1           0        1.843475   -1.968339   -0.054916
     10          1           0        2.548556   -0.725041   -1.127041
     11          1           0        0.876042   -1.280177   -1.412547
     12          1           0       -0.399759   -1.551654    1.094177
     13          1           0       -0.770137   -0.037077    1.923002
 ---------------------------------------------------------------------

 SCF Done:  E(RHF) =  -841.931599819     A.U. after    2 cycles

 The electronic state is 1-A.
 Alpha  occ. eigenvalues --  -94.07394 -69.53683 -20.49660 -11.27778 -11.26694
 Alpha  occ. eigenvalues --   -8.34173  -6.32023  -6.31898  -6.31678  -6.20671
 Alpha  occ. eigenvalues --   -3.96069  -3.96047  -3.96032  -1.43252  -1.08192
 Alpha  occ. eigenvalues --   -0.98113  -0.84474  -0.73024  -0.64804  -0.63609
 Alpha  occ. eigenvalues --   -0.62605  -0.57700  -0.56215  -0.54178  -0.48917
 Alpha  occ. eigenvalues --   -0.48454  -0.47537  -0.41545  -0.36634
 Alpha virt. eigenvalues --    0.02888   0.03797   0.04010   0.04648   0.06201
 Alpha virt. eigenvalues --    0.06999   0.07206   0.08144   0.08907   0.10303
 Alpha virt. eigenvalues --    0.10578   0.10980   0.12586   0.13589   0.14570

 Mulliken charges:
               1
     1  Si   0.970849
     2  C   -0.885137
     3  H   -0.089213
     4  H   -0.196639
     5  H   -0.189389
     6  S    1.683453
     7  O   -1.492278
     8  C   -0.675275
     9  H    0.248187
    10  H    0.183303
    11  H    0.199143
    12  H    0.094989
    13  H    0.148008
 Sum of Mulliken charges =  -0.00000

 Dipole moment (field-independent basis, Debye):
    X=              0.1901    Y=             -3.9377    Z=              1.2578  Tot=              4.1381

 Test job not archived.
 1\1\GINC-SE455\SP\RHF\Aug-CC-pVDZ\C2H8O1S1Si1\OHZDE\08-Apr-2025\0\\#t
 hf aug-cc-pvdz iop(5/13=1,5/36=2,99/5=2) pseudo=read geom=check guess=
 (read,tcheck) scf=(maxcycle=1)\\title\\0,1\Si,0,-1.912015,-0.066795,-0
 .288473\C,0,-0.525293,-0.475301,0.951449\H,0,-2.289541,1.355785,-0.231
 847\H,0,-3.075041,-0.888098,0.131581\H,0,-1.537419,-0.468763,-1.660077
 \S,0,1.075422,0.273572,0.44475\O,0,0.714941,1.431476,-0.440877\C,0,1.6
 32918,-1.079778,-0.653565\H,0,1.843475,-1.968339,-0.054916\H,0,2.54855
 6,-0.725041,-1.127041\H,0,0.876042,-1.280177,-1.412547\H,0,-0.399759,-

 Normal termination of Gaussian 16 at Tue Apr  8 23:54:37 2025.
