 Gaussian 16, Revision C.01,

 ----------------------------------------------------------------------
 #t hf aug-cc-pvdz symm=none int=(grid=ultrafine) guess=(read,tcheck) s
 table=(opt,rrhf)
 ----------------------------------------------------------------------
 -----
 title
 -----
 Symbolic Z-matrix:
 Charge =  0 Multiplicity = 1

 SCF Done:  E(RHF) =  -849.162417607     A.U. after   11 cycles
 Normal termination of Gaussian 16 at Tue Apr  8 23:47:12 2025.
 Gaussian 16:  ES64L-G16RevC.01  3-Jul-2019

 ----------------------------------------------------------------------
 #t hf aug-cc-pvdz iop(5/13=1,5/36=2,99/5=2) pseudo=read geom=check gue
 ss=(read,tcheck) scf=(maxcycle=1)
 ----------------------------------------------------------------------
 -----
 title
 -----
 Structure from the checkpoint file:  "BDE49_nonexpt_1789_mol1.chk"
 Charge =  0 Multiplicity = 1

                         Standard orientation:
 ---------------------------------------------------------------------
 Center     Atomic      Atomic             Coordinates (Angstroms)
 Number     Number       Type             X           Y           Z
 ---------------------------------------------------------------------
      1         14           0        0.560102    0.513938    0.000014
      2          9           0        1.558447   -0.736619   -0.000005
      3         17           0       -1.377806   -0.183985   -0.000010
      4          1           0        0.777607    1.281078   -1.232700
      5          1           0        0.777636    1.281106    1.232706
 ---------------------------------------------------------------------

 SCF Done:  E(RHF) =  -849.363897304     A.U. after    2 cycles

 The electronic state is 1-A.
 Alpha  occ. eigenvalues -- -105.57366 -69.63710 -26.47145 -10.62445  -7.79324
 Alpha  occ. eigenvalues --   -7.79005  -7.78995  -6.29891  -4.05341  -4.05194
 Alpha  occ. eigenvalues --   -4.05044  -1.58463  -1.07206  -0.78636  -0.66783
 Alpha  occ. eigenvalues --   -0.66592  -0.65261  -0.54344  -0.54120  -0.49261
 Alpha  occ. eigenvalues --   -0.47199
 Alpha virt. eigenvalues --    0.04227   0.05052   0.05258   0.05820   0.09031
 Alpha virt. eigenvalues --    0.11123   0.14010   0.14595   0.15531   0.16399
 Alpha virt. eigenvalues --    0.17081   0.20353   0.21387   0.25566   0.25713

 Mulliken charges:
               1
     1  Si   1.733483
     2  F   -0.814070
     3  Cl  -0.503773
     4  H   -0.207820
     5  H   -0.207820
 Sum of Mulliken charges =  -0.00000

 Dipole moment (field-independent basis, Debye):
    X=              0.5178    Y=              1.5938    Z=              0.0001  Tot=              1.6758

 Test job not archived.
 1\1\GINC-SE368\SP\RHF\Aug-CC-pVDZ\Cl1F1H2Si1\OHZDE\08-Apr-2025\0\\#t h
 f aug-cc-pvdz iop(5/13=1,5/36=2,99/5=2) pseudo=read geom=check guess=(
 read,tcheck) scf=(maxcycle=1)\\title\\0,1\Si,0,-0.560102,0.513938,-0.0
 00014\F,0,-1.558447,-0.736619,0.000005\Cl,0,1.377806,-0.183985,0.00001
 \H,0,-0.777607,1.281078,1.2327\H,0,-0.777636,1.281106,-1.232706\\Versi
 on=ES64L-G16RevC.01\State=1-A\HF=-849.3638973\RMSD=3.923e-03\Dipole=-0
 .2037076,0.6270612,-0.0000402\Quadrupole=-1.1101141,0.4897946,0.620319
 5,-1.5065269,0.0000747,-0.0000558\PG=C01 [X(Cl1F1H2Si1)]\\@

 Normal termination of Gaussian 16 at Tue Apr  8 23:47:13 2025.
