 Gaussian 16, Revision C.01,

 ----------------------------------------------------------------------
 #t hf aug-cc-pvdz symm=none int=(grid=ultrafine) guess=(read,tcheck) s
 table=(opt,rrhf)
 ----------------------------------------------------------------------
 -----
 title
 -----
 Symbolic Z-matrix:
 Charge =  0 Multiplicity = 1

 SCF Done:  E(RHF) =  -750.398297366     A.U. after   15 cycles
 Normal termination of Gaussian 16 at Tue Apr  8 23:17:34 2025.
 Gaussian 16:  ES64L-G16RevC.01  3-Jul-2019

 ----------------------------------------------------------------------
 #t hf aug-cc-pvdz iop(5/13=1,5/36=2,99/5=2) pseudo=read geom=check gue
 ss=(read,tcheck) scf=(maxcycle=1)
 ----------------------------------------------------------------------
 -----
 title
 -----
 Structure from the checkpoint file:  "BDE49_expt_813_mol1.chk"
 Charge =  0 Multiplicity = 1

                         Standard orientation:
 ---------------------------------------------------------------------
 Center     Atomic      Atomic             Coordinates (Angstroms)
 Number     Number       Type             X           Y           Z
 ---------------------------------------------------------------------
      1          6           0        3.922723   -1.043201   -0.177817
      2          6           0        3.831634    0.036016    0.697624
      3          6           0        2.659854    0.788779    0.755531
      4          6           0        2.838857   -1.367801   -0.992604
      5          6           0        1.670514   -0.613161   -0.931482
      6          6           0        1.558401    0.481771   -0.058421
      7          1           0        4.832728   -1.631297   -0.223795
      8          1           0        4.670377    0.290170    1.336525
      9          1           0        2.602414    1.624531    1.445826
     10          1           0        2.904444   -2.209383   -1.673582
     11          1           0        0.833888   -0.885010   -1.567655
     12          6           0       -3.831613    0.035995   -0.697665
     13          1           0       -4.670340    0.290124   -1.336597
     14          6           0       -2.659831    0.788754   -0.755571
     15          6           0       -3.922726   -1.043187    0.177817
     16          1           0       -2.602373    1.624480   -1.445897
     17          1           0       -4.832733   -1.631281    0.223795
     18          6           0       -1.558400    0.481778    0.058421
     19          6           0       -2.838882   -1.367755    0.992646
     20          6           0       -1.670537   -0.613119    0.931524
     21          1           0       -2.904488   -2.209310    1.673656
     22          1           0       -0.833928   -0.884943    1.567730
     23         14           0        0.000003    1.530465   -0.000001
     24          1           0       -0.103584    2.403101   -1.196805
     25          1           0        0.103593    2.403105    1.196799
 ---------------------------------------------------------------------

 SCF Done:  E(RHF) =  -750.906098287     A.U. after    2 cycles

 The electronic state is 1-A.
 Alpha  occ. eigenvalues --  -69.52603 -11.24829 -11.24827 -11.24813 -11.24813
 Alpha  occ. eigenvalues --  -11.24756 -11.24755 -11.24417 -11.24413 -11.24398
 Alpha  occ. eigenvalues --  -11.24397 -11.23119 -11.23119  -6.19644  -3.95008
 Alpha  occ. eigenvalues --   -3.95003  -3.95000  -1.15432  -1.15183  -1.02241
 Alpha  occ. eigenvalues --   -1.01724  -1.01715  -1.01133  -0.84487  -0.83410
 Alpha  occ. eigenvalues --   -0.83348  -0.82449  -0.75007  -0.71449  -0.68388
 Alpha  occ. eigenvalues --   -0.64218  -0.64182  -0.63862  -0.63175  -0.60035
 Alpha  occ. eigenvalues --   -0.60031  -0.57103  -0.55405  -0.51764  -0.51397
 Alpha  occ. eigenvalues --   -0.50519  -0.50491  -0.47691  -0.46503  -0.45397
 Alpha  occ. eigenvalues --   -0.35235  -0.34822  -0.34660  -0.34085
 Alpha virt. eigenvalues --    0.03273   0.03365   0.03575   0.03707   0.04286
 Alpha virt. eigenvalues --    0.05064   0.05360   0.05424   0.06628   0.07137
 Alpha virt. eigenvalues --    0.07912   0.08304   0.08926   0.09183   0.09653

 Mulliken charges:
               1
     1  C    0.376174
     2  C    0.407727
     3  C    0.162862
     4  C    0.330896
     5  C    0.451117
     6  C   -0.506824
     7  H   -0.214104
     8  H   -0.221738
     9  H   -0.320145
    10  H   -0.239596
    11  H   -0.427632
    12  C    0.407713
    13  H   -0.221739
    14  C    0.162868
    15  C    0.376179
    16  H   -0.320141
    17  H   -0.214104
    18  C   -0.506825
    19  C    0.330897
    20  C    0.451133
    21  H   -0.239595
    22  H   -0.427638
    23  Si   0.726683
    24  H   -0.162085
    25  H   -0.162083
 Sum of Mulliken charges =  -0.00000

 Dipole moment (field-independent basis, Debye):
    X=             -0.0000    Y=             -0.9436    Z=              0.0000  Tot=              0.9436

 Test job not archived.
 1\1\GINC-SE094\SP\RHF\Aug-CC-pVDZ\C12H12Si1\OHZDE\08-Apr-2025\0\\#t hf
  aug-cc-pvdz iop(5/13=1,5/36=2,99/5=2) pseudo=read geom=check guess=(r
 ead,tcheck) scf=(maxcycle=1)\\title\\0,1\C,0,3.922723,-1.043201,-0.177
 817\C,0,3.831634,0.036016,0.697624\C,0,2.659854,0.788779,0.755531\C,0,
 2.838857,-1.367801,-0.992604\C,0,1.670514,-0.613161,-0.931482\C,0,1.55
 8401,0.481771,-0.058421\H,0,4.832728,-1.631297,-0.223795\H,0,4.670377,
 0.29017,1.336525\H,0,2.602414,1.624531,1.445826\H,0,2.904444,-2.209383
 ,-1.673582\H,0,0.833888,-0.88501,-1.567655\C,0,-3.831613,0.035995,-0.6

 Normal termination of Gaussian 16 at Tue Apr  8 23:17:57 2025.
