 Gaussian 16, Revision C.01,

 ----------------------------------------------------------------------
 #t hf aug-cc-pvdz symm=none int=(grid=ultrafine) guess=(read,tcheck) s
 table=(opt,rrhf)
 ----------------------------------------------------------------------
 -----
 title
 -----
 Symbolic Z-matrix:
 Charge =  0 Multiplicity = 1

 SCF Done:  E(RHF) =  -798.721590166     A.U. after   16 cycles
 Normal termination of Gaussian 16 at Tue Apr  8 23:31:23 2025.
 Gaussian 16:  ES64L-G16RevC.01  3-Jul-2019

 ----------------------------------------------------------------------
 #t hf aug-cc-pvdz iop(5/13=1,5/36=2,99/5=2) pseudo=read geom=check gue
 ss=(read,tcheck) scf=(maxcycle=1)
 ----------------------------------------------------------------------
 -----
 title
 -----
 Structure from the checkpoint file:  "BDE49_nonexpt_1348_mol1.chk"
 Charge =  0 Multiplicity = 1

                         Standard orientation:
 ---------------------------------------------------------------------
 Center     Atomic      Atomic             Coordinates (Angstroms)
 Number     Number       Type             X           Y           Z
 ---------------------------------------------------------------------
      1          6           0       -2.364169   -0.679870   -0.344330
      2          6           0       -2.015901    0.779131   -0.569617
      3          8           0       -3.417198   -1.051152    0.092598
      4          8           0       -1.399383   -1.582545   -0.663514
      5         15           0       -0.782246    1.551493    0.632261
      6          1           0       -2.938218    1.353461   -0.479890
      7          1           0       -1.614304    0.940098   -1.574649
      8          6           0        0.749685    0.575837    0.308233
      9          1           0       -0.575593   -1.132976   -0.893236
     10          6           0        1.141139   -0.526212    1.084082
     11          6           0        1.602516    1.006572   -0.721306
     12          6           0        2.796820    0.341054   -0.983679
     13          6           0        3.173270   -0.750981   -0.203339
     14          6           0        2.346520   -1.178788    0.833007
     15          1           0        2.634430   -2.026771    1.443919
     16          1           0        0.499138   -0.879599    1.882351
     17          1           0        1.335814    1.877333   -1.312217
     18          1           0        3.439985    0.684307   -1.786064
     19          1           0        4.108292   -1.262937   -0.399638
     20          1           0       -1.202491    0.843800    1.784522
 ---------------------------------------------------------------------

 SCF Done:  E(RHF) =  -799.227963842     A.U. after    2 cycles

 The electronic state is 1-A.
 Alpha  occ. eigenvalues --  -84.29964 -20.59476 -20.53122 -11.39464 -11.27332
 Alpha  occ. eigenvalues --  -11.27207 -11.27015 -11.26890 -11.26683 -11.26526
 Alpha  occ. eigenvalues --  -11.26418  -6.76929  -4.29930  -4.29416  -4.28923
 Alpha  occ. eigenvalues --   -1.53795  -1.45074  -1.17823  -1.06262  -1.03984
 Alpha  occ. eigenvalues --   -1.02869  -0.88423  -0.85749  -0.83137  -0.80596
 Alpha  occ. eigenvalues --   -0.73115  -0.71671  -0.67460  -0.66554  -0.65653
 Alpha  occ. eigenvalues --   -0.62843  -0.62150  -0.61107  -0.57997  -0.55673
 Alpha  occ. eigenvalues --   -0.53924  -0.52789  -0.49797  -0.49167  -0.46465
 Alpha  occ. eigenvalues --   -0.44628  -0.39068  -0.36899  -0.33720
 Alpha virt. eigenvalues --    0.02640   0.03093   0.03733   0.04535   0.04843
 Alpha virt. eigenvalues --    0.05502   0.06520   0.07130   0.07446   0.08143
 Alpha virt. eigenvalues --    0.08446   0.08680   0.09871   0.10659   0.11674

 Mulliken charges:
               1
     1  C    2.094885
     2  C   -0.813890
     3  O   -1.253724
     4  O   -1.332008
     5  P    0.203083
     6  H    0.070037
     7  H    0.196633
     8  C    0.374968
     9  H    0.586959
    10  C    0.308107
    11  C   -0.350187
    12  C    0.303055
    13  C    0.240754
    14  C    0.220986
    15  H   -0.227877
    16  H   -0.330697
    17  H   -0.250302
    18  H   -0.211190
    19  H   -0.203502
    20  H    0.373908
 Sum of Mulliken charges =  -0.00000

 Dipole moment (field-independent basis, Debye):
    X=              4.4261    Y=              2.0635    Z=             -1.1106  Tot=              5.0082

 Test job not archived.
 1\1\GINC-SE336\SP\RHF\Aug-CC-pVDZ\C8H9O2P1\OHZDE\08-Apr-2025\0\\#t hf
 aug-cc-pvdz iop(5/13=1,5/36=2,99/5=2) pseudo=read geom=check guess=(re
 ad,tcheck) scf=(maxcycle=1)\\title\\0,1\C,0,-2.364169,-0.67987,-0.3443
 3\C,0,-2.015901,0.779131,-0.569617\O,0,-3.417198,-1.051152,0.092598\O,
 0,-1.399383,-1.582545,-0.663514\P,0,-0.782246,1.551493,0.632261\H,0,-2
 .938218,1.353461,-0.47989\H,0,-1.614304,0.940098,-1.574649\C,0,0.74968
 5,0.575837,0.308233\H,0,-0.575593,-1.132976,-0.893236\C,0,1.141139,-0.
 526212,1.084082\C,0,1.602516,1.006572,-0.721306\C,0,2.79682,0.341054,-

 Normal termination of Gaussian 16 at Tue Apr  8 23:31:36 2025.
