 Gaussian 16, Revision C.01,

 ----------------------------------------------------------------------
 #t hf aug-cc-pvdz symm=none int=(grid=ultrafine) guess=(read,tcheck) s
 table=(opt,rrhf)
 ----------------------------------------------------------------------
 -----
 title
 -----
 Symbolic Z-matrix:
 Charge =  0 Multiplicity = 1

 SCF Done:  E(RHF) =  -756.907221370     A.U. after   18 cycles
 Normal termination of Gaussian 16 at Tue Apr  8 22:54:27 2025.
 Gaussian 16:  ES64L-G16RevC.01  3-Jul-2019

 ----------------------------------------------------------------------
 #t hf aug-cc-pvdz iop(5/13=1,5/36=2,99/5=2) pseudo=read geom=check gue
 ss=(read,tcheck) scf=(maxcycle=1)
 ----------------------------------------------------------------------
 -----
 title
 -----
 Structure from the checkpoint file:  "BDE49_expt_1824_mol1.chk"
 Charge =  0 Multiplicity = 1

                         Standard orientation:
 ---------------------------------------------------------------------
 Center     Atomic      Atomic             Coordinates (Angstroms)
 Number     Number       Type             X           Y           Z
 ---------------------------------------------------------------------
      1          7           0        2.536763   -0.016947    0.726003
      2          8           0        1.839900   -0.040737    1.656557
      3         16           0        1.645807    0.025451   -1.009685
      4          6           0       -0.047920    0.012473   -0.508557
      5          6           0       -0.714120   -1.204174   -0.308946
      6          6           0       -2.038477   -1.211100    0.117434
      7          6           0       -2.703883   -0.009509    0.355536
      8          6           0       -2.041561    1.202920    0.169368
      9          6           0       -0.717177    1.217717   -0.256685
     10          1           0       -0.196762    2.156319   -0.402809
     11          1           0       -3.736072   -0.017951    0.686585
     12          1           0       -2.555934    2.138348    0.357828
     13          1           0       -0.191407   -2.134296   -0.495497
     14          1           0       -2.550449   -2.155075    0.265473
 ---------------------------------------------------------------------

 SCF Done:  E(RHF) =  -757.315345915     A.U. after    2 cycles

 The electronic state is 1-A.
 Alpha  occ. eigenvalues --  -93.97834 -20.66208 -15.70374 -11.28200 -11.26386
 Alpha  occ. eigenvalues --  -11.26383 -11.26276 -11.25706 -11.25691  -8.25743
 Alpha  occ. eigenvalues --   -6.23504  -6.23341  -6.23123  -1.66937  -1.17828
 Alpha  occ. eigenvalues --   -1.08904  -1.03469  -1.01512  -0.92403  -0.85333
 Alpha  occ. eigenvalues --   -0.82440  -0.74240  -0.72519  -0.70794  -0.67178
 Alpha  occ. eigenvalues --   -0.65803  -0.64777  -0.61687  -0.57628  -0.53075
 Alpha  occ. eigenvalues --   -0.52435  -0.49479  -0.40885  -0.38835  -0.36128
 Alpha  occ. eigenvalues --   -0.35293
 Alpha virt. eigenvalues --    0.03220   0.03580   0.04153   0.04705   0.05465
 Alpha virt. eigenvalues --    0.05776   0.06218   0.08243   0.08928   0.09262
 Alpha virt. eigenvalues --    0.10908   0.11940   0.12218   0.13308   0.13419

 Mulliken charges:
               1
     1  N    0.664868
     2  O   -0.870475
     3  S    0.119234
     4  C    0.724066
     5  C   -0.103753
     6  C    0.253381
     7  C    0.085318
     8  C    0.254989
     9  C   -0.109298
    10  H   -0.197983
    11  H   -0.200085
    12  H   -0.210695
    13  H   -0.198778
    14  H   -0.210788
 Sum of Mulliken charges =  -0.00000

 Dipole moment (field-independent basis, Debye):
    X=             -2.8641    Y=             -0.0082    Z=              0.2932  Tot=              2.8791

 Test job not archived.
 1\1\GINC-SE404\SP\RHF\Aug-CC-pVDZ\C6H5N1O1S1\OHZDE\08-Apr-2025\0\\#t h
 f aug-cc-pvdz iop(5/13=1,5/36=2,99/5=2) pseudo=read geom=check guess=(
 read,tcheck) scf=(maxcycle=1)\\title\\0,1\N,0,2.536763,-0.016947,0.726
 003\O,0,1.8399,-0.040737,1.656557\S,0,1.645807,0.025451,-1.009685\C,0,
 -0.04792,0.012473,-0.508557\C,0,-0.71412,-1.204174,-0.308946\C,0,-2.03
 8477,-1.2111,0.117434\C,0,-2.703883,-0.009509,0.355536\C,0,-2.041561,1
 .20292,0.169368\C,0,-0.717177,1.217717,-0.256685\H,0,-0.196762,2.15631
 9,-0.402809\H,0,-3.736072,-0.017951,0.686585\H,0,-2.555934,2.138348,0.

 Normal termination of Gaussian 16 at Tue Apr  8 22:54:33 2025.
