 Gaussian 16, Revision C.01,

 ----------------------------------------------------------------------
 #t hf aug-cc-pvdz symm=none int=(grid=ultrafine) guess=(read,tcheck) s
 table=(opt,rrhf)
 ----------------------------------------------------------------------
 -----
 title
 -----
 Symbolic Z-matrix:
 Charge =  0 Multiplicity = 1

 SCF Done:  E(RHF) =  -1069.19136312     A.U. after   14 cycles
 Normal termination of Gaussian 16 at Wed Apr  9 00:21:37 2025.
 Gaussian 16:  ES64L-G16RevC.01  3-Jul-2019

 ----------------------------------------------------------------------
 #t hf aug-cc-pvdz iop(5/13=1,5/36=2,99/5=2) pseudo=read geom=check gue
 ss=(read,tcheck) scf=(maxcycle=1)
 ----------------------------------------------------------------------
 -----
 title
 -----
 Structure from the checkpoint file:  "BDE49_nonexpt_2649_mol1.chk"
 Charge =  0 Multiplicity = 1

                         Standard orientation:
 ---------------------------------------------------------------------
 Center     Atomic      Atomic             Coordinates (Angstroms)
 Number     Number       Type             X           Y           Z
 ---------------------------------------------------------------------
      1          9           0       -2.290400    0.123040    0.000154
      2         16           0       -0.891175   -0.748928   -0.000170
      3          6           0        0.280266    0.541128   -0.000057
      4          8           0        0.167503    1.710468   -0.000043
      5         17           0        1.873575   -0.356178    0.000119
 ---------------------------------------------------------------------

 SCF Done:  E(RHF) =  -1069.51927444     A.U. after    2 cycles

 The electronic state is 1-A.
 Alpha  occ. eigenvalues -- -105.61539 -94.10121 -26.51509 -20.61888 -11.47182
 Alpha  occ. eigenvalues --  -10.66343  -8.37426  -7.83262  -7.82876  -7.82860
 Alpha  occ. eigenvalues --   -6.35179  -6.34886  -6.34582  -1.62065  -1.56899
 Alpha  occ. eigenvalues --   -1.15993  -1.06043  -0.82318  -0.74140  -0.71743
 Alpha  occ. eigenvalues --   -0.70240  -0.66818  -0.64059  -0.60758  -0.51419
 Alpha  occ. eigenvalues --   -0.50829  -0.47449  -0.44044
 Alpha virt. eigenvalues --    0.04819   0.05691   0.07836   0.08046   0.09743
 Alpha virt. eigenvalues --    0.10683   0.11264   0.12431   0.13082   0.13773
 Alpha virt. eigenvalues --    0.15360   0.16611   0.18026   0.22813   0.25096

 Mulliken charges:
               1
     1  F   -0.651740
     2  S    1.259291
     3  C    0.161472
     4  O   -0.774272
     5  Cl   0.005249
 Sum of Mulliken charges =   0.00000

 Dipole moment (field-independent basis, Debye):
    X=              0.1263    Y=             -1.8141    Z=             -0.0003  Tot=              1.8185

 Test job not archived.
 1\1\GINC-SE072\SP\RHF\Aug-CC-pVDZ\C1Cl1F1O1S1\OHZDE\09-Apr-2025\0\\#t
 hf aug-cc-pvdz iop(5/13=1,5/36=2,99/5=2) pseudo=read geom=check guess=
 (read,tcheck) scf=(maxcycle=1)\\title\\0,1\F,0,-2.2904,0.123041,0.0001
 54\S,0,-0.891175,-0.748928,-0.00017\C,0,0.280266,0.541128,-0.000057\O,
 0,0.167503,1.710468,-0.000043\Cl,0,1.873575,-0.356178,0.000119\\Versio
 n=ES64L-G16RevC.01\State=1-A\HF=-1069.5192744\RMSD=5.491e-03\Dipole=0.
 0496709,-0.7137345,-0.0001088\Quadrupole=0.0042027,-0.8314438,0.827241
 ,0.6286005,0.000329,0.0002169\PG=C01 [X(C1Cl1F1O1S1)]\\@

 Normal termination of Gaussian 16 at Wed Apr  9 00:21:39 2025.
