 Gaussian 16, Revision C.01,

 ----------------------------------------------------------------------
 #t hf aug-cc-pvdz symm=none int=(grid=ultrafine) guess=(read,tcheck) s
 table=opt
 ----------------------------------------------------------------------
 -----
 title
 -----
 Symbolic Z-matrix:
 Charge =  0 Multiplicity = 2

 SCF Done:  E(UHF) =  -466.027784313     A.U. after   18 cycles
 Normal termination of Gaussian 16 at Wed Apr  9 00:31:13 2025.
 Gaussian 16:  ES64L-G16RevC.01  3-Jul-2019

 ----------------------------------------------------------------------
 #t hf aug-cc-pvdz iop(5/13=1,5/36=2,99/5=2) pseudo=read geom=check gue
 ss=(read,tcheck) scf=(maxcycle=1)
 ----------------------------------------------------------------------
 -----
 title
 -----
 Structure from the checkpoint file:  "BDE49_nonexpt_361_mol2.chk"
 Charge =  0 Multiplicity = 2

                         Standard orientation:
 ---------------------------------------------------------------------
 Center     Atomic      Atomic             Coordinates (Angstroms)
 Number     Number       Type             X           Y           Z
 ---------------------------------------------------------------------
      1          9           0        1.759791   -0.181455   -0.002983
      2          5           0        0.697299    0.586155    0.050418
      3         15           0       -1.106355   -0.069954   -0.119675
      4          1           0       -1.698695    0.877997    0.743404
      5          1           0       -1.030594   -1.126368    0.826477
 ---------------------------------------------------------------------

 SCF Done:  E(UHF) =  -466.182419523     A.U. after    2 cycles

 The electronic state is 2-A.
 Alpha  occ. eigenvalues --  -84.27958 -26.49543  -7.70429  -6.75342  -4.27755
 Alpha  occ. eigenvalues --   -4.27624  -4.26979  -1.62794  -0.89812  -0.78607
 Alpha  occ. eigenvalues --   -0.70181  -0.67553  -0.55497  -0.51826  -0.39509
 Alpha  occ. eigenvalues --   -0.32393
 Alpha virt. eigenvalues --    0.03895   0.04747   0.05089   0.05661   0.07672
 Alpha virt. eigenvalues --    0.08767   0.09389   0.10921   0.12201   0.14327
 Alpha virt. eigenvalues --    0.17951   0.19791   0.21964   0.23082   0.24961

  Beta  occ. eigenvalues --  -84.27853 -26.49216  -7.68594  -6.75200  -4.27563
  Beta  occ. eigenvalues --   -4.27399  -4.26785  -1.61922  -0.88289  -0.77330
  Beta  occ. eigenvalues --   -0.67505  -0.67022  -0.52587  -0.49874  -0.37005
  Beta virt. eigenvalues --    0.02997   0.05020   0.05226   0.05720   0.07429
  Beta virt. eigenvalues --    0.08596   0.09333   0.10655   0.11653   0.13546
  Beta virt. eigenvalues --    0.16150   0.18238   0.21090   0.22396   0.23849

 Mulliken charges and spin densities:
               1          2
     1  F   -0.420564  -0.025799
     2  B    0.689235   0.983912
     3  P   -0.995337   0.079818
     4  H    0.388662  -0.034902
     5  H    0.338003  -0.003030
 Sum of Mulliken charges =  -0.00000   1.00000

 Dipole moment (field-independent basis, Debye):
    X=             -0.8602    Y=             -0.2254    Z=              0.3868  Tot=              0.9697
                          Isotropic Fermi Contact Couplings
        Atom                 a.u.       MegaHertz       Gauss      10(-4) cm-1
     1  F(19)              0.06015     253.09479      90.31051      84.42333
     2  B(11)              0.28761     412.53847     147.20398     137.60802
     3  P(31)              0.06039     109.37082      39.02623      36.48218
     4  H(1)               0.00058       2.59692       0.92665       0.86624
     5  H(1)               0.00322      14.39495       5.13648       4.80164
 --------------------------------------------------------
       Center         ----  Spin Dipole Couplings  ----
                      3XX-RR        3YY-RR        3ZZ-RR

 Normal termination of Gaussian 16 at Wed Apr  9 00:31:14 2025.
