 Gaussian 16, Revision C.01,

 ----------------------------------------------------------------------
 #t hf aug-cc-pvdz symm=none int=(grid=ultrafine) guess=(read,tcheck) s
 table=(opt,rrhf)
 ----------------------------------------------------------------------
 -----
 title
 -----
 Symbolic Z-matrix:
 Charge =  0 Multiplicity = 1

 SCF Done:  E(RHF) =  -479.951684434     A.U. after   14 cycles
 Normal termination of Gaussian 16 at Tue Apr  8 23:57:22 2025.
 Gaussian 16:  ES64L-G16RevC.01  3-Jul-2019

 ----------------------------------------------------------------------
 #t hf aug-cc-pvdz iop(5/13=1,5/36=2,99/5=2) pseudo=read geom=check gue
 ss=(read,tcheck) scf=(maxcycle=1)
 ----------------------------------------------------------------------
 -----
 title
 -----
 Structure from the checkpoint file:  "BDE49_nonexpt_2043_mol1.chk"
 Charge =  0 Multiplicity = 1

                         Standard orientation:
 ---------------------------------------------------------------------
 Center     Atomic      Atomic             Coordinates (Angstroms)
 Number     Number       Type             X           Y           Z
 ---------------------------------------------------------------------
      1         14           0        1.494487   -0.127067    0.107798
      2          8           0        0.056214    0.699998   -0.175360
      3          8           0       -0.940694   -0.332543   -0.495330
      4          6           0       -2.075272   -0.039795    0.302222
      5          1           0       -2.813306   -0.789985    0.008216
      6          1           0       -2.453707    0.962438    0.082801
      7          1           0       -1.851720   -0.133752    1.369652
      8          1           0        2.441999    0.971114    0.387670
      9          1           0        1.915026   -0.901936   -1.077629
     10          1           0        1.366363   -1.029814    1.272305
 ---------------------------------------------------------------------

 SCF Done:  E(RHF) =  -480.175394976     A.U. after    2 cycles

 The electronic state is 1-A.
 Alpha  occ. eigenvalues --  -69.56457 -20.62107 -20.59559 -11.29546  -6.23100
 Alpha  occ. eigenvalues --   -3.98586  -3.98453  -3.98407  -1.57039  -1.28905
 Alpha  occ. eigenvalues --   -0.92847  -0.76286  -0.67122  -0.65583  -0.65074
 Alpha  occ. eigenvalues --   -0.56639  -0.54464  -0.51806  -0.48543  -0.47290
 Alpha  occ. eigenvalues --   -0.43331
 Alpha virt. eigenvalues --    0.03741   0.04383   0.04973   0.05578   0.06752
 Alpha virt. eigenvalues --    0.07405   0.07626   0.09457   0.09976   0.12321
 Alpha virt. eigenvalues --    0.14947   0.15034   0.16065   0.16461   0.17731

 Mulliken charges:
               1
     1  Si   1.520453
     2  O   -0.887228
     3  O   -0.763698
     4  C    0.408904
     5  H    0.052963
     6  H    0.138480
     7  H    0.131216
     8  H   -0.187525
     9  H   -0.210769
    10  H   -0.202797
 Sum of Mulliken charges =  -0.00000

 Dipole moment (field-independent basis, Debye):
    X=             -0.5639    Y=             -0.5056    Z=              1.0933  Tot=              1.3300

 Test job not archived.
 1\1\GINC-SE367\SP\RHF\Aug-CC-pVDZ\C1H6O2Si1\OHZDE\08-Apr-2025\0\\#t hf
  aug-cc-pvdz iop(5/13=1,5/36=2,99/5=2) pseudo=read geom=check guess=(r
 ead,tcheck) scf=(maxcycle=1)\\title\\0,1\Si,0,-1.494487,-0.127067,-0.1
 07798\O,0,-0.056214,0.699998,0.17536\O,0,0.940694,-0.332543,0.49533\C,
 0,2.075272,-0.039795,-0.302222\H,0,2.813306,-0.789985,-0.008216\H,0,2.
 453707,0.962438,-0.082801\H,0,1.85172,-0.133752,-1.369652\H,0,-2.44199
 9,0.971114,-0.38767\H,0,-1.915026,-0.901936,1.077629\H,0,-1.366363,-1.
 029814,-1.272305\\Version=ES64L-G16RevC.01\State=1-A\HF=-480.175395\RM

 Normal termination of Gaussian 16 at Tue Apr  8 23:57:25 2025.
