 Gaussian 16, Revision C.01,

 ----------------------------------------------------------------------
 #t hf aug-cc-pvdz symm=none int=(grid=ultrafine) guess=(read,tcheck) s
 table=(opt,rrhf)
 ----------------------------------------------------------------------
 -----
 title
 -----
 Symbolic Z-matrix:
 Charge =  0 Multiplicity = 1

 SCF Done:  E(RHF) =  -720.156280850     A.U. after   12 cycles
 Normal termination of Gaussian 16 at Tue Apr  8 23:39:34 2025.
 Gaussian 16:  ES64L-G16RevC.01  3-Jul-2019

 ----------------------------------------------------------------------
 #t hf aug-cc-pvdz iop(5/13=1,5/36=2,99/5=2) pseudo=read geom=check gue
 ss=(read,tcheck) scf=(maxcycle=1)
 ----------------------------------------------------------------------
 -----
 title
 -----
 Structure from the checkpoint file:  "BDE49_nonexpt_1592_mol1.chk"
 Charge =  0 Multiplicity = 1

                         Standard orientation:
 ---------------------------------------------------------------------
 Center     Atomic      Atomic             Coordinates (Angstroms)
 Number     Number       Type             X           Y           Z
 ---------------------------------------------------------------------
      1          6           0        1.718060    0.408814    0.201034
      2          8           0        0.653105   -0.446961   -0.296499
      3         15           0       -0.877097   -0.125410   -0.091154
      4          8           0       -1.784605   -1.127469   -0.640900
      5          8           0       -1.073422    0.135295    1.487431
      6          6           0        3.036117   -0.273647   -0.097488
      7          1           0        1.572656    0.554319    1.274497
      8          1           0        1.641966    1.376727   -0.299138
      9          1           0        3.090527   -1.244782    0.398498
     10          1           0        3.862887    0.346205    0.260031
     11          1           0        3.156157   -0.426648   -1.171703
     12          8           0       -0.963843    1.364254   -0.665701
     13          1           0       -1.867965    1.696649   -0.700815
     14          1           0       -1.474708   -0.633270    1.910012
 ---------------------------------------------------------------------

 SCF Done:  E(RHF) =  -720.584121977     A.U. after    2 cycles

 The electronic state is 1-A.
 Alpha  occ. eigenvalues --  -84.45651 -20.59763 -20.59512 -20.58013 -20.50347
 Alpha  occ. eigenvalues --  -11.31308 -11.24183  -6.90511  -4.44736  -4.44123
 Alpha  occ. eigenvalues --   -4.43869  -1.56109  -1.47892  -1.47645  -1.38914
 Alpha  occ. eigenvalues --   -1.04639  -0.88188  -0.84902  -0.75182  -0.71944
 Alpha  occ. eigenvalues --   -0.67274  -0.66995  -0.63350  -0.60636  -0.58453
 Alpha  occ. eigenvalues --   -0.56449  -0.55882  -0.54226  -0.52940  -0.50840
 Alpha  occ. eigenvalues --   -0.48153  -0.46279  -0.45750
 Alpha virt. eigenvalues --    0.03272   0.03974   0.04264   0.04870   0.05957
 Alpha virt. eigenvalues --    0.06861   0.07840   0.09812   0.11445   0.11776
 Alpha virt. eigenvalues --    0.12957   0.13991   0.14469   0.15902   0.16212

 Mulliken charges:
               1
     1  C    0.464384
     2  O   -1.699100
     3  P    4.295304
     4  O   -1.380359
     5  O   -1.327388
     6  C   -0.518430
     7  H    0.104544
     8  H    0.094195
     9  H    0.163590
    10  H    0.172734
    11  H    0.166987
    12  O   -1.279991
    13  H    0.357579
    14  H    0.385952
 Sum of Mulliken charges =  -0.00000

 Dipole moment (field-independent basis, Debye):
    X=              1.6674    Y=              2.4034    Z=              2.2600  Tot=              3.6965

 Test job not archived.
 1\1\GINC-SE102\SP\RHF\Aug-CC-pVDZ\C2H7O4P1\OHZDE\08-Apr-2025\0\\#t hf
 aug-cc-pvdz iop(5/13=1,5/36=2,99/5=2) pseudo=read geom=check guess=(re
 ad,tcheck) scf=(maxcycle=1)\\title\\0,1\C,0,1.71806,0.408814,0.201034\
 O,0,0.653105,-0.446961,-0.296499\P,0,-0.877097,-0.12541,-0.091154\O,0,
 -1.784605,-1.127469,-0.6409\O,0,-1.073422,0.135295,1.487431\C,0,3.0361
 17,-0.273647,-0.097488\H,0,1.572656,0.554319,1.274497\H,0,1.641966,1.3
 76727,-0.299138\H,0,3.090527,-1.244782,0.398498\H,0,3.862887,0.346205,
 0.260031\H,0,3.156157,-0.426648,-1.171703\O,0,-0.963843,1.364254,-0.66

 Normal termination of Gaussian 16 at Tue Apr  8 23:39:39 2025.
