 Gaussian 16, Revision C.01,

 ----------------------------------------------------------------------
 #t hf aug-cc-pvdz symm=none int=(grid=ultrafine) guess=(read,tcheck) s
 table=(opt,rrhf)
 ----------------------------------------------------------------------
 -----
 title
 -----
 Symbolic Z-matrix:
 Charge =  0 Multiplicity = 1

 SCF Done:  E(RHF) =  -1285.68654312     A.U. after   12 cycles
 Normal termination of Gaussian 16 at Tue Apr  8 23:44:11 2025.
 Gaussian 16:  ES64L-G16RevC.01  3-Jul-2019

 ----------------------------------------------------------------------
 #t hf aug-cc-pvdz iop(5/13=1,5/36=2,99/5=2) pseudo=read geom=check gue
 ss=(read,tcheck) scf=(maxcycle=1)
 ----------------------------------------------------------------------
 -----
 title
 -----
 Structure from the checkpoint file:  "BDE49_nonexpt_172_mol1.chk"
 Charge =  0 Multiplicity = 1

                         Standard orientation:
 ---------------------------------------------------------------------
 Center     Atomic      Atomic             Coordinates (Angstroms)
 Number     Number       Type             X           Y           Z
 ---------------------------------------------------------------------
      1         17           0       -0.941221   -1.516687    0.001274
      2         17           0       -0.941214    1.516690    0.001274
      3          5           0       -0.043127    0.000000    0.031270
      4         15           0        1.863322   -0.000003   -0.116802
      5          1           0        2.133597   -1.061018    0.776177
      6          1           0        2.133599    1.061010    0.776178
 ---------------------------------------------------------------------

 SCF Done:  E(RHF) =  -1285.90819812     A.U. after    2 cycles

 The electronic state is 1-A.
 Alpha  occ. eigenvalues -- -105.58459-105.58458 -84.28324 -10.63490 -10.63462
 Alpha  occ. eigenvalues --   -7.80379  -7.80356  -7.80083  -7.80078  -7.80041
 Alpha  occ. eigenvalues --   -7.80034  -7.73087  -6.75724  -4.28108  -4.28063
 Alpha  occ. eigenvalues --   -4.27374  -1.11782  -1.06588  -0.89429  -0.68727
 Alpha  occ. eigenvalues --   -0.60056  -0.56582  -0.53824  -0.52536  -0.48547
 Alpha  occ. eigenvalues --   -0.47012  -0.45531  -0.36527
 Alpha virt. eigenvalues --    0.03721   0.05376   0.05578   0.05719   0.05937
 Alpha virt. eigenvalues --    0.07863   0.08395   0.10712   0.10848   0.12900
 Alpha virt. eigenvalues --    0.13092   0.15565   0.16289   0.17711   0.18136

 Mulliken charges:
               1
     1  Cl  -0.287781
     2  Cl  -0.287780
     3  B    0.740604
     4  P   -0.972044
     5  H    0.403501
     6  H    0.403500
 Sum of Mulliken charges =  -0.00000

 Dipole moment (field-independent basis, Debye):
    X=              1.2676    Y=             -0.0000    Z=              0.4611  Tot=              1.3488

 Test job not archived.
 1\1\GINC-SE393\SP\RHF\Aug-CC-pVDZ\B1Cl2H2P1\OHZDE\08-Apr-2025\0\\#t hf
  aug-cc-pvdz iop(5/13=1,5/36=2,99/5=2) pseudo=read geom=check guess=(r
 ead,tcheck) scf=(maxcycle=1)\\title\\0,1\Cl,0,-0.941222,-1.516686,0.00
 1274\Cl,0,-0.941213,1.516691,0.001274\B,0,-0.043127,0.,0.03127\P,0,1.8
 63322,-0.000005,-0.116802\H,0,2.133596,-1.06102,0.776177\H,0,2.1336,1.
 061008,0.776178\\Version=ES64L-G16RevC.01\State=1-A\HF=-1285.9081981\R
 MSD=2.369e-02\Dipole=0.4987001,-0.0000012,0.1814187\Quadrupole=0.30402
 56,-0.211929,-0.0920965,-0.000005,1.2601667,-0.000002\PG=C01 [X(B1Cl2H

 Normal termination of Gaussian 16 at Tue Apr  8 23:44:13 2025.
