 Gaussian 16, Revision C.01,

 ----------------------------------------------------------------------
 #t hf aug-cc-pvdz symm=none int=(grid=ultrafine) guess=(read,tcheck) s
 table=(opt,rrhf)
 ----------------------------------------------------------------------
 -----
 title
 -----
 Symbolic Z-matrix:
 Charge =  0 Multiplicity = 1

 SCF Done:  E(RHF) =  -761.193594573     A.U. after   14 cycles
 Normal termination of Gaussian 16 at Wed Apr  9 00:23:01 2025.
 Gaussian 16:  ES64L-G16RevC.01  3-Jul-2019

 ----------------------------------------------------------------------
 #t hf aug-cc-pvdz iop(5/13=1,5/36=2,99/5=2) pseudo=read geom=check gue
 ss=(read,tcheck) scf=(maxcycle=1)
 ----------------------------------------------------------------------
 -----
 title
 -----
 Structure from the checkpoint file:  "BDE49_nonexpt_2677_mol1.chk"
 Charge =  0 Multiplicity = 1

                         Standard orientation:
 ---------------------------------------------------------------------
 Center     Atomic      Atomic             Coordinates (Angstroms)
 Number     Number       Type             X           Y           Z
 ---------------------------------------------------------------------
      1          9           0       -1.919808    0.608113    0.082465
      2         16           0       -0.975726   -0.787213   -0.005296
      3          6           0        0.658514    0.058802   -0.028227
      4          8           0        1.547308   -0.972635   -0.310604
      5          1           0        1.926200   -1.239720    0.535435
      6          8           0        0.903943    0.623468    1.222382
      7          1           0        1.473702    1.388404    1.063241
      8          8           0        0.753476    0.995626   -1.036408
      9          1           0       -0.098910    1.449230   -1.089727
 ---------------------------------------------------------------------

 SCF Done:  E(RHF) =  -761.601904040     A.U. after    2 cycles

 The electronic state is 1-A.
 Alpha  occ. eigenvalues --  -94.04481 -26.48133 -20.60137 -20.59938 -20.59936
 Alpha  occ. eigenvalues --  -11.46581  -8.31866  -6.29637  -6.29326  -6.29033
 Alpha  occ. eigenvalues --   -1.59131  -1.57447  -1.48428  -1.47730  -1.04594
 Alpha  occ. eigenvalues --   -0.89082  -0.80703  -0.74922  -0.71806  -0.66662
 Alpha  occ. eigenvalues --   -0.65070  -0.64931  -0.63606  -0.60942  -0.56373
 Alpha  occ. eigenvalues --   -0.52708  -0.51745  -0.46314  -0.40126
 Alpha virt. eigenvalues --    0.03296   0.04172   0.05811   0.07158   0.08024
 Alpha virt. eigenvalues --    0.10242   0.12452   0.13511   0.13673   0.14980
 Alpha virt. eigenvalues --    0.17195   0.18784   0.20086   0.20949   0.22133

 Mulliken charges:
               1
     1  F   -0.668316
     2  S    1.061022
     3  C    2.296201
     4  O   -1.107302
     5  H    0.226467
     6  O   -1.102453
     7  H    0.200149
     8  O   -1.293715
     9  H    0.387947
 Sum of Mulliken charges =  -0.00000

 Dipole moment (field-independent basis, Debye):
    X=              1.4203    Y=              0.6747    Z=              0.9370  Tot=              1.8304

 Test job not archived.
 1\1\GINC-SE059\SP\RHF\Aug-CC-pVDZ\C1H3F1O3S1\OHZDE\09-Apr-2025\0\\#t h
 f aug-cc-pvdz iop(5/13=1,5/36=2,99/5=2) pseudo=read geom=check guess=(
 read,tcheck) scf=(maxcycle=1)\\title\\0,1\F,0,1.919808,-0.608114,0.082
 465\S,0,0.975726,0.787213,-0.005296\C,0,-0.658514,-0.058802,-0.028227\
 O,0,-1.547308,0.972635,-0.310604\H,0,-1.9262,1.23972,0.535435\O,0,-0.9
 03943,-0.623468,1.222382\H,0,-1.473702,-1.388404,1.063241\O,0,-0.75347
 6,-0.995626,-1.036408\H,0,0.09891,-1.44923,-1.089727\\Version=ES64L-G1
 6RevC.01\State=1-A\HF=-761.601904\RMSD=6.903e-03\Dipole=-0.5587859,-0.

 Normal termination of Gaussian 16 at Wed Apr  9 00:23:05 2025.
