 Gaussian 16, Revision C.01,

 ----------------------------------------------------------------------
 #t hf aug-cc-pvdz symm=none int=(grid=ultrafine) guess=(read,tcheck) s
 table=opt
 ----------------------------------------------------------------------
 -----
 title
 -----
 Symbolic Z-matrix:
 Charge =  0 Multiplicity = 2

 SCF Done:  E(UHF) =  -539.848383348     A.U. after   15 cycles
 Normal termination of Gaussian 16 at Tue Apr  8 23:40:07 2025.
 Gaussian 16:  ES64L-G16RevC.01  3-Jul-2019

 ----------------------------------------------------------------------
 #t hf aug-cc-pvdz iop(5/13=1,5/36=2,99/5=2) pseudo=read geom=check gue
 ss=(read,tcheck) scf=(maxcycle=1)
 ----------------------------------------------------------------------
 -----
 title
 -----
 Structure from the checkpoint file:  "BDE49_nonexpt_163_mol2.chk"
 Charge =  0 Multiplicity = 2

                         Standard orientation:
 ---------------------------------------------------------------------
 Center     Atomic      Atomic             Coordinates (Angstroms)
 Number     Number       Type             X           Y           Z
 ---------------------------------------------------------------------
      1         17           0       -1.102394    0.068958   -0.000006
      2          7           0        1.685415    0.142116    0.000008
      3          5           0        0.529700   -0.608331    0.000004
      4          1           0        1.694012    1.155610    0.000006
      5          1           0        2.600284   -0.281048    0.000014
 ---------------------------------------------------------------------

 SCF Done:  E(UHF) =  -540.003445048     A.U. after    2 cycles

 The electronic state is 2-A.
 Alpha  occ. eigenvalues -- -105.55988 -15.52032 -10.61011  -7.77967  -7.77608
 Alpha  occ. eigenvalues --   -7.77569  -7.67074  -1.19788  -1.06249  -0.77071
 Alpha  occ. eigenvalues --   -0.74233  -0.60542  -0.52629  -0.49495  -0.46010
 Alpha  occ. eigenvalues --   -0.35717
 Alpha virt. eigenvalues --    0.03151   0.05300   0.05747   0.06012   0.07300
 Alpha virt. eigenvalues --    0.09367   0.12039   0.14596   0.15976   0.16954
 Alpha virt. eigenvalues --    0.17950   0.19540   0.19577   0.20714   0.24190

  Beta  occ. eigenvalues -- -105.55892 -15.52141 -10.60897  -7.77761  -7.77529
  Beta  occ. eigenvalues --   -7.77394  -7.64932  -1.19478  -1.05310  -0.75246
  Beta  occ. eigenvalues --   -0.73308  -0.57918  -0.52835  -0.47445  -0.46607
  Beta virt. eigenvalues --    0.02349   0.05367   0.05553   0.05928   0.07215
  Beta virt. eigenvalues --    0.07879   0.13285   0.14963   0.15638   0.16165
  Beta virt. eigenvalues --    0.17339   0.18119   0.19745   0.19842   0.21661

 Mulliken charges and spin densities:
               1          2
     1  Cl  -0.265265   0.021992
     2  N    0.231797  -0.061784
     3  B   -0.049341   1.013012
     4  H    0.047135   0.025384
     5  H    0.035673   0.001396
 Sum of Mulliken charges =   0.00000   1.00000

 Dipole moment (field-independent basis, Debye):
    X=              2.4635    Y=              0.8184    Z=              0.0000  Tot=              2.5959
                          Isotropic Fermi Contact Couplings
        Atom                 a.u.       MegaHertz       Gauss      10(-4) cm-1
     1  Cl(35)             0.10010      43.89031      15.66116      14.64023
     2  N(14)              0.04652      15.03061       5.36330       5.01367
     3  B(11)              0.40192     576.49991     205.70950     192.29967
     4  H(1)               0.01274      56.96371      20.32607      19.00105
     5  H(1)               0.00396      17.68384       6.31003       5.89869
 --------------------------------------------------------
       Center         ----  Spin Dipole Couplings  ----
                      3XX-RR        3YY-RR        3ZZ-RR

 Normal termination of Gaussian 16 at Tue Apr  8 23:40:09 2025.
