 Gaussian 16, Revision C.01,

 ----------------------------------------------------------------------
 #t hf aug-cc-pvdz symm=none int=(grid=ultrafine) guess=(read,tcheck) s
 table=(opt,rrhf)
 ----------------------------------------------------------------------
 -----
 title
 -----
 Symbolic Z-matrix:
 Charge =  0 Multiplicity = 1

 SCF Done:  E(RHF) =  -2523.44028394     A.U. after   14 cycles
 Normal termination of Gaussian 16 at Tue Apr  8 23:10:06 2025.
 Gaussian 16:  ES64L-G16RevC.01  3-Jul-2019

 ----------------------------------------------------------------------
 #t hf aug-cc-pvdz iop(5/13=1,5/36=2,99/5=2) pseudo=read geom=check gue
 ss=(read,tcheck) scf=(maxcycle=1)
 ----------------------------------------------------------------------
 -----
 title
 -----
 Structure from the checkpoint file:  "BDE49_expt_627_mol1.chk"
 Charge =  0 Multiplicity = 1

                         Standard orientation:
 ---------------------------------------------------------------------
 Center     Atomic      Atomic             Coordinates (Angstroms)
 Number     Number       Type             X           Y           Z
 ---------------------------------------------------------------------
      1          6           0        0.709533    0.029335   -0.000231
      2          8           0        1.125404   -0.048460   -1.307856
      3          8           0        2.559173    0.022057   -1.396098
      4          1           0        2.781125   -0.922454   -1.439672
      5          6           0       -0.874710   -0.012340   -0.081620
      6         17           0        1.325172   -1.384253    0.961487
      7         17           0       -1.392185   -1.525504   -0.890402
      8         17           0       -1.583077    0.053687    1.552809
      9         17           0       -1.455007    1.381106   -1.040086
     10         17           0        1.265882    1.535653    0.802217
 ---------------------------------------------------------------------

 SCF Done:  E(RHF) =  -2524.03313290     A.U. after    2 cycles

 The electronic state is 1-A.
 Alpha  occ. eigenvalues -- -105.60758-105.60677-105.60584-105.60229-105.59832
 Alpha  occ. eigenvalues --  -20.67600 -20.66666 -11.48220 -11.47847 -10.65585
 Alpha  occ. eigenvalues --  -10.65493 -10.65399 -10.65061 -10.64673  -7.82539
 Alpha  occ. eigenvalues --   -7.82447  -7.82354  -7.82092  -7.82084  -7.82003
 Alpha  occ. eigenvalues --   -7.82001  -7.81995  -7.81905  -7.81898  -7.81624
 Alpha  occ. eigenvalues --   -7.81592  -7.81578  -7.81189  -7.81182  -1.65807
 Alpha  occ. eigenvalues --   -1.37549  -1.23310  -1.14803  -1.09104  -1.08070
 Alpha  occ. eigenvalues --   -1.06504  -0.93781  -0.81728  -0.76878  -0.73245
 Alpha  occ. eigenvalues --   -0.71766  -0.67441  -0.64124  -0.63169  -0.60812
 Alpha  occ. eigenvalues --   -0.55362  -0.52844  -0.52587  -0.51162  -0.50878
 Alpha  occ. eigenvalues --   -0.50647  -0.50104  -0.48931  -0.48421  -0.47281
 Alpha  occ. eigenvalues --   -0.46617  -0.45752
 Alpha virt. eigenvalues --    0.03594   0.06175   0.07170   0.07723   0.08533
 Alpha virt. eigenvalues --    0.09335   0.09474   0.11210   0.12113   0.12431
 Alpha virt. eigenvalues --    0.12693   0.13782   0.15121   0.15587   0.16471

 Mulliken charges:
               1
     1  C    1.016672
     2  O   -0.856455
     3  O   -0.367623
     4  H    0.428290
     5  C   -0.690974
     6  Cl   0.021273
     7  Cl   0.141860
     8  Cl   0.101339
     9  Cl   0.148248
    10  Cl   0.057371
 Sum of Mulliken charges =   0.00000

 Dipole moment (field-independent basis, Debye):
    X=              0.8901    Y=             -1.3089    Z=             -0.3021  Tot=              1.6114

 Test job not archived.
 1\1\GINC-SE361\SP\RHF\Aug-CC-pVDZ\C2H1Cl5O2\OHZDE\08-Apr-2025\0\\#t hf
  aug-cc-pvdz iop(5/13=1,5/36=2,99/5=2) pseudo=read geom=check guess=(r
 ead,tcheck) scf=(maxcycle=1)\\title\\0,1\C,0,0.709533,0.029335,-0.0002
 31\O,0,1.125404,-0.04846,-1.307856\O,0,2.559173,0.022056,-1.396098\H,0
 ,2.781125,-0.922455,-1.439672\C,0,-0.87471,-0.01234,-0.08162\Cl,0,1.32
 5171,-1.384254,0.961487\Cl,0,-1.392186,-1.525504,-0.890402\Cl,0,-1.583
 077,0.053688,1.552809\Cl,0,-1.455007,1.381107,-1.040086\Cl,0,1.265882,
 1.535652,0.802217\\Version=ES64L-G16RevC.01\State=1-A\HF=-2524.0331329

 Normal termination of Gaussian 16 at Tue Apr  8 23:10:12 2025.
