 Gaussian 16, Revision C.01,

 ----------------------------------------------------------------------
 #t hf aug-cc-pvdz symm=none int=(grid=ultrafine) guess=(read,tcheck) s
 table=(opt,rrhf)
 ----------------------------------------------------------------------
 -----
 title
 -----
 Symbolic Z-matrix:
 Charge =  0 Multiplicity = 1

 SCF Done:  E(RHF) =  -764.837809376     A.U. after   14 cycles
 Normal termination of Gaussian 16 at Tue Apr  8 22:36:49 2025.
 Gaussian 16:  ES64L-G16RevC.01  3-Jul-2019

 ----------------------------------------------------------------------
 #t hf aug-cc-pvdz iop(5/13=1,5/36=2,99/5=2) pseudo=read geom=check gue
 ss=(read,tcheck) scf=(maxcycle=1)
 ----------------------------------------------------------------------
 -----
 title
 -----
 Structure from the checkpoint file:  "BDE49_expt_1132_mol1.chk"
 Charge =  0 Multiplicity = 1

                         Standard orientation:
 ---------------------------------------------------------------------
 Center     Atomic      Atomic             Coordinates (Angstroms)
 Number     Number       Type             X           Y           Z
 ---------------------------------------------------------------------
      1          6           0       -1.083257    0.160090   -0.000020
      2          8           0       -1.293235    1.347800    0.000010
      3          8           0       -2.051278   -0.774813   -0.000011
      4          6           0        0.288201   -0.486036   -0.000023
      5          6           0       -3.403820   -0.276387    0.000013
      6          1           0       -4.037926   -1.159733    0.000014
      7          1           0       -3.586772    0.329334   -0.888610
      8          1           0       -3.586747    0.329319    0.888651
      9          6           0        1.390185    0.561088    0.000014
     10          1           0        0.366728   -1.137683   -0.874445
     11          1           0        0.366713   -1.137731    0.874366
     12          1           0        1.350026    1.191257    0.884936
     13         17           0        3.022717   -0.231911    0.000004
     14          1           0        1.350038    1.191306   -0.884873
 ---------------------------------------------------------------------

 SCF Done:  E(RHF) =  -765.225302728     A.U. after    2 cycles

 The electronic state is 1-A.
 Alpha  occ. eigenvalues -- -105.55856 -20.60194 -20.54842 -11.40278 -11.31280
 Alpha  occ. eigenvalues --  -11.30641 -11.27329 -10.60642  -7.77583  -7.77217
 Alpha  occ. eigenvalues --   -7.77206  -1.55517  -1.46395  -1.12845  -1.04032
 Alpha  occ. eigenvalues --   -0.97140  -0.87085  -0.79044  -0.72392  -0.70040
 Alpha  occ. eigenvalues --   -0.69256  -0.66049  -0.61074  -0.58481  -0.57972
 Alpha  occ. eigenvalues --   -0.54953  -0.53184  -0.53145  -0.46891  -0.46342
 Alpha  occ. eigenvalues --   -0.44625  -0.44284
 Alpha virt. eigenvalues --    0.03265   0.04377   0.04514   0.04593   0.06129
 Alpha virt. eigenvalues --    0.06672   0.07121   0.08284   0.10816   0.11804
 Alpha virt. eigenvalues --    0.13607   0.13970   0.14541   0.14729   0.14812

 Mulliken charges:
               1
     1  C    2.081092
     2  O   -1.177859
     3  O   -1.317560
     4  C   -0.610516
     5  C    0.237299
     6  H    0.015301
     7  H    0.174319
     8  H    0.174317
     9  C   -0.434926
    10  H    0.252355
    11  H    0.252350
    12  H    0.220995
    13  Cl  -0.088160
    14  H    0.220994
 Sum of Mulliken charges =  -0.00000

 Dipole moment (field-independent basis, Debye):
    X=             -2.5856    Y=             -0.9766    Z=             -0.0000  Tot=              2.7639

 Test job not archived.
 1\1\GINC-SE343\SP\RHF\Aug-CC-pVDZ\C4H7Cl1O2\OHZDE\08-Apr-2025\0\\#t hf
  aug-cc-pvdz iop(5/13=1,5/36=2,99/5=2) pseudo=read geom=check guess=(r
 ead,tcheck) scf=(maxcycle=1)\\title\\0,1\C,0,-1.083257,0.16009,-0.0000
 2\O,0,-1.293235,1.3478,0.00001\O,0,-2.051278,-0.774813,-0.000011\C,0,0
 .288201,-0.486036,-0.000023\C,0,-3.40382,-0.276387,0.000013\H,0,-4.037
 926,-1.159733,0.000014\H,0,-3.586772,0.329334,-0.88861\H,0,-3.586747,0
 .329319,0.888651\C,0,1.390185,0.561088,0.000014\H,0,0.366728,-1.137683
 ,-0.874445\H,0,0.366713,-1.137731,0.874366\H,0,1.350026,1.191257,0.884

 Normal termination of Gaussian 16 at Tue Apr  8 22:36:53 2025.
