 Gaussian 16, Revision C.01,

 ----------------------------------------------------------------------
 #t hf aug-cc-pvdz symm=none int=(grid=ultrafine) guess=(read,tcheck) s
 table=(opt,rrhf)
 ----------------------------------------------------------------------
 -----
 title
 -----
 Symbolic Z-matrix:
 Charge =  0 Multiplicity = 1

 SCF Done:  E(RHF) =  -706.618328712     A.U. after   14 cycles
 Normal termination of Gaussian 16 at Tue Apr  8 23:05:51 2025.
 Gaussian 16:  ES64L-G16RevC.01  3-Jul-2019

 ----------------------------------------------------------------------
 #t hf aug-cc-pvdz iop(5/13=1,5/36=2,99/5=2) pseudo=read geom=check gue
 ss=(read,tcheck) scf=(maxcycle=1)
 ----------------------------------------------------------------------
 -----
 title
 -----
 Structure from the checkpoint file:  "BDE49_expt_387_mol1.chk"
 Charge =  0 Multiplicity = 1

                         Standard orientation:
 ---------------------------------------------------------------------
 Center     Atomic      Atomic             Coordinates (Angstroms)
 Number     Number       Type             X           Y           Z
 ---------------------------------------------------------------------
      1          8           0        0.495130    1.125571    0.635591
      2          6           0        1.426314    1.402770   -0.404377
      3          6           0        2.508048    0.327913   -0.333681
      4          1           0        1.817330    2.403513   -0.212770
      5          1           0        0.940198    1.391987   -1.388063
      6         16           0        1.567170   -1.214233   -0.025239
      7          1           0        3.203794    0.515149    0.485082
      8          1           0        3.057325    0.233939   -1.271005
      9          6           0        0.102514   -0.235818    0.626591
     10          6           0       -1.158455   -0.492905   -0.195123
     11          1           0       -0.056604   -0.514088    1.670320
     12          6           0       -2.393383    0.211580    0.381333
     13          1           0       -1.328631   -1.575177   -0.236185
     14          1           0       -0.984888   -0.171788   -1.227817
     15          6           0       -3.651743   -0.011602   -0.461848
     16          1           0       -2.183121    1.282126    0.462765
     17          1           0       -2.569116   -0.146083    1.403157
     18          1           0       -3.518683    0.368329   -1.479539
     19          1           0       -4.515403    0.499131   -0.027796
     20          1           0       -3.897730   -1.075503   -0.536431
 ---------------------------------------------------------------------

 SCF Done:  E(RHF) =  -707.008722989     A.U. after    2 cycles

 The electronic state is 1-A.
 Alpha  occ. eigenvalues --  -93.93787 -20.55817 -11.32033 -11.29930 -11.27074
 Alpha  occ. eigenvalues --  -11.23354 -11.22877 -11.22469  -8.21901  -6.19691
 Alpha  occ. eigenvalues --   -6.19582  -6.19344  -1.47904  -1.08699  -1.07506
 Alpha  occ. eigenvalues --   -1.01296  -0.93192  -0.83871  -0.82210  -0.78642
 Alpha  occ. eigenvalues --   -0.70453  -0.67136  -0.63579  -0.62689  -0.58678
 Alpha  occ. eigenvalues --   -0.58069  -0.55862  -0.54843  -0.52842  -0.50194
 Alpha  occ. eigenvalues --   -0.49747  -0.47822  -0.46801  -0.44023  -0.42165
 Alpha  occ. eigenvalues --   -0.34816
 Alpha virt. eigenvalues --    0.03456   0.03690   0.03925   0.04227   0.05222
 Alpha virt. eigenvalues --    0.05473   0.05811   0.07058   0.08124   0.08426
 Alpha virt. eigenvalues --    0.08857   0.09340   0.10133   0.12670   0.13028

 Mulliken charges:
               1
     1  O   -1.459925
     2  C    0.401876
     3  C   -0.592163
     4  H   -0.009707
     5  H    0.183525
     6  S    0.454211
     7  H    0.126973
     8  H    0.180958
     9  C    0.997343
    10  C   -0.579853
    11  H   -0.024395
    12  C   -0.278233
    13  H    0.166238
    14  H    0.137247
    15  C   -0.427268
    16  H    0.154676
    17  H    0.124249
    18  H    0.160135
    19  H    0.120425
    20  H    0.163690
 Sum of Mulliken charges =   0.00000

 Dipole moment (field-independent basis, Debye):
    X=              0.0095    Y=              1.1814    Z=             -0.7641  Tot=              1.4070

 Test job not archived.
 1\1\GINC-SE435\SP\RHF\Aug-CC-pVDZ\C6H12O1S1\OHZDE\08-Apr-2025\0\\#t hf
  aug-cc-pvdz iop(5/13=1,5/36=2,99/5=2) pseudo=read geom=check guess=(r
 ead,tcheck) scf=(maxcycle=1)\\title\\0,1\O,0,0.49513,1.125571,0.635591
 \C,0,1.426314,1.40277,-0.404377\C,0,2.508048,0.327913,-0.333681\H,0,1.
 81733,2.403513,-0.21277\H,0,0.940198,1.391987,-1.388063\S,0,1.56717,-1
 .214233,-0.025239\H,0,3.203794,0.515149,0.485082\H,0,3.057325,0.233939
 ,-1.271005\C,0,0.102514,-0.235818,0.626591\C,0,-1.158455,-0.492905,-0.
 195123\H,0,-0.056604,-0.514088,1.67032\C,0,-2.393383,0.21158,0.381333\

 Normal termination of Gaussian 16 at Tue Apr  8 23:06:01 2025.
