 Gaussian 16, Revision C.01,

 ----------------------------------------------------------------------
 #t hf aug-cc-pvdz symm=none int=(grid=ultrafine) guess=(read,tcheck) s
 table=(opt,rrhf)
 ----------------------------------------------------------------------
 -----
 title
 -----
 Symbolic Z-matrix:
 Charge =  0 Multiplicity = 1

 SCF Done:  E(RHF) =  -1814.26272524     A.U. after   16 cycles
 Normal termination of Gaussian 16 at Wed Apr  9 00:55:41 2025.
 Gaussian 16:  ES64L-G16RevC.01  3-Jul-2019

 ----------------------------------------------------------------------
 #t hf aug-cc-pvdz iop(5/13=1,5/36=2,99/5=2) pseudo=read geom=check gue
 ss=(read,tcheck) scf=(maxcycle=1)
 ----------------------------------------------------------------------
 -----
 title
 -----
 Structure from the checkpoint file:  "BDE49_nonexpt_947_mol1.chk"
 Charge =  0 Multiplicity = 1

                         Standard orientation:
 ---------------------------------------------------------------------
 Center     Atomic      Atomic             Coordinates (Angstroms)
 Number     Number       Type             X           Y           Z
 ---------------------------------------------------------------------
      1          6           0       -1.308062    0.207313    0.055893
      2          6           0       -1.947599   -0.003419    1.279171
      3          1           0       -1.597291    0.522437    2.159236
      4          6           0       -3.022811   -0.883669    1.347085
      5          1           0       -3.519565   -1.054404    2.294803
      6          6           0       -3.458480   -1.543887    0.198398
      7          1           0       -4.295949   -2.229540    0.254488
      8          6           0       -2.822592   -1.322327   -1.021953
      9          1           0       -3.163401   -1.833529   -1.914437
     10          6           0       -1.748746   -0.439884   -1.099671
     11          1           0       -1.248396   -0.250680   -2.041437
     12          7           0       -0.199002    1.111878   -0.010246
     13         17           0       -0.605373    2.788395   -0.266909
     14          6           0        1.151901    0.815296   -0.035889
     15          8           0        2.025276    1.625019   -0.186845
     16          6           0        1.443232   -0.691035    0.164543
     17         17           0        1.925872   -1.392714   -1.419974
     18         17           0        2.721052   -0.896065    1.391927
     19          1           0        0.587986   -1.261382    0.502639
 ---------------------------------------------------------------------

 SCF Done:  E(RHF) =  -1814.92080800     A.U. after    2 cycles

 The electronic state is 1-A.
 Alpha  occ. eigenvalues -- -105.61805-105.59177-105.58812 -20.54602 -15.60798
 Alpha  occ. eigenvalues --  -11.40594 -11.39802 -11.31705 -11.27847 -11.27803
 Alpha  occ. eigenvalues --  -11.27644 -11.27430 -11.27384 -10.66193 -10.63950
 Alpha  occ. eigenvalues --  -10.63597  -7.83176  -7.82670  -7.82639  -7.80903
 Alpha  occ. eigenvalues --   -7.80555  -7.80493  -7.80474  -7.80137  -7.80119
 Alpha  occ. eigenvalues --   -1.50265  -1.30796  -1.18451  -1.17716  -1.07018
 Alpha  occ. eigenvalues --   -1.06034  -1.05348  -1.04294  -0.93315  -0.89227
 Alpha  occ. eigenvalues --   -0.87622  -0.80393  -0.76436  -0.72814  -0.70610
 Alpha  occ. eigenvalues --   -0.69757  -0.66334  -0.64705  -0.64177  -0.63318
 Alpha  occ. eigenvalues --   -0.62018  -0.59676  -0.56145  -0.54770  -0.54228
 Alpha  occ. eigenvalues --   -0.52237  -0.50758  -0.49067  -0.48422  -0.47357
 Alpha  occ. eigenvalues --   -0.46386  -0.45170  -0.43113  -0.37947  -0.37859
 Alpha virt. eigenvalues --    0.02487   0.02961   0.03670   0.04491   0.05492
 Alpha virt. eigenvalues --    0.05686   0.06253   0.07299   0.07954   0.08494
 Alpha virt. eigenvalues --    0.08739   0.10313   0.10470   0.11260   0.11695

 Mulliken charges:
               1
     1  C   -2.295365
     2  C    0.551936
     3  H   -0.318980
     4  C    0.394576
     5  H   -0.220625
     6  C    0.275085
     7  H   -0.210645
     8  C    0.357632
     9  H   -0.230709
    10  C    0.776320
    11  H   -0.298406
    12  N    1.579555
    13  Cl   0.195742
    14  C    0.909332
    15  O   -1.156238
    16  C   -0.766660
    17  Cl   0.070343
    18  Cl   0.027074
    19  H    0.360035
 Sum of Mulliken charges =  -0.00000

 Dipole moment (field-independent basis, Debye):
    X=             -5.0838    Y=             -2.5733    Z=              0.6292  Tot=              5.7326

 Test job not archived.
 1\1\GINC-SE054\SP\RHF\Aug-CC-pVDZ\C8H6Cl3N1O1\OHZDE\09-Apr-2025\0\\#t
 hf aug-cc-pvdz iop(5/13=1,5/36=2,99/5=2) pseudo=read geom=check guess=
 (read,tcheck) scf=(maxcycle=1)\\title\\0,1\C,0,-1.308062,0.207313,0.05
 5893\C,0,-1.947599,-0.003419,1.279171\H,0,-1.597291,0.522437,2.159236\
 C,0,-3.022811,-0.883669,1.347085\H,0,-3.519565,-1.054404,2.294803\C,0,
 -3.45848,-1.543887,0.198398\H,0,-4.295949,-2.229541,0.254488\C,0,-2.82
 2592,-1.322327,-1.021953\H,0,-3.163401,-1.833529,-1.914437\C,0,-1.7487
 46,-0.439884,-1.099671\H,0,-1.248396,-0.25068,-2.041437\N,0,-0.199002,

 Normal termination of Gaussian 16 at Wed Apr  9 00:55:58 2025.
