 Gaussian 16, Revision C.01,

 ----------------------------------------------------------------------
 #t hf aug-cc-pvdz symm=none int=(grid=ultrafine) guess=(read,tcheck) s
 table=(opt,rrhf)
 ----------------------------------------------------------------------
 -----
 title
 -----
 Symbolic Z-matrix:
 Charge =  0 Multiplicity = 1

 SCF Done:  E(RHF) =  -588.035570498     A.U. after   15 cycles
 Normal termination of Gaussian 16 at Tue Apr  8 23:26:25 2025.
 Gaussian 16:  ES64L-G16RevC.01  3-Jul-2019

 ----------------------------------------------------------------------
 #t hf aug-cc-pvdz iop(5/13=1,5/36=2,99/5=2) pseudo=read geom=check gue
 ss=(read,tcheck) scf=(maxcycle=1)
 ----------------------------------------------------------------------
 -----
 title
 -----
 Structure from the checkpoint file:  "BDE49_nonexpt_1278_mol1.chk"
 Charge =  0 Multiplicity = 1

                         Standard orientation:
 ---------------------------------------------------------------------
 Center     Atomic      Atomic             Coordinates (Angstroms)
 Number     Number       Type             X           Y           Z
 ---------------------------------------------------------------------
      1          6           0       -1.660241    1.160282    0.003899
      2          6           0       -2.279500   -0.085711    0.004831
      3          6           0       -1.471956   -1.220692    0.000850
      4          7           0       -0.138055   -1.176680   -0.009644
      5          6           0        0.455694    0.025578    0.004582
      6          6           0       -0.270511    1.221837    0.007026
      7          1           0       -3.358650   -0.180242    0.006010
      8          1           0       -1.914345   -2.213098   -0.000244
      9          1           0        0.240522    2.176869    0.020295
     10          1           0       -2.248982    2.071014    0.007414
     11         15           0        2.301438   -0.052767   -0.108321
     12          1           0        2.513843   -0.682853    1.142856
     13          1           0        2.571513    1.248802    0.388849
 ---------------------------------------------------------------------

 SCF Done:  E(RHF) =  -588.331647611     A.U. after    2 cycles

 The electronic state is 1-A.
 Alpha  occ. eigenvalues --  -84.27720 -15.50939 -11.29284 -11.28686 -11.27246
 Alpha  occ. eigenvalues --  -11.25494 -11.25307  -6.74830  -4.27628  -4.27243
 Alpha  occ. eigenvalues --   -4.26517  -1.26501  -1.09688  -1.04944  -0.90943
 Alpha  occ. eigenvalues --   -0.88002  -0.82536  -0.71992  -0.69392  -0.65124
 Alpha  occ. eigenvalues --   -0.60389  -0.58278  -0.57233  -0.50894  -0.50192
 Alpha  occ. eigenvalues --   -0.44850  -0.41166  -0.38721  -0.32726
 Alpha virt. eigenvalues --    0.03095   0.03775   0.04091   0.05327   0.06022
 Alpha virt. eigenvalues --    0.07000   0.07656   0.08380   0.09704   0.10556
 Alpha virt. eigenvalues --    0.10588   0.11557   0.12433   0.13393   0.14098

 Mulliken charges:
               1
     1  C    0.128869
     2  C    0.658804
     3  C   -0.634764
     4  N    1.185016
     5  C   -1.565242
     6  C    0.512476
     7  H   -0.187969
     8  H   -0.187211
     9  H   -0.224957
    10  H   -0.167018
    11  P   -0.288162
    12  H    0.457789
    13  H    0.312369
 Sum of Mulliken charges =  -0.00000

 Dipole moment (field-independent basis, Debye):
    X=             -1.8113    Y=              2.2107    Z=              0.4367  Tot=              2.8911

 Test job not archived.
 1\1\GINC-SE045\SP\RHF\Aug-CC-pVDZ\C5H6N1P1\OHZDE\08-Apr-2025\0\\#t hf
 aug-cc-pvdz iop(5/13=1,5/36=2,99/5=2) pseudo=read geom=check guess=(re
 ad,tcheck) scf=(maxcycle=1)\\title\\0,1\C,0,-1.660241,1.160282,0.00389
 9\C,0,-2.2795,-0.085711,0.004831\C,0,-1.471956,-1.220692,0.00085\N,0,-
 0.138055,-1.17668,-0.009644\C,0,0.455694,0.025578,0.004582\C,0,-0.2705
 11,1.221837,0.007026\H,0,-3.35865,-0.180242,0.00601\H,0,-1.914345,-2.2
 13098,-0.000244\H,0,0.240522,2.176869,0.020295\H,0,-2.248982,2.071014,
 0.007414\P,0,2.301438,-0.052767,-0.108321\H,0,2.513843,-0.682853,1.142

 Normal termination of Gaussian 16 at Tue Apr  8 23:26:30 2025.
