 Gaussian 16, Revision C.01,

 ----------------------------------------------------------------------
 #t hf aug-cc-pvdz symm=none int=(grid=ultrafine) guess=(read,tcheck) s
 table=opt
 ----------------------------------------------------------------------
 -----
 title
 -----
 Symbolic Z-matrix:
 Charge =  0 Multiplicity = 2

 SCF Done:  E(UHF) =  -324.473151248     A.U. after   20 cycles
 Normal termination of Gaussian 16 at Tue Apr  8 23:05:05 2025.
 Gaussian 16:  ES64L-G16RevC.01  3-Jul-2019

 ----------------------------------------------------------------------
 #t hf aug-cc-pvdz iop(5/13=1,5/36=2,99/5=2) pseudo=read geom=check gue
 ss=(read,tcheck) scf=(maxcycle=1)
 ----------------------------------------------------------------------
 -----
 title
 -----
 Structure from the checkpoint file:  "BDE49_expt_356_mol2.chk"
 Charge =  0 Multiplicity = 2

                         Standard orientation:
 ---------------------------------------------------------------------
 Center     Atomic      Atomic             Coordinates (Angstroms)
 Number     Number       Type             X           Y           Z
 ---------------------------------------------------------------------
      1          7           0        1.186281   -0.120571   -0.000021
      2          6           0        1.488068    1.306340    0.000007
      3          1           0        2.079914    1.559149    0.887957
      4          1           0        0.557616    1.866288   -0.000022
      5          1           0        2.079987    1.559163   -0.887889
      6          6           0        2.341335   -1.000207   -0.000006
      7          1           0        2.961032   -0.821961   -0.886928
      8          1           0        2.023194   -2.042098   -0.000074
      9          1           0        2.960951   -0.822051    0.886994
     10          6           0       -1.310433    0.071312    0.000031
     11          8           0       -1.426742    1.311193   -0.000016
     12          6           0       -2.571329   -0.785804   -0.000002
     13          1           0       -2.374623   -1.860334    0.000003
     14          1           0       -3.171452   -0.536581   -0.879631
     15          1           0       -3.171492   -0.536580    0.879598
     16          6           0       -0.069853   -0.639810    0.000013
     17          1           0       -0.101888   -1.721531    0.000010
 ---------------------------------------------------------------------

 SCF Done:  E(UHF) =  -324.811648280     A.U. after    2 cycles

 The electronic state is 2-A.
 Alpha  occ. eigenvalues --  -20.51947 -15.54112 -11.30508 -11.28036 -11.27943
 Alpha  occ. eigenvalues --  -11.25829 -11.22825  -1.45014  -1.27770  -1.04793
 Alpha  occ. eigenvalues --   -0.98734  -0.97293  -0.86941  -0.75852  -0.70445
 Alpha  occ. eigenvalues --   -0.69098  -0.66985  -0.61074  -0.60202  -0.58881
 Alpha  occ. eigenvalues --   -0.56802  -0.56435  -0.54909  -0.54485  -0.52591
 Alpha  occ. eigenvalues --   -0.48940  -0.40884  -0.30518
 Alpha virt. eigenvalues --    0.02982   0.04034   0.04540   0.04826   0.05354
 Alpha virt. eigenvalues --    0.06099   0.06463   0.07035   0.07535   0.09165
 Alpha virt. eigenvalues --    0.11304   0.12299   0.13081   0.14053   0.14315

  Beta  occ. eigenvalues --  -20.50155 -15.52779 -11.31013 -11.28149 -11.26777
  Beta  occ. eigenvalues --  -11.25950 -11.22829  -1.40964  -1.24819  -1.02207
  Beta  occ. eigenvalues --   -0.98654  -0.96791  -0.85111  -0.74928  -0.69632
  Beta  occ. eigenvalues --   -0.65992  -0.64762  -0.60457  -0.58578  -0.58164
  Beta  occ. eigenvalues --   -0.56546  -0.55762  -0.54706  -0.54124  -0.45727
  Beta  occ. eigenvalues --   -0.39269  -0.39084
  Beta virt. eigenvalues --    0.03015   0.04046   0.04522   0.04546   0.05363
  Beta virt. eigenvalues --    0.06082   0.06467   0.06652   0.07585   0.07722
  Beta virt. eigenvalues --    0.09168   0.11328   0.13115   0.13544   0.14107

 Mulliken charges and spin densities:
               1          2
     1  N    1.054227   0.278222
     2  C   -0.200211  -0.049549
     3  H    0.181041   0.012398
     4  H   -0.053247   0.000125
     5  H    0.181023   0.012396
     6  C   -0.372744  -0.046307
     7  H    0.195356   0.009861
     8  H   -0.005691   0.000545
     9  H    0.195376   0.009862
    10  C    1.714628  -0.368587
    11  O   -1.591796   0.433219
    12  C   -0.614391   0.002942
    13  H    0.100782   0.002910
    14  H    0.231019   0.000472
    15  H    0.231014   0.000472
    16  C   -1.001507   0.707759
    17  H   -0.244879  -0.006742
 Sum of Mulliken charges =  -0.00000   1.00000

 Dipole moment (field-independent basis, Debye):
    X=              2.6008    Y=             -2.7976    Z=              0.0000  Tot=              3.8198
                          Isotropic Fermi Contact Couplings
        Atom                 a.u.       MegaHertz       Gauss      10(-4) cm-1
     1  N(14)              0.14783      47.76304      17.04304      15.93204
     2  C(13)             -0.01840     -20.68319      -7.38028      -6.89917
     3  H(1)               0.00481      21.52039       7.67901       7.17843
     4  H(1)               0.00081       3.60670       1.28696       1.20307
     5  H(1)               0.00481      21.51627       7.67754       7.17705
     6  C(13)             -0.01797     -20.20403      -7.20930      -6.73934
     7  H(1)               0.00360      16.09295       5.74237       5.36803
     8  H(1)               0.00047       2.11975       0.75638       0.70707

 Normal termination of Gaussian 16 at Tue Apr  8 23:05:15 2025.
