 Gaussian 16, Revision C.01,

 ----------------------------------------------------------------------
 #t hf aug-cc-pvdz symm=none int=(grid=ultrafine) guess=(read,tcheck) s
 table=(opt,rrhf)
 ----------------------------------------------------------------------
 -----
 title
 -----
 Symbolic Z-matrix:
 Charge =  0 Multiplicity = 1

 SCF Done:  E(RHF) =  -1077.51762294     A.U. after   11 cycles
 Normal termination of Gaussian 16 at Tue Apr  8 23:41:17 2025.
 Gaussian 16:  ES64L-G16RevC.01  3-Jul-2019

 ----------------------------------------------------------------------
 #t hf aug-cc-pvdz iop(5/13=1,5/36=2,99/5=2) pseudo=read geom=check gue
 ss=(read,tcheck) scf=(maxcycle=1)
 ----------------------------------------------------------------------
 -----
 title
 -----
 Structure from the checkpoint file:  "BDE49_nonexpt_165_mol1.chk"
 Charge =  0 Multiplicity = 1

                         Standard orientation:
 ---------------------------------------------------------------------
 Center     Atomic      Atomic             Coordinates (Angstroms)
 Number     Number       Type             X           Y           Z
 ---------------------------------------------------------------------
      1         17           0       -1.237793    1.515672    0.000002
      2         17           0       -1.237796   -1.515670   -0.000009
      3          7           0        1.101231   -0.000001    0.000002
      4          5           0       -0.289190    0.000000   -0.000001
      5          6           0        1.917128    1.215020    0.000011
      6          1           0        2.559655    1.236498    0.886846
      7          1           0        1.289088    2.101017    0.000009
      8          1           0        2.559666    1.236502   -0.886817
      9          6           0        1.917126   -1.215023    0.000001
     10          1           0        1.289086   -2.101019   -0.000009
     11          1           0        2.559652   -1.236508    0.886837
     12          1           0        2.559665   -1.236496   -0.886826
 ---------------------------------------------------------------------

 SCF Done:  E(RHF) =  -1077.83898875     A.U. after    2 cycles

 The electronic state is 1-A.
 Alpha  occ. eigenvalues -- -105.56004-105.56003 -15.52440 -11.27775 -11.27768
 Alpha  occ. eigenvalues --  -10.61029 -10.60989  -7.77919  -7.77892  -7.77615
 Alpha  occ. eigenvalues --   -7.77611  -7.77606  -7.77600  -7.70168  -1.24511
 Alpha  occ. eigenvalues --   -1.08408  -1.04499  -0.98074  -0.92104  -0.73912
 Alpha  occ. eigenvalues --   -0.66710  -0.66640  -0.64084  -0.57279  -0.56775
 Alpha  occ. eigenvalues --   -0.55756  -0.54673  -0.52232  -0.48806  -0.46644
 Alpha  occ. eigenvalues --   -0.44662  -0.42323
 Alpha virt. eigenvalues --    0.03208   0.04500   0.04506   0.05530   0.06424
 Alpha virt. eigenvalues --    0.06709   0.06961   0.06978   0.07874   0.09763
 Alpha virt. eigenvalues --    0.13175   0.13736   0.13868   0.14252   0.15635

 Mulliken charges:
               1
     1  Cl  -0.397562
     2  Cl  -0.397562
     3  N    0.449275
     4  B    0.489332
     5  C   -0.461654
     6  H    0.208104
     7  H   -0.026298
     8  H    0.208106
     9  C   -0.461652
    10  H   -0.026300
    11  H    0.208106
    12  H    0.208106
 Sum of Mulliken charges =  -0.00000

 Dipole moment (field-independent basis, Debye):
    X=              3.1863    Y=             -0.0000    Z=              0.0000  Tot=              3.1863

 Test job not archived.
 1\1\GINC-SE341\SP\RHF\Aug-CC-pVDZ\C2H6B1Cl2N1\OHZDE\08-Apr-2025\0\\#t
 hf aug-cc-pvdz iop(5/13=1,5/36=2,99/5=2) pseudo=read geom=check guess=
 (read,tcheck) scf=(maxcycle=1)\\title\\0,1\Cl,0,-1.237794,1.515671,0.0
 00002\Cl,0,-1.237795,-1.515671,-0.000009\N,0,1.101231,0.,0.000002\B,0,
 -0.28919,0.,-0.000001\C,0,1.917127,1.215021,0.000011\H,0,2.559654,1.23
 6499,0.886846\H,0,1.289087,2.101018,0.000009\H,0,2.559665,1.236503,-0.
 886817\C,0,1.917127,-1.215022,0.000001\H,0,1.289087,-2.101018,-0.00000
 9\H,0,2.559653,-1.236507,0.886837\H,0,2.559666,-1.236495,-0.886826\\Ve

 Normal termination of Gaussian 16 at Tue Apr  8 23:41:21 2025.
