 Gaussian 16, Revision C.01,

 ----------------------------------------------------------------------
 #t hf aug-cc-pvdz symm=none int=(grid=ultrafine) guess=(read,tcheck) s
 table=(opt,rrhf)
 ----------------------------------------------------------------------
 -----
 title
 -----
 Symbolic Z-matrix:
 Charge =  0 Multiplicity = 1

 SCF Done:  E(RHF) =  -878.141724556     A.U. after   12 cycles

 1\1\GINC-SE072\Stability\RHF\Aug-CC-pVDZ\F3H3Si2\OHZDE\09-Apr-2025\0\\
 #t hf aug-cc-pvdz symm=none int=(grid=ultrafine) guess=(read,tcheck) s
 table=(opt,rrhf)\\title\\0,1\Si,0,1.310388,-0.513601,-0.252868\Si,0,-0
 .888492,0.087937,0.366335\F,0,-1.853833,-1.117831,-0.072542\F,0,2.3204
 38,0.619925,0.304968\F,0,-1.345611,1.385385,-0.457207\H,0,1.450862,-0.
 585017,-1.722236\H,0,-1.134272,0.360974,1.793701\H,0,1.687913,-1.80397
 3,0.363023\\Version=ES64L-G16RevC.01\HF=-878.1417246\RMSD=3.663e-09\Di
 pole=0.2588348,-0.4726566,0.2277269\Quadrupole=-2.7406664,-0.1498772,2

 Normal termination of Gaussian 16 at Wed Apr  9 00:08:30 2025.
 Gaussian 16:  ES64L-G16RevC.01  3-Jul-2019

 ----------------------------------------------------------------------
 #t hf aug-cc-pvdz iop(5/13=1,5/36=2,99/5=2) pseudo=read geom=check gue
 ss=(read,tcheck) scf=(maxcycle=1)
 ----------------------------------------------------------------------
 -----
 title
 -----
 Structure from the checkpoint file:  "BDE49_nonexpt_2311_mol1.chk"
 Charge =  0 Multiplicity = 1

                         Standard orientation:
 ---------------------------------------------------------------------
 Center     Atomic      Atomic             Coordinates (Angstroms)
 Number     Number       Type             X           Y           Z
 ---------------------------------------------------------------------
      1         14           0        1.310388   -0.513601   -0.252868
      2         14           0       -0.888492    0.087937    0.366335
      3          9           0       -1.853833   -1.117831   -0.072542
      4          9           0        2.320438    0.619925    0.304968
      5          9           0       -1.345611    1.385385   -0.457207
      6          1           0        1.450862   -0.585017   -1.722236
      7          1           0       -1.134272    0.360974    1.793701
      8          1           0        1.687913   -1.803973    0.363023
 ---------------------------------------------------------------------

 SCF Done:  E(RHF) =  -878.478657489     A.U. after    2 cycles

 The electronic state is 1-A.
 Alpha  occ. eigenvalues --  -69.63787 -69.59954 -26.47302 -26.47169 -26.46443
 Alpha  occ. eigenvalues --   -6.29996  -6.26612  -4.05387  -4.05222  -4.05038
 Alpha  occ. eigenvalues --   -4.02035  -4.01822  -4.01816  -1.59607  -1.57408
 Alpha  occ. eigenvalues --   -1.57353  -0.82059  -0.77411  -0.70526  -0.68820
 Alpha  occ. eigenvalues --   -0.68336  -0.65695  -0.65633  -0.64366  -0.63324
 Alpha  occ. eigenvalues --   -0.62486  -0.56997  -0.50997  -0.44161
 Alpha virt. eigenvalues --    0.03786   0.04346   0.04562   0.05339   0.07132
 Alpha virt. eigenvalues --    0.07602   0.07840   0.08741   0.09705   0.11166
 Alpha virt. eigenvalues --    0.12726   0.14388   0.16372   0.17578   0.18866

 Mulliken charges:
               1
     1  Si   1.033844
     2  Si   1.853547
     3  F   -0.784059
     4  F   -0.814259
     5  F   -0.801406
     6  H   -0.137829
     7  H   -0.180639
     8  H   -0.169198
 Sum of Mulliken charges =  -0.00000

 Dipole moment (field-independent basis, Debye):
    X=              0.6204    Y=             -1.0960    Z=              0.5103  Tot=              1.3589

 Test job not archived.
 1\1\GINC-SE072\SP\RHF\Aug-CC-pVDZ\F3H3Si2\OHZDE\09-Apr-2025\0\\#t hf a
 ug-cc-pvdz iop(5/13=1,5/36=2,99/5=2) pseudo=read geom=check guess=(rea
 d,tcheck) scf=(maxcycle=1)\\title\\0,1\Si,0,1.310388,-0.513601,-0.2528
 68\Si,0,-0.888492,0.087937,0.366335\F,0,-1.853833,-1.117831,-0.072542\
 F,0,2.320438,0.619925,0.304968\F,0,-1.345611,1.385385,-0.457207\H,0,1.
 450862,-0.585017,-1.722236\H,0,-1.134272,0.360974,1.793701\H,0,1.68791
 3,-1.803973,0.363023\\Version=ES64L-G16RevC.01\State=1-A\HF=-878.47865
 75\RMSD=3.068e-03\Dipole=0.2440779,-0.4312169,0.2007848\Quadrupole=-2.

 Normal termination of Gaussian 16 at Wed Apr  9 00:08:33 2025.
