 Gaussian 16, Revision C.01,

 ----------------------------------------------------------------------
 #t hf aug-cc-pvdz symm=none int=(grid=ultrafine) guess=(read,tcheck) s
 table=(opt,rrhf)
 ----------------------------------------------------------------------
 -----
 title
 -----
 Symbolic Z-matrix:
 Charge =  0 Multiplicity = 1

 SCF Done:  E(RHF) =  -574.795435176     A.U. after   14 cycles

 1\1\GINC-SE250\Stability\RHF\Aug-CC-pVDZ\C3H3Cl1\OHZDE\08-Apr-2025\0\\
 #t hf aug-cc-pvdz symm=none int=(grid=ultrafine) guess=(read,tcheck) s
 table=(opt,rrhf)\\title\\0,1\C,0,-0.016882,0.833544,0.000025\C,0,1.255
 226,0.14679,-0.000036\C,0,2.32374,-0.400243,-0.000042\Cl,0,-1.433131,-
 0.323059,0.000009\H,0,-0.137565,1.451515,0.888878\H,0,-0.137635,1.4515
 9,-0.888758\H,0,3.265919,-0.891642,0.000038\\Version=ES64L-G16RevC.01\
 HF=-574.7954352\RMSD=3.107e-09\Dipole=0.5909055,0.5317782,0.0000657\Qu
 adrupole=0.8427912,0.580542,-1.4233333,-2.0958136,0.000303,-0.000009\P

 Normal termination of Gaussian 16 at Tue Apr  8 22:47:28 2025.
 Gaussian 16:  ES64L-G16RevC.01  3-Jul-2019

 ----------------------------------------------------------------------
 #t hf aug-cc-pvdz iop(5/13=1,5/36=2,99/5=2) pseudo=read geom=check gue
 ss=(read,tcheck) scf=(maxcycle=1)
 ----------------------------------------------------------------------
 -----
 title
 -----
 Structure from the checkpoint file:  "BDE49_expt_1641_mol1.chk"
 Charge =  0 Multiplicity = 1

                         Standard orientation:
 ---------------------------------------------------------------------
 Center     Atomic      Atomic             Coordinates (Angstroms)
 Number     Number       Type             X           Y           Z
 ---------------------------------------------------------------------
      1          6           0       -0.016882    0.833544    0.000025
      2          6           0        1.255226    0.146790   -0.000036
      3          6           0        2.323740   -0.400243   -0.000042
      4         17           0       -1.433131   -0.323059    0.000009
      5          1           0       -0.137565    1.451515    0.888878
      6          1           0       -0.137635    1.451590   -0.888758
      7          1           0        3.265919   -0.891642    0.000038
 ---------------------------------------------------------------------

 SCF Done:  E(RHF) =  -574.992134919     A.U. after    2 cycles

 The electronic state is 1-A.
 Alpha  occ. eigenvalues -- -105.56715 -11.34139 -11.26416 -11.25799 -10.61467
 Alpha  occ. eigenvalues --   -7.78407  -7.78018  -7.78009  -1.13023  -1.03952
 Alpha  occ. eigenvalues --   -0.93903  -0.75011  -0.68428  -0.66123  -0.58246
 Alpha  occ. eigenvalues --   -0.46365  -0.46034  -0.41707  -0.41610
 Alpha virt. eigenvalues --    0.03401   0.03704   0.05101   0.07663   0.09087
 Alpha virt. eigenvalues --    0.09546   0.11106   0.13114   0.14030   0.15087
 Alpha virt. eigenvalues --    0.15523   0.15552   0.16775   0.16776   0.18295

 Mulliken charges:
               1
     1  C   -0.963928
     2  C    0.404506
     3  C    0.336882
     4  Cl  -0.037369
     5  H    0.304089
     6  H    0.304081
     7  H   -0.348261
 Sum of Mulliken charges =   0.00000

 Dipole moment (field-independent basis, Debye):
    X=              1.5110    Y=              1.3537    Z=              0.0002  Tot=              2.0287

 Test job not archived.
 1\1\GINC-SE250\SP\RHF\Aug-CC-pVDZ\C3H3Cl1\OHZDE\08-Apr-2025\0\\#t hf a
 ug-cc-pvdz iop(5/13=1,5/36=2,99/5=2) pseudo=read geom=check guess=(rea
 d,tcheck) scf=(maxcycle=1)\\title\\0,1\C,0,-0.016882,0.833544,0.000025
 \C,0,1.255226,0.14679,-0.000036\C,0,2.32374,-0.400243,-0.000042\Cl,0,-
 1.433131,-0.323059,0.000009\H,0,-0.137565,1.451515,0.888878\H,0,-0.137
 635,1.45159,-0.888758\H,0,3.265919,-0.891642,0.000038\\Version=ES64L-G
 16RevC.01\State=1-A\HF=-574.9921349\RMSD=2.203e-02\Dipole=0.5944538,0.
 5326044,0.0000664\Quadrupole=0.9347394,0.5593826,-1.4941221,-2.1478706

 Normal termination of Gaussian 16 at Tue Apr  8 22:47:30 2025.
