 Gaussian 16, Revision C.01,

 ----------------------------------------------------------------------
 #t hf aug-cc-pvdz symm=none int=(grid=ultrafine) guess=(read,tcheck) s
 table=(opt,rrhf)
 ----------------------------------------------------------------------
 -----
 title
 -----
 Symbolic Z-matrix:
 Charge =  0 Multiplicity = 1

 SCF Done:  E(RHF) =  -944.749317426     A.U. after   15 cycles
 Normal termination of Gaussian 16 at Wed Apr  9 00:11:12 2025.
 Gaussian 16:  ES64L-G16RevC.01  3-Jul-2019

 ----------------------------------------------------------------------
 #t hf aug-cc-pvdz iop(5/13=1,5/36=2,99/5=2) pseudo=read geom=check gue
 ss=(read,tcheck) scf=(maxcycle=1)
 ----------------------------------------------------------------------
 -----
 title
 -----
 Structure from the checkpoint file:  "BDE49_nonexpt_2353_mol1.chk"
 Charge =  0 Multiplicity = 1

                         Standard orientation:
 ---------------------------------------------------------------------
 Center     Atomic      Atomic             Coordinates (Angstroms)
 Number     Number       Type             X           Y           Z
 ---------------------------------------------------------------------
      1         14           0        1.124466   -1.176727    0.210839
      2         14           0       -1.041554   -1.102473   -0.710008
      3          6           0        1.864464    0.588562   -0.025478
      4          8           0        1.311236    1.571913   -0.391442
      5          1           0        2.042567   -2.122952   -0.461244
      6          1           0        1.135457   -1.429719    1.668086
      7          9           0        3.199501    0.642945    0.296294
      8          6           0       -2.036102    0.259386    0.264753
      9          1           0       -1.721833   -2.397852   -0.492813
     10          1           0       -0.926874   -0.824500   -2.163060
     11          8           0       -2.400778   -0.039016    1.382268
     12          6           0       -2.287681    1.617717   -0.345047
     13          1           0       -2.838034    1.511297   -1.285745
     14          1           0       -1.326880    2.084795   -0.586089
     15          1           0       -2.848435    2.244059    0.350603
 ---------------------------------------------------------------------

 SCF Done:  E(RHF) =  -945.165492807     A.U. after    2 cycles

 The electronic state is 1-A.
 Alpha  occ. eigenvalues --  -69.57044 -69.55576 -26.49314 -20.59030 -20.55723
 Alpha  occ. eigenvalues --  -11.42906 -11.34487 -11.24964  -6.24218  -6.22778
 Alpha  occ. eigenvalues --   -3.99590  -3.99519  -3.99510  -3.98108  -3.98099
 Alpha  occ. eigenvalues --   -3.98093  -1.63126  -1.51980  -1.48424  -1.02280
 Alpha  occ. eigenvalues --   -0.89368  -0.83033  -0.78661  -0.72632  -0.72162
 Alpha  occ. eigenvalues --   -0.69513  -0.67991  -0.63654  -0.62973  -0.61229
 Alpha  occ. eigenvalues --   -0.58684  -0.55661  -0.54890  -0.52196  -0.52053
 Alpha  occ. eigenvalues --   -0.50477  -0.46625  -0.44713  -0.39119
 Alpha virt. eigenvalues --    0.03019   0.03461   0.04568   0.04768   0.05736
 Alpha virt. eigenvalues --    0.06076   0.06633   0.06842   0.07487   0.07872
 Alpha virt. eigenvalues --    0.08283   0.08944   0.09309   0.11034   0.11148

 Mulliken charges:
               1
     1  Si   0.719838
     2  Si   0.466867
     3  C    1.142411
     4  O   -0.920632
     5  H   -0.144184
     6  H   -0.128627
     7  F   -0.727731
     8  C    0.670838
     9  H   -0.094910
    10  H   -0.042796
    11  O   -1.148812
    12  C   -0.415625
    13  H    0.225469
    14  H    0.260479
    15  H    0.137414
 Sum of Mulliken charges =  -0.00000

 Dipole moment (field-independent basis, Debye):
    X=             -0.4255    Y=             -1.7474    Z=             -2.0875  Tot=              2.7554

 Test job not archived.
 1\1\GINC-SE284\SP\RHF\Aug-CC-pVDZ\C3H7F1O2Si2\OHZDE\09-Apr-2025\0\\#t
 hf aug-cc-pvdz iop(5/13=1,5/36=2,99/5=2) pseudo=read geom=check guess=
 (read,tcheck) scf=(maxcycle=1)\\title\\0,1\Si,0,1.124466,-1.176727,0.2
 10839\Si,0,-1.041554,-1.102473,-0.710008\C,0,1.864464,0.588562,-0.0254
 78\O,0,1.311236,1.571913,-0.391442\H,0,2.042567,-2.122952,-0.461244\H,
 0,1.135457,-1.429719,1.668086\F,0,3.199501,0.642945,0.296294\C,0,-2.03
 6102,0.259386,0.264753\H,0,-1.721833,-2.397852,-0.492813\H,0,-0.926874
 ,-0.8245,-2.16306\O,0,-2.400778,-0.039016,1.382268\C,0,-2.287681,1.617

 Normal termination of Gaussian 16 at Wed Apr  9 00:11:18 2025.
