 Gaussian 16, Revision C.01,

 ----------------------------------------------------------------------
 #t hf aug-cc-pvdz symm=none int=(grid=ultrafine) guess=(read,tcheck) s
 table=(opt,rrhf)
 ----------------------------------------------------------------------
 -----
 title
 -----
 Symbolic Z-matrix:
 Charge =  0 Multiplicity = 1

 SCF Done:  E(RHF) =  -824.661648112     A.U. after   16 cycles
 Normal termination of Gaussian 16 at Tue Apr  8 23:38:18 2025.
 Gaussian 16:  ES64L-G16RevC.01  3-Jul-2019

 ----------------------------------------------------------------------
 #t hf aug-cc-pvdz iop(5/13=1,5/36=2,99/5=2) pseudo=read geom=check gue
 ss=(read,tcheck) scf=(maxcycle=1)
 ----------------------------------------------------------------------
 -----
 title
 -----
 Structure from the checkpoint file:  "BDE49_nonexpt_1548_mol1.chk"
 Charge =  0 Multiplicity = 1

                         Standard orientation:
 ---------------------------------------------------------------------
 Center     Atomic      Atomic             Coordinates (Angstroms)
 Number     Number       Type             X           Y           Z
 ---------------------------------------------------------------------
      1          6           0        0.417981   -0.155443    0.515612
      2          7           0       -2.357027    0.166065   -0.185752
      3          9           0       -2.204857   -0.780665   -1.223878
      4          9           0       -1.802967    1.331232   -0.765751
      5          6           0        1.138345   -1.273904    0.073029
      6          6           0        1.022126    1.109839    0.465273
      7          6           0        2.433722   -1.131218   -0.417060
      8          6           0        3.024597    0.129215   -0.459557
      9          6           0        2.319365    1.248044   -0.016012
     10          1           0        2.779842    2.228826   -0.050164
     11          1           0        0.475045    1.983612    0.796968
     12          1           0        2.980845   -2.001775   -0.759978
     13          1           0        4.035297    0.241262   -0.835575
     14          1           0        0.683234   -2.257555    0.114425
     15         15           0       -1.271960   -0.442405    1.141142
     16          1           0       -1.442073    0.764948    1.856407
 ---------------------------------------------------------------------

 SCF Done:  E(RHF) =  -825.170937545     A.U. after    2 cycles

 The electronic state is 1-A.
 Alpha  occ. eigenvalues --  -84.32940 -26.49506 -26.49351 -15.69475 -11.26890
 Alpha  occ. eigenvalues --  -11.26827 -11.26682 -11.26643 -11.25923 -11.25900
 Alpha  occ. eigenvalues --   -6.79762  -4.32656  -4.32286  -4.31791  -1.64773
 Alpha  occ. eigenvalues --   -1.56495  -1.17557  -1.11128  -1.04132  -1.03733
 Alpha  occ. eigenvalues --   -0.89482  -0.85523  -0.82454  -0.74763  -0.74193
 Alpha  occ. eigenvalues --   -0.73480  -0.70347  -0.66607  -0.65219  -0.64262
 Alpha  occ. eigenvalues --   -0.61954  -0.60498  -0.60008  -0.56668  -0.53216
 Alpha  occ. eigenvalues --   -0.52598  -0.50934  -0.47769  -0.38895  -0.36583
 Alpha  occ. eigenvalues --   -0.36362
 Alpha virt. eigenvalues --    0.03106   0.03564   0.03866   0.05263   0.05793
 Alpha virt. eigenvalues --    0.05905   0.07614   0.07842   0.08786   0.09569
 Alpha virt. eigenvalues --    0.11074   0.11756   0.12003   0.12976   0.13587

 Mulliken charges:
               1
     1  C    0.949873
     2  N    0.938995
     3  F   -0.633772
     4  F   -0.660747
     5  C   -0.732693
     6  C   -0.172803
     7  C    0.493047
     8  C    0.025202
     9  C    0.563648
    10  H   -0.211864
    11  H   -0.296415
    12  H   -0.206681
    13  H   -0.203999
    14  H   -0.272516
    15  P    0.206281
    16  H    0.214444
 Sum of Mulliken charges =  -0.00000

 Dipole moment (field-independent basis, Debye):
    X=              3.3504    Y=             -0.0887    Z=              1.5486  Tot=              3.6920

 Test job not archived.
 1\1\GINC-SE080\SP\RHF\Aug-CC-pVDZ\C6H6F2N1P1\OHZDE\08-Apr-2025\0\\#t h
 f aug-cc-pvdz iop(5/13=1,5/36=2,99/5=2) pseudo=read geom=check guess=(
 read,tcheck) scf=(maxcycle=1)\\title\\0,1\C,0,0.417981,-0.155443,0.515
 612\N,0,-2.357027,0.166065,-0.185752\F,0,-2.204857,-0.780665,-1.223878
 \F,0,-1.802967,1.331232,-0.765751\C,0,1.138345,-1.273904,0.073029\C,0,
 1.022126,1.109839,0.465273\C,0,2.433722,-1.131218,-0.41706\C,0,3.02459
 7,0.129215,-0.459557\C,0,2.319365,1.248044,-0.016012\H,0,2.779842,2.22
 8826,-0.050164\H,0,0.475045,1.983612,0.796968\H,0,2.980845,-2.001775,-

 Normal termination of Gaussian 16 at Tue Apr  8 23:38:26 2025.
