 Gaussian 16, Revision C.01,

 ----------------------------------------------------------------------
 #t hf aug-cc-pvdz symm=none int=(grid=ultrafine) guess=(read,tcheck) s
 table=(opt,rrhf)
 ----------------------------------------------------------------------
 -----
 title
 -----
 Symbolic Z-matrix:
 Charge =  0 Multiplicity = 1

 SCF Done:  E(RHF) =  -569.618895502     A.U. after   14 cycles
 Normal termination of Gaussian 16 at Tue Apr  8 23:56:20 2025.
 Gaussian 16:  ES64L-G16RevC.01  3-Jul-2019

 ----------------------------------------------------------------------
 #t hf aug-cc-pvdz iop(5/13=1,5/36=2,99/5=2) pseudo=read geom=check gue
 ss=(read,tcheck) scf=(maxcycle=1)
 ----------------------------------------------------------------------
 -----
 title
 -----
 Structure from the checkpoint file:  "BDE49_nonexpt_2014_mol1.chk"
 Charge =  0 Multiplicity = 1

                         Standard orientation:
 ---------------------------------------------------------------------
 Center     Atomic      Atomic             Coordinates (Angstroms)
 Number     Number       Type             X           Y           Z
 ---------------------------------------------------------------------
      1          7           0       -1.020952    0.039361    0.000021
      2         14           0        1.643061    0.001523    0.000003
      3          8           0       -0.797604    1.234503   -0.000023
      4          8           0       -2.064960   -0.538570   -0.000012
      5          8           0        0.113325   -0.788541    0.000011
      6          1           0        2.535051   -1.170089   -0.000010
      7          1           0        1.801341    0.807049    1.221399
      8          1           0        1.801321    0.807060   -1.221390
 ---------------------------------------------------------------------

 SCF Done:  E(RHF) =  -569.916576670     A.U. after    2 cycles

 The electronic state is 1-A.
 Alpha  occ. eigenvalues --  -69.59899 -20.64559 -20.63085 -20.62429 -15.87245
 Alpha  occ. eigenvalues --   -6.26502  -4.01989  -4.01825  -4.01786  -1.74506
 Alpha  occ. eigenvalues --   -1.56904  -1.51271  -0.98339  -0.85049  -0.81289
 Alpha  occ. eigenvalues --   -0.80234  -0.75382  -0.61878  -0.58909  -0.54636
 Alpha  occ. eigenvalues --   -0.52174  -0.51016  -0.50971  -0.48787
 Alpha virt. eigenvalues --    0.03390   0.04352   0.04890   0.05792   0.06069
 Alpha virt. eigenvalues --    0.08446   0.08695   0.12012   0.13444   0.14549
 Alpha virt. eigenvalues --    0.16293   0.16834   0.18231   0.18590   0.19374

 Mulliken charges:
               1
     1  N    2.695105
     2  Si   1.429674
     3  O   -1.086256
     4  O   -1.082148
     5  O   -1.410151
     6  H   -0.189656
     7  H   -0.178286
     8  H   -0.178282
 Sum of Mulliken charges =  -0.00000

 Dipole moment (field-independent basis, Debye):
    X=              3.0067    Y=             -0.0497    Z=              0.0000  Tot=              3.0071

 Test job not archived.
 1\1\GINC-SE341\SP\RHF\Aug-CC-pVDZ\H3N1O3Si1\OHZDE\08-Apr-2025\0\\#t hf
  aug-cc-pvdz iop(5/13=1,5/36=2,99/5=2) pseudo=read geom=check guess=(r
 ead,tcheck) scf=(maxcycle=1)\\title\\0,1\N,0,1.020952,0.039361,-0.0000
 21\Si,0,-1.643061,0.001523,-0.000003\O,0,0.797604,1.234503,0.000023\O,
 0,2.06496,-0.53857,0.000012\O,0,-0.113325,-0.788541,-0.000011\H,0,-2.5
 35051,-1.170089,0.00001\H,0,-1.801341,0.807049,-1.221399\H,0,-1.801321
 ,0.80706,1.22139\\Version=ES64L-G16RevC.01\State=1-A\HF=-569.9165767\R
 MSD=1.466e-02\Dipole=-1.1829092,-0.0195452,-0.0000167\Quadrupole=0.798

 Normal termination of Gaussian 16 at Tue Apr  8 23:56:23 2025.
