 Gaussian 16, Revision C.01,

 ----------------------------------------------------------------------
 #t hf aug-cc-pvdz symm=none int=(grid=ultrafine) guess=(read,tcheck) s
 table=(opt,rrhf)
 ----------------------------------------------------------------------
 -----
 title
 -----
 Symbolic Z-matrix:
 Charge =  0 Multiplicity = 1

 SCF Done:  E(RHF) =  -613.290196933     A.U. after   16 cycles
 Normal termination of Gaussian 16 at Wed Apr  9 00:42:31 2025.
 Gaussian 16:  ES64L-G16RevC.01  3-Jul-2019

 ----------------------------------------------------------------------
 #t hf aug-cc-pvdz iop(5/13=1,5/36=2,99/5=2) pseudo=read geom=check gue
 ss=(read,tcheck) scf=(maxcycle=1)
 ----------------------------------------------------------------------
 -----
 title
 -----
 Structure from the checkpoint file:  "BDE49_nonexpt_698_mol1.chk"
 Charge =  0 Multiplicity = 1

                         Standard orientation:
 ---------------------------------------------------------------------
 Center     Atomic      Atomic             Coordinates (Angstroms)
 Number     Number       Type             X           Y           Z
 ---------------------------------------------------------------------
      1          6           0       -1.806198    1.290764   -0.076439
      2          6           0       -2.588172    0.155684    0.128401
      3          6           0       -1.948466   -1.078037    0.196176
      4          7           0       -0.625894   -1.231521    0.080459
      5          6           0        0.119131   -0.135962   -0.103881
      6          6           0       -0.430632    1.148683   -0.201348
      7          1           0       -3.664500    0.222272    0.229563
      8          1           0       -2.518935   -1.989738    0.349176
      9          1           0        0.205416    2.010633   -0.362438
     10          1           0       -2.262040    2.272568   -0.139374
     11          5           0        3.000471    0.758253    0.556431
     12         15           0        1.912710   -0.436579   -0.319686
     13          1           0        2.681346    1.899112    0.657828
     14          1           0        4.096466    0.400400    0.846293
     15          1           0        2.076515   -1.723971    0.211430
 ---------------------------------------------------------------------

 SCF Done:  E(RHF) =  -613.612412029     A.U. after    2 cycles

 The electronic state is 1-A.
 Alpha  occ. eigenvalues --  -84.26300 -15.51099 -11.30028 -11.28792 -11.27347
 Alpha  occ. eigenvalues --  -11.25552 -11.25293  -7.61025  -6.73950  -4.26970
 Alpha  occ. eigenvalues --   -4.26681  -4.25610  -1.26771  -1.09812  -1.05209
 Alpha  occ. eigenvalues --   -0.91632  -0.88226  -0.83739  -0.72999  -0.69690
 Alpha  occ. eigenvalues --   -0.68369  -0.64641  -0.60691  -0.58323  -0.57466
 Alpha  occ. eigenvalues --   -0.53020  -0.49720  -0.47574  -0.44279  -0.41386
 Alpha  occ. eigenvalues --   -0.38828  -0.30363
 Alpha virt. eigenvalues --    0.03009   0.03632   0.03914   0.04015   0.04582
 Alpha virt. eigenvalues --    0.05097   0.06801   0.07332   0.07639   0.08747
 Alpha virt. eigenvalues --    0.08897   0.09427   0.10602   0.11475   0.11937

 Mulliken charges:
               1
     1  C    0.085625
     2  C    0.710441
     3  C   -0.668773
     4  N    1.165017
     5  C   -1.749954
     6  C    0.573276
     7  H   -0.193202
     8  H   -0.184187
     9  H   -0.243336
    10  H   -0.173972
    11  B   -0.314879
    12  P    0.070281
    13  H    0.297471
    14  H    0.306027
    15  H    0.320164
 Sum of Mulliken charges =  -0.00000

 Dipole moment (field-independent basis, Debye):
    X=             -1.7947    Y=              1.7725    Z=              0.2160  Tot=              2.5317

 Test job not archived.
 1\1\GINC-SE338\SP\RHF\Aug-CC-pVDZ\C5H7B1N1P1\OHZDE\09-Apr-2025\0\\#t h
 f aug-cc-pvdz iop(5/13=1,5/36=2,99/5=2) pseudo=read geom=check guess=(
 read,tcheck) scf=(maxcycle=1)\\title\\0,1\C,0,-1.806198,1.290764,-0.07
 6439\C,0,-2.588172,0.155684,0.128401\C,0,-1.948466,-1.078037,0.196176\
 N,0,-0.625894,-1.231521,0.080459\C,0,0.119131,-0.135962,-0.103881\C,0,
 -0.430632,1.148683,-0.201348\H,0,-3.6645,0.222272,0.229563\H,0,-2.5189
 35,-1.989738,0.349176\H,0,0.205416,2.010633,-0.362438\H,0,-2.26204,2.2
 72568,-0.139374\B,0,3.000471,0.758253,0.556431\P,0,1.91271,-0.436579,-

 Normal termination of Gaussian 16 at Wed Apr  9 00:42:36 2025.
