 Gaussian 16, Revision C.01,

 ----------------------------------------------------------------------
 #t hf aug-cc-pvdz symm=none int=(grid=ultrafine) guess=(read,tcheck) s
 table=(opt,rrhf)
 ----------------------------------------------------------------------
 -----
 title
 -----
 Symbolic Z-matrix:
 Charge =  0 Multiplicity = 1

 SCF Done:  E(RHF) =  -273.487015539     A.U. after   13 cycles
 Normal termination of Gaussian 16 at Tue Apr  8 22:56:33 2025.
 Gaussian 16:  ES64L-G16RevC.01  3-Jul-2019

 ----------------------------------------------------------------------
 #t hf aug-cc-pvdz iop(5/13=1,5/36=2,99/5=2) pseudo=read geom=check gue
 ss=(read,tcheck) scf=(maxcycle=1)
 ----------------------------------------------------------------------
 -----
 title
 -----
 Structure from the checkpoint file:  "BDE49_expt_1902_mol1.chk"
 Charge =  0 Multiplicity = 1

                         Standard orientation:
 ---------------------------------------------------------------------
 Center     Atomic      Atomic             Coordinates (Angstroms)
 Number     Number       Type             X           Y           Z
 ---------------------------------------------------------------------
      1          8           0        0.000000   -0.000000    0.598733
      2          9           0        0.000000    1.110049   -0.266104
      3          9           0       -0.000000   -1.110049   -0.266104
 ---------------------------------------------------------------------

 SCF Done:  E(RHF) =  -273.734134281     A.U. after    2 cycles

 The electronic state is 1-A1.
 Alpha  occ. eigenvalues --  -26.57188 -26.57178 -20.81445  -1.79127  -1.61511
 Alpha  occ. eigenvalues --   -1.30923  -0.80325  -0.78400  -0.78375  -0.69731
 Alpha  occ. eigenvalues --   -0.65566  -0.63638  -0.56209
 Alpha virt. eigenvalues --    0.09489   0.11727   0.16720   0.19198   0.19489
 Alpha virt. eigenvalues --    0.22912   0.26248   0.28261   0.28606   0.28802
 Alpha virt. eigenvalues --    0.32963   0.35067   0.48098   0.52231   0.94784

 Mulliken charges:
               1
     1  O    0.547069
     2  F   -0.273535
     3  F   -0.273535
 Sum of Mulliken charges =  -0.00000

 Dipole moment (field-independent basis, Debye):
    X=              0.0000    Y=              0.0000    Z=              0.3211  Tot=              0.3211

 Test job not archived.
 1\1\GINC-SE454\SP\RHF\Aug-CC-pVDZ\F2O1\OHZDE\08-Apr-2025\0\\#t hf aug-
 cc-pvdz iop(5/13=1,5/36=2,99/5=2) pseudo=read geom=check guess=(read,t
 check) scf=(maxcycle=1)\\title\\0,1\O,0,0.,0.,0.598733\F,0,0.,1.110049
 ,-0.266104\F,0,0.,-1.110049,-0.266104\\Version=ES64L-G16RevC.01\State=
 1-A1\HF=-273.7341343\RMSD=5.502e-03\Dipole=0.,0.,0.126341\Quadrupole=-
 0.2450424,0.0054317,0.2396106,0.,0.,0.\PG=C02V [C2(O1),SGV(F2)]\\@

 Normal termination of Gaussian 16 at Tue Apr  8 22:56:34 2025.
