 Gaussian 16, Revision C.01,

 ----------------------------------------------------------------------
 #t hf aug-cc-pvdz symm=none int=(grid=ultrafine) guess=(read,tcheck) s
 table=opt
 ----------------------------------------------------------------------
 -----
 title
 -----
 Symbolic Z-matrix:
 Charge =  0 Multiplicity = 2

 SCF Done:  E(UHF) =  -703.909032907     A.U. after   22 cycles
 Normal termination of Gaussian 16 at Wed Apr  9 00:15:37 2025.
 Gaussian 16:  ES64L-G16RevC.01  3-Jul-2019

 ----------------------------------------------------------------------
 #t hf aug-cc-pvdz iop(5/13=1,5/36=2,99/5=2) pseudo=read geom=check gue
 ss=(read,tcheck) scf=(maxcycle=1)
 ----------------------------------------------------------------------
 -----
 title
 -----
 Structure from the checkpoint file:  "BDE49_nonexpt_2482_mol2.chk"
 Charge =  0 Multiplicity = 2

                         Standard orientation:
 ---------------------------------------------------------------------
 Center     Atomic      Atomic             Coordinates (Angstroms)
 Number     Number       Type             X           Y           Z
 ---------------------------------------------------------------------
      1         16           0        1.587995   -0.029893   -0.043528
      2          8           0        1.373230   -1.380363   -0.581609
      3          8           0        1.568517    0.219819    1.403010
      4          6           0        0.293451    1.081249   -0.794556
      5          6           0       -1.058219    0.951330   -0.091363
      6          1           0        0.267806    0.792765   -1.846509
      7          1           0        0.713583    2.083299   -0.694480
      8          6           0       -1.752584   -0.404577   -0.258257
      9          1           0       -1.696406    1.742713   -0.505978
     10          1           0       -0.926756    1.180561    0.969988
     11          6           0       -3.128361   -0.438939    0.412630
     12          1           0       -1.855098   -0.629630   -1.326154
     13          1           0       -1.120487   -1.194388    0.157961
     14          1           0       -3.798605    0.315502   -0.011169
     15          1           0       -3.048813   -0.247885    1.486931
     16          1           0       -3.602838   -1.414667    0.283929
 ---------------------------------------------------------------------

 SCF Done:  E(UHF) =  -704.286327590     A.U. after    2 cycles

 The electronic state is 2-A.
 Alpha  occ. eigenvalues --  -94.16399 -20.57763 -20.57131 -11.31093 -11.26240
 Alpha  occ. eigenvalues --  -11.24131 -11.23272  -8.42407  -6.40743  -6.40189
 Alpha  occ. eigenvalues --   -6.39863  -1.56422  -1.46289  -1.12018  -1.03940
 Alpha  occ. eigenvalues --   -0.94400  -0.86218  -0.81403  -0.71392  -0.68611
 Alpha  occ. eigenvalues --   -0.67301  -0.65017  -0.62879  -0.61419  -0.57567
 Alpha  occ. eigenvalues --   -0.55166  -0.54619  -0.51346  -0.50544  -0.49334
 Alpha  occ. eigenvalues --   -0.49061  -0.48747  -0.40081
 Alpha virt. eigenvalues --    0.02763   0.03598   0.03860   0.04850   0.05971
 Alpha virt. eigenvalues --    0.06510   0.06994   0.07969   0.09147   0.10168
 Alpha virt. eigenvalues --    0.10993   0.11885   0.13110   0.13959   0.14274

  Beta  occ. eigenvalues --  -94.16043 -20.56194 -20.55782 -11.30607 -11.26209
  Beta  occ. eigenvalues --  -11.24132 -11.23269  -8.41955  -6.40157  -6.39922
  Beta  occ. eigenvalues --   -6.38975  -1.53309  -1.42272  -1.11048  -1.02759
  Beta  occ. eigenvalues --   -0.92317  -0.83988  -0.80087  -0.68438  -0.66593
  Beta  occ. eigenvalues --   -0.64791  -0.63383  -0.61662  -0.58585  -0.56289
  Beta  occ. eigenvalues --   -0.54991  -0.51055  -0.49897  -0.49270  -0.47772
  Beta  occ. eigenvalues --   -0.46505  -0.42716
  Beta virt. eigenvalues --    0.00510   0.02896   0.03675   0.03912   0.05108
  Beta virt. eigenvalues --    0.06014   0.06540   0.07030   0.08123   0.09191
  Beta virt. eigenvalues --    0.10249   0.11098   0.12131   0.13292   0.14085

 Mulliken charges and spin densities:
               1          2
     1  S    3.010331   0.273462
     2  O   -1.358008   0.305092
     3  O   -1.396522   0.262281
     4  C   -0.716494   0.169153
     5  C   -0.364879   0.006588
     6  H    0.228268  -0.013484
     7  H    0.245663  -0.001819
     8  C   -0.276660  -0.003760
     9  H    0.152959   0.005742
    10  H    0.131616  -0.002515
    11  C   -0.393690   0.002483
    12  H    0.125230   0.000642
    13  H    0.155819  -0.004175
    14  H    0.162659  -0.000076
    15  H    0.169482   0.000295
    16  H    0.124228   0.000090
 Sum of Mulliken charges =  -0.00000   1.00000

 Dipole moment (field-independent basis, Debye):
    X=             -1.9705    Y=              2.8948    Z=             -2.2430  Tot=              4.1586
                          Isotropic Fermi Contact Couplings
        Atom                 a.u.       MegaHertz       Gauss      10(-4) cm-1
     1  S(33)              0.41248     141.67487      50.55312      47.25765
     2  O(17)              0.10287     -62.36011     -22.25164     -20.80109
     3  O(17)              0.08991     -54.50178     -19.44759     -18.17984
     4  C(13)              0.06892      77.47810      27.64611      25.84391
     5  C(13)              0.00272       3.05534       1.09022       1.01915
     6  H(1)              -0.00331     -14.77690      -5.27277      -4.92904
     7  H(1)              -0.00367     -16.39717      -5.85092      -5.46951
     8  C(13)             -0.00103      -1.15590      -0.41245      -0.38557

 Normal termination of Gaussian 16 at Wed Apr  9 00:15:44 2025.
