 Gaussian 16, Revision C.01,

 ----------------------------------------------------------------------
 #t hf aug-cc-pvdz symm=none int=(grid=ultrafine) guess=(read,tcheck) s
 table=(opt,rrhf)
 ----------------------------------------------------------------------
 -----
 title
 -----
 Symbolic Z-matrix:
 Charge =  0 Multiplicity = 1

 SCF Done:  E(RHF) =  -385.007920788     A.U. after   13 cycles
 Normal termination of Gaussian 16 at Wed Apr  9 00:48:05 2025.
 Gaussian 16:  ES64L-G16RevC.01  3-Jul-2019

 ----------------------------------------------------------------------
 #t hf aug-cc-pvdz iop(5/13=1,5/36=2,99/5=2) pseudo=read geom=check gue
 ss=(read,tcheck) scf=(maxcycle=1)
 ----------------------------------------------------------------------
 -----
 title
 -----
 Structure from the checkpoint file:  "BDE49_nonexpt_86_mol1.chk"
 Charge =  0 Multiplicity = 1

                         Standard orientation:
 ---------------------------------------------------------------------
 Center     Atomic      Atomic             Coordinates (Angstroms)
 Number     Number       Type             X           Y           Z
 ---------------------------------------------------------------------
      1          5           0       -0.626115    1.253282    0.568708
      2          5           0        0.626196    1.253409   -0.568606
      3          7           0        1.765311    0.426571   -0.430135
      4          6           0        2.568012   -0.367758   -0.028000
      5          8           0        3.386898   -1.127673    0.311373
      6          7           0       -1.765242    0.426477    0.430129
      7          6           0       -2.567940   -0.367823    0.027920
      8          8           0       -3.387086   -1.127473   -0.311413
      9          1           0        0.597935    1.975145   -1.524005
     10          1           0       -0.597764    1.974723    1.524331
 ---------------------------------------------------------------------

 SCF Done:  E(RHF) =  -385.374260059     A.U. after    2 cycles

 The electronic state is 1-A.
 Alpha  occ. eigenvalues --  -20.61332 -20.61332 -15.54037 -15.54037 -11.43491
 Alpha  occ. eigenvalues --  -11.43488  -7.64290  -7.64265  -1.55968  -1.55962
 Alpha  occ. eigenvalues --   -1.28965  -1.28801  -0.93155  -0.90354  -0.74663
 Alpha  occ. eigenvalues --   -0.74515  -0.68918  -0.68546  -0.67527  -0.67408
 Alpha  occ. eigenvalues --   -0.65400  -0.59157  -0.55814  -0.50302  -0.50157
 Alpha  occ. eigenvalues --   -0.48662  -0.40971
 Alpha virt. eigenvalues --    0.02735   0.03143   0.03876   0.04108   0.05248
 Alpha virt. eigenvalues --    0.05617   0.06867   0.07352   0.07593   0.08373
 Alpha virt. eigenvalues --    0.09023   0.10918   0.11627   0.11980   0.12175

 Mulliken charges:
               1
     1  B   -0.138869
     2  B   -0.138885
     3  N    0.707118
     4  C    0.062966
     5  O   -0.792733
     6  N    0.707162
     7  C    0.062961
     8  O   -0.792735
     9  H    0.161518
    10  H    0.161496
 Sum of Mulliken charges =  -0.00000

 Dipole moment (field-independent basis, Debye):
    X=              0.0004    Y=              1.5186    Z=             -0.0001  Tot=              1.5186

 Test job not archived.
 1\1\GINC-SE461\SP\RHF\Aug-CC-pVDZ\C2H2B2N2O2\OHZDE\09-Apr-2025\0\\#t h
 f aug-cc-pvdz iop(5/13=1,5/36=2,99/5=2) pseudo=read geom=check guess=(
 read,tcheck) scf=(maxcycle=1)\\title\\0,1\B,0,0.626115,1.253282,-0.568
 708\B,0,-0.626196,1.253409,0.568606\N,0,-1.765311,0.426571,0.430135\C,
 0,-2.568012,-0.367758,0.028\O,0,-3.386898,-1.127673,-0.311373\N,0,1.76
 5242,0.426477,-0.430129\C,0,2.56794,-0.367823,-0.02792\O,0,3.387086,-1
 .127473,0.311413\H,0,-0.597935,1.975145,1.524005\H,0,0.597764,1.974723
 ,-1.524331\\Version=ES64L-G16RevC.01\State=1-A\HF=-385.3742601\RMSD=1.

 Normal termination of Gaussian 16 at Wed Apr  9 00:48:08 2025.
