 Gaussian 16, Revision C.01,

 ----------------------------------------------------------------------
 #t hf aug-cc-pvdz symm=none int=(grid=ultrafine) guess=(read,tcheck) s
 table=opt
 ----------------------------------------------------------------------
 -----
 title
 -----
 Symbolic Z-matrix:
 Charge =  0 Multiplicity = 2

 SCF Done:  E(UHF) =  -192.521240887     A.U. after   24 cycles
 Normal termination of Gaussian 16 at Tue Apr  8 22:41:35 2025.
 Gaussian 16:  ES64L-G16RevC.01  3-Jul-2019

 ----------------------------------------------------------------------
 #t hf aug-cc-pvdz iop(5/13=1,5/36=2,99/5=2) pseudo=read geom=check gue
 ss=(read,tcheck) scf=(maxcycle=1)
 ----------------------------------------------------------------------
 -----
 title
 -----
 Structure from the checkpoint file:  "BDE49_expt_1382_mol2.chk"
 Charge =  0 Multiplicity = 2

                         Standard orientation:
 ---------------------------------------------------------------------
 Center     Atomic      Atomic             Coordinates (Angstroms)
 Number     Number       Type             X           Y           Z
 ---------------------------------------------------------------------
      1          8           0       -1.470194   -0.688541   -0.191119
      2          6           0       -0.854841    0.445313    0.258301
      3          6           0        0.573179    0.667724   -0.251980
      4          1           0       -0.857204    0.346972    1.366202
      5          1           0       -1.505492    1.320766    0.074949
      6          6           0        1.514019   -0.483713    0.106092
      7          1           0        0.945910    1.613802    0.157833
      8          1           0        0.530604    0.792652   -1.339367
      9          1           0        1.641418   -0.569321    1.190145
     10          1           0        2.503152   -0.342560   -0.335842
     11          1           0        1.109022   -1.429927   -0.259439
 ---------------------------------------------------------------------

 SCF Done:  E(UHF) =  -192.722774028     A.U. after    2 cycles

 The electronic state is 2-A.
 Alpha  occ. eigenvalues --  -20.60536 -11.28975 -11.23685 -11.22621  -1.48879
 Alpha  occ. eigenvalues --   -1.05487  -0.92266  -0.81329  -0.70344  -0.66487
 Alpha  occ. eigenvalues --   -0.62685  -0.59600  -0.54756  -0.53499  -0.49948
 Alpha  occ. eigenvalues --   -0.47952  -0.45472
 Alpha virt. eigenvalues --    0.03690   0.04136   0.04183   0.05086   0.06981
 Alpha virt. eigenvalues --    0.07290   0.07779   0.11112   0.12184   0.14456
 Alpha virt. eigenvalues --    0.14917   0.15555   0.16359   0.17026   0.17587

  Beta  occ. eigenvalues --  -20.56573 -11.29281 -11.23673 -11.22625  -1.35678
  Beta  occ. eigenvalues --   -1.04811  -0.91074  -0.80116  -0.65153  -0.63782
  Beta  occ. eigenvalues --   -0.59039  -0.56688  -0.53286  -0.50446  -0.49176
  Beta  occ. eigenvalues --   -0.42708
  Beta virt. eigenvalues --    0.03675   0.04138   0.04183   0.05096   0.06740
  Beta virt. eigenvalues --    0.07295   0.07766   0.09122   0.11225   0.13303
  Beta virt. eigenvalues --    0.14495   0.14935   0.15632   0.16502   0.17127

 Mulliken charges and spin densities:
               1          2
     1  O   -0.836333   1.051880
     2  C    0.557419  -0.191948
     3  C   -0.494347   0.004152
     4  H    0.176577   0.087530
     5  H    0.121497   0.043964
     6  C   -0.318050   0.003463
     7  H    0.190147   0.001126
     8  H    0.144005   0.000989
     9  H    0.142397   0.000308
    10  H    0.121467  -0.000197
    11  H    0.195221  -0.001267
 Sum of Mulliken charges =  -0.00000   1.00000

 Dipole moment (field-independent basis, Debye):
    X=              0.9219    Y=              1.4496    Z=              0.5628  Tot=              1.8077
                          Isotropic Fermi Contact Couplings
        Atom                 a.u.       MegaHertz       Gauss      10(-4) cm-1
     1  O(17)              0.25668    -155.59582     -55.52046     -51.90118
     2  C(13)             -0.05142     -57.80502     -20.62627     -19.28168
     3  C(13)              0.00129       1.44872       0.51694       0.48324
     4  H(1)               0.03274     146.33301      52.21526      48.81144
     5  H(1)               0.01656      74.01373      26.40994      24.68832
     6  C(13)             -0.00122      -1.36662      -0.48764      -0.45586
     7  H(1)              -0.00067      -3.00796      -1.07332      -1.00335
     8  H(1)              -0.00054      -2.40701      -0.85888      -0.80289

 Normal termination of Gaussian 16 at Tue Apr  8 22:41:39 2025.
