 Gaussian 16, Revision C.01,

 ----------------------------------------------------------------------
 #t hf aug-cc-pvdz symm=none int=(grid=ultrafine) guess=(read,tcheck) s
 table=opt
 ----------------------------------------------------------------------
 -----
 title
 -----
 Symbolic Z-matrix:
 Charge =  0 Multiplicity = 2

 SCF Done:  E(UHF) =  -345.696420434     A.U. after   15 cycles

 1\1\GINC-SE339\Stability\UHF\Aug-CC-pVDZ\H4N1Si1\OHZDE\08-Apr-2025\0\\
 #t hf aug-cc-pvdz symm=none int=(grid=ultrafine) guess=(read,tcheck) s
 table=opt\\title\\0,2\Si,0,-0.621558,0.,-0.111418\N,0,1.099951,0.,0.09
 1601\H,0,-1.134672,-1.221247,0.573471\H,0,-1.134671,1.221249,0.573468\
 H,0,1.635752,-0.831889,-0.11415\H,0,1.635751,0.83189,-0.114147\\Versio
 n=ES64L-G16RevC.01\HF=-345.6964204\S2=0.756463\S2-1=0.\S2A=0.75002\RMS
 D=3.942e-09\Dipole=0.4629762,0.0000005,-0.2526465\Quadrupole=1.231186,
 0.7846796,-2.0158655,0.,-1.0432701,0.000004\PG=Unknown\\@

 Normal termination of Gaussian 16 at Tue Apr  8 23:51:16 2025.
 Gaussian 16:  ES64L-G16RevC.01  3-Jul-2019

 ----------------------------------------------------------------------
 #t hf aug-cc-pvdz iop(5/13=1,5/36=2,99/5=2) pseudo=read geom=check gue
 ss=(read,tcheck) scf=(maxcycle=1)
 ----------------------------------------------------------------------
 -----
 title
 -----
 Structure from the checkpoint file:  "BDE49_nonexpt_1900_mol2.chk"
 Charge =  0 Multiplicity = 2

                         Standard orientation:
 ---------------------------------------------------------------------
 Center     Atomic      Atomic             Coordinates (Angstroms)
 Number     Number       Type             X           Y           Z
 ---------------------------------------------------------------------
      1         14           0       -0.621558   -0.000000   -0.111418
      2          7           0        1.099951   -0.000000    0.091601
      3          1           0       -1.134672   -1.221247    0.573471
      4          1           0       -1.134671    1.221249    0.573468
      5          1           0        1.635752   -0.831889   -0.114150
      6          1           0        1.635751    0.831890   -0.114147
 ---------------------------------------------------------------------

 SCF Done:  E(UHF) =  -345.785384694     A.U. after    2 cycles

 The electronic state is 2-A.
 Alpha  occ. eigenvalues --  -69.54543 -15.49171  -6.21401  -3.97225  -3.96491
 Alpha  occ. eigenvalues --   -3.96451  -1.15302  -0.75327  -0.70016  -0.57678
 Alpha  occ. eigenvalues --   -0.50568  -0.48872  -0.32094
 Alpha virt. eigenvalues --    0.03168   0.04959   0.05565   0.06901   0.07532
 Alpha virt. eigenvalues --    0.07797   0.09021   0.13868   0.15349   0.18040
 Alpha virt. eigenvalues --    0.18694   0.19931   0.20674   0.21506   0.24468

  Beta  occ. eigenvalues --  -69.54052 -15.48582  -6.20635  -3.96214  -3.96153
  Beta  occ. eigenvalues --   -3.95336  -1.13623  -0.72461  -0.69627  -0.55460
  Beta  occ. eigenvalues --   -0.47349  -0.45266
  Beta virt. eigenvalues --    0.02839   0.04173   0.05260   0.05630   0.07605
  Beta virt. eigenvalues --    0.07636   0.09317   0.09354   0.15389   0.16199
  Beta virt. eigenvalues --    0.18362   0.20438   0.20526   0.22019   0.22720

 Mulliken charges and spin densities:
               1          2
     1  Si   0.516723   0.799064
     2  N   -0.214619   0.117578
     3  H   -0.143118   0.054005
     4  H   -0.143118   0.054005
     5  H   -0.007934  -0.012326
     6  H   -0.007934  -0.012326
 Sum of Mulliken charges =  -0.00000   1.00000

 Dipole moment (field-independent basis, Debye):
    X=              0.9913    Y=              0.0000    Z=             -0.6509  Tot=              1.1859
                          Isotropic Fermi Contact Couplings
        Atom                 a.u.       MegaHertz       Gauss      10(-4) cm-1
     1  Si(29)             0.61239    -544.24719    -194.20093    -181.54132
     2  N(14)              0.05812      18.77833       6.70057       6.26378
     3  H(1)               0.01513      67.64519      24.13749      22.56401
     4  H(1)               0.01513      67.64476      24.13733      22.56386
     5  H(1)              -0.00342     -15.29569      -5.45788      -5.10209
     6  H(1)              -0.00342     -15.29573      -5.45790      -5.10210
 --------------------------------------------------------
       Center         ----  Spin Dipole Couplings  ----

 Normal termination of Gaussian 16 at Tue Apr  8 23:51:17 2025.
