 Gaussian 16, Revision C.01,

 ----------------------------------------------------------------------
 #t hf aug-cc-pvdz symm=none int=(grid=ultrafine) guess=(read,tcheck) s
 table=(opt,rrhf)
 ----------------------------------------------------------------------
 -----
 title
 -----
 Symbolic Z-matrix:
 Charge =  0 Multiplicity = 1

 SCF Done:  E(RHF) =  -564.310698082     A.U. after   16 cycles
 Normal termination of Gaussian 16 at Tue Apr  8 22:40:56 2025.
 Gaussian 16:  ES64L-G16RevC.01  3-Jul-2019

 ----------------------------------------------------------------------
 #t hf aug-cc-pvdz iop(5/13=1,5/36=2,99/5=2) pseudo=read geom=check gue
 ss=(read,tcheck) scf=(maxcycle=1)
 ----------------------------------------------------------------------
 -----
 title
 -----
 Structure from the checkpoint file:  "BDE49_expt_1265_mol1.chk"
 Charge =  0 Multiplicity = 1

                         Standard orientation:
 ---------------------------------------------------------------------
 Center     Atomic      Atomic             Coordinates (Angstroms)
 Number     Number       Type             X           Y           Z
 ---------------------------------------------------------------------
      1          6           0       -0.291694   -0.145799   -0.435187
      2          7           0       -1.457786   -1.033384    0.018958
      3          7           0       -0.643232    1.288106   -0.056062
      4          8           0       -1.353016   -2.202394   -0.304122
      5          8           0       -2.369413   -0.524735    0.635533
      6          8           0       -0.334974    1.666615    1.057883
      7          8           0       -1.207480    1.938410   -0.917049
      8          1           0       -0.313678   -0.177435   -1.522158
      9          6           0        1.016809   -0.615033    0.170788
     10          6           0        2.235477    0.136855   -0.381892
     11          1           0        1.097502   -1.681728   -0.051321
     12          1           0        0.955923   -0.498487    1.255580
     13          6           0        3.545633   -0.394153    0.206023
     14          1           0        2.142908    1.203350   -0.155879
     15          1           0        2.256949    0.043852   -1.473746
     16          1           0        3.563063   -0.283321    1.293793
     17          1           0        4.401992    0.150529   -0.197599
     18          1           0        3.684175   -1.454209   -0.025292
 ---------------------------------------------------------------------

 SCF Done:  E(RHF) =  -564.864693649     A.U. after    2 cycles

 The electronic state is 1-A.
 Alpha  occ. eigenvalues --  -20.62735 -20.62096 -20.62075 -20.61957 -15.82421
 Alpha  occ. eigenvalues --  -15.81746 -11.40323 -11.28854 -11.27015 -11.25213
 Alpha  occ. eigenvalues --   -1.71037  -1.69706  -1.54753  -1.54033  -1.21550
 Alpha  occ. eigenvalues --   -1.09523  -1.02642  -0.98407  -0.88344  -0.85737
 Alpha  occ. eigenvalues --   -0.83964  -0.81345  -0.78179  -0.76922  -0.76512
 Alpha  occ. eigenvalues --   -0.73549  -0.67604  -0.64744  -0.60633  -0.58299
 Alpha  occ. eigenvalues --   -0.55717  -0.53622  -0.52742  -0.52008  -0.51347
 Alpha  occ. eigenvalues --   -0.51122  -0.50344  -0.48285  -0.46834
 Alpha virt. eigenvalues --    0.02592   0.02983   0.03128   0.03910   0.03931
 Alpha virt. eigenvalues --    0.04588   0.06385   0.06891   0.07707   0.08380
 Alpha virt. eigenvalues --    0.10316   0.12507   0.12804   0.13224   0.13554

 Mulliken charges:
               1
     1  C   -1.044764
     2  N    2.977302
     3  N    3.124705
     4  O   -1.485208
     5  O   -1.369028
     6  O   -1.494657
     7  O   -1.429206
     8  H    0.107124
     9  C   -0.064154
    10  C   -0.146938
    11  H    0.237686
    12  H    0.232776
    13  C   -0.393623
    14  H    0.149931
    15  H    0.144417
    16  H    0.164600
    17  H    0.131497
    18  H    0.157542
 Sum of Mulliken charges =  -0.00000

 Dipole moment (field-independent basis, Debye):
    X=              4.2971    Y=             -1.2053    Z=             -1.3021  Tot=              4.6490

 Test job not archived.
 1\1\GINC-SE045\SP\RHF\Aug-CC-pVDZ\C4H8N2O4\OHZDE\08-Apr-2025\0\\#t hf
 aug-cc-pvdz iop(5/13=1,5/36=2,99/5=2) pseudo=read geom=check guess=(re
 ad,tcheck) scf=(maxcycle=1)\\title\\0,1\C,0,-0.291694,-0.145799,-0.435
 187\N,0,-1.457786,-1.033384,0.018958\N,0,-0.643232,1.288106,-0.056062\
 O,0,-1.353016,-2.202394,-0.304122\O,0,-2.369413,-0.524735,0.635533\O,0
 ,-0.334974,1.666615,1.057883\O,0,-1.20748,1.93841,-0.917049\H,0,-0.313
 678,-0.177435,-1.522158\C,0,1.016809,-0.615033,0.170788\C,0,2.235477,0
 .136855,-0.381892\H,0,1.097502,-1.681728,-0.051321\H,0,0.955923,-0.498

 Normal termination of Gaussian 16 at Tue Apr  8 22:41:06 2025.
