 Gaussian 16, Revision C.01,

 ----------------------------------------------------------------------
 #t hf aug-cc-pvdz symm=none int=(grid=ultrafine) guess=(read,tcheck) s
 table=(opt,rrhf)
 ----------------------------------------------------------------------
 -----
 title
 -----
 Symbolic Z-matrix:
 Charge =  0 Multiplicity = 1

 SCF Done:  E(RHF) =  -1330.86091805     A.U. after   16 cycles
 Normal termination of Gaussian 16 at Wed Apr  9 00:54:19 2025.
 Gaussian 16:  ES64L-G16RevC.01  3-Jul-2019

 ----------------------------------------------------------------------
 #t hf aug-cc-pvdz iop(5/13=1,5/36=2,99/5=2) pseudo=read geom=check gue
 ss=(read,tcheck) scf=(maxcycle=1)
 ----------------------------------------------------------------------
 -----
 title
 -----
 Structure from the checkpoint file:  "BDE49_nonexpt_928_mol1.chk"
 Charge =  0 Multiplicity = 1

                         Standard orientation:
 ---------------------------------------------------------------------
 Center     Atomic      Atomic             Coordinates (Angstroms)
 Number     Number       Type             X           Y           Z
 ---------------------------------------------------------------------
      1         17           0        1.865452    1.725317    0.458349
      2         16           0        0.812918   -0.706906   -0.723411
      3          8           0        1.152936   -0.061911   -1.959444
      4          8           0        0.960732   -2.125717   -0.512285
      5          7           0        1.864389   -0.037047    0.467285
      6          6           0       -0.852316   -0.243765   -0.283100
      7          6           0       -1.597268   -1.083407    0.546446
      8          1           0       -1.171905   -2.017089    0.890176
      9          6           0       -2.895851   -0.716168    0.887953
     10          1           0       -3.486806   -1.363463    1.525165
     11          6           0       -3.437602    0.472295    0.400596
     12          1           0       -4.450590    0.751989    0.666317
     13          6           0       -2.687728    1.296212   -0.437741
     14          1           0       -3.116632    2.212217   -0.826478
     15          6           0       -1.388393    0.941727   -0.788016
     16          1           0       -0.799502    1.557295   -1.454443
     17          6           0        1.725923   -0.554286    1.836553
     18          1           0        1.758456   -1.640710    1.770963
     19          1           0        0.802361   -0.228931    2.327190
     20          1           0        2.584588   -0.206496    2.410455
 ---------------------------------------------------------------------

 SCF Done:  E(RHF) =  -1331.47649731     A.U. after    2 cycles

 The electronic state is 1-A.
 Alpha  occ. eigenvalues -- -105.60982 -94.22512 -20.55118 -20.54898 -15.60144
 Alpha  occ. eigenvalues --  -11.29491 -11.29320 -11.28334 -11.28163 -11.27882
 Alpha  occ. eigenvalues --  -11.27185 -11.27088 -10.65463  -8.47455  -7.82425
 Alpha  occ. eigenvalues --   -7.81960  -7.81923  -6.45593  -6.45363  -6.45264
 Alpha  occ. eigenvalues --   -1.57970  -1.45838  -1.27406  -1.19346  -1.07631
 Alpha  occ. eigenvalues --   -1.05216  -1.04582  -0.98757  -0.90368  -0.87111
 Alpha  occ. eigenvalues --   -0.82147  -0.76254  -0.73414  -0.70214  -0.69212
 Alpha  occ. eigenvalues --   -0.67300  -0.66265  -0.65119  -0.63632  -0.63450
 Alpha  occ. eigenvalues --   -0.58614  -0.56569  -0.54942  -0.54002  -0.53467
 Alpha  occ. eigenvalues --   -0.52099  -0.50868  -0.49748  -0.47780  -0.46576
 Alpha  occ. eigenvalues --   -0.43820  -0.38616  -0.37581
 Alpha virt. eigenvalues --    0.02533   0.03114   0.03710   0.04488   0.05504
 Alpha virt. eigenvalues --    0.05784   0.06096   0.06782   0.07307   0.07430
 Alpha virt. eigenvalues --    0.08281   0.09259   0.10707   0.11442   0.12440

 Mulliken charges:
               1
     1  Cl  -0.047361
     2  S    3.942024
     3  O   -1.653368
     4  O   -1.666509
     5  N   -0.164547
     6  C    0.837596
     7  C   -0.510483
     8  H   -0.293609
     9  C    0.505441
    10  H   -0.219736
    11  C   -0.035649
    12  H   -0.203915
    13  C    0.526720
    14  H   -0.217677
    15  C   -0.497912
    16  H   -0.276267
    17  C   -0.430633
    18  H    0.145632
    19  H    0.196354
    20  H    0.063898
 Sum of Mulliken charges =  -0.00000

 Dipole moment (field-independent basis, Debye):
    X=             -4.1622    Y=              1.5032    Z=              3.9235  Tot=              5.9142

 Test job not archived.
 1\1\GINC-SE227\SP\RHF\Aug-CC-pVDZ\C7H8Cl1N1O2S1\OHZDE\09-Apr-2025\0\\#
 t hf aug-cc-pvdz iop(5/13=1,5/36=2,99/5=2) pseudo=read geom=check gues
 s=(read,tcheck) scf=(maxcycle=1)\\title\\0,1\Cl,0,1.865452,1.725317,0.
 458349\S,0,0.812918,-0.706906,-0.723411\O,0,1.152936,-0.061911,-1.9594
 44\O,0,0.960732,-2.125717,-0.512285\N,0,1.864389,-0.037047,0.467285\C,
 0,-0.852316,-0.243765,-0.2831\C,0,-1.597268,-1.083407,0.546446\H,0,-1.
 171905,-2.017089,0.890176\C,0,-2.895851,-0.716168,0.887953\H,0,-3.4868
 06,-1.363463,1.525165\C,0,-3.437602,0.472295,0.400596\H,0,-4.45059,0.7

 Normal termination of Gaussian 16 at Wed Apr  9 00:54:35 2025.
