 Gaussian 16, Revision C.01,

 ----------------------------------------------------------------------
 #t hf aug-cc-pvdz symm=none int=(grid=ultrafine) guess=(read,tcheck) s
 table=(opt,rrhf)
 ----------------------------------------------------------------------
 -----
 title
 -----
 Symbolic Z-matrix:
 Charge =  0 Multiplicity = 1

 SCF Done:  E(RHF) =  -1189.93855285     A.U. after   15 cycles
 Normal termination of Gaussian 16 at Wed Apr  9 00:12:14 2025.
 Gaussian 16:  ES64L-G16RevC.01  3-Jul-2019

 ----------------------------------------------------------------------
 #t hf aug-cc-pvdz iop(5/13=1,5/36=2,99/5=2) pseudo=read geom=check gue
 ss=(read,tcheck) scf=(maxcycle=1)
 ----------------------------------------------------------------------
 -----
 title
 -----
 Structure from the checkpoint file:  "BDE49_nonexpt_238_mol1.chk"
 Charge =  0 Multiplicity = 1

                         Standard orientation:
 ---------------------------------------------------------------------
 Center     Atomic      Atomic             Coordinates (Angstroms)
 Number     Number       Type             X           Y           Z
 ---------------------------------------------------------------------
      1         17           0       -2.074523    1.499732   -0.000001
      2          5           0       -1.146150   -0.010179   -0.000015
      3         17           0       -2.042278   -1.517142   -0.000000
      4          6           0        0.414725    0.012665   -0.000005
      5          6           0        1.139697    1.214113   -0.000004
      6          7           0        1.037478   -1.189417    0.000001
      7          6           0        2.365225   -1.212937    0.000008
      8          6           0        2.530938    1.175463    0.000004
      9          6           0        3.159711   -0.062420    0.000010
     10          1           0        0.616788    2.161973   -0.000009
     11          1           0        3.108823    2.092615    0.000005
     12          1           0        4.240224   -0.146108    0.000016
     13          1           0        2.826419   -2.197005    0.000012
 ---------------------------------------------------------------------

 SCF Done:  E(RHF) =  -1190.36247221     A.U. after    2 cycles

 The electronic state is 1-A.
 Alpha  occ. eigenvalues -- -105.57401-105.56674 -15.52394 -11.29305 -11.28090
 Alpha  occ. eigenvalues --  -11.27891 -11.27216 -11.27043 -10.62416 -10.61696
 Alpha  occ. eigenvalues --   -7.79311  -7.79030  -7.78996  -7.78597  -7.78311
 Alpha  occ. eigenvalues --   -7.78256  -7.71322  -1.27208  -1.10880  -1.10698
 Alpha  occ. eigenvalues --   -1.05448  -1.04834  -0.89440  -0.88396  -0.76001
 Alpha  occ. eigenvalues --   -0.70999  -0.69603  -0.65364  -0.61817  -0.61132
 Alpha  occ. eigenvalues --   -0.57989  -0.57020  -0.54974  -0.52143  -0.48442
 Alpha  occ. eigenvalues --   -0.47208  -0.46317  -0.45219  -0.41695  -0.37427
 Alpha virt. eigenvalues --    0.02526   0.02709   0.03547   0.04239   0.05489
 Alpha virt. eigenvalues --    0.05501   0.06177   0.06866   0.07647   0.08573
 Alpha virt. eigenvalues --    0.11194   0.11933   0.12151   0.13011   0.13430

 Mulliken charges:
               1
     1  Cl  -0.356934
     2  B    0.591162
     3  Cl  -0.303552
     4  C   -0.854780
     5  C    0.462122
     6  N    1.149455
     7  C   -0.646972
     8  C    0.079118
     9  C    0.718921
    10  H   -0.299450
    11  H   -0.164665
    12  H   -0.178612
    13  H   -0.195813
 Sum of Mulliken charges =  -0.00000

 Dipole moment (field-independent basis, Debye):
    X=              3.8207    Y=              2.0517    Z=             -0.0000  Tot=              4.3367

 Test job not archived.
 1\1\GINC-SE403\SP\RHF\Aug-CC-pVDZ\C5H4B1Cl2N1\OHZDE\09-Apr-2025\0\\#t
 hf aug-cc-pvdz iop(5/13=1,5/36=2,99/5=2) pseudo=read geom=check guess=
 (read,tcheck) scf=(maxcycle=1)\\title\\0,1\Cl,0,-2.074523,1.499732,-0.
 000001\B,0,-1.14615,-0.010179,-0.000015\Cl,0,-2.042278,-1.517142,0.\C,
 0,0.414725,0.012665,-0.000005\C,0,1.139697,1.214113,-0.000004\N,0,1.03
 7478,-1.189417,0.000001\C,0,2.365225,-1.212937,0.000008\C,0,2.530938,1
 .175463,0.000004\C,0,3.159711,-0.06242,0.00001\H,0,0.616788,2.161973,-
 0.000009\H,0,3.108823,2.092615,0.000005\H,0,4.240224,-0.146108,0.00001

 Normal termination of Gaussian 16 at Wed Apr  9 00:12:20 2025.
