 Gaussian 16, Revision C.01,

 ----------------------------------------------------------------------
 #t hf aug-cc-pvdz symm=none int=(grid=ultrafine) guess=(read,tcheck) s
 table=(opt,rrhf)
 ----------------------------------------------------------------------
 -----
 title
 -----
 Symbolic Z-matrix:
 Charge =  0 Multiplicity = 1

 SCF Done:  E(RHF) =  -510.276533321     A.U. after   14 cycles
 Normal termination of Gaussian 16 at Tue Apr  8 23:35:04 2025.
 Gaussian 16:  ES64L-G16RevC.01  3-Jul-2019

 ----------------------------------------------------------------------
 #t hf aug-cc-pvdz iop(5/13=1,5/36=2,99/5=2) pseudo=read geom=check gue
 ss=(read,tcheck) scf=(maxcycle=1)
 ----------------------------------------------------------------------
 -----
 title
 -----
 Structure from the checkpoint file:  "BDE49_nonexpt_1493_mol1.chk"
 Charge =  0 Multiplicity = 1

                         Standard orientation:
 ---------------------------------------------------------------------
 Center     Atomic      Atomic             Coordinates (Angstroms)
 Number     Number       Type             X           Y           Z
 ---------------------------------------------------------------------
      1          6           0        0.528709    0.154354    0.013365
      2          8           0        1.007056    1.267699    0.006368
      3          7           0        1.273591   -0.988091   -0.016478
      4          1           0        2.278692   -0.894717    0.020776
      5          1           0        0.867759   -1.895300    0.135979
      6         15           0       -1.346780   -0.057937   -0.119113
      7          1           0       -1.613356    0.772296    0.993147
      8          1           0       -1.475247   -1.264316    0.621003
 ---------------------------------------------------------------------

 SCF Done:  E(RHF) =  -510.489245856     A.U. after    2 cycles

 The electronic state is 1-A.
 Alpha  occ. eigenvalues --  -84.29418 -20.52410 -15.54099 -11.37508  -6.76578
 Alpha  occ. eigenvalues --   -4.29016  -4.28879  -4.28142  -1.47295  -1.23270
 Alpha  occ. eigenvalues --   -0.92832  -0.83030  -0.76125  -0.66987  -0.60830
 Alpha  occ. eigenvalues --   -0.57627  -0.51977  -0.45197  -0.42037  -0.36588
 Alpha virt. eigenvalues --    0.02622   0.04745   0.05653   0.07122   0.08237
 Alpha virt. eigenvalues --    0.09595   0.10249   0.12164   0.12507   0.13336
 Alpha virt. eigenvalues --    0.14841   0.16350   0.18103   0.18535   0.18974

 Mulliken charges:
               1
     1  C    0.068647
     2  O   -1.121132
     3  N    0.429844
     4  H    0.068357
     5  H    0.073820
     6  P   -0.311168
     7  H    0.425114
     8  H    0.366518
 Sum of Mulliken charges =  -0.00000

 Dipole moment (field-independent basis, Debye):
    X=             -0.6163    Y=             -3.5612    Z=              0.7097  Tot=              3.6831

 Test job not archived.
 1\1\GINC-SE393\SP\RHF\Aug-CC-pVDZ\C1H4N1O1P1\OHZDE\08-Apr-2025\0\\#t h
 f aug-cc-pvdz iop(5/13=1,5/36=2,99/5=2) pseudo=read geom=check guess=(
 read,tcheck) scf=(maxcycle=1)\\title\\0,1\C,0,0.528709,0.154354,0.0133
 65\O,0,1.007056,1.267699,0.006368\N,0,1.273591,-0.988091,-0.016478\H,0
 ,2.278692,-0.894717,0.020776\H,0,0.867759,-1.8953,0.135979\P,0,-1.3467
 8,-0.057937,-0.119113\H,0,-1.613356,0.772296,0.993147\H,0,-1.475247,-1
 .264316,0.621003\\Version=ES64L-G16RevC.01\State=1-A\HF=-510.4892459\R
 MSD=2.700e-02\Dipole=-0.2424647,-1.4010735,0.2792003\Quadrupole=1.7539

 Normal termination of Gaussian 16 at Tue Apr  8 23:35:06 2025.
