 Gaussian 16, Revision C.01,

 ----------------------------------------------------------------------
 #t hf aug-cc-pvdz symm=none int=(grid=ultrafine) guess=(read,tcheck) s
 table=(opt,rrhf)
 ----------------------------------------------------------------------
 -----
 title
 -----
 Symbolic Z-matrix:
 Charge =  0 Multiplicity = 1

 SCF Done:  E(RHF) =  -1508.66218315     A.U. after   13 cycles

 1\1\GINC-SE186\Stability\RHF\Aug-CC-pVDZ\C2Cl3N1\OHZDE\08-Apr-2025\0\\
 #t hf aug-cc-pvdz symm=none int=(grid=ultrafine) guess=(read,tcheck) s
 table=(opt,rrhf)\\title\\0,1\C,0,-1.495632,0.001309,0.000776\C,0,-0.04
 0814,0.000065,0.00005\N,0,-2.647639,0.002235,0.001236\Cl,0,0.543048,-1
 .580582,0.61659\Cl,0,0.545893,1.323812,1.059696\Cl,0,0.543538,0.255365
 ,-1.677087\\Version=ES64L-G16RevC.01\HF=-1508.6621831\RMSD=3.878e-09\D
 ipole=0.9058904,-0.0007077,-0.0003764\Quadrupole=-5.1734209,2.5867732,
 2.5866477,0.0066225,0.0035883,0.0000857\PG=Unknown\\@

 Normal termination of Gaussian 16 at Tue Apr  8 22:49:34 2025.
 Gaussian 16:  ES64L-G16RevC.01  3-Jul-2019

 ----------------------------------------------------------------------
 #t hf aug-cc-pvdz iop(5/13=1,5/36=2,99/5=2) pseudo=read geom=check gue
 ss=(read,tcheck) scf=(maxcycle=1)
 ----------------------------------------------------------------------
 -----
 title
 -----
 Structure from the checkpoint file:  "BDE49_expt_1706_mol1.chk"
 Charge =  0 Multiplicity = 1

                         Standard orientation:
 ---------------------------------------------------------------------
 Center     Atomic      Atomic             Coordinates (Angstroms)
 Number     Number       Type             X           Y           Z
 ---------------------------------------------------------------------
      1          6           0       -1.495632   -0.001305   -0.000782
      2          6           0       -0.040814   -0.000065   -0.000050
      3          7           0       -2.647639   -0.002229   -0.001246
      4         17           0        0.543050    1.582730   -0.611055
      5         17           0        0.545893   -1.320096   -1.064322
      6         17           0        0.543536   -0.261232    1.676184
 ---------------------------------------------------------------------

 SCF Done:  E(RHF) =  -1509.00992161     A.U. after    2 cycles

 The electronic state is 1-A.
 Alpha  occ. eigenvalues -- -105.62712-105.62712-105.62712 -15.56453 -11.50496
 Alpha  occ. eigenvalues --  -11.32900 -10.67493 -10.67493 -10.67483  -7.84447
 Alpha  occ. eigenvalues --   -7.84447  -7.84435  -7.83984  -7.83983  -7.83983
 Alpha  occ. eigenvalues --   -7.83981  -7.83978  -7.83978  -1.28990  -1.24079
 Alpha  occ. eigenvalues --   -1.09939  -1.09938  -0.96507  -0.75417  -0.68157
 Alpha  occ. eigenvalues --   -0.68156  -0.65026  -0.56316  -0.56315  -0.52551
 Alpha  occ. eigenvalues --   -0.52551  -0.52090  -0.49906  -0.49906  -0.48661
 Alpha virt. eigenvalues --    0.05221   0.06041   0.06065   0.06065   0.08527
 Alpha virt. eigenvalues --    0.09643   0.09643   0.12364   0.12364   0.13840
 Alpha virt. eigenvalues --    0.14151   0.14151   0.16154   0.17725   0.17725

 Mulliken charges:
               1
     1  C   -0.238549
     2  C   -0.995316
     3  N    0.616646
     4  Cl   0.205736
     5  Cl   0.205737
     6  Cl   0.205746
 Sum of Mulliken charges =  -0.00000

 Dipole moment (field-independent basis, Debye):
    X=              2.8947    Y=              0.0023    Z=              0.0012  Tot=              2.8947

 Test job not archived.
 1\1\GINC-SE186\SP\RHF\Aug-CC-pVDZ\C2Cl3N1\OHZDE\08-Apr-2025\0\\#t hf a
 ug-cc-pvdz iop(5/13=1,5/36=2,99/5=2) pseudo=read geom=check guess=(rea
 d,tcheck) scf=(maxcycle=1)\\title\\0,1\C,0,-1.495632,0.001309,0.000776
 \C,0,-0.040814,0.000065,0.00005\N,0,-2.647639,0.002235,0.001236\Cl,0,0
 .543048,-1.580582,0.61659\Cl,0,0.545893,1.323812,1.059696\Cl,0,0.54353
 8,0.255365,-1.677087\\Version=ES64L-G16RevC.01\State=1-A\HF=-1509.0099
 216\RMSD=1.229e-02\Dipole=1.1388438,-0.0008965,-0.0004704\Quadrupole=-
 6.1040891,3.0521079,3.0519812,0.0077842,0.0042084,0.0000844\PG=C01 [X(

 Normal termination of Gaussian 16 at Tue Apr  8 22:49:37 2025.
