 Gaussian 16, Revision C.01,

 ----------------------------------------------------------------------
 #t hf aug-cc-pvdz symm=none int=(grid=ultrafine) guess=(read,tcheck) s
 table=(opt,rrhf)
 ----------------------------------------------------------------------
 -----
 title
 -----
 Symbolic Z-matrix:
 Charge =  0 Multiplicity = 1

 SCF Done:  E(RHF) =  -593.985238252     A.U. after   12 cycles
 Normal termination of Gaussian 16 at Wed Apr  9 00:07:47 2025.
 Gaussian 16:  ES64L-G16RevC.01  3-Jul-2019

 ----------------------------------------------------------------------
 #t hf aug-cc-pvdz iop(5/13=1,5/36=2,99/5=2) pseudo=read geom=check gue
 ss=(read,tcheck) scf=(maxcycle=1)
 ----------------------------------------------------------------------
 -----
 title
 -----
 Structure from the checkpoint file:  "BDE49_nonexpt_2275_mol1.chk"
 Charge =  0 Multiplicity = 1

                         Standard orientation:
 ---------------------------------------------------------------------
 Center     Atomic      Atomic             Coordinates (Angstroms)
 Number     Number       Type             X           Y           Z
 ---------------------------------------------------------------------
      1         14           0       -0.025155    0.272008    0.667300
      2          8           0        0.069902    1.550746   -0.385937
      3          1           0        0.940842    1.639270   -0.790519
      4          6           0        1.266374   -0.977616    0.071978
      5          8           0        2.369713   -0.165350   -0.383234
      6          1           0        0.847107   -1.576181   -0.747371
      7          1           0        1.575414   -1.663365    0.872006
      8          1           0        3.048476   -0.739506   -0.750130
      9          6           0       -1.784798   -0.367568    0.460047
     10          8           0       -2.057197   -0.550358   -0.940145
     11          1           0       -2.517173    0.305957    0.928863
     12          1           0       -1.914787   -1.344401    0.935423
     13          1           0       -1.830226    0.279515   -1.375616
     14          1           0        0.253719    0.681399    2.067530
 ---------------------------------------------------------------------

 SCF Done:  E(RHF) =  -594.331300889     A.U. after    2 cycles

 The electronic state is 1-A.
 Alpha  occ. eigenvalues --  -69.54817 -20.56663 -20.54755 -20.54164 -11.27830
 Alpha  occ. eigenvalues --  -11.27049  -6.21636  -3.97087  -3.96946  -3.96920
 Alpha  occ. eigenvalues --   -1.45782  -1.44084  -1.42455  -0.94545  -0.91408
 Alpha  occ. eigenvalues --   -0.74487  -0.71312  -0.66846  -0.64344  -0.64040
 Alpha  occ. eigenvalues --   -0.59545  -0.58808  -0.55713  -0.53680  -0.50508
 Alpha  occ. eigenvalues --   -0.48291  -0.46264  -0.44011  -0.41058
 Alpha virt. eigenvalues --    0.03101   0.03725   0.04380   0.05068   0.06317
 Alpha virt. eigenvalues --    0.06767   0.07283   0.08240   0.08292   0.09559
 Alpha virt. eigenvalues --    0.11785   0.12970   0.14145   0.14344   0.14947

 Mulliken charges:
               1
     1  Si   2.120971
     2  O   -1.503455
     3  H    0.538733
     4  C    0.299671
     5  O   -1.064201
     6  H    0.017235
     7  H    0.048941
     8  H    0.308254
     9  C    0.177973
    10  O   -1.084606
    11  H    0.025386
    12  H   -0.022983
    13  H    0.380499
    14  H   -0.242419
 Sum of Mulliken charges =   0.00000

 Dipole moment (field-independent basis, Debye):
    X=              1.9095    Y=             -1.2609    Z=              0.4626  Tot=              2.3345

 Test job not archived.
 1\1\GINC-SE069\SP\RHF\Aug-CC-pVDZ\C2H8O3Si1\OHZDE\09-Apr-2025\0\\#t hf
  aug-cc-pvdz iop(5/13=1,5/36=2,99/5=2) pseudo=read geom=check guess=(r
 ead,tcheck) scf=(maxcycle=1)\\title\\0,1\Si,0,-0.025155,0.272008,0.667
 3\O,0,0.069902,1.550746,-0.385937\H,0,0.940842,1.63927,-0.790519\C,0,1
 .266374,-0.977616,0.071978\O,0,2.369713,-0.16535,-0.383234\H,0,0.84710
 7,-1.576181,-0.747371\H,0,1.575414,-1.663365,0.872006\H,0,3.048476,-0.
 739506,-0.75013\C,0,-1.784798,-0.367568,0.460047\O,0,-2.057197,-0.5503
 58,-0.940145\H,0,-2.517173,0.305957,0.928863\H,0,-1.914787,-1.344401,0

 Normal termination of Gaussian 16 at Wed Apr  9 00:07:51 2025.
