 Gaussian 16, Revision C.01,

 ----------------------------------------------------------------------
 #t hf aug-cc-pvdz symm=none int=(grid=ultrafine) guess=(read,tcheck) s
 table=(opt,rrhf)
 ----------------------------------------------------------------------
 -----
 title
 -----
 Symbolic Z-matrix:
 Charge =  0 Multiplicity = 1

 SCF Done:  E(RHF) =  -699.917646392     A.U. after   16 cycles
 Normal termination of Gaussian 16 at Tue Apr  8 23:34:31 2025.
 Gaussian 16:  ES64L-G16RevC.01  3-Jul-2019

 ----------------------------------------------------------------------
 #t hf aug-cc-pvdz iop(5/13=1,5/36=2,99/5=2) pseudo=read geom=check gue
 ss=(read,tcheck) scf=(maxcycle=1)
 ----------------------------------------------------------------------
 -----
 title
 -----
 Structure from the checkpoint file:  "BDE49_nonexpt_1456_mol1.chk"
 Charge =  0 Multiplicity = 1

                         Standard orientation:
 ---------------------------------------------------------------------
 Center     Atomic      Atomic             Coordinates (Angstroms)
 Number     Number       Type             X           Y           Z
 ---------------------------------------------------------------------
      1          6           0       -1.475961   -0.476270    0.026371
      2         15           0       -0.945426    1.305113   -0.240640
      3          6           0        0.844140    0.774384    0.040067
      4          7           0        0.948988   -0.591246   -0.067037
      5          6           0       -0.257311   -1.396497   -0.115404
      6          1           0       -0.284908   -2.131136    0.698542
      7          1           0       -0.341263   -1.948773   -1.061488
      8          8           0       -2.584367   -0.885582    0.241360
      9          6           0        2.247067   -1.247472   -0.003197
     10          1           0        3.012970   -0.475294    0.026599
     11          1           0        2.399040   -1.881693   -0.881780
     12          1           0        2.326071   -1.867450    0.896300
     13          8           0        1.769917    1.536590    0.212581
     14          1           0       -1.205449    1.733441    1.082137
 ---------------------------------------------------------------------

 SCF Done:  E(RHF) =  -700.316334432     A.U. after    2 cycles

 The electronic state is 1-A.
 Alpha  occ. eigenvalues --  -84.30830 -20.57252 -20.53168 -15.55299 -11.38012
 Alpha  occ. eigenvalues --  -11.37395 -11.31223 -11.28630  -6.78109  -4.30618
 Alpha  occ. eigenvalues --   -4.30496  -4.29861  -1.50700  -1.48033  -1.28695
 Alpha  occ. eigenvalues --   -1.05408  -0.99785  -0.93444  -0.80756  -0.76024
 Alpha  occ. eigenvalues --   -0.70899  -0.70527  -0.67484  -0.64069  -0.63025
 Alpha  occ. eigenvalues --   -0.61166  -0.57822  -0.57562  -0.55649  -0.54029
 Alpha  occ. eigenvalues --   -0.45928  -0.42168  -0.39305  -0.37513
 Alpha virt. eigenvalues --    0.02853   0.04140   0.04578   0.04977   0.06131
 Alpha virt. eigenvalues --    0.06464   0.07005   0.07273   0.08400   0.09336
 Alpha virt. eigenvalues --    0.11402   0.12377   0.12545   0.12894   0.13326

 Mulliken charges:
               1
     1  C    0.579957
     2  P    0.456370
     3  C    0.165502
     4  N    0.810958
     5  C   -0.449823
     6  H    0.127827
     7  H    0.164796
     8  O   -1.242324
     9  C   -0.346997
    10  H    0.012849
    11  H    0.181972
    12  H    0.197591
    13  O   -1.208429
    14  H    0.549754
 Sum of Mulliken charges =  -0.00000

 Dipole moment (field-independent basis, Debye):
    X=              0.6827    Y=             -2.1052    Z=             -0.4582  Tot=              2.2601

 Test job not archived.
 1\1\GINC-SE016\SP\RHF\Aug-CC-pVDZ\C4H6N1O2P1\OHZDE\08-Apr-2025\0\\#t h
 f aug-cc-pvdz iop(5/13=1,5/36=2,99/5=2) pseudo=read geom=check guess=(
 read,tcheck) scf=(maxcycle=1)\\title\\0,1\C,0,-1.475961,-0.47627,0.026
 371\P,0,-0.945426,1.305113,-0.24064\C,0,0.84414,0.774384,0.040067\N,0,
 0.948988,-0.591246,-0.067037\C,0,-0.257311,-1.396497,-0.115404\H,0,-0.
 284908,-2.131136,0.698542\H,0,-0.341263,-1.948773,-1.061488\O,0,-2.584
 367,-0.885582,0.24136\C,0,2.247067,-1.247472,-0.003197\H,0,3.01297,-0.
 475294,0.026599\H,0,2.39904,-1.881693,-0.88178\H,0,2.326071,-1.86745,0

 Normal termination of Gaussian 16 at Tue Apr  8 23:34:36 2025.
