 Gaussian 16, Revision C.01,

 ----------------------------------------------------------------------
 #t hf aug-cc-pvdz symm=none int=(grid=ultrafine) guess=(read,tcheck) s
 table=(opt,rrhf)
 ----------------------------------------------------------------------
 -----
 title
 -----
 Symbolic Z-matrix:
 Charge =  0 Multiplicity = 1

 SCF Done:  E(RHF) =  -1392.53983877     A.U. after   12 cycles

 1\1\GINC-SE083\Stability\RHF\Aug-CC-pVDZ\C2Cl2F4\OHZDE\08-Apr-2025\0\\
 #t hf aug-cc-pvdz symm=none int=(grid=ultrafine) guess=(read,tcheck) s
 table=(opt,rrhf)\\title\\0,1\C,0,0.237835,0.742865,0.\C,0,-0.237835,-0
 .742865,0.\Cl,0,2.01745,0.833195,0.\F,0,-0.237835,1.360782,1.088619\F,
 0,-0.237835,1.360782,-1.088619\Cl,0,-2.01745,-0.833195,0.\F,0,0.237835
 ,-1.360782,1.088619\F,0,0.237835,-1.360782,-1.088619\\Version=ES64L-G1
 6RevC.01\HF=-1392.5398388\RMSD=1.658e-09\Dipole=0.,0.,0.\Quadrupole=2.
 4029464,-1.0114885,-1.3914579,0.8890165,0.,0.\PG=Unknown\\@

 Normal termination of Gaussian 16 at Tue Apr  8 22:28:49 2025.
 Gaussian 16:  ES64L-G16RevC.01  3-Jul-2019

 ----------------------------------------------------------------------
 #t hf aug-cc-pvdz iop(5/13=1,5/36=2,99/5=2) pseudo=read geom=check gue
 ss=(read,tcheck) scf=(maxcycle=1)
 ----------------------------------------------------------------------
 -----
 title
 -----
 Structure from the checkpoint file:  "BDE49_expt_1004_mol1.chk"
 Charge =  0 Multiplicity = 1

                         Standard orientation:
 ---------------------------------------------------------------------
 Center     Atomic      Atomic             Coordinates (Angstroms)
 Number     Number       Type             X           Y           Z
 ---------------------------------------------------------------------
      1          6           0        0.237835    0.742865    0.000000
      2          6           0       -0.237835   -0.742865    0.000000
      3         17           0        2.017450    0.833195    0.000000
      4          9           0       -0.237835    1.360782    1.088619
      5          9           0       -0.237835    1.360782   -1.088619
      6         17           0       -2.017450   -0.833195    0.000000
      7          9           0        0.237835   -1.360782    1.088619
      8          9           0        0.237835   -1.360782   -1.088619
 ---------------------------------------------------------------------

 SCF Done:  E(RHF) =  -1393.11930623     A.U. after    2 cycles

 The electronic state is 1-AG.
 Alpha  occ. eigenvalues -- -105.61643-105.61642 -26.53996 -26.53996 -26.53994
 Alpha  occ. eigenvalues --  -26.53994 -11.53937 -11.53930 -10.66525 -10.66523
 Alpha  occ. eigenvalues --   -7.83474  -7.83468  -7.83032  -7.83029  -7.83019
 Alpha  occ. eigenvalues --   -7.83019  -1.72827  -1.71062  -1.65217  -1.64091
 Alpha  occ. eigenvalues --   -1.16837  -1.14213  -1.01659  -0.91826  -0.85893
 Alpha  occ. eigenvalues --   -0.83675  -0.79756  -0.79658  -0.77586  -0.72560
 Alpha  occ. eigenvalues --   -0.70169  -0.70051  -0.66871  -0.65399  -0.64771
 Alpha  occ. eigenvalues --   -0.61753  -0.55380  -0.52727  -0.51671  -0.51126
 Alpha  occ. eigenvalues --   -0.50255
 Alpha virt. eigenvalues --    0.06829   0.06956   0.08349   0.10116   0.10181
 Alpha virt. eigenvalues --    0.10264   0.12120   0.12447   0.13875   0.14272
 Alpha virt. eigenvalues --    0.16035   0.16103   0.18407   0.20017   0.21241

 Mulliken charges:
               1
     1  C    1.396727
     2  C    1.396727
     3  Cl  -0.048859
     4  F   -0.673934
     5  F   -0.673934
     6  Cl  -0.048859
     7  F   -0.673934
     8  F   -0.673934
 Sum of Mulliken charges =   0.00000

 Dipole moment (field-independent basis, Debye):
    X=             -0.0000    Y=             -0.0000    Z=             -0.0000  Tot=              0.0000

 Test job not archived.
 1\1\GINC-SE083\SP\RHF\Aug-CC-pVDZ\C2Cl2F4\OHZDE\08-Apr-2025\0\\#t hf a
 ug-cc-pvdz iop(5/13=1,5/36=2,99/5=2) pseudo=read geom=check guess=(rea
 d,tcheck) scf=(maxcycle=1)\\title\\0,1\C,0,0.237835,0.742865,0.\C,0,-0
 .237835,-0.742865,0.\Cl,0,2.01745,0.833195,0.\F,0,-0.237835,1.360782,1
 .088619\F,0,-0.237835,1.360782,-1.088619\Cl,0,-2.01745,-0.833195,0.\F,
 0,0.237835,-1.360782,1.088619\F,0,0.237835,-1.360782,-1.088619\\Versio
 n=ES64L-G16RevC.01\State=1-AG\HF=-1393.1193062\RMSD=4.772e-03\Dipole=0
 .,0.,0.\Quadrupole=2.0459901,-0.8316178,-1.2143723,0.6923444,0.,0.\PG=

 Normal termination of Gaussian 16 at Tue Apr  8 22:28:55 2025.
