 Gaussian 16, Revision C.01,

 ----------------------------------------------------------------------
 #t hf aug-cc-pvdz symm=none int=(grid=ultrafine) guess=(read,tcheck) s
 table=opt
 ----------------------------------------------------------------------
 -----
 title
 -----
 Symbolic Z-matrix:
 Charge =  0 Multiplicity = 2

 SCF Done:  E(UHF) =  -484.739038626     A.U. after   14 cycles

 1\1\GINC-SE253\Stability\UHF\Aug-CC-pVDZ\B1Cl1H1\OHZDE\08-Apr-2025\0\\
 #t hf aug-cc-pvdz symm=none int=(grid=ultrafine) guess=(read,tcheck) s
 table=opt\\title\\0,2\B,0,0.043228,1.247835,0.\Cl,0,0.043228,-0.478786
 ,0.\H,0,-0.951006,1.900186,0.\\Version=ES64L-G16RevC.01\HF=-484.739038
 6\S2=0.754572\S2-1=0.\S2A=0.750014\RMSD=8.218e-09\Dipole=-0.174002,0.2
 157671,0.\Quadrupole=-0.7982579,0.1015448,0.6967131,-0.68067,0.,0.\PG=
 Unknown\\@
 The archive entry for this job was punched.

 Normal termination of Gaussian 16 at Tue Apr  8 23:21:51 2025.
 Gaussian 16:  ES64L-G16RevC.01  3-Jul-2019

 ----------------------------------------------------------------------
 #t hf aug-cc-pvdz iop(5/13=1,5/36=2,99/5=2) pseudo=read geom=check gue
 ss=(read,tcheck) scf=(maxcycle=1)
 ----------------------------------------------------------------------
 -----
 title
 -----
 Structure from the checkpoint file:  "BDE49_nonexpt_11_mol2.chk"
 Charge =  0 Multiplicity = 2

                         Standard orientation:
 ---------------------------------------------------------------------
 Center     Atomic      Atomic             Coordinates (Angstroms)
 Number     Number       Type             X           Y           Z
 ---------------------------------------------------------------------
      1          5           0        0.043228    1.247835    0.000000
      2         17           0        0.043228   -0.478786    0.000000
      3          1           0       -0.951006    1.900186    0.000000
 ---------------------------------------------------------------------

 SCF Done:  E(UHF) =  -484.836078076     A.U. after    2 cycles

 The electronic state is 2-A'.
 Alpha  occ. eigenvalues -- -105.58480 -10.63545  -7.80460  -7.80153  -7.80096
 Alpha  occ. eigenvalues --   -7.68953  -1.09547  -0.71524  -0.58393  -0.52137
 Alpha  occ. eigenvalues --   -0.50863  -0.36025
 Alpha virt. eigenvalues --    0.03093   0.05090   0.05341   0.05540   0.08399
 Alpha virt. eigenvalues --    0.10980   0.13912   0.16630   0.17233   0.21283
 Alpha virt. eigenvalues --    0.24499   0.25413   0.27654   0.30054   0.32456

  Beta  occ. eigenvalues -- -105.58409 -10.63464  -7.80356  -7.80128  -7.79879
  Beta  occ. eigenvalues --   -7.66945  -1.08628  -0.67576  -0.56220  -0.50910
  Beta  occ. eigenvalues --   -0.48861
  Beta virt. eigenvalues --    0.03895   0.04159   0.05301   0.05608   0.07790
  Beta virt. eigenvalues --    0.10478   0.13620   0.14875   0.16692   0.17557
  Beta virt. eigenvalues --    0.22256   0.25587   0.26345   0.28494   0.32453

 Mulliken charges and spin densities:
               1          2
     1  B   -0.079866   0.973823
     2  Cl  -0.176953   0.002466
     3  H    0.256819   0.023710
 Sum of Mulliken charges =  -0.00000   1.00000

 Dipole moment (field-independent basis, Debye):
    X=             -0.4573    Y=              0.5146    Z=              0.0000  Tot=              0.6884
                          Isotropic Fermi Contact Couplings
        Atom                 a.u.       MegaHertz       Gauss      10(-4) cm-1
     1  B(11)              0.31748     455.38775     162.49367     151.90100
     2  Cl(35)             0.06219      27.26787       9.72985       9.09558
     3  H(1)               0.01905      85.15828      30.38659      28.40575
 --------------------------------------------------------
       Center         ----  Spin Dipole Couplings  ----
                      3XX-RR        3YY-RR        3ZZ-RR
 --------------------------------------------------------
     1   Atom        0.326550     -0.117184     -0.209367

 Normal termination of Gaussian 16 at Tue Apr  8 23:21:53 2025.
