 Gaussian 16, Revision C.01,

 ----------------------------------------------------------------------
 #t hf aug-cc-pvdz symm=none int=(grid=ultrafine) guess=(read,tcheck) s
 table=(opt,rrhf)
 ----------------------------------------------------------------------
 -----
 title
 -----
 Symbolic Z-matrix:
 Charge =  0 Multiplicity = 1

 SCF Done:  E(RHF) =  -1375.27083218     A.U. after   14 cycles
 Normal termination of Gaussian 16 at Wed Apr  9 00:51:24 2025.
 Gaussian 16:  ES64L-G16RevC.01  3-Jul-2019

 ----------------------------------------------------------------------
 #t hf aug-cc-pvdz iop(5/13=1,5/36=2,99/5=2) pseudo=read geom=check gue
 ss=(read,tcheck) scf=(maxcycle=1)
 ----------------------------------------------------------------------
 -----
 title
 -----
 Structure from the checkpoint file:  "BDE49_nonexpt_914_mol1.chk"
 Charge =  0 Multiplicity = 1

                         Standard orientation:
 ---------------------------------------------------------------------
 Center     Atomic      Atomic             Coordinates (Angstroms)
 Number     Number       Type             X           Y           Z
 ---------------------------------------------------------------------
      1         16           0       -0.258553   -1.043328   -0.000239
      2          5           0        1.248598   -0.042659   -0.000117
      3         16           0        2.819035   -0.988480    0.000068
      4          6           0       -1.857017   -0.038225    0.000052
      5          6           0       -2.945885   -1.124874   -0.001035
      6          1           0       -2.875984   -1.761128    0.884067
      7          1           0       -2.875630   -1.759733   -0.887108
      8          6           0       -1.976409    0.805095   -1.274459
      9          1           0       -2.949420    1.308208   -1.287985
     10          1           0       -1.905268    0.177072   -2.164553
     11          1           0       -1.204736    1.571923   -1.348089
     12          6           0       -1.976974    0.803129    1.275807
     13          1           0       -1.906532    0.173689    2.164955
     14          1           0       -2.949859    1.306480    1.289539
     15          1           0       -1.205102    1.569597    1.351125
     16          1           0       -3.930907   -0.648027   -0.000849
     17         16           0        1.536796    1.759498    0.000008
     18          1           0        0.265816    2.179986   -0.000152
     19          1           0        2.275887   -2.218566    0.000052
 ---------------------------------------------------------------------

 SCF Done:  E(RHF) =  -1375.65030498     A.U. after    2 cycles

 The electronic state is 1-A.
 Alpha  occ. eigenvalues --  -93.95919 -93.95038 -93.94601 -11.30101 -11.24479
 Alpha  occ. eigenvalues --  -11.24470 -11.24416  -8.24207  -8.23316  -8.22902
 Alpha  occ. eigenvalues --   -7.67704  -6.22052  -6.21897  -6.21730  -6.21157
 Alpha  occ. eigenvalues --   -6.21015  -6.20838  -6.20719  -6.20523  -6.20412
 Alpha  occ. eigenvalues --   -1.13508  -1.05868  -1.00590  -0.97337  -0.95903
 Alpha  occ. eigenvalues --   -0.95445  -0.76913  -0.67957  -0.64458  -0.63239
 Alpha  occ. eigenvalues --   -0.62880  -0.57539  -0.57069  -0.54447  -0.54191
 Alpha  occ. eigenvalues --   -0.53628  -0.50863  -0.50522  -0.49910  -0.45629
 Alpha  occ. eigenvalues --   -0.44430  -0.42002  -0.37793  -0.36420
 Alpha virt. eigenvalues --    0.03109   0.03617   0.03819   0.04423   0.05779
 Alpha virt. eigenvalues --    0.05988   0.06266   0.06323   0.06523   0.08372
 Alpha virt. eigenvalues --    0.09204   0.09442   0.09790   0.10163   0.10357

 Mulliken charges:
               1
     1  S   -0.070100
     2  B    1.155268
     3  S   -0.812980
     4  C   -1.541307
     5  C    0.247705
     6  H    0.193997
     7  H    0.194010
     8  C   -0.149314
     9  H    0.220585
    10  H    0.201291
    11  H    0.024452
    12  C   -0.149738
    13  H    0.201253
    14  H    0.220492
    15  H    0.024888
    16  H    0.212474
    17  S   -0.666323
    18  H    0.250631
    19  H    0.242715
 Sum of Mulliken charges =   0.00000

 Dipole moment (field-independent basis, Debye):
    X=             -3.6892    Y=              0.4480    Z=              0.0000  Tot=              3.7163

 Test job not archived.
 1\1\GINC-SE070\SP\RHF\Aug-CC-pVDZ\C4H11B1S3\OHZDE\09-Apr-2025\0\\#t hf
  aug-cc-pvdz iop(5/13=1,5/36=2,99/5=2) pseudo=read geom=check guess=(r
 ead,tcheck) scf=(maxcycle=1)\\title\\0,1\S,0,-0.258553,-1.043328,-0.00
 0239\B,0,1.248598,-0.042659,-0.000117\S,0,2.819035,-0.98848,0.000068\C
 ,0,-1.857017,-0.038225,0.000052\C,0,-2.945885,-1.124874,-0.001035\H,0,
 -2.875984,-1.761128,0.884067\H,0,-2.87563,-1.759733,-0.887108\C,0,-1.9
 76409,0.805095,-1.274459\H,0,-2.94942,1.308208,-1.287985\H,0,-1.905268
 ,0.177072,-2.164553\H,0,-1.204736,1.571923,-1.348089\C,0,-1.976974,0.8

 Normal termination of Gaussian 16 at Wed Apr  9 00:51:35 2025.
