 Gaussian 16, Revision C.01,

 ----------------------------------------------------------------------
 #t hf aug-cc-pvdz symm=none int=(grid=ultrafine) guess=(read,tcheck) s
 table=(opt,rrhf)
 ----------------------------------------------------------------------
 -----
 title
 -----
 Symbolic Z-matrix:
 Charge =  0 Multiplicity = 1

 SCF Done:  E(RHF) =  -165.599909771     A.U. after   13 cycles
 Normal termination of Gaussian 16 at Wed Apr  9 00:34:59 2025.
 Gaussian 16:  ES64L-G16RevC.01  3-Jul-2019

 ----------------------------------------------------------------------
 #t hf aug-cc-pvdz iop(5/13=1,5/36=2,99/5=2) pseudo=read geom=check gue
 ss=(read,tcheck) scf=(maxcycle=1)
 ----------------------------------------------------------------------
 -----
 title
 -----
 Structure from the checkpoint file:  "BDE49_nonexpt_45_mol1.chk"
 Charge =  0 Multiplicity = 1

                         Standard orientation:
 ---------------------------------------------------------------------
 Center     Atomic      Atomic             Coordinates (Angstroms)
 Number     Number       Type             X           Y           Z
 ---------------------------------------------------------------------
      1          5           0        0.634008    0.426064   -0.000151
      2          5           0        2.221313   -0.102631    0.000043
      3          8           0       -0.419529   -0.417103   -0.000065
      4          6           0       -1.774580    0.035130    0.000066
      5          1           0       -2.273844   -0.357182    0.888317
      6          1           0       -2.274004   -0.357164   -0.888102
      7          1           0       -1.823479    1.127944    0.000081
      8          1           0        2.838465   -0.261777    1.012575
      9          1           0        2.838675   -0.261797   -1.012357
     10          1           0        0.421296    1.618853    0.000147
 ---------------------------------------------------------------------

 SCF Done:  E(RHF) =  -165.772463046     A.U. after    2 cycles

 The electronic state is 1-A.
 Alpha  occ. eigenvalues --  -20.55625 -11.29362  -7.59726  -7.58071  -1.46599
 Alpha  occ. eigenvalues --   -0.95171  -0.75160  -0.69127  -0.63928  -0.63757
 Alpha  occ. eigenvalues --   -0.56954  -0.50310  -0.49662  -0.46487  -0.41229
 Alpha virt. eigenvalues --    0.03552   0.03750   0.04201   0.04358   0.05846
 Alpha virt. eigenvalues --    0.06108   0.06603   0.08227   0.09159   0.09681
 Alpha virt. eigenvalues --    0.10121   0.11125   0.13634   0.14453   0.14655

 Mulliken charges:
               1
     1  B    0.829712
     2  B   -0.875247
     3  O   -1.090476
     4  C    0.440015
     5  H    0.086555
     6  H    0.086562
     7  H    0.100900
     8  H    0.277758
     9  H    0.277687
    10  H   -0.133467
 Sum of Mulliken charges =  -0.00000

 Dipole moment (field-independent basis, Debye):
    X=             -1.4290    Y=              0.5654    Z=             -0.0001  Tot=              1.5368

 Test job not archived.
 1\1\GINC-SE099\SP\RHF\Aug-CC-pVDZ\C1H6B2O1\OHZDE\09-Apr-2025\0\\#t hf
 aug-cc-pvdz iop(5/13=1,5/36=2,99/5=2) pseudo=read geom=check guess=(re
 ad,tcheck) scf=(maxcycle=1)\\title\\0,1\B,0,-0.634008,0.426064,0.00015
 1\B,0,-2.221313,-0.102631,-0.000043\O,0,0.419529,-0.417103,0.000065\C,
 0,1.77458,0.03513,-0.000066\H,0,2.273844,-0.357182,-0.888317\H,0,2.274
 004,-0.357164,0.888102\H,0,1.823479,1.127944,-0.000081\H,0,-2.838465,-
 0.261777,-1.012575\H,0,-2.838675,-0.261797,1.012357\H,0,-0.421296,1.61
 8853,-0.000147\\Version=ES64L-G16RevC.01\State=1-A\HF=-165.772463\RMSD

 Normal termination of Gaussian 16 at Wed Apr  9 00:35:03 2025.
