 Gaussian 16, Revision C.01,

 ----------------------------------------------------------------------
 #t hf aug-cc-pvdz symm=none int=(grid=ultrafine) guess=(read,tcheck) s
 table=(opt,rrhf)
 ----------------------------------------------------------------------
 -----
 title
 -----
 Symbolic Z-matrix:
 Charge =  0 Multiplicity = 1

 SCF Done:  E(RHF) =  -1448.69112154     A.U. after   15 cycles
 Normal termination of Gaussian 16 at Wed Apr  9 00:51:22 2025.
 Gaussian 16:  ES64L-G16RevC.01  3-Jul-2019

 ----------------------------------------------------------------------
 #t hf aug-cc-pvdz iop(5/13=1,5/36=2,99/5=2) pseudo=read geom=check gue
 ss=(read,tcheck) scf=(maxcycle=1)
 ----------------------------------------------------------------------
 -----
 title
 -----
 Structure from the checkpoint file:  "BDE49_nonexpt_909_mol1.chk"
 Charge =  0 Multiplicity = 1

                         Standard orientation:
 ---------------------------------------------------------------------
 Center     Atomic      Atomic             Coordinates (Angstroms)
 Number     Number       Type             X           Y           Z
 ---------------------------------------------------------------------
      1          6           0       -3.644745    0.381354    0.000009
      2          6           0       -2.995025    0.127536    1.206154
      3          6           0       -1.697373   -0.378272    1.210425
      4          6           0       -2.995044    0.127468   -1.206131
      5          6           0       -1.697392   -0.378339   -1.210395
      6          6           0       -1.045069   -0.624321    0.000017
      7          1           0       -4.655189    0.773753    0.000006
      8          1           0       -3.497329    0.321423    2.147003
      9          1           0       -1.189434   -0.580353    2.145427
     10          1           0       -3.497363    0.321303   -2.146984
     11          1           0       -1.189468   -0.580473   -2.145393
     12         16           0        0.604143   -1.348511    0.000024
     13          5           0        1.735611    0.070806   -0.000028
     14         16           0        3.531506   -0.239264    0.000011
     15         16           0        1.114189    1.778718   -0.000058
     16          1           0        3.486499   -1.584149    0.000042
     17          1           0        2.314714    2.386810   -0.000055
 ---------------------------------------------------------------------

 SCF Done:  E(RHF) =  -1449.12992659     A.U. after    2 cycles

 The electronic state is 1-A.
 Alpha  occ. eigenvalues --  -93.95995 -93.95899 -93.95867 -11.28463 -11.25861
 Alpha  occ. eigenvalues --  -11.25857 -11.25649 -11.25459 -11.25451  -8.24282
 Alpha  occ. eigenvalues --   -8.24174  -8.24129  -7.67906  -6.22118  -6.21999
 Alpha  occ. eigenvalues --   -6.21976  -6.21957  -6.21858  -6.21799  -6.21788
 Alpha  occ. eigenvalues --   -6.21685  -6.21654  -1.17531  -1.08682  -1.04733
 Alpha  occ. eigenvalues --   -1.03081  -1.00640  -0.97149  -0.85021  -0.82734
 Alpha  occ. eigenvalues --   -0.72514  -0.67092  -0.65918  -0.64528  -0.61345
 Alpha  occ. eigenvalues --   -0.60485  -0.59446  -0.53808  -0.52830  -0.52193
 Alpha  occ. eigenvalues --   -0.48572  -0.46823  -0.46351  -0.45523  -0.38161
 Alpha  occ. eigenvalues --   -0.37623  -0.35696  -0.35383
 Alpha virt. eigenvalues --    0.03226   0.03662   0.03822   0.04559   0.04864
 Alpha virt. eigenvalues --    0.05375   0.06704   0.07165   0.07670   0.07978
 Alpha virt. eigenvalues --    0.08833   0.09145   0.10573   0.10893   0.11679

 Mulliken charges:
               1
     1  C    0.147841
     2  C    0.235629
     3  C   -0.047693
     4  C    0.235630
     5  C   -0.047703
     6  C    0.395237
     7  H   -0.200340
     8  H   -0.226316
     9  H   -0.238178
    10  H   -0.226313
    11  H   -0.238179
    12  S   -0.094319
    13  B    1.117001
    14  S   -0.773264
    15  S   -0.579735
    16  H    0.280868
    17  H    0.259835
 Sum of Mulliken charges =  -0.00000

 Dipole moment (field-independent basis, Debye):
    X=             -1.3425    Y=              0.3018    Z=              0.0000  Tot=              1.3760

 Test job not archived.
 1\1\GINC-SE396\SP\RHF\Aug-CC-pVDZ\C6H7B1S3\OHZDE\09-Apr-2025\0\\#t hf
 aug-cc-pvdz iop(5/13=1,5/36=2,99/5=2) pseudo=read geom=check guess=(re
 ad,tcheck) scf=(maxcycle=1)\\title\\0,1\C,0,-3.644745,0.381354,0.00000
 9\C,0,-2.995025,0.127536,1.206154\C,0,-1.697373,-0.378272,1.210425\C,0
 ,-2.995044,0.127468,-1.206131\C,0,-1.697392,-0.378339,-1.210395\C,0,-1
 .045069,-0.624321,0.000017\H,0,-4.655189,0.773753,0.000006\H,0,-3.4973
 29,0.321423,2.147003\H,0,-1.189434,-0.580353,2.145427\H,0,-3.497363,0.
 321303,-2.146984\H,0,-1.189468,-0.580473,-2.145393\S,0,0.604143,-1.348

 Normal termination of Gaussian 16 at Wed Apr  9 00:51:32 2025.
