 Gaussian 16, Revision C.01,

 ----------------------------------------------------------------------
 #t hf aug-cc-pvdz symm=none int=(grid=ultrafine) guess=(read,tcheck) s
 table=(opt,rrhf)
 ----------------------------------------------------------------------
 -----
 title
 -----
 Symbolic Z-matrix:
 Charge =  0 Multiplicity = 1

 SCF Done:  E(RHF) =  -859.827922780     A.U. after   13 cycles
 Normal termination of Gaussian 16 at Wed Apr  9 00:14:43 2025.
 Gaussian 16:  ES64L-G16RevC.01  3-Jul-2019

 ----------------------------------------------------------------------
 #t hf aug-cc-pvdz iop(5/13=1,5/36=2,99/5=2) pseudo=read geom=check gue
 ss=(read,tcheck) scf=(maxcycle=1)
 ----------------------------------------------------------------------
 -----
 title
 -----
 Structure from the checkpoint file:  "BDE49_nonexpt_2458_mol1.chk"
 Charge =  0 Multiplicity = 1

                         Standard orientation:
 ---------------------------------------------------------------------
 Center     Atomic      Atomic             Coordinates (Angstroms)
 Number     Number       Type             X           Y           Z
 ---------------------------------------------------------------------
      1         14           0       -1.071438   -1.268301   -0.495130
      2         14           0        1.075702   -1.220866    0.494567
      3          5           0        2.128748    0.479246   -0.005187
      4          1           0        1.815735   -2.465945    0.152631
      5          1           0        0.861656   -1.257314    1.971461
      6          8           0        1.490670    1.659695   -0.183736
      7          6           0        3.691567    0.447073   -0.180858
      8          1           0        3.969831   -0.231526   -0.997016
      9          1           0        4.183941    0.044092    0.712314
     10          1           0        4.108866    1.435442   -0.394937
     11          5           0       -2.118976    0.420130   -0.010539
     12          1           0       -1.841388   -2.485266   -0.121335
     13          1           0       -0.925462   -1.297033   -1.978880
     14          8           0       -1.350023    1.554354    0.099235
     15          6           0       -3.669447    0.475232    0.232157
     16          1           0       -4.210933    0.078665   -0.634391
     17          1           0       -4.062268    1.476735    0.448716
     18          1           0       -3.940720   -0.181148    1.067940
     19          1           0        0.524937    1.635617   -0.083944
     20          1           0       -1.850644    2.352914    0.312164
 ---------------------------------------------------------------------

 SCF Done:  E(RHF) =  -860.185355261     A.U. after    2 cycles

 The electronic state is 1-A.
 Alpha  occ. eigenvalues --  -69.50423 -69.49963 -20.59126 -20.54467 -11.22399
 Alpha  occ. eigenvalues --  -11.19485  -7.63256  -7.60650  -6.17786  -6.17310
 Alpha  occ. eigenvalues --   -3.93125  -3.93109  -3.93077  -3.92647  -3.92639
 Alpha  occ. eigenvalues --   -3.92578  -1.48969  -1.44528  -0.97218  -0.94480
 Alpha  occ. eigenvalues --   -0.80107  -0.75314  -0.74355  -0.68529  -0.65037
 Alpha  occ. eigenvalues --   -0.59294  -0.58535  -0.58108  -0.55381  -0.54864
 Alpha  occ. eigenvalues --   -0.54296  -0.52651  -0.51108  -0.50341  -0.48185
 Alpha  occ. eigenvalues --   -0.47117  -0.42898  -0.39643  -0.36714
 Alpha virt. eigenvalues --    0.02435   0.03562   0.03847   0.04304   0.05175
 Alpha virt. eigenvalues --    0.05487   0.05717   0.06642   0.07186   0.07582
 Alpha virt. eigenvalues --    0.07694   0.07997   0.08997   0.09221   0.09508

 Mulliken charges:
               1
     1  Si   0.194315
     2  Si   0.080656
     3  B    1.161890
     4  H   -0.088581
     5  H   -0.098068
     6  O   -1.605107
     7  C   -0.495126
     8  H    0.084679
     9  H    0.081516
    10  H   -0.085597
    11  B    1.150700
    12  H   -0.113706
    13  H   -0.097459
    14  O   -1.363007
    15  C   -0.504065
    16  H    0.064423
    17  H   -0.075872
    18  H    0.073052
    19  H    1.096165
    20  H    0.539190
 Sum of Mulliken charges =  -0.00000

 Dipole moment (field-independent basis, Debye):
    X=             -2.9883    Y=              1.3218    Z=              0.5295  Tot=              3.3102

 Test job not archived.
 1\1\GINC-SE458\SP\RHF\Aug-CC-pVDZ\C2H12B2O2Si2\OHZDE\09-Apr-2025\0\\#t
  hf aug-cc-pvdz iop(5/13=1,5/36=2,99/5=2) pseudo=read geom=check guess
 =(read,tcheck) scf=(maxcycle=1)\\title\\0,1\Si,0,-1.071438,-1.268301,-
 0.49513\Si,0,1.075702,-1.220866,0.494567\B,0,2.128748,0.479246,-0.0051
 87\H,0,1.815735,-2.465945,0.152631\H,0,0.861656,-1.257314,1.971461\O,0
 ,1.49067,1.659695,-0.183736\C,0,3.691567,0.447073,-0.180858\H,0,3.9698
 31,-0.231526,-0.997016\H,0,4.183941,0.044092,0.712314\H,0,4.108866,1.4
 35442,-0.394937\B,0,-2.118976,0.42013,-0.010539\H,0,-1.841388,-2.48526

 Normal termination of Gaussian 16 at Wed Apr  9 00:14:52 2025.
