 Gaussian 16, Revision C.01,

 ----------------------------------------------------------------------
 #t hf aug-cc-pvdz symm=none int=(grid=ultrafine) guess=(read,tcheck) s
 table=(opt,rrhf)
 ----------------------------------------------------------------------
 -----
 title
 -----
 Symbolic Z-matrix:
 Charge =  0 Multiplicity = 1

 SCF Done:  E(RHF) =  -724.610535639     A.U. after   14 cycles

 1\1\GINC-SE398\Stability\RHF\Aug-CC-pVDZ\C1F4Si1\OHZDE\08-Apr-2025\0\\
 #t hf aug-cc-pvdz symm=none int=(grid=ultrafine) guess=(read,tcheck) s
 table=(opt,rrhf)\\title\\0,1\Si,0,0.458089,-0.74125,0.\F,0,-0.13323,-1
 .509127,1.28058\C,0,-0.269491,0.996788,0.\F,0,-0.13323,-1.509127,-1.28
 058\F,0,-0.13323,1.753393,1.069537\F,0,-0.13323,1.753393,-1.069537\\Ve
 rsion=ES64L-G16RevC.01\HF=-724.6105356\RMSD=3.266e-09\Dipole=0.1465426
 ,0.3991194,0.\Quadrupole=1.841592,-0.3648501,-1.4767418,-1.8948098,0.,
 0.\PG=Unknown\\@

 Normal termination of Gaussian 16 at Tue Apr  8 23:56:20 2025.
 Gaussian 16:  ES64L-G16RevC.01  3-Jul-2019

 ----------------------------------------------------------------------
 #t hf aug-cc-pvdz iop(5/13=1,5/36=2,99/5=2) pseudo=read geom=check gue
 ss=(read,tcheck) scf=(maxcycle=1)
 ----------------------------------------------------------------------
 -----
 title
 -----
 Structure from the checkpoint file:  "BDE49_nonexpt_2000_mol1.chk"
 Charge =  0 Multiplicity = 1

                         Standard orientation:
 ---------------------------------------------------------------------
 Center     Atomic      Atomic             Coordinates (Angstroms)
 Number     Number       Type             X           Y           Z
 ---------------------------------------------------------------------
      1         14           0        0.458089   -0.741250   -0.000000
      2          9           0       -0.133230   -1.509127    1.280580
      3          6           0       -0.269491    0.996788    0.000000
      4          9           0       -0.133230   -1.509127   -1.280580
      5          9           0       -0.133230    1.753393    1.069537
      6          9           0       -0.133230    1.753393   -1.069537
 ---------------------------------------------------------------------

 SCF Done:  E(RHF) =  -725.032436754     A.U. after    2 cycles

 The electronic state is 1-A'.
 Alpha  occ. eigenvalues --  -69.64593 -26.55967 -26.55966 -26.47861 -26.47860
 Alpha  occ. eigenvalues --  -11.50175  -6.30755  -4.05918  -4.05818  -4.05624
 Alpha  occ. eigenvalues --   -1.73729  -1.66106  -1.60103  -1.57816  -0.98021
 Alpha  occ. eigenvalues --   -0.84859  -0.82545  -0.78142  -0.77180  -0.70895
 Alpha  occ. eigenvalues --   -0.69820  -0.68329  -0.67878  -0.67793  -0.64632
 Alpha  occ. eigenvalues --   -0.62845  -0.60286  -0.35126
 Alpha virt. eigenvalues --   -0.01579   0.05101   0.05677   0.06089   0.07684
 Alpha virt. eigenvalues --    0.11440   0.11799   0.12047   0.16458   0.16652
 Alpha virt. eigenvalues --    0.19857   0.22641   0.23285   0.24664   0.24895

 Mulliken charges:
               1
     1  Si   1.742973
     2  F   -0.762305
     3  C    0.922872
     4  F   -0.762305
     5  F   -0.570618
     6  F   -0.570618
 Sum of Mulliken charges =  -0.00000

 Dipole moment (field-independent basis, Debye):
    X=              0.2355    Y=              1.1525    Z=             -0.0000  Tot=              1.1764

 Test job not archived.
 1\1\GINC-SE398\SP\RHF\Aug-CC-pVDZ\C1F4Si1\OHZDE\08-Apr-2025\0\\#t hf a
 ug-cc-pvdz iop(5/13=1,5/36=2,99/5=2) pseudo=read geom=check guess=(rea
 d,tcheck) scf=(maxcycle=1)\\title\\0,1\Si,0,0.458089,-0.74125,0.\F,0,-
 0.13323,-1.509127,1.28058\C,0,-0.269491,0.996788,0.\F,0,-0.13323,-1.50
 9127,-1.28058\F,0,-0.13323,1.753393,1.069537\F,0,-0.13323,1.753393,-1.
 069537\\Version=ES64L-G16RevC.01\State=1-A'\HF=-725.0324368\RMSD=2.519
 e-03\Dipole=0.0926632,0.4534445,0.\Quadrupole=1.3636494,-0.0664883,-1.
 2971611,-1.7630651,0.,0.\PG=CS [SG(C1Si1),X(F4)]\\@

 Normal termination of Gaussian 16 at Tue Apr  8 23:56:22 2025.
