 Gaussian 16, Revision C.01,

 ----------------------------------------------------------------------
 #t hf aug-cc-pvdz symm=none int=(grid=ultrafine) guess=(read,tcheck) s
 table=(opt,rrhf)
 ----------------------------------------------------------------------
 -----
 title
 -----
 Symbolic Z-matrix:
 Charge =  0 Multiplicity = 1

 SCF Done:  E(RHF) =  -930.594025105     A.U. after   16 cycles
 Normal termination of Gaussian 16 at Wed Apr  9 00:25:16 2025.
 Gaussian 16:  ES64L-G16RevC.01  3-Jul-2019

 ----------------------------------------------------------------------
 #t hf aug-cc-pvdz iop(5/13=1,5/36=2,99/5=2) pseudo=read geom=check gue
 ss=(read,tcheck) scf=(maxcycle=1)
 ----------------------------------------------------------------------
 -----
 title
 -----
 Structure from the checkpoint file:  "BDE49_nonexpt_2699_mol1.chk"
 Charge =  0 Multiplicity = 1

                         Standard orientation:
 ---------------------------------------------------------------------
 Center     Atomic      Atomic             Coordinates (Angstroms)
 Number     Number       Type             X           Y           Z
 ---------------------------------------------------------------------
      1          9           0        3.543312   -1.065375   -0.000014
      2         16           0        3.023196    0.509227    0.000029
      3          6           0        1.283530    0.257688    0.000017
      4          6           0        0.708098   -1.016973   -0.000053
      5          6           0       -0.674673   -1.140359   -0.000062
      6          6           0       -1.462818    0.005038   -0.000004
      7          6           0        0.478431    1.407198    0.000078
      8          1           0        0.924255    2.395829    0.000135
      9          6           0       -0.900798    1.279351    0.000065
     10          1           0       -1.547105    2.145702    0.000110
     11          7           0       -2.929892   -0.131115   -0.000016
     12          8           0       -3.394308   -1.263812   -0.000088
     13          8           0       -3.593999    0.897805    0.000025
     14          1           0        1.337402   -1.895424   -0.000098
     15          1           0       -1.150425   -2.111158   -0.000115
 ---------------------------------------------------------------------

 SCF Done:  E(RHF) =  -931.164563542     A.U. after    2 cycles

 The electronic state is 1-A.
 Alpha  occ. eigenvalues --  -94.07188 -26.50357 -20.59617 -20.59605 -15.80008
 Alpha  occ. eigenvalues --  -11.33290 -11.32372 -11.29948 -11.29824 -11.29217
 Alpha  occ. eigenvalues --  -11.28619  -8.34498  -6.32298  -6.31996  -6.31699
 Alpha  occ. eigenvalues --   -1.67555  -1.60653  -1.51252  -1.22544  -1.14597
 Alpha  occ. eigenvalues --   -1.07296  -1.05629  -0.95670  -0.89679  -0.84974
 Alpha  occ. eigenvalues --   -0.81375  -0.75872  -0.75228  -0.73652  -0.70672
 Alpha  occ. eigenvalues --   -0.68665  -0.68188  -0.66338  -0.64658  -0.63514
 Alpha  occ. eigenvalues --   -0.57291  -0.56015  -0.53024  -0.50587  -0.49388
 Alpha  occ. eigenvalues --   -0.46602  -0.45749  -0.39568  -0.35954
 Alpha virt. eigenvalues --    0.01324   0.02711   0.03429   0.04579   0.05248
 Alpha virt. eigenvalues --    0.06832   0.06862   0.08093   0.08174   0.08564
 Alpha virt. eigenvalues --    0.11541   0.11599   0.11999   0.12247   0.12656

 Mulliken charges:
               1
     1  F   -0.706506
     2  S    0.818692
     3  C   -0.035537
     4  C    0.401045
     5  C    0.325551
     6  C   -0.304849
     7  C    0.008417
     8  H   -0.207798
     9  C    0.275599
    10  H   -0.207238
    11  N    2.946210
    12  O   -1.463888
    13  O   -1.468213
    14  H   -0.177611
    15  H   -0.203875
 Sum of Mulliken charges =  -0.00000

 Dipole moment (field-independent basis, Debye):
    X=              3.2756    Y=              1.2112    Z=              0.0001  Tot=              3.4924

 Test job not archived.
 1\1\GINC-SE044\SP\RHF\Aug-CC-pVDZ\C6H4F1N1O2S1\OHZDE\09-Apr-2025\0\\#t
  hf aug-cc-pvdz iop(5/13=1,5/36=2,99/5=2) pseudo=read geom=check guess
 =(read,tcheck) scf=(maxcycle=1)\\title\\0,1\F,0,3.543312,-1.065375,-0.
 000014\S,0,3.023196,0.509227,0.000029\C,0,1.28353,0.257688,0.000017\C,
 0,0.708098,-1.016973,-0.000053\C,0,-0.674673,-1.140359,-0.000062\C,0,-
 1.462818,0.005038,-0.000004\C,0,0.478431,1.407198,0.000078\H,0,0.92425
 5,2.395829,0.000135\C,0,-0.900798,1.279351,0.000065\H,0,-1.547105,2.14
 5702,0.00011\N,0,-2.929892,-0.131115,-0.000016\O,0,-3.394308,-1.263812

 Normal termination of Gaussian 16 at Wed Apr  9 00:25:24 2025.
