 Gaussian 16, Revision C.01,

 ----------------------------------------------------------------------
 #t hf aug-cc-pvdz symm=none int=(grid=ultrafine) guess=(read,tcheck) s
 table=(opt,rrhf)
 ----------------------------------------------------------------------
 -----
 title
 -----
 Symbolic Z-matrix:
 Charge =  0 Multiplicity = 1

 SCF Done:  E(RHF) =  -267.701253387     A.U. after   14 cycles
 Normal termination of Gaussian 16 at Tue Apr  8 23:00:45 2025.
 Gaussian 16:  ES64L-G16RevC.01  3-Jul-2019

 ----------------------------------------------------------------------
 #t hf aug-cc-pvdz iop(5/13=1,5/36=2,99/5=2) pseudo=read geom=check gue
 ss=(read,tcheck) scf=(maxcycle=1)
 ----------------------------------------------------------------------
 -----
 title
 -----
 Structure from the checkpoint file:  "BDE49_expt_199_mol1.chk"
 Charge =  0 Multiplicity = 1

                         Standard orientation:
 ---------------------------------------------------------------------
 Center     Atomic      Atomic             Coordinates (Angstroms)
 Number     Number       Type             X           Y           Z
 ---------------------------------------------------------------------
      1          8           0        0.073497   -1.062308    0.000004
      2          6           0        1.397950   -0.731623   -0.000012
      3          6           0        1.546652    0.616363    0.000018
      4          6           0        0.219154    1.162394   -0.000016
      5          6           0       -0.638503    0.105368   -0.000000
      6          1           0       -0.057509    2.204915   -0.000027
      7          1           0        2.088639   -1.557584   -0.000019
      8          1           0        2.478535    1.159044    0.000033
      9          6           0       -2.120549   -0.014826    0.000005
     10          1           0       -2.574342    0.977092   -0.000018
     11          1           0       -2.475763   -0.555504    0.882917
     12          1           0       -2.475764   -0.555545   -0.882881
 ---------------------------------------------------------------------

 SCF Done:  E(RHF) =  -267.977784432     A.U. after    2 cycles

 The electronic state is 1-A.
 Alpha  occ. eigenvalues --  -20.60142 -11.29673 -11.28892 -11.24508 -11.23414
 Alpha  occ. eigenvalues --  -11.22874  -1.53608  -1.08818  -1.04814  -0.93422
 Alpha  occ. eigenvalues --   -0.80964  -0.76722  -0.71662  -0.63984  -0.61302
 Alpha  occ. eigenvalues --   -0.57667  -0.56567  -0.56552  -0.55588  -0.53097
 Alpha  occ. eigenvalues --   -0.39614  -0.31625
 Alpha virt. eigenvalues --    0.03671   0.03765   0.04153   0.05405   0.05748
 Alpha virt. eigenvalues --    0.06652   0.10347   0.11055   0.11906   0.12556
 Alpha virt. eigenvalues --    0.13370   0.13939   0.14595   0.15190   0.16007

 Mulliken charges:
               1
     1  O   -1.535785
     2  C    0.804626
     3  C    0.225479
     4  C    0.261159
     5  C    0.890726
     6  H   -0.176632
     7  H   -0.150399
     8  H   -0.130807
     9  C   -0.810875
    10  H    0.172762
    11  H    0.224869
    12  H    0.224876
 Sum of Mulliken charges =   0.00000

 Dipole moment (field-independent basis, Debye):
    X=             -0.3309    Y=              0.5668    Z=             -0.0000  Tot=              0.6563

 Test job not archived.
 1\1\GINC-SE221\SP\RHF\Aug-CC-pVDZ\C5H6O1\OHZDE\08-Apr-2025\0\\#t hf au
 g-cc-pvdz iop(5/13=1,5/36=2,99/5=2) pseudo=read geom=check guess=(read
 ,tcheck) scf=(maxcycle=1)\\title\\0,1\O,0,0.073497,-1.062308,0.000004\
 C,0,1.39795,-0.731623,-0.000012\C,0,1.546652,0.616363,0.000018\C,0,0.2
 19154,1.162394,-0.000016\C,0,-0.638503,0.105368,0.\H,0,-0.057509,2.204
 915,-0.000027\H,0,2.088639,-1.557584,-0.000019\H,0,2.478535,1.159044,0
 .000033\C,0,-2.120549,-0.014826,0.000005\H,0,-2.574342,0.977092,-0.000
 018\H,0,-2.475763,-0.555504,0.882917\H,0,-2.475764,-0.555545,-0.882881

 Normal termination of Gaussian 16 at Tue Apr  8 23:00:48 2025.
