 Gaussian 16, Revision C.01,

 ----------------------------------------------------------------------
 #t hf aug-cc-pvdz symm=none int=(grid=ultrafine) guess=(read,tcheck) s
 table=(opt,rrhf)
 ----------------------------------------------------------------------
 -----
 title
 -----
 Symbolic Z-matrix:
 Charge =  0 Multiplicity = 1

 SCF Done:  E(RHF) =  -534.885568734     A.U. after   13 cycles

 1\1\GINC-SE402\Stability\RHF\Aug-CC-pVDZ\Cl1H1O1\OHZDE\08-Apr-2025\0\\
 #t hf aug-cc-pvdz symm=none int=(grid=ultrafine) guess=(read,tcheck) s
 table=(opt,rrhf)\\title\\0,1\O,0,0.036419,1.125126,0.\Cl,0,0.036419,-0
 .607388,0.\H,0,-0.910486,1.324584,0.\\Version=ES64L-G16RevC.01\HF=-534
 .8855687\RMSD=3.066e-09\Dipole=-0.6366216,0.1041109,0.\Quadrupole=0.50
 27157,0.7656043,-1.2683201,-2.0011262,0.,0.\PG=Unknown\\@
 The archive entry for this job was punched.

 Normal termination of Gaussian 16 at Tue Apr  8 22:57:34 2025.
 Gaussian 16:  ES64L-G16RevC.01  3-Jul-2019

 ----------------------------------------------------------------------
 #t hf aug-cc-pvdz iop(5/13=1,5/36=2,99/5=2) pseudo=read geom=check gue
 ss=(read,tcheck) scf=(maxcycle=1)
 ----------------------------------------------------------------------
 -----
 title
 -----
 Structure from the checkpoint file:  "BDE49_expt_1921_mol1.chk"
 Charge =  0 Multiplicity = 1

                         Standard orientation:
 ---------------------------------------------------------------------
 Center     Atomic      Atomic             Coordinates (Angstroms)
 Number     Number       Type             X           Y           Z
 ---------------------------------------------------------------------
      1          8           0        0.036419    1.125126    0.000000
      2         17           0        0.036419   -0.607388    0.000000
      3          1           0       -0.910486    1.324584    0.000000
 ---------------------------------------------------------------------

 SCF Done:  E(RHF) =  -535.033739111     A.U. after    2 cycles

 The electronic state is 1-A'.
 Alpha  occ. eigenvalues -- -105.62722 -20.64151 -10.66977  -7.83952  -7.83411
 Alpha  occ. eigenvalues --   -7.83384  -1.48326  -1.02974  -0.71513  -0.60533
 Alpha  occ. eigenvalues --   -0.59808  -0.48118  -0.45335
 Alpha virt. eigenvalues --    0.03351   0.06372   0.13607   0.13955   0.15983
 Alpha virt. eigenvalues --    0.18682   0.20361   0.21997   0.22563   0.29274
 Alpha virt. eigenvalues --    0.36189   0.38801   0.39919   0.49109   0.49589

 Mulliken charges:
               1
     1  O   -0.824854
     2  Cl   0.380083
     3  H    0.444771
 Sum of Mulliken charges =  -0.00000

 Dipole moment (field-independent basis, Debye):
    X=             -1.5860    Y=              0.4637    Z=              0.0000  Tot=              1.6523

 Test job not archived.
 1\1\GINC-SE402\SP\RHF\Aug-CC-pVDZ\Cl1H1O1\OHZDE\08-Apr-2025\0\\#t hf a
 ug-cc-pvdz iop(5/13=1,5/36=2,99/5=2) pseudo=read geom=check guess=(rea
 d,tcheck) scf=(maxcycle=1)\\title\\0,1\O,0,0.036419,1.125126,0.\Cl,0,0
 .036419,-0.607388,0.\H,0,-0.910486,1.324584,0.\\Version=ES64L-G16RevC.
 01\State=1-A'\HF=-535.0337391\RMSD=5.145e-03\Dipole=-0.6239613,0.18242
 33,0.\Quadrupole=0.4882782,0.8060805,-1.2943587,-1.9778165,0.,0.\PG=CS
  [SG(Cl1H1O1)]\\@

 Normal termination of Gaussian 16 at Tue Apr  8 22:57:36 2025.
