 Gaussian 16, Revision C.01,

 ----------------------------------------------------------------------
 #t hf aug-cc-pvdz symm=none int=(grid=ultrafine) guess=(read,tcheck) s
 table=opt
 ----------------------------------------------------------------------
 -----
 title
 -----
 Symbolic Z-matrix:
 Charge =  0 Multiplicity = 2

 SCF Done:  E(UHF) =  -670.202650849     A.U. after   33 cycles

 1\1\GINC-SE096\Stability\UHF\Aug-CC-pVDZ\C7H13S1\OHZDE\09-Apr-2025\0\\
 #t hf aug-cc-pvdz symm=none int=(grid=ultrafine) guess=(read,tcheck) s
 table=opt\\title\\0,2\C,0,0.23261,-1.06143,0.343023\C,0,1.6245,-1.4616
 32,-0.164897\C,0,2.674896,-0.392205,0.165701\C,0,2.251312,0.986675,-0.
 358644\C,0,0.856164,1.381733,0.148207\C,0,-1.577269,0.728533,0.348185\
 C,0,-0.202767,0.314017,-0.188805\S,0,-2.989289,-0.276209,-0.181192\H,0
 ,0.242899,-1.029048,1.44177\H,0,-0.50744,-1.815809,0.057066\H,0,1.5834
 73,-1.604996,-1.252167\H,0,1.915841,-2.425561,0.264166\H,0,3.647094,-0

 Normal termination of Gaussian 16 at Wed Apr  9 00:23:34 2025.
 Gaussian 16:  ES64L-G16RevC.01  3-Jul-2019

 ----------------------------------------------------------------------
 #t hf aug-cc-pvdz iop(5/13=1,5/36=2,99/5=2) pseudo=read geom=check gue
 ss=(read,tcheck) scf=(maxcycle=1)
 ----------------------------------------------------------------------
 -----
 title
 -----
 Structure from the checkpoint file:  "BDE49_nonexpt_2609_mol2.chk"
 Charge =  0 Multiplicity = 2

                         Standard orientation:
 ---------------------------------------------------------------------
 Center     Atomic      Atomic             Coordinates (Angstroms)
 Number     Number       Type             X           Y           Z
 ---------------------------------------------------------------------
      1          6           0        0.232610   -1.061430    0.343023
      2          6           0        1.624500   -1.461632   -0.164897
      3          6           0        2.674896   -0.392205    0.165701
      4          6           0        2.251312    0.986675   -0.358644
      5          6           0        0.856164    1.381733    0.148207
      6          6           0       -1.577269    0.728533    0.348185
      7          6           0       -0.202767    0.314017   -0.188805
      8         16           0       -2.989289   -0.276209   -0.181192
      9          1           0        0.242899   -1.029048    1.441770
     10          1           0       -0.507440   -1.815809    0.057066
     11          1           0        1.583473   -1.604996   -1.252167
     12          1           0        1.915841   -2.425561    0.264166
     13          1           0        3.647094   -0.672858   -0.251894
     14          1           0        2.806316   -0.339685    1.254329
     15          1           0        2.242872    0.968737   -1.455939
     16          1           0        2.983281    1.746343   -0.066220
     17          1           0        0.561542    2.347557   -0.277560
     18          1           0        0.892436    1.518856    1.237659
     19          1           0       -1.829785    1.749131    0.028279
     20          1           0       -1.584721    0.757056    1.444793
     21          1           0       -0.281849    0.245476   -1.281837
 ---------------------------------------------------------------------

 SCF Done:  E(UHF) =  -670.556171156     A.U. after    2 cycles

 The electronic state is 2-A.
 Alpha  occ. eigenvalues --  -93.96111 -11.26991 -11.23890 -11.23108 -11.22885
 Alpha  occ. eigenvalues --  -11.22691 -11.22680 -11.22655  -8.24134  -6.23316
 Alpha  occ. eigenvalues --   -6.21550  -6.21248  -1.13565  -1.07455  -1.00714
 Alpha  occ. eigenvalues --   -0.99707  -0.88100  -0.83945  -0.80141  -0.76264
 Alpha  occ. eigenvalues --   -0.66031  -0.63714  -0.61743  -0.60805  -0.58300
 Alpha  occ. eigenvalues --   -0.55717  -0.53839  -0.53249  -0.49722  -0.49316
 Alpha  occ. eigenvalues --   -0.48247  -0.46228  -0.44750  -0.43962  -0.42395
 Alpha  occ. eigenvalues --   -0.37219
 Alpha virt. eigenvalues --    0.03229   0.03254   0.03510   0.04313   0.05619
 Alpha virt. eigenvalues --    0.05750   0.06116   0.06377   0.06446   0.09098
 Alpha virt. eigenvalues --    0.09215   0.09226   0.09506   0.09917   0.13233

  Beta  occ. eigenvalues --  -93.95218 -11.27118 -11.23885 -11.23114 -11.22886
  Beta  occ. eigenvalues --  -11.22691 -11.22676 -11.22651  -8.23109  -6.21024
  Beta  occ. eigenvalues --   -6.20709  -6.19353  -1.13273  -1.05709  -1.00667
  Beta  occ. eigenvalues --   -0.97032  -0.84959  -0.83784  -0.78291  -0.76223
  Beta  occ. eigenvalues --   -0.65960  -0.62700  -0.61715  -0.60693  -0.57280
  Beta  occ. eigenvalues --   -0.55425  -0.53797  -0.52680  -0.49472  -0.49030
  Beta  occ. eigenvalues --   -0.47723  -0.46214  -0.44503  -0.43327  -0.35076
  Beta virt. eigenvalues --    0.01276   0.03236   0.03411   0.03533   0.04339
  Beta virt. eigenvalues --    0.05639   0.05840   0.06192   0.06459   0.06632
  Beta virt. eigenvalues --    0.09143   0.09254   0.09332   0.09608   0.10064

 Mulliken charges and spin densities:
               1          2
     1  C   -0.180533   0.016104
     2  C   -0.256913  -0.004483
     3  C   -0.243799   0.000482
     4  C   -0.258537  -0.001860
     5  C   -0.110165   0.005014
     6  C   -0.445568  -0.140625
     7  C   -0.652663  -0.010537
     8  S    0.265673   1.106753
     9  H    0.176268  -0.000589
    10  H    0.118684  -0.001117
    11  H    0.157188  -0.000466
    12  H    0.103419  -0.000316
    13  H    0.105199   0.000064
    14  H    0.152097   0.000110
    15  H    0.158147  -0.000193
    16  H    0.106868  -0.000068
    17  H    0.067257  -0.000661
    18  H    0.180987   0.000508
    19  H    0.207332   0.028034
    20  H    0.204476   0.012043
    21  H    0.144581  -0.008195
 Sum of Mulliken charges =  -0.00000   1.00000

 Dipole moment (field-independent basis, Debye):
    X=              1.7785    Y=              0.8758    Z=              0.3803  Tot=              2.0186
                          Isotropic Fermi Contact Couplings
        Atom                 a.u.       MegaHertz       Gauss      10(-4) cm-1
     1  C(13)             -0.00015      -0.16338      -0.05830      -0.05450
     2  C(13)             -0.00027      -0.30264      -0.10799      -0.10095
     3  C(13)              0.00034       0.37772       0.13478       0.12599
     4  C(13)             -0.00024      -0.26432      -0.09432      -0.08817
     5  C(13)             -0.00122      -1.37582      -0.49093      -0.45892
     6  C(13)             -0.02623     -29.48248     -10.52008      -9.83430
     7  C(13)              0.00024       0.27020       0.09641       0.09013
     8  S(33)              0.17632      60.55969      21.60920      20.20054

 Normal termination of Gaussian 16 at Wed Apr  9 00:23:46 2025.
