 Gaussian 16, Revision C.01,

 ----------------------------------------------------------------------
 #t hf aug-cc-pvdz symm=none int=(grid=ultrafine) guess=(read,tcheck) s
 table=opt
 ----------------------------------------------------------------------
 -----
 title
 -----
 Symbolic Z-matrix:
 Charge =  0 Multiplicity = 2

 SCF Done:  E(UHF) =  -485.827807709     A.U. after   16 cycles
 Normal termination of Gaussian 16 at Wed Apr  9 00:08:05 2025.
 Gaussian 16:  ES64L-G16RevC.01  3-Jul-2019

 ----------------------------------------------------------------------
 #t hf aug-cc-pvdz iop(5/13=1,5/36=2,99/5=2) pseudo=read geom=check gue
 ss=(read,tcheck) scf=(maxcycle=1)
 ----------------------------------------------------------------------
 -----
 title
 -----
 Structure from the checkpoint file:  "BDE49_nonexpt_2251_mol2.chk"
 Charge =  0 Multiplicity = 2

                         Standard orientation:
 ---------------------------------------------------------------------
 Center     Atomic      Atomic             Coordinates (Angstroms)
 Number     Number       Type             X           Y           Z
 ---------------------------------------------------------------------
      1         14           0       -0.251645   -0.862430   -0.483177
      2          6           0        1.131571    0.174248    0.328363
      3          6           0        2.437837   -0.627718    0.460945
      4          6           0       -1.925415    0.031514   -0.550452
      5          1           0        2.288466   -1.565597    1.003145
      6          1           0        3.197028   -0.050074    1.000123
      7          1           0        2.851104   -0.875666   -0.522010
      8          6           0        1.367191    1.516026   -0.386089
      9          1           0        0.764578    0.389074    1.343616
     10          1           0        1.721419    1.361534   -1.410489
     11          1           0        2.126109    2.108167    0.137452
     12          1           0        0.458166    2.121980   -0.438622
     13          6           0       -2.515319    0.395662    0.827618
     14          1           0       -2.622333   -0.617513   -1.092386
     15          1           0       -1.819852    0.932566   -1.164537
     16          1           0       -2.652556   -0.492652    1.450386
     17          1           0       -3.491869    0.879944    0.724084
     18          1           0       -1.866015    1.084039    1.375658
     19          1           0       -0.406403   -2.140176    0.275752
 ---------------------------------------------------------------------

 SCF Done:  E(UHF) =  -486.080236090     A.U. after    2 cycles

 The electronic state is 2-A.
 Alpha  occ. eigenvalues --  -69.51723 -11.23200 -11.22820 -11.22639 -11.22612
 Alpha  occ. eigenvalues --  -11.22186  -6.18872  -3.94795  -3.93910  -3.93878
 Alpha  occ. eigenvalues --   -1.05999  -1.02325  -0.93041  -0.85322  -0.80602
 Alpha  occ. eigenvalues --   -0.68503  -0.62266  -0.61603  -0.59005  -0.56989
 Alpha  occ. eigenvalues --   -0.55883  -0.54157  -0.52513  -0.50187  -0.49078
 Alpha  occ. eigenvalues --   -0.48615  -0.44414  -0.41201  -0.31151
 Alpha virt. eigenvalues --    0.03603   0.03668   0.03903   0.04032   0.05756
 Alpha virt. eigenvalues --    0.05909   0.06117   0.06681   0.07077   0.08520
 Alpha virt. eigenvalues --    0.08622   0.09223   0.09890   0.10311   0.11552

  Beta  occ. eigenvalues --  -69.51192 -11.23109 -11.22822 -11.22634 -11.22547
  Beta  occ. eigenvalues --  -11.22133  -6.18070  -3.93551  -3.93525  -3.92697
  Beta  occ. eigenvalues --   -1.05717  -1.01956  -0.93034  -0.84690  -0.80137
  Beta  occ. eigenvalues --   -0.65662  -0.61979  -0.61422  -0.58845  -0.56634
  Beta  occ. eigenvalues --   -0.54843  -0.54119  -0.52008  -0.50072  -0.49011
  Beta  occ. eigenvalues --   -0.48339  -0.43551  -0.40407
  Beta virt. eigenvalues --    0.02966   0.03652   0.03769   0.03965   0.05563
  Beta virt. eigenvalues --    0.05920   0.06021   0.06259   0.06824   0.08134
  Beta virt. eigenvalues --    0.08576   0.08742   0.09286   0.10181   0.10489

 Mulliken charges and spin densities:
               1          2
     1  Si   0.706041   1.041842
     2  C   -0.527189  -0.077820
     3  C   -0.378745   0.012791
     4  C   -0.597305  -0.010950
     5  H    0.095491  -0.004376
     6  H    0.153685  -0.001488
     7  H    0.177810  -0.006255
     8  C   -0.372880   0.041817
     9  H    0.204686  -0.013863
    10  H    0.188207  -0.000143
    11  H    0.152281  -0.000796
    12  H    0.058388  -0.001312
    13  C   -0.406116   0.011046
    14  H    0.041994  -0.005555
    15  H    0.159251  -0.001979
    16  H    0.149981  -0.007840
    17  H    0.092348   0.005784
    18  H    0.127220  -0.004809
    19  H   -0.025149   0.023906
 Sum of Mulliken charges =  -0.00000   1.00000

 Dipole moment (field-independent basis, Debye):
    X=             -0.2141    Y=              0.7866    Z=              0.4161  Tot=              0.9152
                          Isotropic Fermi Contact Couplings
        Atom                 a.u.       MegaHertz       Gauss      10(-4) cm-1
     1  Si(29)             0.52823    -469.45563    -167.51344    -156.59354
     2  C(13)              0.01196      13.44848       4.79875       4.48593
     3  C(13)              0.00016       0.17564       0.06267       0.05859
     4  C(13)              0.01532      17.22577       6.14658       5.74590
     5  H(1)              -0.00007      -0.30552      -0.10902      -0.10191
     6  H(1)              -0.00046      -2.04700      -0.73042      -0.68281
     7  H(1)              -0.00026      -1.16509      -0.41573      -0.38863
     8  C(13)              0.00050       0.56758       0.20253       0.18932

 Normal termination of Gaussian 16 at Wed Apr  9 00:08:14 2025.
