 Gaussian 16, Revision C.01,

 ----------------------------------------------------------------------
 #t hf aug-cc-pvdz symm=none int=(grid=ultrafine) guess=(read,tcheck) s
 table=opt
 ----------------------------------------------------------------------
 -----
 title
 -----
 Symbolic Z-matrix:
 Charge =  0 Multiplicity = 2

 SCF Done:  E(UHF) =  -634.855082803     A.U. after   14 cycles
 Normal termination of Gaussian 16 at Wed Apr  9 00:20:36 2025.
 Gaussian 16:  ES64L-G16RevC.01  3-Jul-2019

 ----------------------------------------------------------------------
 #t hf aug-cc-pvdz iop(5/13=1,5/36=2,99/5=2) pseudo=read geom=check gue
 ss=(read,tcheck) scf=(maxcycle=1)
 ----------------------------------------------------------------------
 -----
 title
 -----
 Structure from the checkpoint file:  "BDE49_nonexpt_2623_mol2.chk"
 Charge =  0 Multiplicity = 2

                         Standard orientation:
 ---------------------------------------------------------------------
 Center     Atomic      Atomic             Coordinates (Angstroms)
 Number     Number       Type             X           Y           Z
 ---------------------------------------------------------------------
      1         16           0        1.355136   -0.000001   -0.055917
      2          6           0       -0.402588   -0.000001    0.348483
      3          9           0       -1.043463    1.093074   -0.146524
      4          9           0       -1.043468   -1.093071   -0.146525
      5          1           0       -0.484257   -0.000001    1.441210
 ---------------------------------------------------------------------

 SCF Done:  E(UHF) =  -635.125630338     A.U. after    2 cycles

 The electronic state is 2-A.
 Alpha  occ. eigenvalues --  -94.00651 -26.49756 -26.49756 -11.46646  -8.28824
 Alpha  occ. eigenvalues --   -6.27987  -6.26212  -6.25868  -1.66607  -1.59527
 Alpha  occ. eigenvalues --   -1.09834  -0.91744  -0.79389  -0.76260  -0.72896
 Alpha  occ. eigenvalues --   -0.65761  -0.62152  -0.62072  -0.51665  -0.48696
 Alpha  occ. eigenvalues --   -0.42878
 Alpha virt. eigenvalues --    0.03667   0.06565   0.09575   0.10004   0.10928
 Alpha virt. eigenvalues --    0.12291   0.12634   0.15584   0.21352   0.23654
 Alpha virt. eigenvalues --    0.24358   0.24857   0.27484   0.28870   0.30718

  Beta  occ. eigenvalues --  -93.99744 -26.49731 -26.49730 -11.46787  -8.27782
  Beta  occ. eigenvalues --   -6.25697  -6.25327  -6.23940  -1.66523  -1.59437
  Beta  occ. eigenvalues --   -1.04469  -0.88255  -0.78850  -0.76121  -0.71450
  Beta  occ. eigenvalues --   -0.65771  -0.62014  -0.61337  -0.50465  -0.40549
  Beta virt. eigenvalues --   -0.02833   0.03755   0.06756   0.10059   0.10174
  Beta virt. eigenvalues --    0.11454   0.12714   0.13817   0.15929   0.22498
  Beta virt. eigenvalues --    0.24014   0.25006   0.25299   0.27662   0.31003

 Mulliken charges and spin densities:
               1          2
     1  S    0.266022   1.080447
     2  C    0.806325  -0.089586
     3  F   -0.599018  -0.000863
     4  F   -0.599017  -0.000863
     5  H    0.125688   0.010866
 Sum of Mulliken charges =   0.00000   1.00000

 Dipole moment (field-independent basis, Debye):
    X=              0.6290    Y=             -0.0000    Z=              1.3756  Tot=              1.5126
                          Isotropic Fermi Contact Couplings
        Atom                 a.u.       MegaHertz       Gauss      10(-4) cm-1
     1  S(33)              0.18451      63.37498      22.61377      21.13962
     2  C(13)             -0.02415     -27.15189      -9.68847      -9.05690
     3  F(19)              0.00495      20.83820       7.43559       6.95088
     4  F(19)              0.00495      20.83729       7.43526       6.95057
     5  H(1)               0.00897      40.10809      14.31156      13.37862
 --------------------------------------------------------
       Center         ----  Spin Dipole Couplings  ----
                      3XX-RR        3YY-RR        3ZZ-RR

 Normal termination of Gaussian 16 at Wed Apr  9 00:20:38 2025.
