 Gaussian 16, Revision C.01,

 ----------------------------------------------------------------------
 #t hf aug-cc-pvdz symm=none int=(grid=ultrafine) guess=(read,tcheck) s
 table=(opt,rrhf)
 ----------------------------------------------------------------------
 -----
 title
 -----
 Symbolic Z-matrix:
 Charge =  0 Multiplicity = 1

 SCF Done:  E(RHF) =  -555.089000445     A.U. after   12 cycles
 Normal termination of Gaussian 16 at Tue Apr  8 22:45:34 2025.
 Gaussian 16:  ES64L-G16RevC.01  3-Jul-2019

 ----------------------------------------------------------------------
 #t hf aug-cc-pvdz iop(5/13=1,5/36=2,99/5=2) pseudo=read geom=check gue
 ss=(read,tcheck) scf=(maxcycle=1)
 ----------------------------------------------------------------------
 -----
 title
 -----
 Structure from the checkpoint file:  "BDE49_expt_1541_mol1.chk"
 Charge =  0 Multiplicity = 1

                         Standard orientation:
 ---------------------------------------------------------------------
 Center     Atomic      Atomic             Coordinates (Angstroms)
 Number     Number       Type             X           Y           Z
 ---------------------------------------------------------------------
      1         14           0        0.022137    0.013833    0.005997
      2          6           0       -1.788818   -0.339713    0.176530
      3          1           0       -1.966127   -1.406510    0.334456
      4          1           0       -2.339374   -0.028908   -0.716031
      5          1           0       -2.203956    0.205395    1.028103
      6          8           0        0.742248   -0.902591   -1.165554
      7          8           0        0.876623   -0.351825    1.360223
      8          8           0        0.134226    1.623300   -0.298092
      9          1           0        0.429946   -0.816387   -2.068734
     10          1           0        1.481945   -1.094095    1.297502
     11          1           0        0.995782    2.034046   -0.191055
 ---------------------------------------------------------------------

 SCF Done:  E(RHF) =  -555.391797333     A.U. after    2 cycles

 The electronic state is 1-A.
 Alpha  occ. eigenvalues --  -69.58934 -20.54796 -20.54359 -20.54244 -11.21410
 Alpha  occ. eigenvalues --   -6.25012  -4.00524  -4.00509  -4.00299  -1.45899
 Alpha  occ. eigenvalues --   -1.42486  -1.42027  -0.95480  -0.77124  -0.71328
 Alpha  occ. eigenvalues --   -0.69849  -0.58884  -0.58528  -0.56136  -0.55198
 Alpha  occ. eigenvalues --   -0.54459  -0.52856  -0.50323  -0.48390  -0.45937
 Alpha virt. eigenvalues --    0.03129   0.04721   0.04854   0.05182   0.06987
 Alpha virt. eigenvalues --    0.07286   0.07846   0.09114   0.10282   0.12574
 Alpha virt. eigenvalues --    0.15804   0.15855   0.16755   0.19396   0.19509

 Mulliken charges:
               1
     1  Si   3.763541
     2  C   -0.585774
     3  H   -0.003986
     4  H    0.031541
     5  H    0.044880
     6  O   -1.441393
     7  O   -1.524341
     8  O   -1.485111
     9  H    0.362888
    10  H    0.416071
    11  H    0.421685
 Sum of Mulliken charges =   0.00000

 Dipole moment (field-independent basis, Debye):
    X=              0.3174    Y=             -0.6266    Z=             -1.2264  Tot=              1.4132

 Test job not archived.
 1\1\GINC-SE143\SP\RHF\Aug-CC-pVDZ\C1H6O3Si1\OHZDE\08-Apr-2025\0\\#t hf
  aug-cc-pvdz iop(5/13=1,5/36=2,99/5=2) pseudo=read geom=check guess=(r
 ead,tcheck) scf=(maxcycle=1)\\title\\0,1\Si,0,-0.022137,0.013833,-0.00
 5997\C,0,1.788818,-0.339712,-0.17653\H,0,1.966128,-1.406509,-0.334456\
 H,0,2.339374,-0.028906,0.716031\H,0,2.203956,0.205397,-1.028103\O,0,-0
 .742247,-0.902591,1.165554\O,0,-0.876623,-0.351825,-1.360223\O,0,-0.13
 4227,1.6233,0.298092\H,0,-0.429945,-0.816387,2.068734\H,0,-1.481944,-1
 .094096,-1.297502\H,0,-0.995783,2.034045,0.191055\\Version=ES64L-G16Re

 Normal termination of Gaussian 16 at Tue Apr  8 22:45:38 2025.
