 Gaussian 16, Revision C.01,

 ----------------------------------------------------------------------
 #t hf aug-cc-pvdz symm=none int=(grid=ultrafine) guess=(read,tcheck) s
 table=(opt,rrhf)
 ----------------------------------------------------------------------
 -----
 title
 -----
 Symbolic Z-matrix:
 Charge =  0 Multiplicity = 1

 SCF Done:  E(RHF) =  -576.158665034     A.U. after   14 cycles
 Normal termination of Gaussian 16 at Tue Apr  8 23:51:59 2025.
 Gaussian 16:  ES64L-G16RevC.01  3-Jul-2019

 ----------------------------------------------------------------------
 #t hf aug-cc-pvdz iop(5/13=1,5/36=2,99/5=2) pseudo=read geom=check gue
 ss=(read,tcheck) scf=(maxcycle=1)
 ----------------------------------------------------------------------
 -----
 title
 -----
 Structure from the checkpoint file:  "BDE49_nonexpt_1896_mol1.chk"
 Charge =  0 Multiplicity = 1

                         Standard orientation:
 ---------------------------------------------------------------------
 Center     Atomic      Atomic             Coordinates (Angstroms)
 Number     Number       Type             X           Y           Z
 ---------------------------------------------------------------------
      1         14           0       -2.599175    0.027966    0.000001
      2          6           0       -0.875010    0.819609   -0.000001
      3          6           0        0.186682   -0.273324   -0.000002
      4          8           0       -0.160930   -1.450611   -0.000000
      5          7           0        1.508156    0.087761   -0.000001
      6          1           0       -2.829593   -0.774963   -1.217928
      7          6           0        2.528925   -0.952565    0.000001
      8          1           0        2.036059   -1.920878   -0.000000
      9          1           0        3.163811   -0.865151    0.888733
     10          1           0        3.163815   -0.865151   -0.888728
     11          1           0       -3.577747    1.148309    0.000003
     12          1           0       -2.829590   -0.774964    1.217930
     13          6           0        2.007642    1.451989   -0.000000
     14          1           0        1.192393    2.169503   -0.000003
     15          1           0        2.626940    1.634241   -0.886326
     16          1           0        2.626933    1.634242    0.886331
     17          1           0       -0.771828    1.469796    0.875702
     18          1           0       -0.771831    1.469796   -0.875705
 ---------------------------------------------------------------------

 SCF Done:  E(RHF) =  -576.492173119     A.U. after    2 cycles

 The electronic state is 1-A.
 Alpha  occ. eigenvalues --  -69.52064 -20.50583 -15.52909 -11.36080 -11.28257
 Alpha  occ. eigenvalues --  -11.26459 -11.23914  -6.19080  -3.94461  -3.94449
 Alpha  occ. eigenvalues --   -3.94443  -1.45535  -1.25357  -1.02340  -0.98573
 Alpha  occ. eigenvalues --   -0.93947  -0.76931  -0.71622  -0.70145  -0.67928
 Alpha  occ. eigenvalues --   -0.67018  -0.60692  -0.59057  -0.57704  -0.57177
 Alpha  occ. eigenvalues --   -0.55159  -0.51564  -0.47423  -0.46963  -0.46661
 Alpha  occ. eigenvalues --   -0.42173  -0.39876
 Alpha virt. eigenvalues --    0.02928   0.03912   0.04027   0.04423   0.05309
 Alpha virt. eigenvalues --    0.05361   0.06207   0.06825   0.06828   0.08959
 Alpha virt. eigenvalues --    0.09971   0.10184   0.10707   0.10794   0.11682

 Mulliken charges:
               1
     1  Si   0.855483
     2  C   -0.854016
     3  C    0.354430
     4  O   -1.320963
     5  N    0.955030
     6  H   -0.156614
     7  C   -0.290238
     8  H   -0.004851
     9  H    0.192699
    10  H    0.192699
    11  H   -0.211984
    12  H   -0.156614
    13  C   -0.359117
    14  H   -0.047988
    15  H    0.177233
    16  H    0.177235
    17  H    0.248789
    18  H    0.248790
 Sum of Mulliken charges =  -0.00000

 Dipole moment (field-independent basis, Debye):
    X=              2.5464    Y=              3.2030    Z=             -0.0000  Tot=              4.0918

 Test job not archived.
 1\1\GINC-SE332\SP\RHF\Aug-CC-pVDZ\C4H11N1O1Si1\OHZDE\08-Apr-2025\0\\#t
  hf aug-cc-pvdz iop(5/13=1,5/36=2,99/5=2) pseudo=read geom=check guess
 =(read,tcheck) scf=(maxcycle=1)\\title\\0,1\Si,0,-2.599175,0.027966,0.
 000001\C,0,-0.87501,0.819609,-0.000001\C,0,0.186682,-0.273324,-0.00000
 2\O,0,-0.16093,-1.450611,0.\N,0,1.508156,0.087761,-0.000001\H,0,-2.829
 593,-0.774963,-1.217928\C,0,2.528925,-0.952565,0.000001\H,0,2.036059,-
 1.920878,0.\H,0,3.163811,-0.865151,0.888733\H,0,3.163815,-0.865151,-0.
 888728\H,0,-3.577747,1.148309,0.000003\H,0,-2.82959,-0.774964,1.21793\

 Normal termination of Gaussian 16 at Tue Apr  8 23:52:05 2025.
