 Gaussian 16, Revision C.01,

 ----------------------------------------------------------------------
 #t hf aug-cc-pvdz symm=none int=(grid=ultrafine) guess=(read,tcheck) s
 table=(opt,rrhf)
 ----------------------------------------------------------------------
 -----
 title
 -----
 Symbolic Z-matrix:
 Charge =  0 Multiplicity = 1

 SCF Done:  E(RHF) =  -103.301560188     A.U. after   12 cycles
 Normal termination of Gaussian 16 at Wed Apr  9 00:27:39 2025.
 Gaussian 16:  ES64L-G16RevC.01  3-Jul-2019

 ----------------------------------------------------------------------
 #t hf aug-cc-pvdz iop(5/13=1,5/36=2,99/5=2) pseudo=read geom=check gue
 ss=(read,tcheck) scf=(maxcycle=1)
 ----------------------------------------------------------------------
 -----
 title
 -----
 Structure from the checkpoint file:  "BDE49_nonexpt_292_mol1.chk"
 Charge =  0 Multiplicity = 1

                         Standard orientation:
 ---------------------------------------------------------------------
 Center     Atomic      Atomic             Coordinates (Angstroms)
 Number     Number       Type             X           Y           Z
 ---------------------------------------------------------------------
      1          5           0        1.349982    0.206448   -0.000113
      2          6           0       -0.023493   -0.484333   -0.000002
      3          6           0       -1.162851    0.229326    0.000035
      4          1           0       -0.109545   -1.570161    0.000042
      5          1           0       -1.139925    1.315577   -0.000005
      6          1           0       -2.148361   -0.230206    0.000101
      7          1           0        1.399297    1.399790    0.000122
      8          1           0        2.366688   -0.417199    0.000111
 ---------------------------------------------------------------------

 SCF Done:  E(RHF) =  -103.413394173     A.U. after    2 cycles

 The electronic state is 1-A.
 Alpha  occ. eigenvalues --  -11.26763 -11.22172  -7.58955  -1.04667  -0.81223
 Alpha  occ. eigenvalues --   -0.70010  -0.63718  -0.57295  -0.48401  -0.47447
 Alpha  occ. eigenvalues --   -0.39732
 Alpha virt. eigenvalues --    0.03756   0.03785   0.03941   0.04801   0.06399
 Alpha virt. eigenvalues --    0.06532   0.07087   0.10079   0.11163   0.13281
 Alpha virt. eigenvalues --    0.14065   0.15197   0.15381   0.16005   0.17773

 Mulliken charges:
               1
     1  B   -0.202905
     2  C    0.144509
     3  C   -0.021371
     4  H   -0.073415
     5  H   -0.065900
     6  H   -0.042982
     7  H    0.083713
     8  H    0.178349
 Sum of Mulliken charges =   0.00000

 Dipole moment (field-independent basis, Debye):
    X=             -1.2119    Y=             -0.0772    Z=             -0.0003  Tot=              1.2143

 Test job not archived.
 1\1\GINC-SE329\SP\RHF\Aug-CC-pVDZ\C2H5B1\OHZDE\09-Apr-2025\0\\#t hf au
 g-cc-pvdz iop(5/13=1,5/36=2,99/5=2) pseudo=read geom=check guess=(read
 ,tcheck) scf=(maxcycle=1)\\title\\0,1\B,0,-1.349982,0.206448,0.000113\
 C,0,0.023493,-0.484333,0.000002\C,0,1.162851,0.229326,-0.000035\H,0,0.
 109545,-1.570161,-0.000042\H,0,1.139925,1.315577,0.000005\H,0,2.148361
 ,-0.230206,-0.000101\H,0,-1.399297,1.39979,-0.000122\H,0,-2.366688,-0.
 417199,-0.000111\\Version=ES64L-G16RevC.01\State=1-A\HF=-103.4133942\R
 MSD=1.629e-02\Dipole=0.4767825,-0.03037,0.0001237\Quadrupole=0.2341037

 Normal termination of Gaussian 16 at Wed Apr  9 00:27:41 2025.
