 Gaussian 16, Revision C.01,

 ----------------------------------------------------------------------
 #t hf aug-cc-pvdz symm=none int=(grid=ultrafine) guess=(read,tcheck) s
 table=(opt,rrhf)
 ----------------------------------------------------------------------
 -----
 title
 -----
 Symbolic Z-matrix:
 Charge =  0 Multiplicity = 1

 SCF Done:  E(RHF) =  -989.530718684     A.U. after   14 cycles
 Normal termination of Gaussian 16 at Wed Apr  9 00:18:37 2025.
 Gaussian 16:  ES64L-G16RevC.01  3-Jul-2019

 ----------------------------------------------------------------------
 #t hf aug-cc-pvdz iop(5/13=1,5/36=2,99/5=2) pseudo=read geom=check gue
 ss=(read,tcheck) scf=(maxcycle=1)
 ----------------------------------------------------------------------
 -----
 title
 -----
 Structure from the checkpoint file:  "BDE49_nonexpt_2581_mol1.chk"
 Charge =  0 Multiplicity = 1

                         Standard orientation:
 ---------------------------------------------------------------------
 Center     Atomic      Atomic             Coordinates (Angstroms)
 Number     Number       Type             X           Y           Z
 ---------------------------------------------------------------------
      1         17           0       -2.175586   -0.547768   -0.000032
      2         16           0       -0.654220    0.866745    0.000026
      3          6           0        0.779905   -0.194874    0.000003
      4          7           0        1.901350    0.365416    0.000025
      5          1           0        0.563346   -1.270493   -0.000037
      6          6           0        3.100877   -0.454342   -0.000000
      7          1           0        3.701414   -0.207179    0.879682
      8          1           0        3.701418   -0.207120   -0.879662
      9          1           0        2.892166   -1.533695   -0.000037
 ---------------------------------------------------------------------

 SCF Done:  E(RHF) =  -989.804690419     A.U. after    2 cycles

 The electronic state is 1-A.
 Alpha  occ. eigenvalues -- -105.59448 -94.02345 -15.52328 -11.33801 -11.27765
 Alpha  occ. eigenvalues --  -10.64150  -8.30137  -7.81092  -7.80650  -7.80607
 Alpha  occ. eigenvalues --   -6.27923  -6.27684  -6.27392  -1.26876  -1.13295
 Alpha  occ. eigenvalues --   -1.01237  -0.93560  -0.80326  -0.70225  -0.65814
 Alpha  occ. eigenvalues --   -0.62592  -0.56732  -0.54222  -0.53359  -0.48620
 Alpha  occ. eigenvalues --   -0.48440  -0.45153  -0.37405
 Alpha virt. eigenvalues --    0.03454   0.04580   0.05024   0.05512   0.06262
 Alpha virt. eigenvalues --    0.07882   0.08275   0.10675   0.12329   0.12709
 Alpha virt. eigenvalues --    0.13229   0.13958   0.15323   0.15551   0.16024

 Mulliken charges:
               1
     1  Cl  -0.259077
     2  S    0.564238
     3  C   -0.879872
     4  N    0.674356
     5  H   -0.027075
     6  C   -0.424621
     7  H    0.124348
     8  H    0.124347
     9  H    0.103355
 Sum of Mulliken charges =  -0.00000

 Dipole moment (field-independent basis, Debye):
    X=              1.3321    Y=             -1.8789    Z=             -0.0001  Tot=              2.3032

 Test job not archived.
 1\1\GINC-SE461\SP\RHF\Aug-CC-pVDZ\C2H4Cl1N1S1\OHZDE\09-Apr-2025\0\\#t
 hf aug-cc-pvdz iop(5/13=1,5/36=2,99/5=2) pseudo=read geom=check guess=
 (read,tcheck) scf=(maxcycle=1)\\title\\0,1\Cl,0,-2.175586,-0.547768,-0
 .000032\S,0,-0.65422,0.866745,0.000026\C,0,0.779905,-0.194874,0.000003
 \N,0,1.90135,0.365416,0.000025\H,0,0.563346,-1.270493,-0.000037\C,0,3.
 100877,-0.454342,0.\H,0,3.701414,-0.207179,0.879682\H,0,3.701418,-0.20
 712,-0.879662\H,0,2.892166,-1.533695,-0.000037\\Version=ES64L-G16RevC.
 01\State=1-A\HF=-989.8046904\RMSD=1.165e-02\Dipole=0.5240931,-0.739205

 Normal termination of Gaussian 16 at Wed Apr  9 00:18:41 2025.
