 Gaussian 16, Revision C.01,

 ----------------------------------------------------------------------
 #t hf aug-cc-pvdz symm=none int=(grid=ultrafine) guess=(read,tcheck) s
 table=(opt,rrhf)
 ----------------------------------------------------------------------
 -----
 title
 -----
 Symbolic Z-matrix:
 Charge =  0 Multiplicity = 1

 SCF Done:  E(RHF) =  -238.028789465     A.U. after   13 cycles
 Normal termination of Gaussian 16 at Wed Apr  9 00:35:47 2025.
 Gaussian 16:  ES64L-G16RevC.01  3-Jul-2019

 ----------------------------------------------------------------------
 #t hf aug-cc-pvdz iop(5/13=1,5/36=2,99/5=2) pseudo=read geom=check gue
 ss=(read,tcheck) scf=(maxcycle=1)
 ----------------------------------------------------------------------
 -----
 title
 -----
 Structure from the checkpoint file:  "BDE49_nonexpt_481_mol1.chk"
 Charge =  0 Multiplicity = 1

                         Standard orientation:
 ---------------------------------------------------------------------
 Center     Atomic      Atomic             Coordinates (Angstroms)
 Number     Number       Type             X           Y           Z
 ---------------------------------------------------------------------
      1          1           0       -2.085453   -0.129214    1.037087
      2          1           0       -2.085640   -0.129293   -1.037057
      3          5           0       -1.513554   -0.074492   -0.000039
      4          6           0        0.039312    0.134747   -0.000191
      5          8           0        0.619629    1.167049    0.000023
      6          9           0        0.727329   -1.057101    0.000125
 ---------------------------------------------------------------------

 SCF Done:  E(RHF) =  -238.252416247     A.U. after    2 cycles

 The electronic state is 1-A.
 Alpha  occ. eigenvalues --  -26.49644 -20.58397 -11.42524  -7.66019  -1.63229
 Alpha  occ. eigenvalues --   -1.51687  -0.91150  -0.79184  -0.71723  -0.69921
 Alpha  occ. eigenvalues --   -0.67510  -0.59019  -0.57404  -0.52478  -0.47482
 Alpha virt. eigenvalues --    0.01783   0.03912   0.04078   0.05186   0.07529
 Alpha virt. eigenvalues --    0.09404   0.09672   0.12728   0.12986   0.13801
 Alpha virt. eigenvalues --    0.15108   0.17668   0.22158   0.23055   0.24673

 Mulliken charges:
               1
     1  H    0.272249
     2  H    0.272335
     3  B   -0.319146
     4  C    1.487798
     5  O   -1.005696
     6  F   -0.707540
 Sum of Mulliken charges =  -0.00000

 Dipole moment (field-independent basis, Debye):
    X=             -2.6083    Y=             -0.8908    Z=             -0.0005  Tot=              2.7562

 Test job not archived.
 1\1\GINC-SE249\SP\RHF\Aug-CC-pVDZ\C1H2B1F1O1\OHZDE\09-Apr-2025\0\\#t h
 f aug-cc-pvdz iop(5/13=1,5/36=2,99/5=2) pseudo=read geom=check guess=(
 read,tcheck) scf=(maxcycle=1)\\title\\0,1\H,0,-2.085453,-0.12921,1.037
 087\H,0,-2.08564,-0.129289,-1.037057\B,0,-1.513554,-0.074489,-0.000039
 \C,0,0.039312,0.134747,-0.000191\O,0,0.619631,1.167048,0.000023\F,0,0.
 727327,-1.057103,0.000125\\Version=ES64L-G16RevC.01\State=1-A\HF=-238.
 2524162\RMSD=7.757e-03\Dipole=-1.0261826,-0.3504798,-0.0001932\Quadrup
 ole=0.4554511,-1.3897417,0.9342905,-0.4656649,-0.0003888,0.0000894\PG=

 Normal termination of Gaussian 16 at Wed Apr  9 00:35:49 2025.
