 Gaussian 16, Revision C.01,

 ----------------------------------------------------------------------
 #t hf aug-cc-pvdz symm=none int=(grid=ultrafine) guess=(read,tcheck) s
 table=opt
 ----------------------------------------------------------------------
 -----
 title
 -----
 Symbolic Z-matrix:
 Charge =  0 Multiplicity = 2

 SCF Done:  E(UHF) =  -391.532437464     A.U. after   16 cycles
 Normal termination of Gaussian 16 at Wed Apr  9 00:34:24 2025.
 Gaussian 16:  ES64L-G16RevC.01  3-Jul-2019

 ----------------------------------------------------------------------
 #t hf aug-cc-pvdz iop(5/13=1,5/36=2,99/5=2) pseudo=read geom=check gue
 ss=(read,tcheck) scf=(maxcycle=1)
 ----------------------------------------------------------------------
 -----
 title
 -----
 Structure from the checkpoint file:  "BDE49_nonexpt_417_mol2.chk"
 Charge =  0 Multiplicity = 2

                         Standard orientation:
 ---------------------------------------------------------------------
 Center     Atomic      Atomic             Coordinates (Angstroms)
 Number     Number       Type             X           Y           Z
 ---------------------------------------------------------------------
      1          9           0        2.644206    0.075781   -0.025967
      2          5           0        1.509733   -0.545818   -0.243955
      3          6           0        0.146450    0.002919    0.405119
      4          8           0       -0.819794   -0.970648    0.711675
      5          8           0       -0.297887    0.974913   -0.519965
      6          6           0       -1.266823   -1.744463   -0.400923
      7          1           0       -1.944494   -2.496852    0.000957
      8          1           0       -0.423874   -2.237631   -0.899980
      9          1           0       -1.795376   -1.125503   -1.131709
     10          6           0       -1.240645    1.901276    0.019106
     11          1           0       -1.540439    2.556513   -0.798300
     12          1           0       -0.784953    2.502437    0.815979
     13          1           0       -2.118683    1.383424    0.416247
     14          1           0        0.368854    0.472164    1.376789
 ---------------------------------------------------------------------

 SCF Done:  E(UHF) =  -391.917364067     A.U. after    2 cycles

 The electronic state is 2-A.
 Alpha  occ. eigenvalues --  -26.48763 -20.56240 -20.55602 -11.33606 -11.28998
 Alpha  occ. eigenvalues --  -11.28373  -7.68774  -1.62006  -1.50452  -1.44104
 Alpha  occ. eigenvalues --   -0.99588  -0.94538  -0.86407  -0.78286  -0.71498
 Alpha  occ. eigenvalues --   -0.70634  -0.69077  -0.67427  -0.66296  -0.61863
 Alpha  occ. eigenvalues --   -0.61094  -0.58058  -0.54800  -0.53171  -0.47851
 Alpha  occ. eigenvalues --   -0.44948  -0.44373  -0.35343
 Alpha virt. eigenvalues --    0.03648   0.03912   0.04130   0.04462   0.05886
 Alpha virt. eigenvalues --    0.06512   0.06651   0.07030   0.08085   0.09740
 Alpha virt. eigenvalues --    0.10069   0.11402   0.13300   0.14574   0.14896

  Beta  occ. eigenvalues --  -26.48448 -20.56252 -20.55637 -11.33249 -11.28996
  Beta  occ. eigenvalues --  -11.28332  -7.66872  -1.61133  -1.50400  -1.44143
  Beta  occ. eigenvalues --   -0.99003  -0.94421  -0.85447  -0.76967  -0.70217
  Beta  occ. eigenvalues --   -0.69647  -0.68842  -0.66436  -0.65390  -0.61674
  Beta  occ. eigenvalues --   -0.61039  -0.57571  -0.53805  -0.53115  -0.46694
  Beta  occ. eigenvalues --   -0.44509  -0.43431
  Beta virt. eigenvalues --    0.03341   0.03978   0.04046   0.04296   0.06098
  Beta virt. eigenvalues --    0.06590   0.06661   0.06995   0.07534   0.09158
  Beta virt. eigenvalues --    0.09755   0.12216   0.12436   0.14577   0.14946

 Mulliken charges and spin densities:
               1          2
     1  F   -0.567554  -0.045883
     2  B    0.548695   1.033468
     3  C    1.722124   0.030916
     4  O   -1.360166  -0.002679
     5  O   -1.334395   0.016312
     6  C    0.151964  -0.001755
     7  H   -0.009338  -0.002182
     8  H    0.182750  -0.017496
     9  H    0.185339  -0.001240
    10  C    0.169855   0.001046
    11  H    0.002386   0.000521
    12  H    0.141942   0.002084
    13  H    0.198628  -0.001896
    14  H   -0.032231  -0.011215
 Sum of Mulliken charges =  -0.00000   1.00000

 Dipole moment (field-independent basis, Debye):
    X=             -1.2899    Y=              0.4115    Z=              0.1515  Tot=              1.3624
                          Isotropic Fermi Contact Couplings
        Atom                 a.u.       MegaHertz       Gauss      10(-4) cm-1
     1  F(19)              0.06988     294.02835     104.91663      98.07730
     2  B(11)              0.32735     469.53815     167.54289     156.62107
     3  C(13)              0.06475      72.78843      25.97272      24.27961
     4  O(17)              0.00071      -0.43224      -0.15423      -0.14418
     5  O(17)             -0.00389       2.36030       0.84221       0.78731
     6  C(13)              0.00428       4.81589       1.71843       1.60641
     7  H(1)              -0.00004      -0.17485      -0.06239      -0.05832
     8  H(1)               0.00024       1.07504       0.38360       0.35859

 Normal termination of Gaussian 16 at Wed Apr  9 00:34:31 2025.
