 Gaussian 16, Revision C.01,

 ----------------------------------------------------------------------
 #t hf aug-cc-pvdz symm=none int=(grid=ultrafine) guess=(read,tcheck) s
 table=(opt,rrhf)
 ----------------------------------------------------------------------
 -----
 title
 -----
 Symbolic Z-matrix:
 Charge =  0 Multiplicity = 1

 SCF Done:  E(RHF) =  -1433.64963559     A.U. after   14 cycles
 Normal termination of Gaussian 16 at Tue Apr  8 23:56:22 2025.
 Gaussian 16:  ES64L-G16RevC.01  3-Jul-2019

 ----------------------------------------------------------------------
 #t hf aug-cc-pvdz iop(5/13=1,5/36=2,99/5=2) pseudo=read geom=check gue
 ss=(read,tcheck) scf=(maxcycle=1)
 ----------------------------------------------------------------------
 -----
 title
 -----
 Structure from the checkpoint file:  "BDE49_nonexpt_199_mol1.chk"
 Charge =  0 Multiplicity = 1

                         Standard orientation:
 ---------------------------------------------------------------------
 Center     Atomic      Atomic             Coordinates (Angstroms)
 Number     Number       Type             X           Y           Z
 ---------------------------------------------------------------------
      1         17           0        2.242523   -0.573758    0.000004
      2         17           0        0.274891    1.762367   -0.000000
      3          5           0        0.604201    0.054318   -0.000006
      4          6           0       -2.129522   -0.337542    0.000011
      5          7           0       -3.152130    0.202556   -0.000000
      6         16           0       -0.685938   -1.241911   -0.000006
 ---------------------------------------------------------------------

 SCF Done:  E(RHF) =  -1433.96806682     A.U. after    2 cycles

 The electronic state is 1-A.
 Alpha  occ. eigenvalues -- -105.61014-105.60938 -94.03725 -15.54416 -11.32307
 Alpha  occ. eigenvalues --  -10.66013 -10.65953  -8.31931  -7.82916  -7.82858
 Alpha  occ. eigenvalues --   -7.82603  -7.82572  -7.82545  -7.82503  -7.77681
 Alpha  occ. eigenvalues --   -6.29765  -6.29519  -6.29355  -1.26127  -1.16126
 Alpha  occ. eigenvalues --   -1.10186  -1.09477  -0.77522  -0.68978  -0.63250
 Alpha  occ. eigenvalues --   -0.63196  -0.58816  -0.58704  -0.55278  -0.53144
 Alpha  occ. eigenvalues --   -0.50894  -0.49507  -0.48859  -0.43977
 Alpha virt. eigenvalues --    0.04072   0.04431   0.04940   0.05003   0.05228
 Alpha virt. eigenvalues --    0.08714   0.09392   0.10111   0.11741   0.12145
 Alpha virt. eigenvalues --    0.12642   0.13612   0.14900   0.14920   0.16014

 Mulliken charges:
               1
     1  Cl  -0.275561
     2  Cl  -0.195878
     3  B    0.972263
     4  C   -1.589435
     5  N    0.725341
     6  S    0.363270
 Sum of Mulliken charges =  -0.00000

 Dipole moment (field-independent basis, Debye):
    X=              3.3776    Y=             -1.3021    Z=             -0.0000  Tot=              3.6199

 Test job not archived.
 1\1\GINC-SE097\SP\RHF\Aug-CC-pVDZ\C1B1Cl2N1S1\OHZDE\08-Apr-2025\0\\#t
 hf aug-cc-pvdz iop(5/13=1,5/36=2,99/5=2) pseudo=read geom=check guess=
 (read,tcheck) scf=(maxcycle=1)\\title\\0,1\Cl,0,-2.242523,-0.573759,-0
 .000004\Cl,0,-0.274892,1.762367,0.\B,0,-0.604201,0.054318,0.000006\C,0
 ,2.129522,-0.337542,-0.000011\N,0,3.15213,0.202557,0.\S,0,0.685938,-1.
 241911,0.000006\\Version=ES64L-G16RevC.01\State=1-A\HF=-1433.9680668\R
 MSD=1.015e-02\Dipole=-1.3288523,-0.5122693,0.0000002\Quadrupole=-7.409
 4038,4.0542152,3.3551887,-2.0231006,-0.000029,-0.0000046\PG=C01 [X(C1B

 Normal termination of Gaussian 16 at Tue Apr  8 23:56:24 2025.
