 Gaussian 16, Revision C.01,

 ----------------------------------------------------------------------
 #t hf aug-cc-pvdz symm=none int=(grid=ultrafine) guess=(read,tcheck) s
 table=opt
 ----------------------------------------------------------------------
 -----
 title
 -----
 Symbolic Z-matrix:
 Charge =  0 Multiplicity = 2

 SCF Done:  E(UHF) =  -177.473458157     A.U. after   15 cycles
 Normal termination of Gaussian 16 at Tue Apr  8 22:30:18 2025.
 Gaussian 16:  ES64L-G16RevC.01  3-Jul-2019

 ----------------------------------------------------------------------
 #t hf aug-cc-pvdz iop(5/13=1,5/36=2,99/5=2) pseudo=read geom=check gue
 ss=(read,tcheck) scf=(maxcycle=1)
 ----------------------------------------------------------------------
 -----
 title
 -----
 Structure from the checkpoint file:  "BDE49_expt_1025_mol2.chk"
 Charge =  0 Multiplicity = 2

                         Standard orientation:
 ---------------------------------------------------------------------
 Center     Atomic      Atomic             Coordinates (Angstroms)
 Number     Number       Type             X           Y           Z
 ---------------------------------------------------------------------
      1          6           0       -1.193719   -0.172195    0.012277
      2          1           0       -1.258785   -1.004072   -0.696143
      3          1           0       -2.006880    0.526459   -0.196992
      4          1           0       -1.356281   -0.588944    1.018946
      5          6           0        0.110988    0.516212   -0.100851
      6          9           0        1.202424   -0.280557    0.017804
      7          1           0        0.296517    1.527474    0.245395
 ---------------------------------------------------------------------

 SCF Done:  E(UHF) =  -177.648485984     A.U. after    2 cycles

 The electronic state is 2-A.
 Alpha  occ. eigenvalues --  -26.46326 -11.32610 -11.24558  -1.59305  -1.04386
 Alpha  occ. eigenvalues --   -0.86182  -0.71286  -0.68879  -0.66259  -0.58525
 Alpha  occ. eigenvalues --   -0.56200  -0.53433  -0.36829
 Alpha virt. eigenvalues --    0.03686   0.04437   0.05447   0.06023   0.10823
 Alpha virt. eigenvalues --    0.11973   0.12437   0.14692   0.15557   0.16302
 Alpha virt. eigenvalues --    0.17014   0.21498   0.25477   0.27568   0.28706

  Beta  occ. eigenvalues --  -26.45921 -11.29920 -11.24835  -1.57984  -1.01546
  Beta  occ. eigenvalues --   -0.82028  -0.70155  -0.64922  -0.62624  -0.56429
  Beta  occ. eigenvalues --   -0.56049  -0.52572
  Beta virt. eigenvalues --    0.03698   0.04489   0.05469   0.06042   0.09278
  Beta virt. eigenvalues --    0.11241   0.12065   0.14756   0.15605   0.15723
  Beta virt. eigenvalues --    0.16951   0.18443   0.22428   0.25666   0.28104

 Mulliken charges and spin densities:
               1          2
     1  C   -0.483849  -0.204808
     2  H    0.169308   0.011907
     3  H    0.156491  -0.001926
     4  H    0.198464   0.048008
     5  C    0.632154   1.202363
     6  F   -0.706664   0.019159
     7  H    0.034097  -0.074705
 Sum of Mulliken charges =   0.00000   1.00000

 Dipole moment (field-independent basis, Debye):
    X=             -1.6018    Y=              0.7237    Z=              0.2927  Tot=              1.7819
                          Isotropic Fermi Contact Couplings
        Atom                 a.u.       MegaHertz       Gauss      10(-4) cm-1
     1  C(13)             -0.04440     -49.91588     -17.81123     -16.65014
     2  H(1)               0.01083      48.42669      17.27985      16.15341
     3  H(1)               0.00233      10.42530       3.72001       3.47751
     4  H(1)               0.02434     108.77544      38.81378      36.28358
     5  C(13)              0.29596     332.72009     118.72280     110.98347
     6  F(19)              0.05611     236.08150      84.23975      78.74831
     7  H(1)              -0.01873     -83.71351     -29.87106     -27.92382
 --------------------------------------------------------

 Normal termination of Gaussian 16 at Tue Apr  8 22:30:19 2025.
