 Gaussian 16, Revision C.01,

 ----------------------------------------------------------------------
 #t hf aug-cc-pvdz symm=none int=(grid=ultrafine) guess=(read,tcheck) s
 table=(opt,rrhf)
 ----------------------------------------------------------------------
 -----
 title
 -----
 Symbolic Z-matrix:
 Charge =  0 Multiplicity = 1

 SCF Done:  E(RHF) =  -575.894820837     A.U. after   15 cycles
 Normal termination of Gaussian 16 at Wed Apr  9 00:01:48 2025.
 Gaussian 16:  ES64L-G16RevC.01  3-Jul-2019

 ----------------------------------------------------------------------
 #t hf aug-cc-pvdz iop(5/13=1,5/36=2,99/5=2) pseudo=read geom=check gue
 ss=(read,tcheck) scf=(maxcycle=1)
 ----------------------------------------------------------------------
 -----
 title
 -----
 Structure from the checkpoint file:  "BDE49_nonexpt_2126_mol1.chk"
 Charge =  0 Multiplicity = 1

                         Standard orientation:
 ---------------------------------------------------------------------
 Center     Atomic      Atomic             Coordinates (Angstroms)
 Number     Number       Type             X           Y           Z
 ---------------------------------------------------------------------
      1          6           0        0.064350   -0.196577    0.091309
      2          6           0       -0.839159   -1.251206   -0.110008
      3          6           0       -2.210980   -1.019649   -0.189054
      4          6           0       -2.704497    0.278166   -0.073590
      5          6           0       -1.823137    1.340943    0.119817
      6          6           0       -0.453281    1.104044    0.203100
      7          7           0        2.770714    0.793416   -0.460039
      8          1           0       -2.892898   -1.848396   -0.345725
      9          1           0       -3.771515    0.461581   -0.137995
     10          1           0       -2.204334    2.352795    0.206025
     11          1           0        0.227518    1.936966    0.345210
     12          1           0       -0.466850   -2.266105   -0.213432
     13         14           0        1.903898   -0.521396    0.243722
     14          1           0        2.638849    1.033206   -1.432525
     15          1           0        3.717970    0.982667   -0.166479
     16          1           0        2.142204   -1.866829   -0.350621
     17          1           0        2.359710   -0.574588    1.654265
 ---------------------------------------------------------------------

 SCF Done:  E(RHF) =  -576.226087897     A.U. after    2 cycles

 The electronic state is 1-A.
 Alpha  occ. eigenvalues --  -69.53555 -15.47772 -11.24608 -11.24560 -11.24360
 Alpha  occ. eigenvalues --  -11.24165 -11.24126 -11.22557  -6.20347  -3.95767
 Alpha  occ. eigenvalues --   -3.95711  -3.95683  -1.15164  -1.13824  -1.01463
 Alpha  occ. eigenvalues --   -1.01308  -0.83294  -0.83098  -0.75037  -0.70233
 Alpha  occ. eigenvalues --   -0.68934  -0.64044  -0.63473  -0.59841  -0.58413
 Alpha  occ. eigenvalues --   -0.55477  -0.51591  -0.50141  -0.49297  -0.46228
 Alpha  occ. eigenvalues --   -0.42846  -0.34480  -0.34415
 Alpha virt. eigenvalues --    0.03110   0.03694   0.03883   0.04886   0.05337
 Alpha virt. eigenvalues --    0.05583   0.06769   0.07509   0.07748   0.08328
 Alpha virt. eigenvalues --    0.09411   0.10267   0.10401   0.11131   0.12556

 Mulliken charges:
               1
     1  C   -0.582624
     2  C    0.212668
     3  C    0.368468
     4  C    0.275739
     5  C    0.272026
     6  C    0.534379
     7  N    0.017452
     8  H   -0.220094
     9  H   -0.210464
    10  H   -0.227535
    11  H   -0.333326
    12  H   -0.297200
    13  Si   0.574568
    14  H   -0.033750
    15  H   -0.025086
    16  H   -0.187100
    17  H   -0.138119
 Sum of Mulliken charges =  -0.00000

 Dipole moment (field-independent basis, Debye):
    X=              0.1492    Y=              0.2939    Z=             -0.7549  Tot=              0.8237

 Test job not archived.
 1\1\GINC-SE094\SP\RHF\Aug-CC-pVDZ\C6H9N1Si1\OHZDE\09-Apr-2025\0\\#t hf
  aug-cc-pvdz iop(5/13=1,5/36=2,99/5=2) pseudo=read geom=check guess=(r
 ead,tcheck) scf=(maxcycle=1)\\title\\0,1\C,0,0.06435,-0.196577,0.09130
 9\C,0,-0.839159,-1.251206,-0.110008\C,0,-2.21098,-1.019649,-0.189054\C
 ,0,-2.704497,0.278166,-0.07359\C,0,-1.823137,1.340943,0.119817\C,0,-0.
 453281,1.104044,0.2031\N,0,2.770714,0.793416,-0.460039\H,0,-2.892898,-
 1.848396,-0.345725\H,0,-3.771515,0.461581,-0.137995\H,0,-2.204334,2.35
 2795,0.206025\H,0,0.227518,1.936966,0.34521\H,0,-0.46685,-2.266105,-0.

 Normal termination of Gaussian 16 at Wed Apr  9 00:01:55 2025.
