 Gaussian 16, Revision C.01,

 ----------------------------------------------------------------------
 #t hf aug-cc-pvdz symm=none int=(grid=ultrafine) guess=(read,tcheck) s
 table=(opt,rrhf)
 ----------------------------------------------------------------------
 -----
 title
 -----
 Symbolic Z-matrix:
 Charge =  0 Multiplicity = 1

 SCF Done:  E(RHF) =  -639.432944546     A.U. after   12 cycles
 Normal termination of Gaussian 16 at Wed Apr  9 00:08:06 2025.
 Gaussian 16:  ES64L-G16RevC.01  3-Jul-2019

 ----------------------------------------------------------------------
 #t hf aug-cc-pvdz iop(5/13=1,5/36=2,99/5=2) pseudo=read geom=check gue
 ss=(read,tcheck) scf=(maxcycle=1)
 ----------------------------------------------------------------------
 -----
 title
 -----
 Structure from the checkpoint file:  "BDE49_nonexpt_2224_mol1.chk"
 Charge =  0 Multiplicity = 1

                         Standard orientation:
 ---------------------------------------------------------------------
 Center     Atomic      Atomic             Coordinates (Angstroms)
 Number     Number       Type             X           Y           Z
 ---------------------------------------------------------------------
      1          8           0       -0.359623    0.372274   -0.191237
      2         14           0        0.955160    1.374032   -0.134526
      3          6           0        2.534086    0.490858    0.375779
      4          6           0        2.970405   -0.658165   -0.552225
      5          1           0        2.417565    0.120528    1.403103
      6          1           0        3.325534    1.252130    0.427825
      7          6           0        4.266232   -1.341945   -0.103913
      8          1           0        3.098110   -0.273511   -1.570690
      9          1           0        2.168984   -1.402600   -0.612648
     10          1           0        5.096582   -0.629678   -0.071119
     11          1           0        4.547048   -2.150935   -0.784552
     12          1           0        4.159357   -1.770487    0.897568
     13          6           0       -1.026781   -0.199316    0.934792
     14          6           0       -2.327040   -0.850332    0.481879
     15          1           0       -1.234665    0.580982    1.681237
     16          1           0       -0.380171   -0.949340    1.408292
     17          6           0       -3.339678    0.135635   -0.108769
     18          1           0       -2.766949   -1.366063    1.345201
     19          1           0       -2.086463   -1.622005   -0.258490
     20          6           0       -4.626696   -0.543056   -0.585018
     21          1           0       -2.868784    0.665251   -0.941513
     22          1           0       -3.582720    0.895587    0.644490
     23          1           0       -4.417390   -1.283808   -1.363085
     24          1           0       -5.329428    0.183946   -1.000998
     25          1           0       -5.132568   -1.061073    0.236237
     26          1           0        0.700617    2.483693    0.824040
     27          1           0        1.086919    1.910672   -1.506792
 ---------------------------------------------------------------------

 SCF Done:  E(RHF) =  -639.850290126     A.U. after    2 cycles

 The electronic state is 1-A.
 Alpha  occ. eigenvalues --  -69.54185 -20.52742 -11.28859 -11.23317 -11.22616
 Alpha  occ. eigenvalues --  -11.22312 -11.22218 -11.21993 -11.21605  -6.20838
 Alpha  occ. eigenvalues --   -3.96319  -3.96180  -3.96142  -1.43049  -1.07015
 Alpha  occ. eigenvalues --   -1.05691  -0.97822  -0.93002  -0.86325  -0.81092
 Alpha  occ. eigenvalues --   -0.79269  -0.72800  -0.64830  -0.64292  -0.62804
 Alpha  occ. eigenvalues --   -0.61023  -0.60402  -0.57399  -0.56305  -0.55028
 Alpha  occ. eigenvalues --   -0.54409  -0.52660  -0.51579  -0.49230  -0.48579
 Alpha  occ. eigenvalues --   -0.47873  -0.47225  -0.46959  -0.45684  -0.44168
 Alpha  occ. eigenvalues --   -0.40892
 Alpha virt. eigenvalues --    0.03288   0.03452   0.03801   0.03993   0.04650
 Alpha virt. eigenvalues --    0.04908   0.05099   0.06352   0.06588   0.06960
 Alpha virt. eigenvalues --    0.07105   0.07649   0.08415   0.08853   0.09662

 Mulliken charges:
               1
     1  O   -1.768987
     2  Si   1.635557
     3  C   -0.494428
     4  C   -0.350430
     5  H    0.125300
     6  H    0.046415
     7  C   -0.347186
     8  H    0.119302
     9  H    0.094906
    10  H    0.159020
    11  H    0.121572
    12  H    0.163835
    13  C    0.534472
    14  C   -0.338965
    15  H    0.109723
    16  H    0.068882
    17  C   -0.252507
    18  H    0.160740
    19  H    0.149217
    20  C   -0.397580
    21  H    0.166517
    22  H    0.107912
    23  H    0.172356
    24  H    0.120342
    25  H    0.160192
    26  H   -0.185381
    27  H   -0.080798
 Sum of Mulliken charges =  -0.00000

 Dipole moment (field-independent basis, Debye):
    X=              0.3517    Y=             -0.5248    Z=              1.0581  Tot=              1.2323

 Test job not archived.
 1\1\GINC-SE345\SP\RHF\Aug-CC-pVDZ\C7H18O1Si1\OHZDE\09-Apr-2025\0\\#t h
 f aug-cc-pvdz iop(5/13=1,5/36=2,99/5=2) pseudo=read geom=check guess=(
 read,tcheck) scf=(maxcycle=1)\\title\\0,1\O,0,0.359623,-0.372274,-0.19
 1237\Si,0,-0.95516,-1.374032,-0.134526\C,0,-2.534086,-0.490858,0.37577
 9\C,0,-2.970405,0.658165,-0.552225\H,0,-2.417565,-0.120528,1.403103\H,
 0,-3.325534,-1.25213,0.427825\C,0,-4.266232,1.341945,-0.103913\H,0,-3.
 09811,0.273511,-1.57069\H,0,-2.168984,1.4026,-0.612648\H,0,-5.096582,0
 .629678,-0.071119\H,0,-4.547048,2.150935,-0.784552\H,0,-4.159357,1.770

 Normal termination of Gaussian 16 at Wed Apr  9 00:08:20 2025.
