 Gaussian 16, Revision C.01,

 ----------------------------------------------------------------------
 #t hf aug-cc-pvdz symm=none int=(grid=ultrafine) guess=(read,tcheck) s
 table=(opt,rrhf)
 ----------------------------------------------------------------------
 -----
 title
 -----
 Symbolic Z-matrix:
 Charge =  0 Multiplicity = 1

 SCF Done:  E(RHF) =  -893.725246809     A.U. after   16 cycles
 Normal termination of Gaussian 16 at Wed Apr  9 00:39:01 2025.
 Gaussian 16:  ES64L-G16RevC.01  3-Jul-2019

 ----------------------------------------------------------------------
 #t hf aug-cc-pvdz iop(5/13=1,5/36=2,99/5=2) pseudo=read geom=check gue
 ss=(read,tcheck) scf=(maxcycle=1)
 ----------------------------------------------------------------------
 -----
 title
 -----
 Structure from the checkpoint file:  "BDE49_nonexpt_617_mol1.chk"
 Charge =  0 Multiplicity = 1

                         Standard orientation:
 ---------------------------------------------------------------------
 Center     Atomic      Atomic             Coordinates (Angstroms)
 Number     Number       Type             X           Y           Z
 ---------------------------------------------------------------------
      1          7           0       -0.088063    0.150196   -0.000010
      2          5           0        1.362957   -0.201143    0.000001
      3          7           0       -1.144474   -0.778400   -0.000012
      4         17           0       -0.574710    1.791332   -0.000013
      5          8           0       -0.799964   -1.962225    0.000027
      6          8           0        1.800620   -1.474250    0.000003
      7          8           0        2.200048    0.861522    0.000006
      8          8           0       -2.276155   -0.366004    0.000009
      9          1           0        3.121715    0.583693    0.000011
     10          1           0        1.064948   -2.105543   -0.000005
 ---------------------------------------------------------------------

 SCF Done:  E(RHF) =  -894.218838140     A.U. after    2 cycles

 The electronic state is 1-A.
 Alpha  occ. eigenvalues -- -105.63952 -20.62987 -20.61629 -20.58680 -20.57882
 Alpha  occ. eigenvalues --  -15.86178 -15.64219 -10.68385  -7.85379  -7.84830
 Alpha  occ. eigenvalues --   -7.84789  -7.70927  -1.72092  -1.55463  -1.51346
 Alpha  occ. eigenvalues --   -1.47480  -1.33210  -1.10759  -0.96490  -0.87220
 Alpha  occ. eigenvalues --   -0.81309  -0.79822  -0.77815  -0.75133  -0.71375
 Alpha  occ. eigenvalues --   -0.63585  -0.59830  -0.59732  -0.57923  -0.54863
 Alpha  occ. eigenvalues --   -0.53907  -0.52238  -0.49482  -0.49209  -0.46205
 Alpha virt. eigenvalues --    0.03699   0.03829   0.05026   0.05339   0.05688
 Alpha virt. eigenvalues --    0.06108   0.08403   0.09499   0.12182   0.13496
 Alpha virt. eigenvalues --    0.14805   0.15149   0.17074   0.17210   0.17979

 Mulliken charges:
               1
     1  N    0.399632
     2  B    1.226687
     3  N    1.914281
     4  Cl   0.292518
     5  O   -1.330327
     6  O   -1.307066
     7  O   -1.114939
     8  O   -1.250419
     9  H    0.428536
    10  H    0.741099
 Sum of Mulliken charges =  -0.00000

 Dipole moment (field-independent basis, Debye):
    X=              1.9875    Y=              0.6998    Z=             -0.0000  Tot=              2.1071

 Test job not archived.
 1\1\GINC-SE460\SP\RHF\Aug-CC-pVDZ\B1Cl1H2N2O4\OHZDE\09-Apr-2025\0\\#t
 hf aug-cc-pvdz iop(5/13=1,5/36=2,99/5=2) pseudo=read geom=check guess=
 (read,tcheck) scf=(maxcycle=1)\\title\\0,1\N,0,-0.088063,0.150196,-0.0
 0001\B,0,1.362957,-0.201143,0.000001\N,0,-1.144474,-0.7784,-0.000012\C
 l,0,-0.57471,1.791332,-0.000013\O,0,-0.799964,-1.962225,0.000027\O,0,1
 .80062,-1.47425,0.000003\O,0,2.200048,0.861522,0.000006\O,0,-2.276155,
 -0.366004,0.000009\H,0,3.121715,0.583693,0.000011\H,0,1.064948,-2.1055
 43,-0.000005\\Version=ES64L-G16RevC.01\State=1-A\HF=-894.2188381\RMSD=

 Normal termination of Gaussian 16 at Wed Apr  9 00:39:05 2025.
