 Gaussian 16, Revision C.01,

 ----------------------------------------------------------------------
 #t hf aug-cc-pvdz symm=none int=(grid=ultrafine) guess=(read,tcheck) s
 table=opt
 ----------------------------------------------------------------------
 -----
 title
 -----
 Symbolic Z-matrix:
 Charge =  0 Multiplicity = 2

 SCF Done:  E(UHF) =  -138.424552130     A.U. after   14 cycles
 Normal termination of Gaussian 16 at Tue Apr  8 22:29:16 2025.
 Gaussian 16:  ES64L-G16RevC.01  3-Jul-2019

 ----------------------------------------------------------------------
 #t hf aug-cc-pvdz iop(5/13=1,5/36=2,99/5=2) pseudo=read geom=check gue
 ss=(read,tcheck) scf=(maxcycle=1)
 ----------------------------------------------------------------------
 -----
 title
 -----
 Structure from the checkpoint file:  "BDE49_expt_1006_mol2.chk"
 Charge =  0 Multiplicity = 2

                         Standard orientation:
 ---------------------------------------------------------------------
 Center     Atomic      Atomic             Coordinates (Angstroms)
 Number     Number       Type             X           Y           Z
 ---------------------------------------------------------------------
      1          6           0       -0.024489    0.657344    0.000000
      2          1           0        0.183669    1.113696    0.958489
      3          1           0        0.183669    1.113696   -0.958489
      4          9           0       -0.024489   -0.685717   -0.000000
 ---------------------------------------------------------------------

 SCF Done:  E(UHF) =  -138.555490867     A.U. after    2 cycles

 The electronic state is 2-A'.
 Alpha  occ. eigenvalues --  -26.47559 -11.33446  -1.60722  -0.95210  -0.72291
 Alpha  occ. eigenvalues --   -0.70191  -0.68484  -0.55350  -0.39194
 Alpha virt. eigenvalues --    0.03689   0.05124   0.09031   0.10419   0.15584
 Alpha virt. eigenvalues --    0.16768   0.24035   0.26740   0.28188   0.29529
 Alpha virt. eigenvalues --    0.30562   0.31785   0.40157   0.43001   0.46233

  Beta  occ. eigenvalues --  -26.47087 -11.30810  -1.59273  -0.87759  -0.71071
  Beta  occ. eigenvalues --   -0.68213  -0.62758  -0.54518
  Beta virt. eigenvalues --    0.03843   0.05166   0.07180   0.09192   0.15686
  Beta virt. eigenvalues --    0.16826   0.18449   0.24429   0.28193   0.28460
  Beta virt. eigenvalues --    0.29994   0.31713   0.33273   0.40444   0.46411

 Mulliken charges and spin densities:
               1          2
     1  C    0.390772   1.168349
     2  H    0.094566  -0.089956
     3  H    0.094566  -0.089956
     4  F   -0.579905   0.011563
 Sum of Mulliken charges =   0.00000   1.00000

 Dipole moment (field-independent basis, Debye):
    X=              0.3684    Y=              1.4649    Z=             -0.0000  Tot=              1.5105
                          Isotropic Fermi Contact Couplings
        Atom                 a.u.       MegaHertz       Gauss      10(-4) cm-1
     1  C(13)              0.25542     287.14342     102.45991      95.78073
     2  H(1)              -0.02216     -99.07236     -35.35148     -33.04698
     3  H(1)              -0.02216     -99.07236     -35.35148     -33.04698
     4  F(19)              0.06091     256.26649      91.44225      85.48130
 --------------------------------------------------------
       Center         ----  Spin Dipole Couplings  ----
                      3XX-RR        3YY-RR        3ZZ-RR
 --------------------------------------------------------

 Normal termination of Gaussian 16 at Tue Apr  8 22:29:19 2025.
