 Gaussian 16, Revision C.01,

 ----------------------------------------------------------------------
 #t hf aug-cc-pvdz symm=none int=(grid=ultrafine) guess=(read,tcheck) s
 table=(opt,rrhf)
 ----------------------------------------------------------------------
 -----
 title
 -----
 Symbolic Z-matrix:
 Charge =  0 Multiplicity = 1

 SCF Done:  E(RHF) =  -514.637408070     A.U. after   13 cycles
 Normal termination of Gaussian 16 at Tue Apr  8 23:35:22 2025.
 Gaussian 16:  ES64L-G16RevC.01  3-Jul-2019

 ----------------------------------------------------------------------
 #t hf aug-cc-pvdz iop(5/13=1,5/36=2,99/5=2) pseudo=read geom=check gue
 ss=(read,tcheck) scf=(maxcycle=1)
 ----------------------------------------------------------------------
 -----
 title
 -----
 Structure from the checkpoint file:  "BDE49_nonexpt_1494_mol1.chk"
 Charge =  0 Multiplicity = 1

                         Standard orientation:
 ---------------------------------------------------------------------
 Center     Atomic      Atomic             Coordinates (Angstroms)
 Number     Number       Type             X           Y           Z
 ---------------------------------------------------------------------
      1          7           0        1.897952    1.055033   -0.107141
      2         15           0        1.437090   -0.583586    0.075855
      3          6           0       -2.783147    0.185006   -0.083408
      4          6           0       -0.386093   -0.683382   -0.322540
      5          6           0       -1.313116    0.355297    0.317670
      6          1           0       -0.687657   -1.696331   -0.023263
      7          1           0       -0.477707   -0.652461   -1.415098
      8          1           0       -0.983110    1.361872    0.034179
      9          1           0       -1.221906    0.297302    1.408451
     10          1           0       -3.161875   -0.797186    0.215161
     11          1           0       -2.909493    0.272585   -1.166849
     12          1           0       -3.414766    0.943232    0.388227
     13          1           0        1.267009   -0.577433    1.485632
     14          1           0        1.284039    1.800531    0.193490
     15          1           0        2.357592    1.274930   -0.978104
 ---------------------------------------------------------------------

 SCF Done:  E(RHF) =  -514.876453238     A.U. after    2 cycles

 The electronic state is 1-A.
 Alpha  occ. eigenvalues --  -84.28179 -15.49022 -11.23716 -11.23252 -11.22809
 Alpha  occ. eigenvalues --   -6.74869  -4.27663  -4.27127  -4.26647  -1.16078
 Alpha  occ. eigenvalues --   -1.06451  -0.94671  -0.83329  -0.78277  -0.70043
 Alpha  occ. eigenvalues --   -0.64473  -0.60276  -0.57212  -0.55709  -0.53182
 Alpha  occ. eigenvalues --   -0.50299  -0.49086  -0.48344  -0.41306  -0.32691
 Alpha virt. eigenvalues --    0.03477   0.03957   0.04206   0.04444   0.06459
 Alpha virt. eigenvalues --    0.06677   0.07229   0.07325   0.08215   0.09487
 Alpha virt. eigenvalues --    0.10667   0.11120   0.12260   0.13645   0.15564

 Mulliken charges:
               1
     1  N   -0.102549
     2  P    0.325688
     3  C   -0.444032
     4  C   -0.769500
     5  C   -0.408164
     6  H    0.205822
     7  H    0.140314
     8  H    0.161685
     9  H    0.121797
    10  H    0.158861
    11  H    0.162328
    12  H    0.116250
    13  H    0.291663
    14  H   -0.048647
    15  H    0.088484
 Sum of Mulliken charges =   0.00000

 Dipole moment (field-independent basis, Debye):
    X=             -1.5026    Y=              0.8870    Z=             -0.5348  Tot=              1.8250

 Test job not archived.
 1\1\GINC-SE341\SP\RHF\Aug-CC-pVDZ\C3H10N1P1\OHZDE\08-Apr-2025\0\\#t hf
  aug-cc-pvdz iop(5/13=1,5/36=2,99/5=2) pseudo=read geom=check guess=(r
 ead,tcheck) scf=(maxcycle=1)\\title\\0,1\N,0,1.897952,1.055033,-0.1071
 41\P,0,1.43709,-0.583586,0.075855\C,0,-2.783147,0.185006,-0.083408\C,0
 ,-0.386093,-0.683382,-0.32254\C,0,-1.313116,0.355297,0.31767\H,0,-0.68
 7657,-1.696331,-0.023263\H,0,-0.477707,-0.652461,-1.415098\H,0,-0.9831
 1,1.361872,0.034179\H,0,-1.221906,0.297302,1.408451\H,0,-3.161875,-0.7
 97186,0.215161\H,0,-2.909493,0.272585,-1.166849\H,0,-3.414766,0.943232

 Normal termination of Gaussian 16 at Tue Apr  8 23:35:26 2025.
