 Gaussian 16, Revision C.01,

 ----------------------------------------------------------------------
 #t hf aug-cc-pvdz symm=none int=(grid=ultrafine) guess=(read,tcheck) s
 table=opt
 ----------------------------------------------------------------------
 -----
 title
 -----
 Symbolic Z-matrix:
 Charge =  0 Multiplicity = 2

 SCF Done:  E(UHF) =  -876.864711257     A.U. after   17 cycles
 Normal termination of Gaussian 16 at Tue Apr  8 23:53:31 2025.
 Gaussian 16:  ES64L-G16RevC.01  3-Jul-2019

 ----------------------------------------------------------------------
 #t hf aug-cc-pvdz iop(5/13=1,5/36=2,99/5=2) pseudo=read geom=check gue
 ss=(read,tcheck) scf=(maxcycle=1)
 ----------------------------------------------------------------------
 -----
 title
 -----
 Structure from the checkpoint file:  "BDE49_nonexpt_1932_mol2.chk"
 Charge =  0 Multiplicity = 2

                         Standard orientation:
 ---------------------------------------------------------------------
 Center     Atomic      Atomic             Coordinates (Angstroms)
 Number     Number       Type             X           Y           Z
 ---------------------------------------------------------------------
      1         14           0       -1.800359    0.241780   -0.163246
      2         16           0        0.406106   -0.193722    0.034641
      3          1           0       -2.412172   -1.105113   -0.077266
      4          1           0       -2.213007    1.100442    0.978039
      5          8           0        0.625116   -0.567144    1.430830
      6          8           0        0.786593   -1.102460   -1.038737
      7          6           0        1.277883    1.359571   -0.240317
      8          1           0        0.947509    2.090073    0.497870
      9          1           0        1.086937    1.695190   -1.259061
     10          1           0        2.337094    1.133443   -0.103239
 ---------------------------------------------------------------------

 SCF Done:  E(UHF) =  -877.148169781     A.U. after    2 cycles

 The electronic state is 2-A.
 Alpha  occ. eigenvalues --  -94.17524 -69.59743 -20.53308 -20.53193 -11.29082
 Alpha  occ. eigenvalues --   -8.43117  -6.41182  -6.40963  -6.40927  -6.26767
 Alpha  occ. eigenvalues --   -4.02651  -4.01791  -4.01710  -1.54279  -1.42789
 Alpha  occ. eigenvalues --   -1.06103  -0.89356  -0.77248  -0.67162  -0.66559
 Alpha  occ. eigenvalues --   -0.65897  -0.60768  -0.59915  -0.54019  -0.49658
 Alpha  occ. eigenvalues --   -0.47981  -0.46058  -0.42884  -0.37600
 Alpha virt. eigenvalues --    0.02416   0.03646   0.04845   0.04970   0.05974
 Alpha virt. eigenvalues --    0.06818   0.07670   0.08039   0.10169   0.11468
 Alpha virt. eigenvalues --    0.12649   0.13496   0.13659   0.14836   0.16283

  Beta  occ. eigenvalues --  -94.17500 -69.59159 -20.53195 -20.53038 -11.29095
  Beta  occ. eigenvalues --   -8.43084  -6.41187  -6.40947  -6.40837  -6.25867
  Beta  occ. eigenvalues --   -4.01404  -4.01319  -4.00446  -1.54005  -1.42415
  Beta  occ. eigenvalues --   -1.06027  -0.88165  -0.74608  -0.66628  -0.65877
  Beta  occ. eigenvalues --   -0.65298  -0.60542  -0.59540  -0.52859  -0.48632
  Beta  occ. eigenvalues --   -0.47678  -0.45584  -0.40363
  Beta virt. eigenvalues --   -0.01366   0.02807   0.03865   0.04911   0.05451
  Beta virt. eigenvalues --    0.06323   0.07531   0.07814   0.08633   0.11223
  Beta virt. eigenvalues --    0.11857   0.13111   0.13822   0.14367   0.15976

 Mulliken charges and spin densities:
               1          2
     1  Si   0.847567   0.890318
     2  S    2.477398  -0.004212
     3  H   -0.166294   0.031580
     4  H   -0.133089   0.048353
     5  O   -1.426664   0.035237
     6  O   -1.431487   0.000687
     7  C   -0.808870  -0.000949
     8  H    0.196735  -0.000381
     9  H    0.204729   0.000427
    10  H    0.239974  -0.001059
 Sum of Mulliken charges =   0.00000   1.00000

 Dipole moment (field-independent basis, Debye):
    X=             -2.3347    Y=              4.3783    Z=             -1.0187  Tot=              5.0653
                          Isotropic Fermi Contact Couplings
        Atom                 a.u.       MegaHertz       Gauss      10(-4) cm-1
     1  Si(29)             0.65122    -578.75853    -206.51544    -193.05307
     2  S(33)              0.04659      16.00311       5.71031       5.33806
     3  H(1)               0.00539      24.10340       8.60069       8.04003
     4  H(1)               0.01090      48.71752      17.38362      16.25042
     5  O(17)              0.02505     -15.18434      -5.41815      -5.06495
     6  O(17)             -0.00133       0.80731       0.28807       0.26929
     7  C(13)             -0.00401      -4.50989      -1.60924      -1.50434
     8  H(1)               0.00006       0.24898       0.08884       0.08305

 1\1\GINC-SE109\SP\UHF\Aug-CC-pVDZ\C1H5O2S1Si1(2)\OHZDE\08-Apr-2025\0\\
 #t hf aug-cc-pvdz iop(5/13=1,5/36=2,99/5=2) pseudo=read geom=check gue
 ss=(read,tcheck) scf=(maxcycle=1)\\title\\0,2\Si,0,-1.800359,0.24178,-
 0.163246\S,0,0.406106,-0.193722,0.034641\H,0,-2.412172,-1.105113,-0.07
 7266\H,0,-2.213007,1.100442,0.978039\O,0,0.625116,-0.567144,1.43083\O,
 0,0.786593,-1.10246,-1.038737\C,0,1.277883,1.359571,-0.240317\H,0,0.94
 7509,2.090073,0.49787\H,0,1.086937,1.69519,-1.259061\H,0,2.337094,1.13
 3443,-0.103239\\Version=ES64L-G16RevC.01\State=2-A\HF=-877.1481698\S2=

 Normal termination of Gaussian 16 at Tue Apr  8 23:53:35 2025.
