 Gaussian 16, Revision C.01,

 ----------------------------------------------------------------------
 #t hf aug-cc-pvdz symm=none int=(grid=ultrafine) guess=(read,tcheck) s
 table=(opt,rrhf)
 ----------------------------------------------------------------------
 -----
 title
 -----
 Symbolic Z-matrix:
 Charge =  0 Multiplicity = 1

 SCF Done:  E(RHF) =  -2247.19693594     A.U. after   16 cycles
 Normal termination of Gaussian 16 at Wed Apr  9 00:14:05 2025.
 Gaussian 16:  ES64L-G16RevC.01  3-Jul-2019

 ----------------------------------------------------------------------
 #t hf aug-cc-pvdz iop(5/13=1,5/36=2,99/5=2) pseudo=read geom=check gue
 ss=(read,tcheck) scf=(maxcycle=1)
 ----------------------------------------------------------------------
 -----
 title
 -----
 Structure from the checkpoint file:  "BDE49_nonexpt_2442_mol1.chk"
 Charge =  0 Multiplicity = 1

                         Standard orientation:
 ---------------------------------------------------------------------
 Center     Atomic      Atomic             Coordinates (Angstroms)
 Number     Number       Type             X           Y           Z
 ---------------------------------------------------------------------
      1         14           0        1.096338    1.101221   -1.177684
      2         14           0       -0.974149    1.650431   -0.175006
      3          6           0       -1.974137    0.047475    0.091542
      4          1           0       -1.764638    2.519688   -1.072912
      5          1           0       -0.757688    2.332199    1.123410
      6         16           0       -2.441964   -0.830614   -1.213733
      7         16           0       -2.292972   -0.355685    1.757496
      8          6           0        1.998590   -0.142205   -0.058304
      9          1           0        1.934877    2.311211   -1.298845
     10          1           0        0.861439    0.505824   -2.515216
     11         16           0        2.807421    0.399977    1.261178
     12         16           0        1.904332   -1.858261   -0.398243
     13          1           0       -2.949141   -1.514257    1.533065
     14          1           0        1.188726   -1.796079   -1.538452
 ---------------------------------------------------------------------

 SCF Done:  E(RHF) =  -2247.56863793     A.U. after    2 cycles

 The electronic state is 1-A.
 Alpha  occ. eigenvalues --  -94.00351 -93.99832 -93.94961 -93.94536 -69.56223
 Alpha  occ. eigenvalues --  -69.56186 -11.35955 -11.35428  -8.28474  -8.27924
 Alpha  occ. eigenvalues --   -8.23132  -8.22702  -6.26315  -6.26130  -6.25961
 Alpha  occ. eigenvalues --   -6.25747  -6.25595  -6.25400  -6.23342  -6.23299
 Alpha  occ. eigenvalues --   -6.20960  -6.20747  -6.20544  -6.20521  -6.20322
 Alpha  occ. eigenvalues --   -6.20107  -3.98712  -3.98681  -3.98661  -3.98656
 Alpha  occ. eigenvalues --   -3.98618  -3.98591  -1.14696  -1.14099  -1.01904
 Alpha  occ. eigenvalues --   -1.01602  -0.84456  -0.80413  -0.72586  -0.69021
 Alpha  occ. eigenvalues --   -0.60926  -0.60464  -0.57118  -0.55628  -0.53255
 Alpha  occ. eigenvalues --   -0.51717  -0.50274  -0.49757  -0.49109  -0.48293
 Alpha  occ. eigenvalues --   -0.43050  -0.37616  -0.36449  -0.35579  -0.35015
 Alpha virt. eigenvalues --    0.01167   0.01642   0.03514   0.03546   0.04474
 Alpha virt. eigenvalues --    0.05515   0.05734   0.06469   0.07199   0.07534
 Alpha virt. eigenvalues --    0.08001   0.08115   0.08736   0.09158   0.09693

 Mulliken charges:
               1
     1  Si   0.616225
     2  Si   0.816993
     3  C   -0.983284
     4  H   -0.118404
     5  H   -0.105553
     6  S    0.043342
     7  S   -0.001854
     8  C   -0.947524
     9  H   -0.146032
    10  H   -0.083632
    11  S    0.080968
    12  S    0.106412
    13  H    0.390254
    14  H    0.332088
 Sum of Mulliken charges =  -0.00000

 Dipole moment (field-independent basis, Debye):
    X=             -1.4216    Y=              0.3291    Z=             -0.9784  Tot=              1.7569

 Test job not archived.
 1\1\GINC-SE322\SP\RHF\Aug-CC-pVDZ\C2H6S4Si2\OHZDE\09-Apr-2025\0\\#t hf
  aug-cc-pvdz iop(5/13=1,5/36=2,99/5=2) pseudo=read geom=check guess=(r
 ead,tcheck) scf=(maxcycle=1)\\title\\0,1\Si,0,1.096338,1.101221,-1.177
 684\Si,0,-0.974149,1.650431,-0.175006\C,0,-1.974137,0.047475,0.091542\
 H,0,-1.764638,2.519688,-1.072912\H,0,-0.757688,2.332199,1.12341\S,0,-2
 .441964,-0.830614,-1.213733\S,0,-2.292972,-0.355685,1.757496\C,0,1.998
 59,-0.142205,-0.058304\H,0,1.934877,2.311211,-1.298845\H,0,0.861439,0.
 505824,-2.515216\S,0,2.807421,0.399977,1.261178\S,0,1.904332,-1.858261

 Normal termination of Gaussian 16 at Wed Apr  9 00:14:13 2025.
