 Gaussian 16, Revision C.01,

 ----------------------------------------------------------------------
 #t hf aug-cc-pvdz symm=none int=(grid=ultrafine) guess=(read,tcheck) s
 table=(opt,rrhf)
 ----------------------------------------------------------------------
 -----
 title
 -----
 Symbolic Z-matrix:
 Charge =  0 Multiplicity = 1

 SCF Done:  E(RHF) =  -802.699525404     A.U. after   13 cycles
 Normal termination of Gaussian 16 at Wed Apr  9 00:07:29 2025.
 Gaussian 16:  ES64L-G16RevC.01  3-Jul-2019

 ----------------------------------------------------------------------
 #t hf aug-cc-pvdz iop(5/13=1,5/36=2,99/5=2) pseudo=read geom=check gue
 ss=(read,tcheck) scf=(maxcycle=1)
 ----------------------------------------------------------------------
 -----
 title
 -----
 Structure from the checkpoint file:  "BDE49_nonexpt_2263_mol1.chk"
 Charge =  0 Multiplicity = 1

                         Standard orientation:
 ---------------------------------------------------------------------
 Center     Atomic      Atomic             Coordinates (Angstroms)
 Number     Number       Type             X           Y           Z
 ---------------------------------------------------------------------
      1          6           0       -1.966457    0.848504   -0.008949
      2         16           0       -0.999520   -0.670367   -0.157935
      3          1           0       -1.490716    1.681602   -0.527221
      4          1           0       -2.129690    1.088710    1.041986
      5          1           0       -2.927977    0.630439   -0.482787
      6          8           0        0.387942   -0.205441    0.707580
      7         14           0        1.765958    0.206103   -0.143787
      8          1           0        2.748848    0.582688    0.891754
      9          1           0        1.501609    1.346759   -1.050569
     10          1           0        2.262038   -0.937266   -0.940132
 ---------------------------------------------------------------------

 SCF Done:  E(RHF) =  -802.912109682     A.U. after    2 cycles

 The electronic state is 1-A.
 Alpha  occ. eigenvalues --  -94.00348 -69.56369 -20.56619 -11.27454  -8.27748
 Alpha  occ. eigenvalues --   -6.25601  -6.25359  -6.25104  -6.22968  -3.98461
 Alpha  occ. eigenvalues --   -3.98328  -3.98298  -1.44674  -1.05436  -0.87838
 Alpha  occ. eigenvalues --   -0.74559  -0.62663  -0.61677  -0.60320  -0.57304
 Alpha  occ. eigenvalues --   -0.55505  -0.49527  -0.47775  -0.43878  -0.35781
 Alpha virt. eigenvalues --    0.03568   0.04321   0.04866   0.05420   0.06522
 Alpha virt. eigenvalues --    0.07155   0.07560   0.09470   0.09687   0.09986
 Alpha virt. eigenvalues --    0.12203   0.13611   0.15104   0.15325   0.15552

 Mulliken charges:
               1
     1  C   -0.776838
     2  S    0.805187
     3  H    0.153160
     4  H    0.201873
     5  H    0.207464
     6  O   -1.430851
     7  Si   1.416559
     8  H   -0.180226
     9  H   -0.197680
    10  H   -0.198647
 Sum of Mulliken charges =   0.00000

 Dipole moment (field-independent basis, Debye):
    X=             -0.6769    Y=              1.4688    Z=             -0.6144  Tot=              1.7301

 Test job not archived.
 1\1\GINC-SE419\SP\RHF\Aug-CC-pVDZ\C1H6O1S1Si1\OHZDE\09-Apr-2025\0\\#t
 hf aug-cc-pvdz iop(5/13=1,5/36=2,99/5=2) pseudo=read geom=check guess=
 (read,tcheck) scf=(maxcycle=1)\\title\\0,1\C,0,-1.966457,0.848505,-0.0
 08949\S,0,-0.99952,-0.670367,-0.157935\H,0,-1.490716,1.681602,-0.52722
 1\H,0,-2.12969,1.088711,1.041986\H,0,-2.927977,0.63044,-0.482787\O,0,0
 .387942,-0.205441,0.70758\Si,0,1.765958,0.206103,-0.143787\H,0,2.74884
 8,0.582687,0.891754\H,0,1.501609,1.346759,-1.050569\H,0,2.262038,-0.93
 7266,-0.940132\\Version=ES64L-G16RevC.01\State=1-A\HF=-802.9121097\RMS

 Normal termination of Gaussian 16 at Wed Apr  9 00:07:32 2025.
