 Gaussian 16, Revision C.01,

 ----------------------------------------------------------------------
 #t hf aug-cc-pvdz symm=none int=(grid=ultrafine) guess=(read,tcheck) s
 table=opt
 ----------------------------------------------------------------------
 -----
 title
 -----
 Symbolic Z-matrix:
 Charge =  0 Multiplicity = 2

 SCF Done:  E(UHF) =  -124.692941818     A.U. after   13 cycles
 Normal termination of Gaussian 16 at Tue Apr  8 23:19:46 2025.
 Gaussian 16:  ES64L-G16RevC.01  3-Jul-2019

 ----------------------------------------------------------------------
 #t hf aug-cc-pvdz iop(5/13=1,5/36=2,99/5=2) pseudo=read geom=check gue
 ss=(read,tcheck) scf=(maxcycle=1)
 ----------------------------------------------------------------------
 -----
 title
 -----
 Structure from the checkpoint file:  "BDE49_nonexpt_10_mol2.chk"
 Charge =  0 Multiplicity = 2

                         Standard orientation:
 ---------------------------------------------------------------------
 Center     Atomic      Atomic             Coordinates (Angstroms)
 Number     Number       Type             X           Y           Z
 ---------------------------------------------------------------------
      1          5           0        0.068721    0.742923    0.000000
      2          9           0        0.068721   -0.564267    0.000000
      3          1           0       -0.962094    1.363786    0.000000
 ---------------------------------------------------------------------

 SCF Done:  E(UHF) =  -124.803686475     A.U. after    2 cycles

 The electronic state is 2-A'.
 Alpha  occ. eigenvalues --  -26.49346  -7.69817  -1.62649  -0.80011  -0.71058
 Alpha  occ. eigenvalues --   -0.67145  -0.61654  -0.36766
 Alpha virt. eigenvalues --    0.03579   0.05227   0.05515   0.05774   0.11054
 Alpha virt. eigenvalues --    0.12050   0.21949   0.24930   0.25974   0.26272
 Alpha virt. eigenvalues --    0.28720   0.28976   0.31102   0.35085   0.38205

  Beta  occ. eigenvalues --  -26.49019  -7.67911  -1.61768  -0.78293  -0.67864
  Beta  occ. eigenvalues --   -0.67172  -0.57096
  Beta virt. eigenvalues --    0.04001   0.04244   0.05463   0.05805   0.08849
  Beta virt. eigenvalues --    0.13718   0.15897   0.23056   0.25938   0.27383
  Beta virt. eigenvalues --    0.27812   0.28765   0.29655   0.32570   0.35682

 Mulliken charges and spin densities:
               1          2
     1  B    0.268830   0.961401
     2  F   -0.411746  -0.042219
     3  H    0.142916   0.080818
 Sum of Mulliken charges =   0.00000   1.00000

 Dipole moment (field-independent basis, Debye):
    X=             -0.4602    Y=              0.4788    Z=              0.0000  Tot=              0.6641
                          Isotropic Fermi Contact Couplings
        Atom                 a.u.       MegaHertz       Gauss      10(-4) cm-1
     1  B(11)              0.32153     461.18942     164.56385     153.83623
     2  F(19)              0.06441     270.98539      96.69433      90.39100
     3  H(1)               0.03635     162.46993      57.97331      54.19413
 --------------------------------------------------------
       Center         ----  Spin Dipole Couplings  ----
                      3XX-RR        3YY-RR        3ZZ-RR
 --------------------------------------------------------
     1   Atom        0.298081     -0.105973     -0.192108

 Normal termination of Gaussian 16 at Tue Apr  8 23:19:47 2025.
