 Gaussian 16, Revision C.01,

 ----------------------------------------------------------------------
 #t hf aug-cc-pvdz symm=none int=(grid=ultrafine) guess=(read,tcheck) s
 table=opt
 ----------------------------------------------------------------------
 -----
 title
 -----
 Symbolic Z-matrix:
 Charge =  0 Multiplicity = 2

 SCF Done:  E(UHF) =  -214.719021386     A.U. after   14 cycles
 Normal termination of Gaussian 16 at Tue Apr  8 23:54:19 2025.
 Gaussian 16:  ES64L-G16RevC.01  3-Jul-2019

 ----------------------------------------------------------------------
 #t hf aug-cc-pvdz iop(5/13=1,5/36=2,99/5=2) pseudo=read geom=check gue
 ss=(read,tcheck) scf=(maxcycle=1)
 ----------------------------------------------------------------------
 -----
 title
 -----
 Structure from the checkpoint file:  "BDE49_nonexpt_1960_mol2.chk"
 Charge =  0 Multiplicity = 2

                         Standard orientation:
 ---------------------------------------------------------------------
 Center     Atomic      Atomic             Coordinates (Angstroms)
 Number     Number       Type             X           Y           Z
 ---------------------------------------------------------------------
      1          6           0       -1.542092   -0.000001    0.000002
      2          5           0       -0.005831    0.000000   -0.000000
      3          8           0        0.644350    1.213072    0.000050
      4          8           0        0.644351   -1.213071   -0.000051
      5          1           0        1.604088    1.164129    0.000054
      6          1           0        1.604089   -1.164128   -0.000058
      7          1           0       -2.118042   -0.919069   -0.000037
      8          1           0       -2.118041    0.919067    0.000043
 ---------------------------------------------------------------------

 SCF Done:  E(UHF) =  -214.934109940     A.U. after    2 cycles

 The electronic state is 2-A.
 Alpha  occ. eigenvalues --  -20.55920 -20.55917 -11.23016  -7.63717  -1.47977
 Alpha  occ. eigenvalues --   -1.44013  -0.95761  -0.75982  -0.73796  -0.63615
 Alpha  occ. eigenvalues --   -0.57729  -0.57009  -0.53786  -0.52210  -0.50071
 Alpha  occ. eigenvalues --   -0.38690
 Alpha virt. eigenvalues --    0.02859   0.04834   0.04976   0.05200   0.07035
 Alpha virt. eigenvalues --    0.08715   0.10477   0.10616   0.14163   0.15530
 Alpha virt. eigenvalues --    0.18109   0.18484   0.20197   0.20681   0.21933

  Beta  occ. eigenvalues --  -20.55798 -20.55795 -11.20966  -7.63831  -1.47684
  Beta  occ. eigenvalues --   -1.43693  -0.87923  -0.74901  -0.73656  -0.63446
  Beta  occ. eigenvalues --   -0.56125  -0.55677  -0.52082  -0.51876  -0.48909
  Beta virt. eigenvalues --    0.02875   0.04491   0.04964   0.04988   0.07047
  Beta virt. eigenvalues --    0.07300   0.08794   0.10502   0.10625   0.15631
  Beta virt. eigenvalues --    0.16745   0.18211   0.18614   0.20749   0.20758

 Mulliken charges and spin densities:
               1          2
     1  C   -0.274781   1.197510
     2  B    1.833213  -0.116439
     3  O   -1.114489   0.032385
     4  O   -1.114490   0.032385
     5  H    0.423525   0.001106
     6  H    0.423525   0.001106
     7  H   -0.088251  -0.074027
     8  H   -0.088251  -0.074027
 Sum of Mulliken charges =  -0.00000   1.00000

 Dipole moment (field-independent basis, Debye):
    X=              2.0024    Y=              0.0000    Z=             -0.0000  Tot=              2.0024
                          Isotropic Fermi Contact Couplings
        Atom                 a.u.       MegaHertz       Gauss      10(-4) cm-1
     1  C(13)              0.15301     172.01579      61.37951      57.37829
     2  B(11)             -0.02561     -36.73526     -13.10805     -12.25356
     3  O(17)              0.00633      -3.83606      -1.36880      -1.27957
     4  O(17)              0.00633      -3.83605      -1.36880      -1.27957
     5  H(1)              -0.00127      -5.67170      -2.02381      -1.89188
     6  H(1)              -0.00127      -5.67170      -2.02380      -1.89188
     7  H(1)              -0.02083     -93.08682     -33.21569     -31.05042
     8  H(1)              -0.02083     -93.08679     -33.21568     -31.05041

 Normal termination of Gaussian 16 at Tue Apr  8 23:54:21 2025.
