 Gaussian 16, Revision C.01,

 ----------------------------------------------------------------------
 #t hf aug-cc-pvdz symm=none int=(grid=ultrafine) guess=(read,tcheck) s
 table=(opt,rrhf)
 ----------------------------------------------------------------------
 -----
 title
 -----
 Symbolic Z-matrix:
 Charge =  0 Multiplicity = 1

 SCF Done:  E(RHF) =  -521.171185181     A.U. after   12 cycles
 Normal termination of Gaussian 16 at Wed Apr  9 00:05:54 2025.
 Gaussian 16:  ES64L-G16RevC.01  3-Jul-2019

 ----------------------------------------------------------------------
 #t hf aug-cc-pvdz iop(5/13=1,5/36=2,99/5=2) pseudo=read geom=check gue
 ss=(read,tcheck) scf=(maxcycle=1)
 ----------------------------------------------------------------------
 -----
 title
 -----
 Structure from the checkpoint file:  "BDE49_nonexpt_2223_mol1.chk"
 Charge =  0 Multiplicity = 1

                         Standard orientation:
 ---------------------------------------------------------------------
 Center     Atomic      Atomic             Coordinates (Angstroms)
 Number     Number       Type             X           Y           Z
 ---------------------------------------------------------------------
      1          6           0        1.539616    0.767121   -0.483934
      2          6           0        1.730394   -0.684597    0.006065
      3          6           0        0.348692    1.393785    0.285868
      4          1           0        1.311605    0.754499   -1.556274
      5          1           0        2.458485    1.349478   -0.364250
      6         14           0       -0.871897   -0.042281    0.439064
      7          1           0       -0.050155    2.282295   -0.210398
      8          1           0        0.669540    1.703084    1.288227
      9          6           0        0.355230   -1.401448    0.000856
     10          1           0        0.332051   -2.268151    0.665070
     11          1           0        0.112778   -1.761443   -1.005509
     12          1           0        2.126786   -0.663884    1.028432
     13          1           0        2.467849   -1.214624   -0.604253
     14          8           0       -2.093634   -0.052496   -0.687306
     15          1           0       -2.853430    0.515561   -0.543593
     16          1           0       -1.463462   -0.134074    1.800977
 ---------------------------------------------------------------------

 SCF Done:  E(RHF) =  -521.453891190     A.U. after    2 cycles

 The electronic state is 1-A.
 Alpha  occ. eigenvalues --  -69.53700 -20.54015 -11.23002 -11.22973 -11.20912
 Alpha  occ. eigenvalues --  -11.20742  -6.20429  -3.95890  -3.95747  -3.95701
 Alpha  occ. eigenvalues --   -1.42470  -1.08183  -0.95869  -0.88105  -0.77684
 Alpha  occ. eigenvalues --   -0.72794  -0.65010  -0.63396  -0.61282  -0.57955
 Alpha  occ. eigenvalues --   -0.53185  -0.51631  -0.50918  -0.49431  -0.47793
 Alpha  occ. eigenvalues --   -0.46746  -0.43291  -0.40473
 Alpha virt. eigenvalues --    0.03217   0.03867   0.04143   0.04228   0.06118
 Alpha virt. eigenvalues --    0.06263   0.06456   0.06803   0.07076   0.09354
 Alpha virt. eigenvalues --    0.09644   0.10432   0.11060   0.13296   0.14674

 Mulliken charges:
               1
     1  C   -0.326427
     2  C   -0.310982
     3  C   -0.575632
     4  H    0.120257
     5  H    0.111216
     6  Si   2.181020
     7  H    0.097549
     8  H    0.064902
     9  C   -0.547645
    10  H    0.064141
    11  H    0.132438
    12  H    0.113017
    13  H    0.112848
    14  O   -1.478894
    15  H    0.418628
    16  H   -0.176436
 Sum of Mulliken charges =   0.00000

 Dipole moment (field-independent basis, Debye):
    X=             -0.0527    Y=              0.8830    Z=              0.5626  Tot=              1.0483

 Test job not archived.
 1\1\GINC-SE343\SP\RHF\Aug-CC-pVDZ\C4H10O1Si1\OHZDE\09-Apr-2025\0\\#t h
 f aug-cc-pvdz iop(5/13=1,5/36=2,99/5=2) pseudo=read geom=check guess=(
 read,tcheck) scf=(maxcycle=1)\\title\\0,1\C,0,1.539616,0.767121,-0.483
 934\C,0,1.730394,-0.684597,0.006065\C,0,0.348692,1.393785,0.285868\H,0
 ,1.311605,0.754499,-1.556274\H,0,2.458485,1.349478,-0.36425\Si,0,-0.87
 1897,-0.042281,0.439064\H,0,-0.050155,2.282295,-0.210398\H,0,0.66954,1
 .703084,1.288227\C,0,0.35523,-1.401448,0.000856\H,0,0.332051,-2.268151
 ,0.66507\H,0,0.112778,-1.761443,-1.005509\H,0,2.126786,-0.663884,1.028

 Normal termination of Gaussian 16 at Wed Apr  9 00:05:59 2025.
