 Gaussian 16, Revision C.01,

 ----------------------------------------------------------------------
 #t hf aug-cc-pvdz symm=none int=(grid=ultrafine) guess=(read,tcheck) s
 table=opt
 ----------------------------------------------------------------------
 -----
 title
 -----
 Symbolic Z-matrix:
 Charge =  0 Multiplicity = 2

 SCF Done:  E(UHF) =  -586.776768581     A.U. after   20 cycles
 Normal termination of Gaussian 16 at Tue Apr  8 23:54:20 2025.
 Gaussian 16:  ES64L-G16RevC.01  3-Jul-2019

 ----------------------------------------------------------------------
 #t hf aug-cc-pvdz iop(5/13=1,5/36=2,99/5=2) pseudo=read geom=check gue
 ss=(read,tcheck) scf=(maxcycle=1)
 ----------------------------------------------------------------------
 -----
 title
 -----
 Structure from the checkpoint file:  "BDE49_nonexpt_1965_mol2.chk"
 Charge =  0 Multiplicity = 2

                         Standard orientation:
 ---------------------------------------------------------------------
 Center     Atomic      Atomic             Coordinates (Angstroms)
 Number     Number       Type             X           Y           Z
 ---------------------------------------------------------------------
      1          6           0       -1.027802   -1.153344   -0.162595
      2         16           0       -0.034867    0.166375    0.382784
      3          8           0       -0.467518    1.388294   -0.309728
      4          8           0        1.390184   -0.469408   -0.301983
      5          1           0        2.118137   -0.041322    0.170908
      6          1           0       -0.789160   -2.155273    0.169367
      7          1           0       -1.985628   -0.896421   -0.595566
 ---------------------------------------------------------------------

 SCF Done:  E(UHF) =  -587.024319173     A.U. after    2 cycles

 The electronic state is 2-A.
 Alpha  occ. eigenvalues --  -94.13515 -20.60493 -20.52922 -11.30466  -8.39675
 Alpha  occ. eigenvalues --   -6.37542  -6.37334  -6.37059  -1.52003  -1.44658
 Alpha  occ. eigenvalues --   -1.08185  -0.87801  -0.72565  -0.68044  -0.65582
 Alpha  occ. eigenvalues --   -0.61214  -0.58806  -0.52540  -0.46871  -0.45070
 Alpha  occ. eigenvalues --   -0.38596
 Alpha virt. eigenvalues --    0.03337   0.04219   0.05261   0.07651   0.10773
 Alpha virt. eigenvalues --    0.11520   0.12023   0.12460   0.16152   0.17499
 Alpha virt. eigenvalues --    0.17924   0.19939   0.21452   0.22006   0.23233

  Beta  occ. eigenvalues --  -94.13585 -20.60118 -20.52959 -11.28034  -8.39742
  Beta  occ. eigenvalues --   -6.37631  -6.37540  -6.37187  -1.51395  -1.44149
  Beta  occ. eigenvalues --   -1.03491  -0.83642  -0.71531  -0.66618  -0.64488
  Beta  occ. eigenvalues --   -0.60370  -0.58147  -0.51490  -0.46108  -0.39674
  Beta virt. eigenvalues --    0.02402   0.03551   0.04789   0.05396   0.08157
  Beta virt. eigenvalues --    0.10865   0.11740   0.12657   0.15111   0.16743
  Beta virt. eigenvalues --    0.17929   0.19099   0.20667   0.21621   0.22211

 Mulliken charges and spin densities:
               1          2
     1  C   -0.547768   1.256729
     2  S    2.473738  -0.094380
     3  O   -1.420127  -0.004221
     4  O   -1.150220   0.038454
     5  H    0.423117  -0.011885
     6  H    0.116418  -0.090111
     7  H    0.104841  -0.094587
 Sum of Mulliken charges =  -0.00000   1.00000

 Dipole moment (field-independent basis, Debye):
    X=              0.4206    Y=             -2.8031    Z=              1.6497  Tot=              3.2796
                          Isotropic Fermi Contact Couplings
        Atom                 a.u.       MegaHertz       Gauss      10(-4) cm-1
     1  C(13)              0.20951     235.52862      84.04247      78.56389
     2  S(33)              0.04906      16.85162       6.01308       5.62109
     3  O(17)             -0.00468       2.83995       1.01337       0.94731
     4  O(17)              0.06693     -40.57489     -14.47813     -13.53433
     5  H(1)              -0.00055      -2.45012      -0.87426      -0.81727
     6  H(1)              -0.02258    -100.91952     -36.01059     -33.66313
     7  H(1)              -0.02404    -107.45359     -38.34211     -35.84266
 --------------------------------------------------------

 Normal termination of Gaussian 16 at Tue Apr  8 23:54:22 2025.
