 Gaussian 16, Revision C.01,

 ----------------------------------------------------------------------
 #t hf aug-cc-pvdz symm=none int=(grid=ultrafine) guess=(read,tcheck) s
 table=(opt,rrhf)
 ----------------------------------------------------------------------
 -----
 title
 -----
 Symbolic Z-matrix:
 Charge =  0 Multiplicity = 1

 SCF Done:  E(RHF) =  -1510.37518954     A.U. after   14 cycles
 Normal termination of Gaussian 16 at Tue Apr  8 23:49:30 2025.
 Gaussian 16:  ES64L-G16RevC.01  3-Jul-2019

 ----------------------------------------------------------------------
 #t hf aug-cc-pvdz iop(5/13=1,5/36=2,99/5=2) pseudo=read geom=check gue
 ss=(read,tcheck) scf=(maxcycle=1)
 ----------------------------------------------------------------------
 -----
 title
 -----
 Structure from the checkpoint file:  "BDE49_nonexpt_185_mol1.chk"
 Charge =  0 Multiplicity = 1

                         Standard orientation:
 ---------------------------------------------------------------------
 Center     Atomic      Atomic             Coordinates (Angstroms)
 Number     Number       Type             X           Y           Z
 ---------------------------------------------------------------------
      1         17           0        1.577743    1.565622   -0.039394
      2         17           0        1.728780   -1.467208    0.006427
      3          5           0        0.791362    0.001083   -0.011837
      4         15           0       -1.139111   -0.036161    0.126733
      5          8           0       -1.606213    0.133775    1.512295
      6          8           0       -1.722687    1.071317   -0.893347
      7          1           0       -1.919998    1.902040   -0.442722
      8          8           0       -1.509494   -1.386029   -0.642974
      9          1           0       -2.453877   -1.590583   -0.646461
 ---------------------------------------------------------------------

 SCF Done:  E(RHF) =  -1510.81571618     A.U. after    2 cycles

 The electronic state is 1-A.
 Alpha  occ. eigenvalues -- -105.60132-105.59999 -84.43684 -20.60666 -20.60380
 Alpha  occ. eigenvalues --  -20.51555 -10.65142 -10.65009  -7.82036  -7.81907
 Alpha  occ. eigenvalues --   -7.81743  -7.81698  -7.81615  -7.81559  -7.74715
 Alpha  occ. eigenvalues --   -6.89076  -4.43177  -4.42487  -4.41518  -1.54507
 Alpha  occ. eigenvalues --   -1.48485  -1.39776  -1.13490  -1.08356  -0.89005
 Alpha  occ. eigenvalues --   -0.75636  -0.72842  -0.67828  -0.65520  -0.61901
 Alpha  occ. eigenvalues --   -0.61067  -0.57135  -0.56478  -0.54894  -0.54471
 Alpha  occ. eigenvalues --   -0.49823  -0.49546  -0.48753  -0.46614  -0.43571
 Alpha virt. eigenvalues --    0.03272   0.03833   0.04326   0.05056   0.06101
 Alpha virt. eigenvalues --    0.06812   0.08431   0.10104   0.11256   0.12633
 Alpha virt. eigenvalues --    0.13367   0.14473   0.15287   0.15623   0.17451

 Mulliken charges:
               1
     1  Cl  -0.273140
     2  Cl  -0.257783
     3  B    0.508793
     4  P    3.332193
     5  O   -1.450179
     6  O   -1.305787
     7  H    0.361083
     8  O   -1.273005
     9  H    0.357826
 Sum of Mulliken charges =  -0.00000

 Dipole moment (field-independent basis, Debye):
    X=             -0.5327    Y=              0.4150    Z=             -2.2053  Tot=              2.3064

 Test job not archived.
 1\1\GINC-SE461\SP\RHF\Aug-CC-pVDZ\B1Cl2H2O3P1\OHZDE\08-Apr-2025\0\\#t
 hf aug-cc-pvdz iop(5/13=1,5/36=2,99/5=2) pseudo=read geom=check guess=
 (read,tcheck) scf=(maxcycle=1)\\title\\0,1\Cl,0,1.577743,-1.565622,0.0
 39394\Cl,0,1.72878,1.467208,-0.006427\B,0,0.791362,-0.001083,0.011837\
 P,0,-1.139111,0.036161,-0.126733\O,0,-1.606213,-0.133775,-1.512295\O,0
 ,-1.722687,-1.071317,0.893347\H,0,-1.919998,-1.90204,0.442722\O,0,-1.5
 09494,1.386029,0.642974\H,0,-2.453877,1.590584,0.646461\\Version=ES64L
 -G16RevC.01\State=1-A\HF=-1510.8157162\RMSD=1.174e-02\Dipole=-0.209572

 Normal termination of Gaussian 16 at Tue Apr  8 23:49:34 2025.
