 Gaussian 16, Revision C.01,

 ----------------------------------------------------------------------
 #t hf aug-cc-pvdz symm=none int=(grid=ultrafine) guess=(read,tcheck) s
 table=opt
 ----------------------------------------------------------------------
 -----
 title
 -----
 Symbolic Z-matrix:
 Charge =  0 Multiplicity = 2

 SCF Done:  E(UHF) =  -648.155513873     A.U. after   23 cycles
 Normal termination of Gaussian 16 at Tue Apr  8 23:09:49 2025.
 Gaussian 16:  ES64L-G16RevC.01  3-Jul-2019

 ----------------------------------------------------------------------
 #t hf aug-cc-pvdz iop(5/13=1,5/36=2,99/5=2) pseudo=read geom=check gue
 ss=(read,tcheck) scf=(maxcycle=1)
 ----------------------------------------------------------------------
 -----
 title
 -----
 Structure from the checkpoint file:  "BDE49_expt_621_mol2.chk"
 Charge =  0 Multiplicity = 2

                         Standard orientation:
 ---------------------------------------------------------------------
 Center     Atomic      Atomic             Coordinates (Angstroms)
 Number     Number       Type             X           Y           Z
 ---------------------------------------------------------------------
      1          6           0        0.020000    0.774972    0.260646
      2          8           0        1.165209    0.312018   -0.457817
      3          8           0        1.803397   -0.640222    0.201495
      4          1           0        0.235209    0.761580    1.325075
      5          1           0       -0.194675    1.764314   -0.133227
      6         17           0       -1.406434   -0.267653   -0.041479
 ---------------------------------------------------------------------

 SCF Done:  E(UHF) =  -648.411310084     A.U. after    2 cycles

 The electronic state is 2-A.
 Alpha  occ. eigenvalues -- -105.57934 -20.68843 -20.67530 -11.38701 -10.62794
 Alpha  occ. eigenvalues --   -7.79753  -7.79339  -7.79329  -1.71310  -1.30587
 Alpha  occ. eigenvalues --   -1.10210  -0.91966  -0.77330  -0.74252  -0.72503
 Alpha  occ. eigenvalues --   -0.62394  -0.61246  -0.52422  -0.49811  -0.47372
 Alpha  occ. eigenvalues --   -0.46846
 Alpha virt. eigenvalues --    0.03468   0.04893   0.07385   0.09556   0.12771
 Alpha virt. eigenvalues --    0.13803   0.14855   0.15808   0.15948   0.17661
 Alpha virt. eigenvalues --    0.20230   0.21291   0.23978   0.25381   0.27128

  Beta  occ. eigenvalues -- -105.57923 -20.66803 -20.64769 -11.38765 -10.62784
  Beta  occ. eigenvalues --   -7.79707  -7.79338  -7.79318  -1.65376  -1.21778
  Beta  occ. eigenvalues --   -1.09101  -0.91051  -0.73347  -0.71314  -0.65142
  Beta  occ. eigenvalues --   -0.60892  -0.52409  -0.49626  -0.46916  -0.46571
  Beta virt. eigenvalues --    0.03453   0.04828   0.07434   0.08445   0.09657
  Beta virt. eigenvalues --    0.13153   0.14127   0.14992   0.15948   0.16279
  Beta virt. eigenvalues --    0.17742   0.20377   0.21876   0.25610   0.26787

 Mulliken charges and spin densities:
               1          2
     1  C    0.353258  -0.023436
     2  O   -0.504799   0.056590
     3  O   -0.214200   0.960395
     4  H    0.263518  -0.003821
     5  H    0.164201   0.001124
     6  Cl  -0.061978   0.009147
 Sum of Mulliken charges =  -0.00000   1.00000

 Dipole moment (field-independent basis, Debye):
    X=             -0.1389    Y=              1.9341    Z=              1.0419  Tot=              2.2013
                          Isotropic Fermi Contact Couplings
        Atom                 a.u.       MegaHertz       Gauss      10(-4) cm-1
     1  C(13)             -0.01050     -11.80877      -4.21366      -3.93898
     2  O(17)              0.07463     -45.24071     -16.14301     -15.09068
     3  O(17)              0.26526    -160.79720     -57.37644     -53.63617
     4  H(1)               0.00027       1.21091       0.43208       0.40392
     5  H(1)              -0.00060      -2.70062      -0.96365      -0.90083
     6  Cl(35)            -0.00124      -0.54321      -0.19383      -0.18120
 --------------------------------------------------------
       Center         ----  Spin Dipole Couplings  ----

 Normal termination of Gaussian 16 at Tue Apr  8 23:09:52 2025.
