 Gaussian 16, Revision C.01,

 ----------------------------------------------------------------------
 #t hf aug-cc-pvdz symm=none int=(grid=ultrafine) guess=(read,tcheck) s
 table=(opt,rrhf)
 ----------------------------------------------------------------------
 -----
 title
 -----
 Symbolic Z-matrix:
 Charge =  0 Multiplicity = 1

 SCF Done:  E(RHF) =  -561.377471706     A.U. after   12 cycles
 Normal termination of Gaussian 16 at Wed Apr  9 00:03:28 2025.
 Gaussian 16:  ES64L-G16RevC.01  3-Jul-2019

 ----------------------------------------------------------------------
 #t hf aug-cc-pvdz iop(5/13=1,5/36=2,99/5=2) pseudo=read geom=check gue
 ss=(read,tcheck) scf=(maxcycle=1)
 ----------------------------------------------------------------------
 -----
 title
 -----
 Structure from the checkpoint file:  "BDE49_nonexpt_2171_mol1.chk"
 Charge =  0 Multiplicity = 1

                         Standard orientation:
 ---------------------------------------------------------------------
 Center     Atomic      Atomic             Coordinates (Angstroms)
 Number     Number       Type             X           Y           Z
 ---------------------------------------------------------------------
      1         14           0       -0.162434   -0.462390    0.005891
      2          8           0       -0.921945    0.779803   -0.798377
      3          6           0        1.346551    0.183667    0.937963
      4          6           0        0.321794   -1.671164   -1.336980
      5          1           0        0.870219   -2.523576   -0.923775
      6          1           0        0.955432   -1.194346   -2.089389
      7          1           0       -0.565633   -2.057245   -1.846264
      8          6           0       -1.335828   -1.266494    1.236320
      9          1           0       -0.855748   -2.120445    1.725329
     10          1           0       -2.239428   -1.633391    0.740372
     11          1           0       -1.644059   -0.572342    2.024386
     12          6           0        2.412949    0.875243    0.069417
     13          1           0        1.793634   -0.662205    1.476536
     14          1           0        1.001021    0.871198    1.721002
     15          1           0        2.832566    0.188039   -0.670746
     16          1           0        3.244477    1.251840    0.672665
     17          1           0        1.992444    1.722444   -0.479379
     18          6           0       -1.522837    1.921202   -0.213442
     19          1           0       -1.924727    2.543335   -1.015965
     20          1           0       -0.798243    2.518837    0.354115
     21          1           0       -2.348085    1.648169    0.455998
 ---------------------------------------------------------------------

 SCF Done:  E(RHF) =  -561.708811568     A.U. after    2 cycles

 The electronic state is 1-A.
 Alpha  occ. eigenvalues --  -69.52800 -20.52052 -11.28365 -11.22468 -11.20985
 Alpha  occ. eigenvalues --  -11.20699 -11.20350  -6.19485  -3.94946  -3.94798
 Alpha  occ. eigenvalues --   -3.94765  -1.42348  -1.02016  -0.96087  -0.93073
 Alpha  occ. eigenvalues --   -0.91707  -0.83982  -0.69092  -0.62819  -0.61895
 Alpha  occ. eigenvalues --   -0.60491  -0.58902  -0.57396  -0.55940  -0.54702
 Alpha  occ. eigenvalues --   -0.54251  -0.53449  -0.51080  -0.49472  -0.46769
 Alpha  occ. eigenvalues --   -0.46153  -0.42340  -0.40078
 Alpha virt. eigenvalues --    0.03403   0.03603   0.03828   0.03999   0.05966
 Alpha virt. eigenvalues --    0.06031   0.06127   0.06367   0.06512   0.08727
 Alpha virt. eigenvalues --    0.09039   0.09362   0.09384   0.10129   0.10937

 Mulliken charges:
               1
     1  Si   3.846533
     2  O   -2.050386
     3  C   -0.585814
     4  C   -0.650543
     5  H   -0.013294
     6  H   -0.027300
     7  H   -0.048490
     8  C   -0.635266
     9  H    0.022711
    10  H   -0.063291
    11  H   -0.065110
    12  C   -0.461748
    13  H    0.008348
    14  H   -0.058563
    15  H    0.132825
    16  H    0.104890
    17  H    0.107042
    18  C    0.253383
    19  H   -0.051323
    20  H    0.120498
    21  H    0.114897
 Sum of Mulliken charges =  -0.00000

 Dipole moment (field-independent basis, Debye):
    X=             -0.0153    Y=              0.1555    Z=              1.0720  Tot=              1.0833

 Test job not archived.
 1\1\GINC-SE069\SP\RHF\Aug-CC-pVDZ\C5H14O1Si1\OHZDE\09-Apr-2025\0\\#t h
 f aug-cc-pvdz iop(5/13=1,5/36=2,99/5=2) pseudo=read geom=check guess=(
 read,tcheck) scf=(maxcycle=1)\\title\\0,1\Si,0,-0.162434,-0.46239,0.00
 5891\O,0,-0.921945,0.779803,-0.798377\C,0,1.346551,0.183666,0.937963\C
 ,0,0.321793,-1.671164,-1.33698\H,0,0.870218,-2.523576,-0.923775\H,0,0.
 955431,-1.194346,-2.089389\H,0,-0.565634,-2.057245,-1.846264\C,0,-1.33
 5829,-1.266493,1.23632\H,0,-0.855749,-2.120445,1.725329\H,0,-2.239429,
 -1.63339,0.740372\H,0,-1.644059,-0.572341,2.024386\C,0,2.412949,0.8752

 Normal termination of Gaussian 16 at Wed Apr  9 00:03:38 2025.
