 Gaussian 16, Revision C.01,

 ----------------------------------------------------------------------
 #t hf aug-cc-pvdz symm=none int=(grid=ultrafine) guess=(read,tcheck) s
 table=(opt,rrhf)
 ----------------------------------------------------------------------
 -----
 title
 -----
 Symbolic Z-matrix:
 Charge =  0 Multiplicity = 1

 SCF Done:  E(RHF) =  -382.515065320     A.U. after   16 cycles
 Normal termination of Gaussian 16 at Tue Apr  8 23:01:33 2025.
 Gaussian 16:  ES64L-G16RevC.01  3-Jul-2019

 ----------------------------------------------------------------------
 #t hf aug-cc-pvdz iop(5/13=1,5/36=2,99/5=2) pseudo=read geom=check gue
 ss=(read,tcheck) scf=(maxcycle=1)
 ----------------------------------------------------------------------
 -----
 title
 -----
 Structure from the checkpoint file:  "BDE49_expt_207_mol1.chk"
 Charge =  0 Multiplicity = 1

                         Standard orientation:
 ---------------------------------------------------------------------
 Center     Atomic      Atomic             Coordinates (Angstroms)
 Number     Number       Type             X           Y           Z
 ---------------------------------------------------------------------
      1          6           0        2.515950    0.365918    0.000000
      2          8           0        3.308095   -0.548769    0.000002
      3          6           0        1.045448    0.212993   -0.000001
      4          1           0        2.867338    1.421298    0.000003
      5          6           0        0.460946   -1.061171   -0.000001
      6          6           0       -0.917280   -1.192901   -0.000001
      7          6           0       -1.752777   -0.063271   -0.000001
      8          6           0       -1.161388    1.203105   -0.000001
      9          6           0        0.223339    1.341510   -0.000001
     10          1           0        1.110904   -1.928361   -0.000001
     11          1           0       -1.362844   -2.182627   -0.000001
     12          1           0        0.670935    2.330867   -0.000001
     13          6           0       -3.252048   -0.225133    0.000001
     14          1           0       -1.791335    2.086204   -0.000002
     15          1           0       -3.759320    0.741054   -0.000024
     16          1           0       -3.586789   -0.782270    0.880407
     17          1           0       -3.586787   -0.782316   -0.880375
 ---------------------------------------------------------------------

 SCF Done:  E(RHF) =  -382.905799396     A.U. after    2 cycles

 The electronic state is 1-A.
 Alpha  occ. eigenvalues --  -20.54037 -11.34168 -11.27146 -11.26676 -11.25930
 Alpha  occ. eigenvalues --  -11.25239 -11.25203 -11.25097 -11.24873  -1.47030
 Alpha  occ. eigenvalues --   -1.17599  -1.07444  -1.03318  -0.97188  -0.87276
 Alpha  occ. eigenvalues --   -0.85398  -0.79647  -0.71816  -0.68331  -0.65819
 Alpha  occ. eigenvalues --   -0.62998  -0.61659  -0.61269  -0.59708  -0.56099
 Alpha  occ. eigenvalues --   -0.55281  -0.53113  -0.51152  -0.49572  -0.42065
 Alpha  occ. eigenvalues --   -0.36162  -0.34944
 Alpha virt. eigenvalues --    0.02997   0.03101   0.03860   0.04658   0.04841
 Alpha virt. eigenvalues --    0.05904   0.06424   0.07512   0.08195   0.08771
 Alpha virt. eigenvalues --    0.09636   0.09961   0.11824   0.12775   0.13356

 Mulliken charges:
               1
     1  C    0.733650
     2  O   -1.321978
     3  C    1.338409
     4  H   -0.044134
     5  C   -0.191610
     6  C    0.419115
     7  C    0.201471
     8  C    0.163819
     9  C    0.040957
    10  H   -0.313042
    11  H   -0.296081
    12  H   -0.306043
    13  C   -0.658680
    14  H   -0.300285
    15  H    0.056676
    16  H    0.238885
    17  H    0.238872
 Sum of Mulliken charges =  -0.00000

 Dipole moment (field-independent basis, Debye):
    X=             -3.7403    Y=              1.5624    Z=              0.0000  Tot=              4.0535

 Test job not archived.
 1\1\GINC-SE403\SP\RHF\Aug-CC-pVDZ\C8H8O1\OHZDE\08-Apr-2025\0\\#t hf au
 g-cc-pvdz iop(5/13=1,5/36=2,99/5=2) pseudo=read geom=check guess=(read
 ,tcheck) scf=(maxcycle=1)\\title\\0,1\C,0,2.51595,0.365918,0.\O,0,3.30
 8095,-0.548769,0.000002\C,0,1.045448,0.212993,-0.000001\H,0,2.867338,1
 .421298,0.000003\C,0,0.460946,-1.061171,-0.000001\C,0,-0.91728,-1.1929
 01,-0.000001\C,0,-1.752777,-0.063271,-0.000001\C,0,-1.161388,1.203105,
 -0.000001\C,0,0.223339,1.34151,-0.000001\H,0,1.110904,-1.928361,-0.000
 001\H,0,-1.362844,-2.182627,-0.000001\H,0,0.670935,2.330867,-0.000001\

 Normal termination of Gaussian 16 at Tue Apr  8 23:01:41 2025.
