 Gaussian 16, Revision C.01,

 ----------------------------------------------------------------------
 #t hf aug-cc-pvdz symm=none int=(grid=ultrafine) guess=(read,tcheck) s
 table=(opt,rrhf)
 ----------------------------------------------------------------------
 -----
 title
 -----
 Symbolic Z-matrix:
 Charge =  0 Multiplicity = 1

 SCF Done:  E(RHF) =  -1467.50845642     A.U. after   12 cycles
 Normal termination of Gaussian 16 at Wed Apr  9 00:25:58 2025.
 Gaussian 16:  ES64L-G16RevC.01  3-Jul-2019

 ----------------------------------------------------------------------
 #t hf aug-cc-pvdz iop(5/13=1,5/36=2,99/5=2) pseudo=read geom=check gue
 ss=(read,tcheck) scf=(maxcycle=1)
 ----------------------------------------------------------------------
 -----
 title
 -----
 Structure from the checkpoint file:  "BDE49_nonexpt_2738_mol1.chk"
 Charge =  0 Multiplicity = 1

                         Standard orientation:
 ---------------------------------------------------------------------
 Center     Atomic      Atomic             Coordinates (Angstroms)
 Number     Number       Type             X           Y           Z
 ---------------------------------------------------------------------
      1          6           0        0.990654    1.663139    0.234709
      2         16           0        0.990654    0.289161   -0.992260
      3          9           0        2.234355    2.169304    0.208321
      4          9           0        0.720920    1.259575    1.477889
      5          9           0        0.127143    2.633430   -0.078665
      6         16           0       -0.990654   -0.289161   -0.992260
      7          6           0       -0.990654   -1.663139    0.234709
      8          9           0       -2.234355   -2.169304    0.208321
      9          9           0       -0.720920   -1.259575    1.477889
     10          9           0       -0.127143   -2.633430   -0.078665
 ---------------------------------------------------------------------

 SCF Done:  E(RHF) =  -1468.23598223     A.U. after    2 cycles

 The electronic state is 1-A.
 Alpha  occ. eigenvalues --  -94.03919 -94.03911 -26.53635 -26.53635 -26.53332
 Alpha  occ. eigenvalues --  -26.53332 -26.53195 -26.53194 -11.56877 -11.56874
 Alpha  occ. eigenvalues --   -8.31937  -8.31916  -6.29696  -6.29656  -6.29488
 Alpha  occ. eigenvalues --   -6.29475  -6.29220  -6.29220  -1.74598  -1.74549
 Alpha  occ. eigenvalues --   -1.64491  -1.64404  -1.64191  -1.64066  -1.17111
 Alpha  occ. eigenvalues --   -1.05415  -0.96476  -0.92348  -0.84294  -0.83908
 Alpha  occ. eigenvalues --   -0.83888  -0.83663  -0.82014  -0.76650  -0.71455
 Alpha  occ. eigenvalues --   -0.71239  -0.71208  -0.70844  -0.67123  -0.66586
 Alpha  occ. eigenvalues --   -0.66442  -0.65781  -0.64587  -0.64523  -0.58470
 Alpha  occ. eigenvalues --   -0.55995  -0.52964  -0.44141  -0.43725
 Alpha virt. eigenvalues --    0.04891   0.06353   0.07784   0.08363   0.08372
 Alpha virt. eigenvalues --    0.10092   0.10546   0.10767   0.11219   0.12359
 Alpha virt. eigenvalues --    0.13314   0.13971   0.15202   0.15931   0.18458

 Mulliken charges:
               1
     1  C    1.807506
     2  S    0.163646
     3  F   -0.645849
     4  F   -0.679185
     5  F   -0.646118
     6  S    0.163646
     7  C    1.807506
     8  F   -0.645849
     9  F   -0.679185
    10  F   -0.646118
 Sum of Mulliken charges =  -0.00000

 Dipole moment (field-independent basis, Debye):
    X=              0.0000    Y=              0.0000    Z=             -0.8412  Tot=              0.8412

 Test job not archived.
 1\1\GINC-SE455\SP\RHF\Aug-CC-pVDZ\C2F6S2\OHZDE\09-Apr-2025\0\\#t hf au
 g-cc-pvdz iop(5/13=1,5/36=2,99/5=2) pseudo=read geom=check guess=(read
 ,tcheck) scf=(maxcycle=1)\\title\\0,1\C,0,0.990654,1.663139,0.234709\S
 ,0,0.990654,0.289161,-0.99226\F,0,2.234355,2.169304,0.208321\F,0,0.720
 92,1.259575,1.477889\F,0,0.127143,2.63343,-0.078665\S,0,-0.990654,-0.2
 89161,-0.99226\C,0,-0.990654,-1.663139,0.234709\F,0,-2.234355,-2.16930
 4,0.208321\F,0,-0.72092,-1.259575,1.477889\F,0,-0.127143,-2.63343,-0.0
 78665\\Version=ES64L-G16RevC.01\State=1-A\HF=-1468.2359822\RMSD=2.598e

 Normal termination of Gaussian 16 at Wed Apr  9 00:26:03 2025.
