 Gaussian 16, Revision C.01,

 ----------------------------------------------------------------------
 #t hf aug-cc-pvdz symm=none int=(grid=ultrafine) guess=(read,tcheck) s
 table=(opt,rrhf)
 ----------------------------------------------------------------------
 -----
 title
 -----
 Symbolic Z-matrix:
 Charge =  0 Multiplicity = 1

 SCF Done:  E(RHF) =  -554.847876266     A.U. after   12 cycles

 1\1\GINC-SE273\Stability\RHF\Aug-CC-pVDZ\C4H10S1\OHZDE\08-Apr-2025\0\\
 #t hf aug-cc-pvdz symm=none int=(grid=ultrafine) guess=(read,tcheck) s
 table=(opt,rrhf)\\title\\0,1\S,0,1.386919,-1.866802,0.\C,0,-0.234368,-
 0.986188,0.\C,0,0.,0.524846,0.\H,0,0.894785,-3.117333,0.\H,0,-0.796266
 ,-1.283467,0.887561\C,0,-1.311125,1.322151,0.\H,0,0.594718,0.800166,-0
 .878506\H,0,0.594718,0.800166,0.878506\C,0,-1.086102,2.83691,0.\H,0,-1
 .905976,1.040908,0.877061\H,0,-1.905976,1.040908,-0.877061\H,0,-0.5226
 02,3.153039,0.883104\H,0,-2.035662,3.378565,0.\H,0,-0.522602,3.153039,

 Normal termination of Gaussian 16 at Tue Apr  8 22:45:46 2025.
 Gaussian 16:  ES64L-G16RevC.01  3-Jul-2019

 ----------------------------------------------------------------------
 #t hf aug-cc-pvdz iop(5/13=1,5/36=2,99/5=2) pseudo=read geom=check gue
 ss=(read,tcheck) scf=(maxcycle=1)
 ----------------------------------------------------------------------
 -----
 title
 -----
 Structure from the checkpoint file:  "BDE49_expt_1549_mol1.chk"
 Charge =  0 Multiplicity = 1

                         Standard orientation:
 ---------------------------------------------------------------------
 Center     Atomic      Atomic             Coordinates (Angstroms)
 Number     Number       Type             X           Y           Z
 ---------------------------------------------------------------------
      1         16           0        1.386919   -1.866802    0.000000
      2          6           0       -0.234368   -0.986188    0.000000
      3          6           0        0.000000    0.524846    0.000000
      4          1           0        0.894784   -3.117333    0.000000
      5          1           0       -0.796266   -1.283467    0.887561
      6          6           0       -1.311125    1.322151    0.000000
      7          1           0        0.594718    0.800166   -0.878506
      8          1           0        0.594718    0.800166    0.878506
      9          6           0       -1.086102    2.836910    0.000000
     10          1           0       -1.905976    1.040908    0.877061
     11          1           0       -1.905976    1.040908   -0.877061
     12          1           0       -0.522601    3.153039    0.883104
     13          1           0       -2.035661    3.378565    0.000000
     14          1           0       -0.522601    3.153039   -0.883104
     15          1           0       -0.796266   -1.283467   -0.887561
 ---------------------------------------------------------------------

 SCF Done:  E(RHF) =  -555.086128042     A.U. after    2 cycles

 The electronic state is 1-A'.
 Alpha  occ. eigenvalues --  -93.94391 -11.26985 -11.23867 -11.23591 -11.22806
 Alpha  occ. eigenvalues --   -8.22456  -6.20310  -6.20166  -6.19937  -1.10136
 Alpha  occ. eigenvalues --   -1.03547  -0.94719  -0.84506  -0.80319  -0.66337
 Alpha  occ. eigenvalues --   -0.61561  -0.59868  -0.57515  -0.55508  -0.52257
 Alpha  occ. eigenvalues --   -0.49354  -0.48079  -0.47980  -0.45202  -0.36068
 Alpha virt. eigenvalues --    0.03554   0.03640   0.04067   0.04383   0.05750
 Alpha virt. eigenvalues --    0.06484   0.06998   0.07517   0.08893   0.10161
 Alpha virt. eigenvalues --    0.10553   0.10996   0.13748   0.14636   0.15476

 Mulliken charges:
               1
     1  S    0.079930
     2  C   -0.559607
     3  C   -0.257091
     4  H    0.308204
     5  H    0.109579
     6  C   -0.353626
     7  H    0.141841
     8  H    0.141841
     9  C   -0.392552
    10  H    0.115406
    11  H    0.115406
    12  H    0.160006
    13  H    0.121078
    14  H    0.160006
    15  H    0.109579
 Sum of Mulliken charges =  -0.00000

 Dipole moment (field-independent basis, Debye):
    X=             -1.8979    Y=              0.3167    Z=             -0.0000  Tot=              1.9241

 Test job not archived.
 1\1\GINC-SE273\SP\RHF\Aug-CC-pVDZ\C4H10S1\OHZDE\08-Apr-2025\0\\#t hf a
 ug-cc-pvdz iop(5/13=1,5/36=2,99/5=2) pseudo=read geom=check guess=(rea
 d,tcheck) scf=(maxcycle=1)\\title\\0,1\S,0,1.386919,-1.866802,0.\C,0,-
 0.234368,-0.986188,0.\C,0,0.,0.524846,0.\H,0,0.894785,-3.117333,0.\H,0
 ,-0.796266,-1.283467,0.887561\C,0,-1.311125,1.322151,0.\H,0,0.594718,0
 .800166,-0.878506\H,0,0.594718,0.800166,0.878506\C,0,-1.086102,2.83691
 ,0.\H,0,-1.905976,1.040908,0.877061\H,0,-1.905976,1.040908,-0.877061\H
 ,0,-0.522602,3.153039,0.883104\H,0,-2.035662,3.378565,0.\H,0,-0.522602

 Normal termination of Gaussian 16 at Tue Apr  8 22:45:50 2025.
