 Gaussian 16, Revision C.01,

 ----------------------------------------------------------------------
 #t hf aug-cc-pvdz symm=none int=(grid=ultrafine) guess=(read,tcheck) s
 table=(opt,rrhf)
 ----------------------------------------------------------------------
 -----
 title
 -----
 Symbolic Z-matrix:
 Charge =  0 Multiplicity = 1

 SCF Done:  E(RHF) =  -710.663935902     A.U. after   12 cycles
 Normal termination of Gaussian 16 at Tue Apr  8 23:42:02 2025.
 Gaussian 16:  ES64L-G16RevC.01  3-Jul-2019

 ----------------------------------------------------------------------
 #t hf aug-cc-pvdz iop(5/13=1,5/36=2,99/5=2) pseudo=read geom=check gue
 ss=(read,tcheck) scf=(maxcycle=1)
 ----------------------------------------------------------------------
 -----
 title
 -----
 Structure from the checkpoint file:  "BDE49_nonexpt_1666_mol1.chk"
 Charge =  0 Multiplicity = 1

                         Standard orientation:
 ---------------------------------------------------------------------
 Center     Atomic      Atomic             Coordinates (Angstroms)
 Number     Number       Type             X           Y           Z
 ---------------------------------------------------------------------
      1         14           0        0.864770    0.616886   -0.031562
      2         15           0       -0.944381   -0.763002   -0.141430
      3          6           0       -2.324767    0.486834    0.087054
      4          1           0       -3.258420   -0.051033    0.263851
      5          1           0       -2.438118    1.053194   -0.839768
      6          1           0       -2.156761    1.184557    0.908469
      7          6           0        2.453248   -0.387273    0.064278
      8          1           0        2.479801   -0.995734    0.972137
      9          1           0        3.324553    0.273426    0.076079
     10          1           0        2.545653   -1.055798   -0.795360
     11          1           0       -0.835748   -1.185917    1.210886
     12          1           0        0.774330    1.546475    1.125776
     13          1           0        0.852757    1.442101   -1.266746
 ---------------------------------------------------------------------

 SCF Done:  E(RHF) =  -710.837769137     A.U. after    2 cycles

 The electronic state is 1-A.
 Alpha  occ. eigenvalues --  -84.25622 -69.52988 -11.24248 -11.22290  -6.72849
 Alpha  occ. eigenvalues --   -6.20018  -4.25184  -4.25053  -4.24504  -3.95359
 Alpha  occ. eigenvalues --   -3.95330  -3.95322  -0.98462  -0.95643  -0.80280
 Alpha  occ. eigenvalues --   -0.68640  -0.58458  -0.57719  -0.57133  -0.56676
 Alpha  occ. eigenvalues --   -0.48722  -0.47669  -0.45752  -0.40801  -0.32232
 Alpha virt. eigenvalues --    0.03712   0.03840   0.04455   0.05044   0.06041
 Alpha virt. eigenvalues --    0.06581   0.06905   0.07951   0.08668   0.09411
 Alpha virt. eigenvalues --    0.10131   0.10671   0.11992   0.13365   0.14037

 Mulliken charges:
               1
     1  Si   1.423970
     2  P   -0.396374
     3  C   -0.749179
     4  H    0.079882
     5  H    0.115955
     6  H    0.085203
     7  C   -0.647019
     8  H    0.092945
     9  H   -0.048997
    10  H    0.075476
    11  H    0.390852
    12  H   -0.197832
    13  H   -0.224882
 Sum of Mulliken charges =  -0.00000

 Dipole moment (field-independent basis, Debye):
    X=              0.0490    Y=              0.2479    Z=              0.4539  Tot=              0.5195

 Test job not archived.
 1\1\GINC-SE016\SP\RHF\Aug-CC-pVDZ\C2H9P1Si1\OHZDE\08-Apr-2025\0\\#t hf
  aug-cc-pvdz iop(5/13=1,5/36=2,99/5=2) pseudo=read geom=check guess=(r
 ead,tcheck) scf=(maxcycle=1)\\title\\0,1\Si,0,0.86477,0.616886,-0.0315
 62\P,0,-0.944381,-0.763002,-0.14143\C,0,-2.324767,0.486834,0.087054\H,
 0,-3.25842,-0.051033,0.263851\H,0,-2.438118,1.053194,-0.839768\H,0,-2.
 156761,1.184557,0.908469\C,0,2.453248,-0.387273,0.064278\H,0,2.479801,
 -0.995734,0.972137\H,0,3.324553,0.273426,0.076079\H,0,2.545653,-1.0557
 98,-0.79536\H,0,-0.835748,-1.185917,1.210886\H,0,0.77433,1.546475,1.12

 Normal termination of Gaussian 16 at Tue Apr  8 23:42:05 2025.
