 Gaussian 16, Revision C.01,

 ----------------------------------------------------------------------
 #t hf aug-cc-pvdz symm=none int=(grid=ultrafine) guess=(read,tcheck) s
 table=(opt,rrhf)
 ----------------------------------------------------------------------
 -----
 title
 -----
 Symbolic Z-matrix:
 Charge =  0 Multiplicity = 1

 SCF Done:  E(RHF) =  -554.848474483     A.U. after   12 cycles

 1\1\GINC-SE132\Stability\RHF\Aug-CC-pVDZ\C4H10S1\OHZDE\08-Apr-2025\0\\
 #t hf aug-cc-pvdz symm=none int=(grid=ultrafine) guess=(read,tcheck) s
 table=(opt,rrhf)\\title\\0,1\C,0,-3.019064,-0.407732,-0.031372\C,0,-1.
 794186,0.509576,0.031146\H,0,-3.024261,-0.997656,-0.952873\H,0,-3.9481
 58,0.167425,0.000599\H,0,-3.03222,-1.107744,0.809623\C,0,-0.467592,-0.
 261352,-0.015463\H,0,-1.834241,1.110708,0.94738\H,0,-1.827882,1.221117
 ,-0.802549\C,0,0.750746,0.658316,0.055318\H,0,-0.414498,-0.856647,-0.9
 32915\H,0,-0.432074,-0.974461,0.81676\H,0,0.747416,1.25332,0.970992\H,

 Normal termination of Gaussian 16 at Tue Apr  8 23:14:05 2025.
 Gaussian 16:  ES64L-G16RevC.01  3-Jul-2019

 ----------------------------------------------------------------------
 #t hf aug-cc-pvdz iop(5/13=1,5/36=2,99/5=2) pseudo=read geom=check gue
 ss=(read,tcheck) scf=(maxcycle=1)
 ----------------------------------------------------------------------
 -----
 title
 -----
 Structure from the checkpoint file:  "BDE49_expt_830_mol1.chk"
 Charge =  0 Multiplicity = 1

                         Standard orientation:
 ---------------------------------------------------------------------
 Center     Atomic      Atomic             Coordinates (Angstroms)
 Number     Number       Type             X           Y           Z
 ---------------------------------------------------------------------
      1          6           0       -3.019064   -0.407732   -0.031372
      2          6           0       -1.794186    0.509576    0.031146
      3          1           0       -3.024261   -0.997656   -0.952873
      4          1           0       -3.948158    0.167425    0.000599
      5          1           0       -3.032220   -1.107744    0.809623
      6          6           0       -0.467592   -0.261352   -0.015463
      7          1           0       -1.834241    1.110708    0.947380
      8          1           0       -1.827882    1.221117   -0.802549
      9          6           0        0.750746    0.658316    0.055318
     10          1           0       -0.414498   -0.856647   -0.932915
     11          1           0       -0.432074   -0.974461    0.816760
     12          1           0        0.747416    1.253320    0.970992
     13          1           0        0.752839    1.358954   -0.784029
     14         16           0        2.370656   -0.202257   -0.084408
     15          1           0        2.263163   -0.931746    1.039772
 ---------------------------------------------------------------------

 SCF Done:  E(RHF) =  -555.086755902     A.U. after    2 cycles

 The electronic state is 1-A.
 Alpha  occ. eigenvalues --  -93.94473 -11.27055 -11.23740 -11.23567 -11.22850
 Alpha  occ. eigenvalues --   -8.22532  -6.20386  -6.20238  -6.20016  -1.10088
 Alpha  occ. eigenvalues --   -1.03648  -0.94688  -0.84687  -0.80494  -0.66484
 Alpha  occ. eigenvalues --   -0.60841  -0.60451  -0.57503  -0.53501  -0.52567
 Alpha  occ. eigenvalues --   -0.50782  -0.48906  -0.48004  -0.44636  -0.36104
 Alpha virt. eigenvalues --    0.03603   0.03690   0.03885   0.04462   0.06083
 Alpha virt. eigenvalues --    0.06489   0.06807   0.07354   0.09042   0.10065
 Alpha virt. eigenvalues --    0.10754   0.11323   0.13674   0.14488   0.14920

 Mulliken charges:
               1
     1  C   -0.377393
     2  C   -0.303103
     3  H    0.161200
     4  H    0.121754
     5  H    0.160643
     6  C   -0.249816
     7  H    0.116032
     8  H    0.119666
     9  C   -0.788300
    10  H    0.160885
    11  H    0.130050
    12  H    0.151576
    13  H    0.207943
    14  S    0.081863
    15  H    0.307000
 Sum of Mulliken charges =   0.00000

 Dipole moment (field-independent basis, Debye):
    X=             -1.8061    Y=              0.3058    Z=              0.7669  Tot=              1.9859

 Test job not archived.
 1\1\GINC-SE132\SP\RHF\Aug-CC-pVDZ\C4H10S1\OHZDE\08-Apr-2025\0\\#t hf a
 ug-cc-pvdz iop(5/13=1,5/36=2,99/5=2) pseudo=read geom=check guess=(rea
 d,tcheck) scf=(maxcycle=1)\\title\\0,1\C,0,-3.019064,-0.407732,-0.0313
 72\C,0,-1.794186,0.509576,0.031146\H,0,-3.024261,-0.997656,-0.952873\H
 ,0,-3.948158,0.167425,0.000599\H,0,-3.03222,-1.107744,0.809623\C,0,-0.
 467592,-0.261352,-0.015463\H,0,-1.834241,1.110708,0.94738\H,0,-1.82788
 2,1.221117,-0.802549\C,0,0.750746,0.658316,0.055318\H,0,-0.414498,-0.8
 56647,-0.932915\H,0,-0.432074,-0.974461,0.81676\H,0,0.747416,1.25332,0

 Normal termination of Gaussian 16 at Tue Apr  8 23:14:10 2025.
