 Gaussian 16, Revision C.01,

 ----------------------------------------------------------------------
 #t hf aug-cc-pvdz symm=none int=(grid=ultrafine) guess=(read,tcheck) s
 table=(opt,rrhf)
 ----------------------------------------------------------------------
 -----
 title
 -----
 Symbolic Z-matrix:
 Charge =  0 Multiplicity = 1

 SCF Done:  E(RHF) =  -362.077081840     A.U. after   14 cycles
 Normal termination of Gaussian 16 at Wed Apr  9 00:38:59 2025.
 Gaussian 16:  ES64L-G16RevC.01  3-Jul-2019

 ----------------------------------------------------------------------
 #t hf aug-cc-pvdz iop(5/13=1,5/36=2,99/5=2) pseudo=read geom=check gue
 ss=(read,tcheck) scf=(maxcycle=1)
 ----------------------------------------------------------------------
 -----
 title
 -----
 Structure from the checkpoint file:  "BDE49_nonexpt_610_mol1.chk"
 Charge =  0 Multiplicity = 1

                         Standard orientation:
 ---------------------------------------------------------------------
 Center     Atomic      Atomic             Coordinates (Angstroms)
 Number     Number       Type             X           Y           Z
 ---------------------------------------------------------------------
      1          6           0        1.824465    0.072094    0.000005
      2          7           0        0.488919   -0.320501   -0.000008
      3          6           0       -0.567481    0.577239   -0.000019
      4          5           0       -2.255940   -1.355925    0.000004
      5          8           0        2.729884   -0.721663    0.000017
      6          1           0        1.940926    1.164168    0.000006
      7          8           0       -0.426697    1.777631    0.000000
      8          1           0        0.310871   -1.316357   -0.000006
      9          7           0       -1.849505   -0.010548   -0.000003
     10          1           0       -1.449408   -2.230382   -0.000010
     11          1           0       -3.419328   -1.589096    0.000010
     12          1           0       -2.546656    0.724892    0.000004
 ---------------------------------------------------------------------

 SCF Done:  E(RHF) =  -362.434869831     A.U. after    2 cycles

 The electronic state is 1-A.
 Alpha  occ. eigenvalues --  -20.55049 -20.54740 -15.57065 -15.55473 -11.43047
 Alpha  occ. eigenvalues --  -11.38682  -7.63583  -1.51236  -1.49324  -1.29391
 Alpha  occ. eigenvalues --   -1.23638  -0.95466  -0.87680  -0.84700  -0.77101
 Alpha  occ. eigenvalues --   -0.72045  -0.67628  -0.67615  -0.65215  -0.62213
 Alpha  occ. eigenvalues --   -0.58331  -0.53019  -0.49825  -0.49246  -0.46038
 Alpha  occ. eigenvalues --   -0.45181
 Alpha virt. eigenvalues --    0.03082   0.03190   0.03814   0.04242   0.05635
 Alpha virt. eigenvalues --    0.07905   0.08461   0.08754   0.09194   0.10550
 Alpha virt. eigenvalues --    0.11529   0.12635   0.12746   0.13474   0.13758

 Mulliken charges:
               1
     1  C    0.772695
     2  N    0.678583
     3  C   -0.004690
     4  B   -0.696037
     5  O   -1.083696
     6  H    0.096982
     7  O   -1.147083
     8  H    0.039360
     9  N    0.596121
    10  H    0.218813
    11  H    0.330733
    12  H    0.198220
 Sum of Mulliken charges =  -0.00000

 Dipole moment (field-independent basis, Debye):
    X=             -3.3038    Y=             -0.9474    Z=             -0.0000  Tot=              3.4369

 Test job not archived.
 1\1\GINC-SE339\SP\RHF\Aug-CC-pVDZ\C2H5B1N2O2\OHZDE\09-Apr-2025\0\\#t h
 f aug-cc-pvdz iop(5/13=1,5/36=2,99/5=2) pseudo=read geom=check guess=(
 read,tcheck) scf=(maxcycle=1)\\title\\0,1\C,0,1.824465,0.072094,0.0000
 05\N,0,0.488919,-0.320501,-0.000008\C,0,-0.567481,0.577239,-0.000019\B
 ,0,-2.25594,-1.355925,0.000004\O,0,2.729884,-0.721663,0.000017\H,0,1.9
 40926,1.164168,0.000006\O,0,-0.426697,1.777631,0.\H,0,0.310871,-1.3163
 57,-0.000006\N,0,-1.849505,-0.010548,-0.000003\H,0,-1.449408,-2.230382
 ,-0.00001\H,0,-3.419328,-1.589096,0.00001\H,0,-2.546656,0.724892,0.000

 Normal termination of Gaussian 16 at Wed Apr  9 00:39:03 2025.
