 Gaussian 16, Revision C.01,

 ----------------------------------------------------------------------
 #t hf aug-cc-pvdz symm=none int=(grid=ultrafine) guess=(read,tcheck) s
 table=opt
 ----------------------------------------------------------------------
 -----
 title
 -----
 Symbolic Z-matrix:
 Charge =  0 Multiplicity = 2

 SCF Done:  E(UHF) =  -464.463290641     A.U. after   16 cycles
 Normal termination of Gaussian 16 at Tue Apr  8 23:19:49 2025.
 Gaussian 16:  ES64L-G16RevC.01  3-Jul-2019

 ----------------------------------------------------------------------
 #t hf aug-cc-pvdz iop(5/13=1,5/36=2,99/5=2) pseudo=read geom=check gue
 ss=(read,tcheck) scf=(maxcycle=1)
 ----------------------------------------------------------------------
 -----
 title
 -----
 Structure from the checkpoint file:  "BDE49_nonexpt_1112_mol2.chk"
 Charge =  0 Multiplicity = 2

                         Standard orientation:
 ---------------------------------------------------------------------
 Center     Atomic      Atomic             Coordinates (Angstroms)
 Number     Number       Type             X           Y           Z
 ---------------------------------------------------------------------
      1          8           0        1.410073   -0.499391   -0.000034
      2         14           0        0.035752    0.398181    0.000012
      3          9           0       -1.326652   -0.439337    0.000003
      4          1           0        0.079421    1.187264    1.247832
      5          1           0        0.079332    1.187365   -1.247751
 ---------------------------------------------------------------------

 SCF Done:  E(UHF) =  -464.653570052     A.U. after    2 cycles

 The electronic state is 2-A.
 Alpha  occ. eigenvalues --  -69.62225 -26.46894 -20.63339  -6.28615  -4.04102
 Alpha  occ. eigenvalues --   -4.03947  -4.03794  -1.58291  -1.48263  -0.78926
 Alpha  occ. eigenvalues --   -0.69402  -0.67335  -0.66626  -0.65021  -0.58388
 Alpha  occ. eigenvalues --   -0.55528  -0.50628
 Alpha virt. eigenvalues --    0.04461   0.05159   0.05547   0.05691   0.09029
 Alpha virt. eigenvalues --    0.12780   0.15318   0.17304   0.20909   0.21616
 Alpha virt. eigenvalues --    0.21821   0.22754   0.23837   0.27750   0.28215

  Beta  occ. eigenvalues --  -69.62293 -26.46930 -20.59529  -6.28717  -4.04217
  Beta  occ. eigenvalues --   -4.04035  -4.03910  -1.58337  -1.32879  -0.78125
  Beta  occ. eigenvalues --   -0.66587  -0.66503  -0.65330  -0.55360  -0.51676
  Beta  occ. eigenvalues --   -0.51576
  Beta virt. eigenvalues --    0.02739   0.04478   0.05205   0.05597   0.05971
  Beta virt. eigenvalues --    0.09525   0.12856   0.15352   0.17454   0.20999
  Beta virt. eigenvalues --    0.21732   0.23146   0.23577   0.27290   0.28202

 Mulliken charges and spin densities:
               1          2
     1  O   -0.848876   1.038530
     2  Si   2.138343  -0.120130
     3  F   -0.807316  -0.002723
     4  H   -0.241076   0.042163
     5  H   -0.241076   0.042159
 Sum of Mulliken charges =   0.00000   1.00000

 Dipole moment (field-independent basis, Debye):
    X=             -0.0705    Y=              1.4460    Z=              0.0000  Tot=              1.4477
                          Isotropic Fermi Contact Couplings
        Atom                 a.u.       MegaHertz       Gauss      10(-4) cm-1
     1  O(17)              0.20719    -125.59518     -44.81548     -41.89404
     2  Si(29)            -0.08525      75.76679      27.03547      25.27308
     3  F(19)             -0.00735     -30.92842     -11.03603     -10.31661
     4  H(1)               0.01205      53.85869      19.21812      17.96532
     5  H(1)               0.01205      53.85391      19.21641      17.96373
 --------------------------------------------------------
       Center         ----  Spin Dipole Couplings  ----
                      3XX-RR        3YY-RR        3ZZ-RR

 Normal termination of Gaussian 16 at Tue Apr  8 23:19:51 2025.
