 Gaussian 16, Revision C.01,

 ----------------------------------------------------------------------
 #t hf aug-cc-pvdz symm=none int=(grid=ultrafine) guess=(read,tcheck) s
 table=(opt,rrhf)
 ----------------------------------------------------------------------
 -----
 title
 -----
 Symbolic Z-matrix:
 Charge =  0 Multiplicity = 1

 SCF Done:  E(RHF) =  -1193.76553956     A.U. after   12 cycles
 Normal termination of Gaussian 16 at Tue Apr  8 23:13:46 2025.
 Gaussian 16:  ES64L-G16RevC.01  3-Jul-2019

 ----------------------------------------------------------------------
 #t hf aug-cc-pvdz iop(5/13=1,5/36=2,99/5=2) pseudo=read geom=check gue
 ss=(read,tcheck) scf=(maxcycle=1)
 ----------------------------------------------------------------------
 -----
 title
 -----
 Structure from the checkpoint file:  "BDE49_expt_845_mol1.chk"
 Charge =  0 Multiplicity = 1

                         Standard orientation:
 ---------------------------------------------------------------------
 Center     Atomic      Atomic             Coordinates (Angstroms)
 Number     Number       Type             X           Y           Z
 ---------------------------------------------------------------------
      1         16           0       -0.000000    1.697366   -0.386156
      2         16           0        0.000000    0.000000    0.842569
      3          1           0       -1.332044    1.805597   -0.562052
      4         16           0       -0.000000   -1.697366   -0.386156
      5          1           0        1.332044   -1.805597   -0.562052
 ---------------------------------------------------------------------

 SCF Done:  E(RHF) =  -1193.94884854     A.U. after    2 cycles

 The electronic state is 1-A.
 Alpha  occ. eigenvalues --  -94.01415 -93.99282 -93.99282  -8.29156  -8.27270
 Alpha  occ. eigenvalues --   -8.27236  -6.26909  -6.26699  -6.26426  -6.25077
 Alpha  occ. eigenvalues --   -6.25060  -6.24894  -6.24890  -6.24649  -6.24648
 Alpha  occ. eigenvalues --   -1.12562  -1.02405  -0.87462  -0.61907  -0.56390
 Alpha  occ. eigenvalues --   -0.52942  -0.50553  -0.39626  -0.39393  -0.38961
 Alpha virt. eigenvalues --    0.03769   0.04471   0.04972   0.07525   0.10560
 Alpha virt. eigenvalues --    0.11211   0.12018   0.12163   0.12784   0.14184
 Alpha virt. eigenvalues --    0.14717   0.15211   0.18178   0.19018   0.19556

 Mulliken charges:
               1
     1  S   -0.348925
     2  S   -0.137973
     3  H    0.417911
     4  S   -0.348925
     5  H    0.417911
 Sum of Mulliken charges =   0.00000

 Dipole moment (field-independent basis, Debye):
    X=             -0.0000    Y=             -0.0000    Z=             -0.6617  Tot=              0.6617

 Test job not archived.
 1\1\GINC-SE461\SP\RHF\Aug-CC-pVDZ\H2S3\OHZDE\08-Apr-2025\0\\#t hf aug-
 cc-pvdz iop(5/13=1,5/36=2,99/5=2) pseudo=read geom=check guess=(read,t
 check) scf=(maxcycle=1)\\title\\0,1\S,0,0.,1.697366,-0.386156\S,0,0.,0
 .,0.842569\H,0,-1.332044,1.805597,-0.562052\S,0,0.,-1.697366,-0.386156
 \H,0,1.332044,-1.805597,-0.562052\\Version=ES64L-G16RevC.01\State=1-A\
 HF=-1193.9488485\RMSD=3.782e-03\Dipole=0.,0.,-0.2603307\Quadrupole=1.5
 218815,0.3127308,-1.8346124,-3.1731429,0.,0.\PG=C02 [C2(S1),X(H2S2)]\\
 @

 Normal termination of Gaussian 16 at Tue Apr  8 23:13:48 2025.
