 Gaussian 16, Revision C.01,

 ----------------------------------------------------------------------
 #t hf aug-cc-pvdz symm=none int=(grid=ultrafine) guess=(read,tcheck) s
 table=(opt,rrhf)
 ----------------------------------------------------------------------
 -----
 title
 -----
 Symbolic Z-matrix:
 Charge =  0 Multiplicity = 1

 SCF Done:  E(RHF) =  -1024.09737369     A.U. after   16 cycles
 Normal termination of Gaussian 16 at Tue Apr  8 23:17:49 2025.
 Gaussian 16:  ES64L-G16RevC.01  3-Jul-2019

 ----------------------------------------------------------------------
 #t hf aug-cc-pvdz iop(5/13=1,5/36=2,99/5=2) pseudo=read geom=check gue
 ss=(read,tcheck) scf=(maxcycle=1)
 ----------------------------------------------------------------------
 -----
 title
 -----
 Structure from the checkpoint file:  "BDE49_nonexpt_1052_mol1.chk"
 Charge =  0 Multiplicity = 1

                         Standard orientation:
 ---------------------------------------------------------------------
 Center     Atomic      Atomic             Coordinates (Angstroms)
 Number     Number       Type             X           Y           Z
 ---------------------------------------------------------------------
      1         17           0       -1.897851   -0.538030   -0.140033
      2          8           0       -0.656482    0.521732    0.682195
      3          6           0        1.698930   -0.343558   -0.014865
      4          7           0        2.472110   -1.201041    0.084111
      5         16           0        0.626061    0.965080   -0.223537
 ---------------------------------------------------------------------

 SCF Done:  E(RHF) =  -1024.38293879     A.U. after    2 cycles

 The electronic state is 1-A.
 Alpha  occ. eigenvalues -- -105.65794 -94.09586 -20.69925 -15.55706 -11.32620
 Alpha  occ. eigenvalues --  -10.69933  -8.36934  -7.86886  -7.86335  -7.86317
 Alpha  occ. eigenvalues --   -6.34769  -6.34522  -6.34235  -1.53679  -1.26741
 Alpha  occ. eigenvalues --   -1.11143  -1.03078  -0.76684  -0.67607  -0.65859
 Alpha  occ. eigenvalues --   -0.64800  -0.57642  -0.56747  -0.53741  -0.50756
 Alpha  occ. eigenvalues --   -0.49328  -0.42842
 Alpha virt. eigenvalues --   -0.01316   0.05221   0.05542   0.07587   0.09582
 Alpha virt. eigenvalues --    0.10375   0.11844   0.13028   0.13178   0.14043
 Alpha virt. eigenvalues --    0.14862   0.15975   0.16866   0.18092   0.21670

 Mulliken charges:
               1
     1  Cl   0.302094
     2  O   -1.034514
     3  C   -1.116688
     4  N    0.513953
     5  S    1.335155
 Sum of Mulliken charges =   0.00000

 Dipole moment (field-independent basis, Debye):
    X=             -2.1350    Y=              2.4434    Z=             -0.8193  Tot=              3.3466

 Test job not archived.
 1\1\GINC-SE127\SP\RHF\Aug-CC-pVDZ\C1Cl1N1O1S1\OHZDE\08-Apr-2025\0\\#t
 hf aug-cc-pvdz iop(5/13=1,5/36=2,99/5=2) pseudo=read geom=check guess=
 (read,tcheck) scf=(maxcycle=1)\\title\\0,1\Cl,0,-1.897851,-0.538029,-0
 .140033\O,0,-0.656482,0.521732,0.682195\C,0,1.69893,-0.343558,-0.01486
 5\N,0,2.47211,-1.201041,0.084111\S,0,0.626061,0.96508,-0.223537\\Versi
 on=ES64L-G16RevC.01\State=1-A\HF=-1024.3829388\RMSD=1.003e-02\Dipole=-
 0.8399649,0.9613148,-0.322321\Quadrupole=-2.4830393,0.9682022,1.514837
 1,5.2768261,-0.1664915,-0.1414303\PG=C01 [X(C1Cl1N1O1S1)]\\@

 Normal termination of Gaussian 16 at Tue Apr  8 23:17:51 2025.
