 Gaussian 16, Revision C.01,

 ----------------------------------------------------------------------
 #t hf aug-cc-pvdz symm=none int=(grid=ultrafine) guess=(read,tcheck) s
 table=(opt,rrhf)
 ----------------------------------------------------------------------
 -----
 title
 -----
 Symbolic Z-matrix:
 Charge =  0 Multiplicity = 1

 SCF Done:  E(RHF) =  -483.291026632     A.U. after   11 cycles
 Normal termination of Gaussian 16 at Wed Apr  9 00:07:16 2025.
 Gaussian 16:  ES64L-G16RevC.01  3-Jul-2019

 ----------------------------------------------------------------------
 #t hf aug-cc-pvdz iop(5/13=1,5/36=2,99/5=2) pseudo=read geom=check gue
 ss=(read,tcheck) scf=(maxcycle=1)
 ----------------------------------------------------------------------
 -----
 title
 -----
 Structure from the checkpoint file:  "BDE49_nonexpt_2253_mol1.chk"
 Charge =  0 Multiplicity = 1

                         Standard orientation:
 ---------------------------------------------------------------------
 Center     Atomic      Atomic             Coordinates (Angstroms)
 Number     Number       Type             X           Y           Z
 ---------------------------------------------------------------------
      1          6           0       -2.296356   -0.155885   -0.028774
      2          8           0       -0.982977   -0.617327   -0.297938
      3          1           0       -2.469028    0.840383   -0.453991
      4          1           0       -2.498416   -0.115703    1.049189
      5          1           0       -3.002208   -0.851905   -0.486421
      6         14           0        0.411157   -0.002229    0.350156
      7          6           0        1.786104   -1.139356   -0.197787
      8          1           0        1.596464   -2.165453    0.127381
      9          1           0        2.744660   -0.821538    0.223979
     10          1           0        1.879978   -1.141643   -1.287467
     11          6           0        0.712712    1.765029   -0.203677
     12          1           0        1.629634    2.154454    0.251057
     13          1           0       -0.105275    2.428249    0.093277
     14          1           0        0.822767    1.829826   -1.290342
     15          1           0        0.294289   -0.005581    1.836092
 ---------------------------------------------------------------------

 SCF Done:  E(RHF) =  -483.534824939     A.U. after    2 cycles

 The electronic state is 1-A.
 Alpha  occ. eigenvalues --  -69.53791 -20.52605 -11.28628 -11.21166 -11.20922
 Alpha  occ. eigenvalues --   -6.20442  -3.95919  -3.95767  -3.95743  -1.42928
 Alpha  occ. eigenvalues --   -0.96905  -0.93366  -0.92133  -0.70606  -0.63051
 Alpha  occ. eigenvalues --   -0.61780  -0.60211  -0.57096  -0.55241  -0.54934
 Alpha  occ. eigenvalues --   -0.54446  -0.47856  -0.47565  -0.43792  -0.41752
 Alpha virt. eigenvalues --    0.03635   0.03977   0.04352   0.04479   0.06255
 Alpha virt. eigenvalues --    0.06537   0.06962   0.07210   0.08283   0.09280
 Alpha virt. eigenvalues --    0.10205   0.10529   0.11353   0.14231   0.15274

 Mulliken charges:
               1
     1  C    0.336162
     2  O   -1.686833
     3  H    0.105228
     4  H    0.129573
     5  H   -0.022482
     6  Si   2.628202
     7  C   -0.616820
     8  H   -0.031584
     9  H   -0.012092
    10  H    0.111840
    11  C   -0.646351
    12  H    0.006376
    13  H   -0.058175
    14  H    0.078681
    15  H   -0.321725
 Sum of Mulliken charges =  -0.00000

 Dipole moment (field-independent basis, Debye):
    X=             -0.1716    Y=              0.8270    Z=              0.1045  Tot=              0.8510

 Test job not archived.
 1\1\GINC-SE273\SP\RHF\Aug-CC-pVDZ\C3H10O1Si1\OHZDE\09-Apr-2025\0\\#t h
 f aug-cc-pvdz iop(5/13=1,5/36=2,99/5=2) pseudo=read geom=check guess=(
 read,tcheck) scf=(maxcycle=1)\\title\\0,1\C,0,-2.296356,-0.155885,-0.0
 28774\O,0,-0.982977,-0.617327,-0.297938\H,0,-2.469028,0.840383,-0.4539
 91\H,0,-2.498416,-0.115703,1.049189\H,0,-3.002208,-0.851905,-0.486421\
 Si,0,0.411157,-0.002229,0.350156\C,0,1.786104,-1.139356,-0.197787\H,0,
 1.596464,-2.165453,0.127381\H,0,2.74466,-0.821538,0.223979\H,0,1.87997
 8,-1.141643,-1.287467\C,0,0.712712,1.765029,-0.203677\H,0,1.629634,2.1

 Normal termination of Gaussian 16 at Wed Apr  9 00:07:21 2025.
