 Gaussian 16, Revision C.01,

 ----------------------------------------------------------------------
 #t hf aug-cc-pvdz symm=none int=(grid=ultrafine) guess=(read,tcheck) s
 table=(opt,rrhf)
 ----------------------------------------------------------------------
 -----
 title
 -----
 Symbolic Z-matrix:
 Charge =  0 Multiplicity = 1

 SCF Done:  E(RHF) =  -612.957186547     A.U. after   14 cycles
 Normal termination of Gaussian 16 at Tue Apr  8 23:16:50 2025.
 Gaussian 16:  ES64L-G16RevC.01  3-Jul-2019

 ----------------------------------------------------------------------
 #t hf aug-cc-pvdz iop(5/13=1,5/36=2,99/5=2) pseudo=read geom=check gue
 ss=(read,tcheck) scf=(maxcycle=1)
 ----------------------------------------------------------------------
 -----
 title
 -----
 Structure from the checkpoint file:  "BDE49_nonexpt_1035_mol1.chk"
 Charge =  0 Multiplicity = 1

                         Standard orientation:
 ---------------------------------------------------------------------
 Center     Atomic      Atomic             Coordinates (Angstroms)
 Number     Number       Type             X           Y           Z
 ---------------------------------------------------------------------
      1         17           0       -1.663906    0.057116    0.000000
      2          8           0        0.000000    0.556477    0.000000
      3          6           0        0.880052   -0.580109    0.000000
      4          6           0        2.283305    0.002694    0.000000
      5          1           0        0.698392   -1.190167    0.890827
      6          1           0        2.448135    0.616784   -0.887184
      7          1           0        3.013212   -0.811533    0.000000
      8          1           0        2.448135    0.616784    0.887184
      9          1           0        0.698392   -1.190167   -0.890827
 ---------------------------------------------------------------------

 SCF Done:  E(RHF) =  -613.192551220     A.U. after    2 cycles

 The electronic state is 1-A'.
 Alpha  occ. eigenvalues -- -105.61243 -20.62314 -11.30687 -11.24324 -10.65487
 Alpha  occ. eigenvalues --   -7.82464  -7.81946  -7.81921  -1.47502  -1.06242
 Alpha  occ. eigenvalues --   -0.98940  -0.85809  -0.68466  -0.66655  -0.61764
 Alpha  occ. eigenvalues --   -0.57236  -0.55487  -0.51206  -0.50946  -0.46486
 Alpha  occ. eigenvalues --   -0.43179
 Alpha virt. eigenvalues --    0.03580   0.04533   0.04714   0.05752   0.07268
 Alpha virt. eigenvalues --    0.07685   0.10585   0.12349   0.13483   0.14517
 Alpha virt. eigenvalues --    0.15774   0.16440   0.16811   0.17223   0.17570

 Mulliken charges:
               1
     1  Cl   0.301978
     2  O   -1.071746
     3  C    0.515438
     4  C   -0.503302
     5  H    0.119695
     6  H    0.165999
     7  H    0.186243
     8  H    0.165999
     9  H    0.119695
 Sum of Mulliken charges =  -0.00000

 Dipole moment (field-independent basis, Debye):
    X=              1.7784    Y=             -1.2877    Z=             -0.0000  Tot=              2.1957

 Test job not archived.
 1\1\GINC-SE333\SP\RHF\Aug-CC-pVDZ\C2H5Cl1O1\OHZDE\08-Apr-2025\0\\#t hf
  aug-cc-pvdz iop(5/13=1,5/36=2,99/5=2) pseudo=read geom=check guess=(r
 ead,tcheck) scf=(maxcycle=1)\\title\\0,1\Cl,0,-1.663906,0.057115,0.\O,
 0,0.,0.556477,0.\C,0,0.880052,-0.580109,0.\C,0,2.283305,0.002695,0.\H,
 0,0.698393,-1.190167,0.890827\H,0,2.448135,0.616785,-0.887184\H,0,3.01
 3212,-0.811532,0.\H,0,2.448135,0.616785,0.887184\H,0,0.698393,-1.19016
 7,-0.890827\\Version=ES64L-G16RevC.01\State=1-A'\HF=-613.1925512\RMSD=
 8.141e-03\Dipole=0.6996885,-0.5066038,0.\Quadrupole=1.2276136,-0.73897

 Normal termination of Gaussian 16 at Tue Apr  8 23:16:52 2025.
