 Gaussian 16, Revision C.01,

 ----------------------------------------------------------------------
 #t hf aug-cc-pvdz symm=none int=(grid=ultrafine) guess=(read,tcheck) s
 table=(opt,rrhf)
 ----------------------------------------------------------------------
 -----
 title
 -----
 Symbolic Z-matrix:
 Charge =  0 Multiplicity = 1

 SCF Done:  E(RHF) =  -1527.52088144     A.U. after   12 cycles

 1\1\GINC-SE095\Stability\RHF\Aug-CC-pVDZ\B2Cl3F1\OHZDE\08-Apr-2025\0\\
 #t hf aug-cc-pvdz symm=none int=(grid=ultrafine) guess=(read,tcheck) s
 table=(opt,rrhf)\\title\\0,1\B,0,-0.987109,-0.00002,0.473975\B,0,0.660
 447,-0.000001,0.087244\Cl,0,1.520578,-1.516805,-0.125233\Cl,0,1.520551
 ,1.516826,-0.125175\Cl,0,-2.187518,0.000023,-0.824113\F,0,-1.430899,-0
 .00007,1.717863\\Version=ES64L-G16RevC.01\HF=-1527.5208814\RMSD=9.620e
 -09\Dipole=0.1336882,0.0000027,-0.009937\Quadrupole=-1.4911542,1.31533
 25,0.1758217,-0.0000428,0.9104433,0.0000787\PG=Unknown\\@

 Normal termination of Gaussian 16 at Tue Apr  8 23:56:21 2025.
 Gaussian 16:  ES64L-G16RevC.01  3-Jul-2019

 ----------------------------------------------------------------------
 #t hf aug-cc-pvdz iop(5/13=1,5/36=2,99/5=2) pseudo=read geom=check gue
 ss=(read,tcheck) scf=(maxcycle=1)
 ----------------------------------------------------------------------
 -----
 title
 -----
 Structure from the checkpoint file:  "BDE49_nonexpt_19_mol1.chk"
 Charge =  0 Multiplicity = 1

                         Standard orientation:
 ---------------------------------------------------------------------
 Center     Atomic      Atomic             Coordinates (Angstroms)
 Number     Number       Type             X           Y           Z
 ---------------------------------------------------------------------
      1          5           0       -0.987109   -0.000020    0.473975
      2          5           0        0.660447   -0.000001    0.087244
      3         17           0        1.520578   -1.516805   -0.125233
      4         17           0        1.520551    1.516826   -0.125175
      5         17           0       -2.187518    0.000023   -0.824113
      6          9           0       -1.430899   -0.000070    1.717863
 ---------------------------------------------------------------------

 SCF Done:  E(RHF) =  -1527.88270408     A.U. after    2 cycles

 The electronic state is 1-A.
 Alpha  occ. eigenvalues -- -105.59581-105.59580-105.58805 -26.50405 -10.64603
 Alpha  occ. eigenvalues --  -10.64573 -10.63832  -7.81489  -7.81466  -7.81197
 Alpha  occ. eigenvalues --   -7.81193  -7.81151  -7.81143  -7.80715  -7.80439
 Alpha  occ. eigenvalues --   -7.80402  -7.73446  -7.72717  -1.63517  -1.12797
 Alpha  occ. eigenvalues --   -1.09349  -1.07679  -0.81241  -0.74632  -0.69936
 Alpha  occ. eigenvalues --   -0.68924  -0.64821  -0.60293  -0.56794  -0.54534
 Alpha  occ. eigenvalues --   -0.51023  -0.50449  -0.49433  -0.48382  -0.45496
 Alpha virt. eigenvalues --    0.04242   0.04378   0.04694   0.04909   0.05833
 Alpha virt. eigenvalues --    0.07466   0.07539   0.08003   0.08405   0.11978
 Alpha virt. eigenvalues --    0.13186   0.14119   0.14406   0.15829   0.17527

 Mulliken charges:
               1
     1  B    1.335857
     2  B    0.268126
     3  Cl  -0.298579
     4  Cl  -0.298579
     5  Cl  -0.390585
     6  F   -0.616240
 Sum of Mulliken charges =  -0.00000

 Dipole moment (field-independent basis, Debye):
    X=              0.3139    Y=              0.0000    Z=              0.0958  Tot=              0.3282

 Test job not archived.
 1\1\GINC-SE095\SP\RHF\Aug-CC-pVDZ\B2Cl3F1\OHZDE\08-Apr-2025\0\\#t hf a
 ug-cc-pvdz iop(5/13=1,5/36=2,99/5=2) pseudo=read geom=check guess=(rea
 d,tcheck) scf=(maxcycle=1)\\title\\0,1\B,0,-0.987109,-0.00002,0.473975
 \B,0,0.660447,-0.000001,0.087244\Cl,0,1.520578,-1.516805,-0.125233\Cl,
 0,1.520551,1.516826,-0.125175\Cl,0,-2.187518,0.000023,-0.824113\F,0,-1
 .430899,-0.00007,1.717863\\Version=ES64L-G16RevC.01\State=1-A\HF=-1527
 .8827041\RMSD=1.247e-02\Dipole=0.1235123,0.0000008,0.0377063\Quadrupol
 e=-1.4437759,1.2059304,0.2378455,-0.0000362,0.7330117,0.0000673\PG=C01

 Normal termination of Gaussian 16 at Tue Apr  8 23:56:24 2025.
