 Gaussian 16, Revision C.01,

 ----------------------------------------------------------------------
 #t hf aug-cc-pvdz symm=none int=(grid=ultrafine) guess=(read,tcheck) s
 table=(opt,rrhf)
 ----------------------------------------------------------------------
 -----
 title
 -----
 Symbolic Z-matrix:
 Charge =  0 Multiplicity = 1

 SCF Done:  E(RHF) =  -498.633633729     A.U. after   12 cycles

 1\1\GINC-SE082\Stability\RHF\Aug-CC-pVDZ\C4H11P1\OHZDE\08-Apr-2025\0\\
 #t hf aug-cc-pvdz symm=none int=(grid=ultrafine) guess=(read,tcheck) s
 table=(opt,rrhf)\\title\\0,1\P,0,-0.449251,-0.001573,-0.585997\C,0,-1.
 812109,-0.962639,0.23258\H,0,-1.769237,-0.907347,1.325075\H,0,-1.75138
 3,-2.01085,-0.07039\H,0,-2.778669,-0.577422,-0.101371\C,0,1.007929,-0.
 690699,0.357\C,0,-0.666472,1.626839,0.283096\H,0,-1.600886,2.087747,-0
 .046857\H,0,0.145914,2.304416,0.011147\H,0,-0.690838,1.520755,1.372639
 \C,0,2.344,-0.041413,-0.023303\H,0,1.041703,-1.761717,0.129413\H,0,0.8

 Normal termination of Gaussian 16 at Tue Apr  8 23:27:19 2025.
 Gaussian 16:  ES64L-G16RevC.01  3-Jul-2019

 ----------------------------------------------------------------------
 #t hf aug-cc-pvdz iop(5/13=1,5/36=2,99/5=2) pseudo=read geom=check gue
 ss=(read,tcheck) scf=(maxcycle=1)
 ----------------------------------------------------------------------
 -----
 title
 -----
 Structure from the checkpoint file:  "BDE49_nonexpt_1309_mol1.chk"
 Charge =  0 Multiplicity = 1

                         Standard orientation:
 ---------------------------------------------------------------------
 Center     Atomic      Atomic             Coordinates (Angstroms)
 Number     Number       Type             X           Y           Z
 ---------------------------------------------------------------------
      1         15           0       -0.449251   -0.001573   -0.585997
      2          6           0       -1.812109   -0.962639    0.232580
      3          1           0       -1.769237   -0.907347    1.325075
      4          1           0       -1.751383   -2.010850   -0.070390
      5          1           0       -2.778669   -0.577422   -0.101371
      6          6           0        1.007929   -0.690699    0.357000
      7          6           0       -0.666472    1.626839    0.283096
      8          1           0       -1.600886    2.087747   -0.046857
      9          1           0        0.145914    2.304416    0.011147
     10          1           0       -0.690838    1.520755    1.372639
     11          6           0        2.344000   -0.041413   -0.023303
     12          1           0        1.041703   -1.761717    0.129413
     13          1           0        0.828458   -0.600101    1.435158
     14          1           0        2.536798   -0.132228   -1.095685
     15          1           0        3.174878   -0.515018    0.507325
     16          1           0        2.361936    1.022829    0.227260
 ---------------------------------------------------------------------

 SCF Done:  E(RHF) =  -498.860443470     A.U. after    2 cycles

 The electronic state is 1-A.
 Alpha  occ. eigenvalues --  -84.25649 -11.23329 -11.22952 -11.22909 -11.22876
 Alpha  occ. eigenvalues --   -6.72677  -4.25207  -4.25098  -4.24384  -1.04955
 Alpha  occ. eigenvalues --   -0.98733  -0.93497  -0.85131  -0.71762  -0.62139
 Alpha  occ. eigenvalues --   -0.59417  -0.58331  -0.57246  -0.55453  -0.54888
 Alpha  occ. eigenvalues --   -0.52124  -0.50215  -0.44299  -0.42608  -0.30571
 Alpha virt. eigenvalues --    0.03867   0.03938   0.04062   0.04636   0.06088
 Alpha virt. eigenvalues --    0.06158   0.06718   0.07360   0.07918   0.08953
 Alpha virt. eigenvalues --    0.09764   0.10335   0.12408   0.12985   0.14747

 Mulliken charges:
               1
     1  P    1.303944
     2  C   -0.728886
     3  H    0.122811
     4  H    0.096060
     5  H    0.106478
     6  C   -0.538569
     7  C   -0.816225
     8  H    0.094135
     9  H    0.117637
    10  H    0.125430
    11  C   -0.545209
    12  H    0.095266
    13  H    0.127920
    14  H    0.188383
    15  H    0.120234
    16  H    0.130591
 Sum of Mulliken charges =   0.00000

 Dipole moment (field-independent basis, Debye):
    X=              0.0041    Y=             -0.0614    Z=              1.1084  Tot=              1.1101

 Test job not archived.
 1\1\GINC-SE082\SP\RHF\Aug-CC-pVDZ\C4H11P1\OHZDE\08-Apr-2025\0\\#t hf a
 ug-cc-pvdz iop(5/13=1,5/36=2,99/5=2) pseudo=read geom=check guess=(rea
 d,tcheck) scf=(maxcycle=1)\\title\\0,1\P,0,-0.449251,-0.001573,-0.5859
 97\C,0,-1.812109,-0.962639,0.23258\H,0,-1.769237,-0.907347,1.325075\H,
 0,-1.751383,-2.01085,-0.07039\H,0,-2.778669,-0.577422,-0.101371\C,0,1.
 007929,-0.690699,0.357\C,0,-0.666472,1.626839,0.283096\H,0,-1.600886,2
 .087747,-0.046857\H,0,0.145914,2.304416,0.011147\H,0,-0.690838,1.52075
 5,1.372639\C,0,2.344,-0.041413,-0.023303\H,0,1.041703,-1.761717,0.1294

 Normal termination of Gaussian 16 at Tue Apr  8 23:27:23 2025.
