 Gaussian 16, Revision C.01,

 ----------------------------------------------------------------------
 #t hf aug-cc-pvdz symm=none int=(grid=ultrafine) guess=(read,tcheck) s
 table=opt
 ----------------------------------------------------------------------
 -----
 title
 -----
 Symbolic Z-matrix:
 Charge =  0 Multiplicity = 2

 SCF Done:  E(UHF) =  -435.969095396     A.U. after   16 cycles
 Normal termination of Gaussian 16 at Tue Apr  8 23:34:03 2025.
 Gaussian 16:  ES64L-G16RevC.01  3-Jul-2019

 ----------------------------------------------------------------------
 #t hf aug-cc-pvdz iop(5/13=1,5/36=2,99/5=2) pseudo=read geom=check gue
 ss=(read,tcheck) scf=(maxcycle=1)
 ----------------------------------------------------------------------
 -----
 title
 -----
 Structure from the checkpoint file:  "BDE49_nonexpt_1467_mol2.chk"
 Charge =  0 Multiplicity = 2

                         Standard orientation:
 ---------------------------------------------------------------------
 Center     Atomic      Atomic             Coordinates (Angstroms)
 Number     Number       Type             X           Y           Z
 ---------------------------------------------------------------------
      1          6           0        1.402026    0.432627    0.011144
      2         15           0       -0.084052   -0.673531   -0.016432
      3          1           0        1.425598    1.035829    0.923897
      4          1           0        1.427735    1.102921   -0.855171
      5          1           0        2.299542   -0.189156   -0.015763
      6          7           0       -1.279419    0.548205    0.070142
      7          1           0       -1.109320    1.466133   -0.320391
      8          1           0       -2.238994    0.254036   -0.043953
 ---------------------------------------------------------------------

 SCF Done:  E(UHF) =  -436.113535030     A.U. after    2 cycles

 The electronic state is 2-A.
 Alpha  occ. eigenvalues --  -84.28224 -15.50243 -11.23689  -6.75149  -4.27524
 Alpha  occ. eigenvalues --   -4.27370  -4.26665  -1.17399  -0.97706  -0.78957
 Alpha  occ. eigenvalues --   -0.70939  -0.59234  -0.58375  -0.53652  -0.50725
 Alpha  occ. eigenvalues --   -0.38532  -0.27459
 Alpha virt. eigenvalues --    0.03482   0.04628   0.05634   0.05970   0.07380
 Alpha virt. eigenvalues --    0.08573   0.10997   0.11829   0.12575   0.15169
 Alpha virt. eigenvalues --    0.16082   0.17292   0.18798   0.20080   0.21568

  Beta  occ. eigenvalues --  -84.27600 -15.49661 -11.23819  -6.74356  -4.27052
  Beta  occ. eigenvalues --   -4.26335  -4.24292  -1.15696  -0.96854  -0.75398
  Beta  occ. eigenvalues --   -0.70523  -0.57999  -0.57112  -0.52215  -0.45577
  Beta  occ. eigenvalues --   -0.35982
  Beta virt. eigenvalues --    0.03495   0.04662   0.05660   0.05926   0.07127
  Beta virt. eigenvalues --    0.07476   0.08767   0.11154   0.12856   0.14285
  Beta virt. eigenvalues --    0.16120   0.17187   0.17708   0.18986   0.20336

 Mulliken charges and spin densities:
               1          2
     1  C   -0.904759  -0.091841
     2  P    0.823002   1.027636
     3  H    0.114781   0.013782
     4  H    0.098002   0.013071
     5  H    0.063007  -0.002431
     6  N   -0.158868   0.063144
     7  H   -0.030033  -0.013099
     8  H   -0.005133  -0.010263
 Sum of Mulliken charges =  -0.00000   1.00000

 Dipole moment (field-independent basis, Debye):
    X=             -0.0112    Y=              1.1825    Z=             -0.7461  Tot=              1.3983
                          Isotropic Fermi Contact Couplings
        Atom                 a.u.       MegaHertz       Gauss      10(-4) cm-1
     1  C(13)             -0.02182     -24.52731      -8.75195      -8.18143
     2  P(31)              0.22068     399.67622     142.61441     133.31764
     3  H(1)               0.01017      45.44972      16.21759      15.16039
     4  H(1)               0.00951      42.52339      15.17340      14.18428
     5  H(1)               0.00004       0.17688       0.06312       0.05900
     6  N(14)              0.06725      21.73014       7.75385       7.24840
     7  H(1)              -0.00024      -1.06615      -0.38043      -0.35563
     8  H(1)              -0.00307     -13.70830      -4.89146      -4.57260

 Normal termination of Gaussian 16 at Tue Apr  8 23:34:05 2025.
