 Gaussian 16, Revision C.01,

 ----------------------------------------------------------------------
 #t hf aug-cc-pvdz symm=none int=(grid=ultrafine) guess=(read,tcheck) s
 table=(opt,rrhf)
 ----------------------------------------------------------------------
 -----
 title
 -----
 Symbolic Z-matrix:
 Charge =  0 Multiplicity = 1

 SCF Done:  E(RHF) =  -484.842693670     A.U. after   14 cycles
 Normal termination of Gaussian 16 at Wed Apr  9 00:41:39 2025.
 Gaussian 16:  ES64L-G16RevC.01  3-Jul-2019

 ----------------------------------------------------------------------
 #t hf aug-cc-pvdz iop(5/13=1,5/36=2,99/5=2) pseudo=read geom=check gue
 ss=(read,tcheck) scf=(maxcycle=1)
 ----------------------------------------------------------------------
 -----
 title
 -----
 Structure from the checkpoint file:  "BDE49_nonexpt_682_mol1.chk"
 Charge =  0 Multiplicity = 1

                         Standard orientation:
 ---------------------------------------------------------------------
 Center     Atomic      Atomic             Coordinates (Angstroms)
 Number     Number       Type             X           Y           Z
 ---------------------------------------------------------------------
      1          5           0        2.243605    1.098857   -0.128312
      2         15           0        1.428624   -0.541976    0.058187
      3          6           0       -2.759889    0.232375   -0.054235
      4          6           0       -0.355421   -0.525612   -0.452864
      5          6           0       -1.303980    0.310459    0.417740
      6          1           0       -0.695154   -1.565522   -0.493240
      7          1           0       -0.360709   -0.160854   -1.485612
      8          1           0       -0.966206    1.351730    0.415170
      9          1           0       -1.236469   -0.029982    1.456749
     10          1           0       -3.131035   -0.796759   -0.028800
     11          1           0       -2.863845    0.597762   -1.080384
     12          1           0       -3.412308    0.836659    0.581745
     13          1           0        3.175984    1.360553    0.562151
     14          1           0        1.959425    1.791248   -1.054607
     15          1           0        1.398674   -0.852808    1.431726
 ---------------------------------------------------------------------

 SCF Done:  E(RHF) =  -485.050032574     A.U. after    2 cycles

 The electronic state is 1-A.
 Alpha  occ. eigenvalues --  -84.25169 -11.24972 -11.24043 -11.23016  -7.60078
 Alpha  occ. eigenvalues --   -6.72727  -4.25440  -4.25319  -4.24525  -1.07395
 Alpha  occ. eigenvalues --   -0.95940  -0.84772  -0.80341  -0.67555  -0.64391
 Alpha  occ. eigenvalues --   -0.59436  -0.56342  -0.55231  -0.51640  -0.49946
 Alpha  occ. eigenvalues --   -0.48962  -0.46282  -0.43607  -0.31263
 Alpha virt. eigenvalues --    0.03508   0.03569   0.03928   0.04363   0.05007
 Alpha virt. eigenvalues --    0.05782   0.06013   0.06893   0.07791   0.08821
 Alpha virt. eigenvalues --    0.08845   0.09533   0.10825   0.11853   0.12693

 Mulliken charges:
               1
     1  B   -0.541910
     2  P    0.092089
     3  C   -0.384711
     4  C   -0.755222
     5  C   -0.442479
     6  H    0.128006
     7  H    0.126318
     8  H    0.151981
     9  H    0.142235
    10  H    0.153267
    11  H    0.162021
    12  H    0.121349
    13  H    0.382960
    14  H    0.363184
    15  H    0.300913
 Sum of Mulliken charges =   0.00000

 Dipole moment (field-independent basis, Debye):
    X=             -1.5882    Y=             -0.1658    Z=              0.2846  Tot=              1.6220

 Test job not archived.
 1\1\GINC-SE219\SP\RHF\Aug-CC-pVDZ\C3H10B1P1\OHZDE\09-Apr-2025\0\\#t hf
  aug-cc-pvdz iop(5/13=1,5/36=2,99/5=2) pseudo=read geom=check guess=(r
 ead,tcheck) scf=(maxcycle=1)\\title\\0,1\B,0,2.243605,1.098857,-0.1283
 12\P,0,1.428624,-0.541976,0.058187\C,0,-2.759889,0.232375,-0.054235\C,
 0,-0.355421,-0.525612,-0.452864\C,0,-1.30398,0.310459,0.41774\H,0,-0.6
 95154,-1.565522,-0.49324\H,0,-0.360709,-0.160854,-1.485612\H,0,-0.9662
 06,1.35173,0.41517\H,0,-1.236469,-0.029982,1.456749\H,0,-3.131035,-0.7
 96759,-0.0288\H,0,-2.863845,0.597762,-1.080384\H,0,-3.412308,0.836659,

 Normal termination of Gaussian 16 at Wed Apr  9 00:41:44 2025.
