 Gaussian 16, Revision C.01,

 ----------------------------------------------------------------------
 #t hf aug-cc-pvdz symm=none int=(grid=ultrafine) guess=(read,tcheck) s
 table=(opt,rrhf)
 ----------------------------------------------------------------------
 -----
 title
 -----
 Symbolic Z-matrix:
 Charge =  0 Multiplicity = 1

 SCF Done:  E(RHF) =  -603.514924715     A.U. after   13 cycles
 Normal termination of Gaussian 16 at Wed Apr  9 00:52:42 2025.
 Gaussian 16:  ES64L-G16RevC.01  3-Jul-2019

 ----------------------------------------------------------------------
 #t hf aug-cc-pvdz iop(5/13=1,5/36=2,99/5=2) pseudo=read geom=check gue
 ss=(read,tcheck) scf=(maxcycle=1)
 ----------------------------------------------------------------------
 -----
 title
 -----
 Structure from the checkpoint file:  "BDE49_nonexpt_948_mol1.chk"
 Charge =  0 Multiplicity = 1

                         Standard orientation:
 ---------------------------------------------------------------------
 Center     Atomic      Atomic             Coordinates (Angstroms)
 Number     Number       Type             X           Y           Z
 ---------------------------------------------------------------------
      1          9           0        3.905588    0.274949    0.000022
      2          7           0        0.436782    0.448850   -0.000020
      3          7           0        1.969406   -1.395109   -0.000025
      4          1           0        2.912385   -1.741365    0.000056
      5          1           0        1.171977   -2.010625    0.000039
      6          7           0        2.628810    0.889869    0.000004
      7          6           0        1.753776   -0.071394   -0.000009
      8          9           0       -3.905588   -0.274949    0.000012
      9          7           0       -0.436782   -0.448850   -0.000005
     10          7           0       -1.969406    1.395109   -0.000010
     11          1           0       -2.912385    1.741365   -0.000014
     12          1           0       -1.171977    2.010625   -0.000025
     13          7           0       -2.628810   -0.889869    0.000012
     14          6           0       -1.753776    0.071394   -0.000001
 ---------------------------------------------------------------------

 SCF Done:  E(RHF) =  -604.092789010     A.U. after    2 cycles

 The electronic state is 1-A.
 Alpha  occ. eigenvalues --  -26.47914 -26.47913 -15.64750 -15.64088 -15.60567
 Alpha  occ. eigenvalues --  -15.60545 -15.56210 -15.56197 -11.39543 -11.39535
 Alpha  occ. eigenvalues --   -1.59757  -1.59293  -1.46106  -1.31661  -1.28357
 Alpha  occ. eigenvalues --   -1.20125  -1.19437  -1.06936  -0.89529  -0.86133
 Alpha  occ. eigenvalues --   -0.84162  -0.82984  -0.80408  -0.74605  -0.71979
 Alpha  occ. eigenvalues --   -0.71101  -0.70464  -0.69276  -0.65637  -0.65556
 Alpha  occ. eigenvalues --   -0.64683  -0.59643  -0.54929  -0.54193  -0.54133
 Alpha  occ. eigenvalues --   -0.53072  -0.45342  -0.43548
 Alpha virt. eigenvalues --   -0.03877   0.02261   0.04408   0.05711   0.06548
 Alpha virt. eigenvalues --    0.07802   0.10128   0.10542   0.10686   0.11465
 Alpha virt. eigenvalues --    0.12647   0.13376   0.13847   0.13948   0.14972

 Mulliken charges:
               1
     1  F   -0.715734
     2  N   -0.182061
     3  N    0.442492
     4  H    0.168699
     5  H    0.118622
     6  N    1.311804
     7  C   -1.143823
     8  F   -0.715734
     9  N   -0.182061
    10  N    0.442492
    11  H    0.168699
    12  H    0.118622
    13  N    1.311804
    14  C   -1.143823
 Sum of Mulliken charges =  -0.00000

 Dipole moment (field-independent basis, Debye):
    X=              0.0000    Y=              0.0000    Z=              0.0001  Tot=              0.0001

 Test job not archived.
 1\1\GINC-SE092\SP\RHF\Aug-CC-pVDZ\C2H4F2N6\OHZDE\09-Apr-2025\0\\#t hf
 aug-cc-pvdz iop(5/13=1,5/36=2,99/5=2) pseudo=read geom=check guess=(re
 ad,tcheck) scf=(maxcycle=1)\\title\\0,1\F,0,3.905588,0.274949,0.000022
 \N,0,0.436782,0.44885,-0.00002\N,0,1.969406,-1.395109,-0.000025\H,0,2.
 912385,-1.741365,0.000056\H,0,1.171977,-2.010625,0.000039\N,0,2.62881,
 0.889869,0.000004\C,0,1.753776,-0.071394,-0.000009\F,0,-3.905588,-0.27
 4949,0.000012\N,0,-0.436782,-0.44885,-0.000005\N,0,-1.969406,1.395109,
 -0.00001\H,0,-2.912385,1.741365,-0.000014\H,0,-1.171977,2.010625,-0.00

 Normal termination of Gaussian 16 at Wed Apr  9 00:52:49 2025.
