 Gaussian 16, Revision C.01,

 ----------------------------------------------------------------------
 #t hf aug-cc-pvdz symm=none int=(grid=ultrafine) guess=(read,tcheck) s
 table=(opt,rrhf)
 ----------------------------------------------------------------------
 -----
 title
 -----
 Symbolic Z-matrix:
 Charge =  0 Multiplicity = 1

 SCF Done:  E(RHF) =  -533.110245046     A.U. after   14 cycles
 Normal termination of Gaussian 16 at Wed Apr  9 00:52:05 2025.
 Gaussian 16:  ES64L-G16RevC.01  3-Jul-2019

 ----------------------------------------------------------------------
 #t hf aug-cc-pvdz iop(5/13=1,5/36=2,99/5=2) pseudo=read geom=check gue
 ss=(read,tcheck) scf=(maxcycle=1)
 ----------------------------------------------------------------------
 -----
 title
 -----
 Structure from the checkpoint file:  "BDE49_nonexpt_958_mol1.chk"
 Charge =  0 Multiplicity = 1

                         Standard orientation:
 ---------------------------------------------------------------------
 Center     Atomic      Atomic             Coordinates (Angstroms)
 Number     Number       Type             X           Y           Z
 ---------------------------------------------------------------------
      1          9           0        0.601806    0.236168    2.134109
      2          7           0        0.464612    0.419183    0.774702
      3          6           0        0.822565   -0.607210   -0.164756
      4          8           0        1.757131   -1.297117   -0.351954
      5          6           0       -0.822565    0.607210    0.164756
      6          7           0       -0.464612   -0.419183   -0.774702
      7          8           0       -1.757131    1.297117    0.351954
      8          9           0       -0.601806   -0.236168   -2.134109
 ---------------------------------------------------------------------

 SCF Done:  E(RHF) =  -533.605677612     A.U. after    2 cycles

 The electronic state is 1-AG.
 Alpha  occ. eigenvalues --  -26.56487 -26.56486 -20.62303 -20.62300 -15.69923
 Alpha  occ. eigenvalues --  -15.69909 -11.48582 -11.48452  -1.68690  -1.67791
 Alpha  occ. eigenvalues --   -1.58005  -1.57168  -1.42049  -1.17963  -0.98108
 Alpha  occ. eigenvalues --   -0.88867  -0.87702  -0.82254  -0.77279  -0.76849
 Alpha  occ. eigenvalues --   -0.75523  -0.73769  -0.68761  -0.68134  -0.66367
 Alpha  occ. eigenvalues --   -0.62374  -0.58264  -0.56147  -0.51284  -0.50912
 Alpha virt. eigenvalues --    0.05627   0.05901   0.08237   0.08513   0.08687
 Alpha virt. eigenvalues --    0.09453   0.09902   0.10322   0.10635   0.10776
 Alpha virt. eigenvalues --    0.15782   0.18761   0.19528   0.20073   0.21758

 Mulliken charges:
               1
     1  F   -0.641398
     2  N    0.937629
     3  C    0.664969
     4  O   -0.961200
     5  C    0.664969
     6  N    0.937629
     7  O   -0.961200
     8  F   -0.641398
 Sum of Mulliken charges =   0.00000

 Dipole moment (field-independent basis, Debye):
    X=             -0.0000    Y=             -0.0000    Z=             -0.0000  Tot=              0.0000

 Test job not archived.
 1\1\GINC-SE250\SP\RHF\Aug-CC-pVDZ\C2F2N2O2\OHZDE\09-Apr-2025\0\\#t hf
 aug-cc-pvdz iop(5/13=1,5/36=2,99/5=2) pseudo=read geom=check guess=(re
 ad,tcheck) scf=(maxcycle=1)\\title\\0,1\F,0,0.601806,0.236168,2.134109
 \N,0,0.464612,0.419183,0.774702\C,0,0.822565,-0.60721,-0.164756\O,0,1.
 757131,-1.297117,-0.351954\C,0,-0.822565,0.60721,0.164756\N,0,-0.46461
 2,-0.419183,-0.774702\O,0,-1.757131,1.297117,0.351954\F,0,-0.601806,-0
 .236168,-2.134109\\Version=ES64L-G16RevC.01\State=1-AG\HF=-533.6056776
 \RMSD=1.309e-02\Dipole=0.,0.,0.\Quadrupole=-2.0564014,0.1706896,1.8857

 Normal termination of Gaussian 16 at Wed Apr  9 00:52:08 2025.
