 Gaussian 16, Revision C.01,

 ----------------------------------------------------------------------
 #t hf aug-cc-pvdz symm=none int=(grid=ultrafine) guess=(read,tcheck) s
 table=opt
 ----------------------------------------------------------------------
 -----
 title
 -----
 Symbolic Z-matrix:
 Charge =  0 Multiplicity = 2

 SCF Done:  E(UHF) =  -597.351105290     A.U. after   15 cycles
 Normal termination of Gaussian 16 at Tue Apr  8 22:28:15 2025.
 Gaussian 16:  ES64L-G16RevC.01  3-Jul-2019

 ----------------------------------------------------------------------
 #t hf aug-cc-pvdz iop(5/13=1,5/36=2,99/5=2) pseudo=read geom=check gue
 ss=(read,tcheck) scf=(maxcycle=1)
 ----------------------------------------------------------------------
 -----
 title
 -----
 Structure from the checkpoint file:  "BDE49_expt_1003_mol2.chk"
 Charge =  0 Multiplicity = 2

                         Standard orientation:
 ---------------------------------------------------------------------
 Center     Atomic      Atomic             Coordinates (Angstroms)
 Number     Number       Type             X           Y           Z
 ---------------------------------------------------------------------
      1          6           0        0.547417    0.548918   -0.132031
      2         17           0       -1.044769   -0.101588    0.011154
      3          9           0        1.528446   -0.340873    0.027174
      4          1           0        0.720566    1.501342    0.357996
 ---------------------------------------------------------------------

 SCF Done:  E(UHF) =  -597.553416998     A.U. after    2 cycles

 The electronic state is 2-A.
 Alpha  occ. eigenvalues -- -105.59617 -26.50700 -11.41006 -10.64491  -7.81404
 Alpha  occ. eigenvalues --   -7.81113  -7.81007  -1.64500  -1.13695  -0.91961
 Alpha  occ. eigenvalues --   -0.75956  -0.72775  -0.70819  -0.58183  -0.53985
 Alpha  occ. eigenvalues --   -0.49338  -0.40183
 Alpha virt. eigenvalues --    0.03720   0.07480   0.09602   0.10206   0.12905
 Alpha virt. eigenvalues --    0.15488   0.15878   0.15988   0.22491   0.25714
 Alpha virt. eigenvalues --    0.27031   0.27831   0.30510   0.32506   0.33280

  Beta  occ. eigenvalues -- -105.59559 -26.50255 -11.38142 -10.64426  -7.81477
  Beta  occ. eigenvalues --   -7.80974  -7.80784  -1.63078  -1.11529  -0.87129
  Beta  occ. eigenvalues --   -0.74212  -0.69492  -0.66347  -0.56626  -0.49886
  Beta  occ. eigenvalues --   -0.49162
  Beta virt. eigenvalues --    0.03760   0.06926   0.07668   0.09765   0.13024
  Beta virt. eigenvalues --    0.13262   0.15632   0.16180   0.17536   0.24428
  Beta virt. eigenvalues --    0.26114   0.27900   0.28295   0.31510   0.33224

 Mulliken charges and spin densities:
               1          2
     1  C    0.436634   1.062262
     2  Cl  -0.061841  -0.017203
     3  F   -0.556469   0.018031
     4  H    0.181676  -0.063090
 Sum of Mulliken charges =  -0.00000   1.00000

 Dipole moment (field-independent basis, Debye):
    X=              0.1750    Y=              1.3451    Z=              0.3219  Tot=              1.3941
                          Isotropic Fermi Contact Couplings
        Atom                 a.u.       MegaHertz       Gauss      10(-4) cm-1
     1  C(13)              0.38734     435.44933     155.37915     145.25026
     2  Cl(35)             0.04718      20.68522       7.38100       6.89985
     3  F(19)              0.06453     271.50018      96.87801      90.56271
     4  H(1)              -0.00858     -38.36417     -13.68929     -12.79691
 --------------------------------------------------------
       Center         ----  Spin Dipole Couplings  ----
                      3XX-RR        3YY-RR        3ZZ-RR
 --------------------------------------------------------

 Normal termination of Gaussian 16 at Tue Apr  8 22:28:16 2025.
