 Gaussian 16, Revision C.01,

 ----------------------------------------------------------------------
 #t hf aug-cc-pvdz symm=none int=(grid=ultrafine) guess=(read,tcheck) s
 table=opt
 ----------------------------------------------------------------------
 -----
 title
 -----
 Symbolic Z-matrix:
 Charge =  0 Multiplicity = 2

 SCF Done:  E(UHF) =  -156.691448942     A.U. after   14 cycles
 Normal termination of Gaussian 16 at Tue Apr  8 22:34:51 2025.
 Gaussian 16:  ES64L-G16RevC.01  3-Jul-2019

 ----------------------------------------------------------------------
 #t hf aug-cc-pvdz iop(5/13=1,5/36=2,99/5=2) pseudo=read geom=check gue
 ss=(read,tcheck) scf=(maxcycle=1)
 ----------------------------------------------------------------------
 -----
 title
 -----
 Structure from the checkpoint file:  "BDE49_expt_1093_mol2.chk"
 Charge =  0 Multiplicity = 2

                         Standard orientation:
 ---------------------------------------------------------------------
 Center     Atomic      Atomic             Coordinates (Angstroms)
 Number     Number       Type             X           Y           Z
 ---------------------------------------------------------------------
      1          6           0        0.000009   -0.000016   -0.149845
      2          6           0       -0.501854    1.398890    0.014856
      3          1           0       -1.491182    1.530876   -0.434888
      4          1           0        0.178091    2.129717   -0.434610
      5          1           0       -0.602231    1.678115    1.079395
      6          6           0       -0.960557   -1.134059    0.015002
      7          1           0       -1.933456   -0.910630   -0.434446
      8          1           0       -1.152158   -1.360473    1.079572
      9          1           0       -0.580244   -2.056884   -0.434681
     10          6           0        1.462413   -0.264826    0.014911
     11          1           0        2.071388    0.525930   -0.434880
     12          1           0        1.755356   -1.219128   -0.434471
     13          1           0        1.754368   -0.317454    1.079465
 ---------------------------------------------------------------------

 SCF Done:  E(UHF) =  -156.867749980     A.U. after    2 cycles

 The electronic state is 2-A.
 Alpha  occ. eigenvalues --  -11.23176 -11.22210 -11.22210 -11.22196  -1.09013
 Alpha  occ. eigenvalues --   -0.93676  -0.93675  -0.74957  -0.62478  -0.60875
 Alpha  occ. eigenvalues --   -0.60875  -0.54145  -0.54145  -0.52033  -0.49340
 Alpha  occ. eigenvalues --   -0.49340  -0.31467
 Alpha virt. eigenvalues --    0.03841   0.04291   0.04291   0.04869   0.06777
 Alpha virt. eigenvalues --    0.06777   0.07560   0.07560   0.09896   0.10665
 Alpha virt. eigenvalues --    0.14945   0.14945   0.15532   0.16183   0.16183

  Beta  occ. eigenvalues --  -11.22531 -11.22531 -11.22519 -11.20625  -1.05130
  Beta  occ. eigenvalues --   -0.93661  -0.93661  -0.70461  -0.60191  -0.60191
  Beta  occ. eigenvalues --   -0.57662  -0.53154  -0.53154  -0.51921  -0.48662
  Beta  occ. eigenvalues --   -0.48662
  Beta virt. eigenvalues --    0.03827   0.04306   0.04306   0.04750   0.06790
  Beta virt. eigenvalues --    0.06790   0.07570   0.07570   0.09895   0.10462
  Beta virt. eigenvalues --    0.13445   0.15014   0.15014   0.15591   0.16215

 Mulliken charges and spin densities:
               1          2
     1  C   -0.346370   1.581215
     2  C   -0.405468  -0.256849
     3  H    0.139397   0.006953
     4  H    0.139333   0.006938
     5  H    0.242175   0.049217
     6  C   -0.405463  -0.256846
     7  H    0.139350   0.006940
     8  H    0.242182   0.049217
     9  H    0.139395   0.006952
    10  C   -0.405471  -0.256848
    11  H    0.139407   0.006952
    12  H    0.139344   0.006940
    13  H    0.242188   0.049219
 Sum of Mulliken charges =  -0.00000   1.00000

 Dipole moment (field-independent basis, Debye):
    X=              0.0000    Y=              0.0000    Z=              0.1706  Tot=              0.1706
                          Isotropic Fermi Contact Couplings
        Atom                 a.u.       MegaHertz       Gauss      10(-4) cm-1
     1  C(13)              0.25441     286.01091     102.05581      95.40297
     2  C(13)             -0.05715     -64.24344     -22.92366     -21.42930
     3  H(1)               0.00637      28.45085      10.15197       9.49018
     4  H(1)               0.00636      28.42015      10.14102       9.47994
     5  H(1)               0.02391     106.85867      38.12983      35.64422
     6  C(13)             -0.05715     -64.24286     -22.92345     -21.42911
     7  H(1)               0.00636      28.42437      10.14252       9.48135
     8  H(1)               0.02391     106.85897      38.12994      35.64432

 Normal termination of Gaussian 16 at Tue Apr  8 22:34:54 2025.
