 Gaussian 16, Revision C.01,

 ----------------------------------------------------------------------
 #t hf aug-cc-pvdz symm=none int=(grid=ultrafine) guess=(read,tcheck) s
 table=(opt,rrhf)
 ----------------------------------------------------------------------
 -----
 title
 -----
 Symbolic Z-matrix:
 Charge =  0 Multiplicity = 1

 SCF Done:  E(RHF) =  -668.720787424     A.U. after   14 cycles
 Normal termination of Gaussian 16 at Tue Apr  8 23:22:48 2025.
 Gaussian 16:  ES64L-G16RevC.01  3-Jul-2019

 ----------------------------------------------------------------------
 #t hf aug-cc-pvdz iop(5/13=1,5/36=2,99/5=2) pseudo=read geom=check gue
 ss=(read,tcheck) scf=(maxcycle=1)
 ----------------------------------------------------------------------
 -----
 title
 -----
 Structure from the checkpoint file:  "BDE49_nonexpt_1189_mol1.chk"
 Charge =  0 Multiplicity = 1

                         Standard orientation:
 ---------------------------------------------------------------------
 Center     Atomic      Atomic             Coordinates (Angstroms)
 Number     Number       Type             X           Y           Z
 ---------------------------------------------------------------------
      1         16           0        2.696528   -0.030371   -0.121726
      2          8           0        1.096648    0.334739    0.240563
      3          6           0        0.116139   -0.569313   -0.305647
      4          6           0       -1.285315   -0.014959   -0.010379
      5          6           0       -1.488667    0.109672    1.510462
      6          1           0       -1.394756   -0.864609    2.000985
      7          1           0       -2.485112    0.501760    1.733848
      8          1           0       -0.748581    0.781364    1.948931
      9          6           0       -2.304358   -1.010659   -0.594020
     10          1           0       -2.203359   -2.000751   -0.138600
     11          1           0       -2.182031   -1.121178   -1.675937
     12          1           0       -3.324172   -0.662123   -0.408510
     13          6           0       -1.455242    1.359905   -0.681270
     14          1           0       -0.718698    2.071766   -0.304636
     15          1           0       -2.453526    1.761666   -0.484918
     16          1           0       -1.331203    1.286357   -1.766420
     17          1           0        0.240309   -1.557544    0.156655
     18          1           0        0.274411   -0.671211   -1.385386
     19          1           0        2.913736   -0.965353    0.832232
 ---------------------------------------------------------------------

 SCF Done:  E(RHF) =  -669.070666247     A.U. after    2 cycles

 The electronic state is 1-A.
 Alpha  occ. eigenvalues --  -94.00313 -20.57734 -11.28974 -11.24532 -11.22774
 Alpha  occ. eigenvalues --  -11.21988 -11.21931  -8.27717  -6.25591  -6.25374
 Alpha  occ. eigenvalues --   -6.25122  -1.46846  -1.11065  -0.99359  -0.93799
 Alpha  occ. eigenvalues --   -0.93316  -0.90038  -0.74990  -0.67544  -0.65309
 Alpha  occ. eigenvalues --   -0.64254  -0.60381  -0.58847  -0.55706  -0.54479
 Alpha  occ. eigenvalues --   -0.54031  -0.52502  -0.52046  -0.47548  -0.47182
 Alpha  occ. eigenvalues --   -0.46025  -0.43731  -0.37412
 Alpha virt. eigenvalues --    0.03551   0.03741   0.04004   0.04357   0.05711
 Alpha virt. eigenvalues --    0.06431   0.06596   0.07006   0.07050   0.08434
 Alpha virt. eigenvalues --    0.09460   0.09844   0.10412   0.11980   0.12954

 Mulliken charges:
               1
     1  S    0.203117
     2  O   -1.209901
     3  C    1.191163
     4  C   -3.458782
     5  C    0.281521
     6  H    0.202361
     7  H    0.191584
     8  H    0.230384
     9  C    0.322710
    10  H    0.204110
    11  H    0.201151
    12  H    0.196388
    13  C    0.261975
    14  H    0.228095
    15  H    0.191869
    16  H    0.198105
    17  H    0.124671
    18  H    0.146825
    19  H    0.292654
 Sum of Mulliken charges =  -0.00000

 Dipole moment (field-independent basis, Debye):
    X=             -0.8599    Y=             -1.4398    Z=              0.0922  Tot=              1.6796

 Test job not archived.
 1\1\GINC-SE016\SP\RHF\Aug-CC-pVDZ\C5H12O1S1\OHZDE\08-Apr-2025\0\\#t hf
  aug-cc-pvdz iop(5/13=1,5/36=2,99/5=2) pseudo=read geom=check guess=(r
 ead,tcheck) scf=(maxcycle=1)\\title\\0,1\S,0,2.696528,-0.030371,-0.121
 726\O,0,1.096648,0.334739,0.240563\C,0,0.116139,-0.569313,-0.305647\C,
 0,-1.285315,-0.014959,-0.010379\C,0,-1.488667,0.109672,1.510462\H,0,-1
 .394756,-0.864609,2.000985\H,0,-2.485112,0.50176,1.733848\H,0,-0.74858
 1,0.781364,1.948931\C,0,-2.304358,-1.010659,-0.59402\H,0,-2.203359,-2.
 000751,-0.1386\H,0,-2.182031,-1.121178,-1.675937\H,0,-3.324172,-0.6621

 Normal termination of Gaussian 16 at Tue Apr  8 23:22:56 2025.
