 Gaussian 16, Revision C.01,

 ----------------------------------------------------------------------
 #t hf aug-cc-pvdz symm=none int=(grid=ultrafine) guess=(read,tcheck) s
 table=(opt,rrhf)
 ----------------------------------------------------------------------
 -----
 title
 -----
 Symbolic Z-matrix:
 Charge =  0 Multiplicity = 1

 SCF Done:  E(RHF) =  -363.830761510     A.U. after   14 cycles

 1\1\GINC-SE461\Stability\RHF\Aug-CC-pVDZ\C8H11N1\OHZDE\08-Apr-2025\0\\
 #t hf aug-cc-pvdz symm=none int=(grid=ultrafine) guess=(read,tcheck) s
 table=(opt,rrhf)\\title\\0,1\C,0,-0.003342,0.307808,-0.360749\N,0,-2.4
 07764,-0.316973,-0.342968\C,0,-2.732139,-0.261694,1.079577\H,0,-3.0798
 68,0.729599,1.418993\H,0,-1.848653,-0.521969,1.667414\H,0,-3.508697,-0
 .996072,1.305174\C,0,0.430088,-1.020477,-0.418703\C,0,1.743187,-1.3515
 76,-0.096157\C,0,2.644925,-0.359427,0.287529\C,0,2.221134,0.965489,0.3
 52108\C,0,0.904248,1.293358,0.033443\H,0,0.57744,2.327143,0.094572\H,0

 Normal termination of Gaussian 16 at Tue Apr  8 22:40:45 2025.
 Gaussian 16:  ES64L-G16RevC.01  3-Jul-2019

 ----------------------------------------------------------------------
 #t hf aug-cc-pvdz iop(5/13=1,5/36=2,99/5=2) pseudo=read geom=check gue
 ss=(read,tcheck) scf=(maxcycle=1)
 ----------------------------------------------------------------------
 -----
 title
 -----
 Structure from the checkpoint file:  "BDE49_expt_1301_mol1.chk"
 Charge =  0 Multiplicity = 1

                         Standard orientation:
 ---------------------------------------------------------------------
 Center     Atomic      Atomic             Coordinates (Angstroms)
 Number     Number       Type             X           Y           Z
 ---------------------------------------------------------------------
      1          6           0       -0.003342    0.307808   -0.360749
      2          7           0       -2.407764   -0.316973   -0.342968
      3          6           0       -2.732139   -0.261694    1.079577
      4          1           0       -3.079868    0.729599    1.418993
      5          1           0       -1.848653   -0.521969    1.667414
      6          1           0       -3.508697   -0.996072    1.305174
      7          6           0        0.430088   -1.020477   -0.418703
      8          6           0        1.743187   -1.351576   -0.096157
      9          6           0        2.644925   -0.359427    0.287529
     10          6           0        2.221134    0.965489    0.352108
     11          6           0        0.904248    1.293358    0.033443
     12          1           0        0.577440    2.327143    0.094572
     13          1           0       -0.281671   -1.785645   -0.705780
     14          1           0        2.064692   -2.386473   -0.144162
     15          1           0        3.667381   -0.618319    0.539310
     16          1           0        2.912322    1.743581    0.657333
     17          6           0       -1.421855    0.676451   -0.761957
     18          1           0       -1.469005    0.742851   -1.855235
     19          1           0       -1.645254    1.687226   -0.375875
     20          1           0       -3.251812   -0.202698   -0.891520
 ---------------------------------------------------------------------

 SCF Done:  E(RHF) =  -364.216209312     A.U. after    2 cycles

 The electronic state is 1-A.
 Alpha  occ. eigenvalues --  -15.48739 -11.26358 -11.25071 -11.24002 -11.23829
 Alpha  occ. eigenvalues --  -11.23716 -11.23535 -11.23515 -11.22989  -1.20703
 Alpha  occ. eigenvalues --   -1.14589  -1.03105  -1.00926  -0.94611  -0.87687
 Alpha  occ. eigenvalues --   -0.83005  -0.79670  -0.70555  -0.69328  -0.65442
 Alpha  occ. eigenvalues --   -0.63912  -0.61565  -0.60397  -0.58926  -0.56693
 Alpha  occ. eigenvalues --   -0.54311  -0.53173  -0.49646  -0.49560  -0.49037
 Alpha  occ. eigenvalues --   -0.40964  -0.33985  -0.33249
 Alpha virt. eigenvalues --    0.03429   0.03657   0.03864   0.04676   0.04925
 Alpha virt. eigenvalues --    0.05288   0.06067   0.06859   0.07394   0.07775
 Alpha virt. eigenvalues --    0.08478   0.10837   0.11101   0.12132   0.13124

 Mulliken charges:
               1
     1  C    1.519084
     2  N    0.395261
     3  C   -0.414374
     4  H    0.151433
     5  H    0.097315
     6  H    0.030207
     7  C    0.126951
     8  C   -0.200000
     9  C    0.179127
    10  C    0.116294
    11  C    0.230489
    12  H   -0.322080
    13  H   -0.293107
    14  H   -0.248819
    15  H   -0.218665
    16  H   -0.240883
    17  C   -1.293985
    18  H    0.098780
    19  H    0.043737
    20  H    0.243235
 Sum of Mulliken charges =  -0.00000

 Dipole moment (field-independent basis, Debye):
    X=             -0.9322    Y=              0.8570    Z=              0.0656  Tot=              1.2680

 Test job not archived.
 1\1\GINC-SE461\SP\RHF\Aug-CC-pVDZ\C8H11N1\OHZDE\08-Apr-2025\0\\#t hf a
 ug-cc-pvdz iop(5/13=1,5/36=2,99/5=2) pseudo=read geom=check guess=(rea
 d,tcheck) scf=(maxcycle=1)\\title\\0,1\C,0,-0.003342,0.307808,-0.36074
 9\N,0,-2.407764,-0.316973,-0.342968\C,0,-2.732139,-0.261694,1.079577\H
 ,0,-3.079868,0.729599,1.418993\H,0,-1.848653,-0.521969,1.667414\H,0,-3
 .508697,-0.996072,1.305174\C,0,0.430088,-1.020477,-0.418703\C,0,1.7431
 87,-1.351576,-0.096157\C,0,2.644925,-0.359427,0.287529\C,0,2.221134,0.
 965489,0.352108\C,0,0.904248,1.293358,0.033443\H,0,0.57744,2.327143,0.

 Normal termination of Gaussian 16 at Tue Apr  8 22:40:55 2025.
