 Gaussian 16, Revision C.01,

 ----------------------------------------------------------------------
 #t hf aug-cc-pvdz symm=none int=(grid=ultrafine) guess=(read,tcheck) s
 table=(opt,rrhf)
 ----------------------------------------------------------------------
 -----
 title
 -----
 Symbolic Z-matrix:
 Charge =  0 Multiplicity = 1

 SCF Done:  E(RHF) =  -1327.42091926     A.U. after   15 cycles
 Normal termination of Gaussian 16 at Wed Apr  9 00:53:10 2025.
 Gaussian 16:  ES64L-G16RevC.01  3-Jul-2019

 ----------------------------------------------------------------------
 #t hf aug-cc-pvdz iop(5/13=1,5/36=2,99/5=2) pseudo=read geom=check gue
 ss=(read,tcheck) scf=(maxcycle=1)
 ----------------------------------------------------------------------
 -----
 title
 -----
 Structure from the checkpoint file:  "BDE49_nonexpt_959_mol1.chk"
 Charge =  0 Multiplicity = 1

                         Standard orientation:
 ---------------------------------------------------------------------
 Center     Atomic      Atomic             Coordinates (Angstroms)
 Number     Number       Type             X           Y           Z
 ---------------------------------------------------------------------
      1          9           0        0.154765    1.866956   -0.482825
      2          7           0        0.013080    0.476847   -0.666835
      3         16           0        1.514866   -0.269460   -0.133000
      4         16           0       -1.530288    0.010907    0.156581
      5          8           0        1.184995   -1.671655   -0.159286
      6          8           0        2.533479    0.295441   -0.967369
      7          8           0       -1.280037   -0.400541    1.515316
      8          8           0       -2.420654    1.094042   -0.143817
      9          6           0        1.762210    0.295290    1.542131
     10          1           0        2.731735   -0.101158    1.845307
     11          1           0        0.955332   -0.089090    2.160846
     12          1           0        1.781915    1.383719    1.524678
     13          6           0       -1.908592   -1.414154   -0.842996
     14          1           0       -1.102738   -2.135956   -0.728293
     15          1           0       -2.019511   -1.085026   -1.873666
     16          1           0       -2.848386   -1.801291   -0.446469
 ---------------------------------------------------------------------

 SCF Done:  E(RHF) =  -1328.06860624     A.U. after    2 cycles

 The electronic state is 1-A.
 Alpha  occ. eigenvalues --  -94.25428 -94.25005 -26.53280 -20.58367 -20.57973
 Alpha  occ. eigenvalues --  -20.57911 -20.57431 -15.67111 -11.31415 -11.30998
 Alpha  occ. eigenvalues --   -8.50452  -8.50030  -6.48540  -6.48362  -6.48221
 Alpha  occ. eigenvalues --   -6.48136  -6.47943  -6.47808  -1.65221  -1.60372
 Alpha  occ. eigenvalues --   -1.60066  -1.48616  -1.48327  -1.22082  -1.10408
 Alpha  occ. eigenvalues --   -1.07042  -0.93725  -0.85692  -0.78857  -0.77577
 Alpha  occ. eigenvalues --   -0.75648  -0.71618  -0.70069  -0.69671  -0.69350
 Alpha  occ. eigenvalues --   -0.66616  -0.65158  -0.63881  -0.63310  -0.62984
 Alpha  occ. eigenvalues --   -0.59396  -0.54805  -0.53372  -0.52572  -0.52004
 Alpha  occ. eigenvalues --   -0.51337  -0.50002  -0.49185  -0.48520
 Alpha virt. eigenvalues --    0.03168   0.03644   0.04947   0.05409   0.05925
 Alpha virt. eigenvalues --    0.06171   0.08345   0.10256   0.10793   0.11373
 Alpha virt. eigenvalues --    0.11952   0.12200   0.12517   0.13780   0.14251

 Mulliken charges:
               1
     1  F   -0.645777
     2  N    0.003682
     3  S    3.211408
     4  S    3.295669
     5  O   -1.564473
     6  O   -1.508572
     7  O   -1.579954
     8  O   -1.496140
     9  C   -0.686120
    10  H    0.272755
    11  H    0.260996
    12  H    0.287798
    13  C   -0.637957
    14  H    0.250934
    15  H    0.250155
    16  H    0.285596
 Sum of Mulliken charges =  -0.00000

 Dipole moment (field-independent basis, Debye):
    X=             -0.4845    Y=             -1.8284    Z=              1.5546  Tot=              2.4484

 Test job not archived.
 1\1\GINC-SE454\SP\RHF\Aug-CC-pVDZ\C2H6F1N1O4S2\OHZDE\09-Apr-2025\0\\#t
  hf aug-cc-pvdz iop(5/13=1,5/36=2,99/5=2) pseudo=read geom=check guess
 =(read,tcheck) scf=(maxcycle=1)\\title\\0,1\F,0,0.154765,1.866956,-0.4
 82825\N,0,0.01308,0.476847,-0.666835\S,0,1.514866,-0.26946,-0.133\S,0,
 -1.530288,0.010907,0.156581\O,0,1.184995,-1.671655,-0.159286\O,0,2.533
 479,0.295441,-0.967369\O,0,-1.280037,-0.400541,1.515316\O,0,-2.420654,
 1.094042,-0.143817\C,0,1.76221,0.29529,1.542131\H,0,2.731735,-0.101158
 ,1.845307\H,0,0.955332,-0.08909,2.160846\H,0,1.781915,1.383719,1.52467

 Normal termination of Gaussian 16 at Wed Apr  9 00:53:18 2025.
