 Gaussian 16, Revision C.01,

 ----------------------------------------------------------------------
 #t hf aug-cc-pvdz symm=none int=(grid=ultrafine) guess=(read,tcheck) s
 table=opt
 ----------------------------------------------------------------------
 -----
 title
 -----
 Symbolic Z-matrix:
 Charge =  0 Multiplicity = 2

 SCF Done:  E(UHF) =  -679.658729002     A.U. after   14 cycles

 1\1\GINC-SE069\Stability\UHF\Aug-CC-pVDZ\F1H4Si2\OHZDE\08-Apr-2025\0\\
 #t hf aug-cc-pvdz symm=none int=(grid=ultrafine) guess=(read,tcheck) s
 table=opt\\title\\0,2\Si,0,1.552341,-0.19791,-0.076852\Si,0,-0.676045,
 0.512911,0.066703\F,0,-1.646518,-0.772168,-0.097604\H,0,-1.021184,1.13
 8044,1.364561\H,0,-0.968839,1.455206,-1.035705\H,0,2.052645,-0.962333,
 1.092735\H,0,2.487904,0.90859,-0.401066\\Version=ES64L-G16RevC.01\HF=-
 679.658729\S2=0.759135\S2-1=0.\S2A=0.750033\RMSD=7.273e-09\Dipole=0.42
 58846,0.4430613,0.0751493\Quadrupole=-1.0746912,0.3184646,0.7562266,-1

 Normal termination of Gaussian 16 at Tue Apr  8 23:56:20 2025.
 Gaussian 16:  ES64L-G16RevC.01  3-Jul-2019

 ----------------------------------------------------------------------
 #t hf aug-cc-pvdz iop(5/13=1,5/36=2,99/5=2) pseudo=read geom=check gue
 ss=(read,tcheck) scf=(maxcycle=1)
 ----------------------------------------------------------------------
 -----
 title
 -----
 Structure from the checkpoint file:  "BDE49_nonexpt_2020_mol2.chk"
 Charge =  0 Multiplicity = 2

                         Standard orientation:
 ---------------------------------------------------------------------
 Center     Atomic      Atomic             Coordinates (Angstroms)
 Number     Number       Type             X           Y           Z
 ---------------------------------------------------------------------
      1         14           0        1.552341   -0.197910   -0.076852
      2         14           0       -0.676045    0.512911    0.066703
      3          9           0       -1.646518   -0.772168   -0.097604
      4          1           0       -1.021184    1.138044    1.364561
      5          1           0       -0.968839    1.455206   -1.035705
      6          1           0        2.052645   -0.962333    1.092735
      7          1           0        2.487904    0.908590   -0.401066
 ---------------------------------------------------------------------

 SCF Done:  E(UHF) =  -679.813054866     A.U. after    2 cycles

 The electronic state is 2-A.
 Alpha  occ. eigenvalues --  -69.58778 -69.54464 -26.44974  -6.25344  -6.21803
 Alpha  occ. eigenvalues --   -4.00794  -4.00573  -4.00533  -3.97780  -3.96841
 Alpha  occ. eigenvalues --   -3.96830  -1.55918  -0.79971  -0.72768  -0.64313
 Alpha  occ. eigenvalues --   -0.64173  -0.61597  -0.51229  -0.49193  -0.44145
 Alpha  occ. eigenvalues --   -0.34004
 Alpha virt. eigenvalues --    0.03803   0.04165   0.05419   0.06175   0.07197
 Alpha virt. eigenvalues --    0.07514   0.07958   0.08418   0.09349   0.10099
 Alpha virt. eigenvalues --    0.12153   0.14167   0.14631   0.15526   0.18386

  Beta  occ. eigenvalues --  -69.58783 -69.53906 -26.45003  -6.25354  -6.20978
  Beta  occ. eigenvalues --   -4.00760  -4.00586  -4.00559  -3.96435  -3.96434
  Beta  occ. eigenvalues --   -3.95579  -1.55992  -0.78440  -0.69496  -0.64287
  Beta  occ. eigenvalues --   -0.64248  -0.61132  -0.50696  -0.48804  -0.42994
  Beta virt. eigenvalues --    0.00804   0.03998   0.04308   0.05680   0.06925
  Beta virt. eigenvalues --    0.07320   0.07837   0.08370   0.09133   0.09897
  Beta virt. eigenvalues --    0.10335   0.13219   0.15130   0.15836   0.17100

 Mulliken charges and spin densities:
               1          2
     1  Si   0.273953   1.106653
     2  Si   1.149755  -0.059484
     3  F   -0.813429   0.000964
     4  H   -0.175382   0.020901
     5  H   -0.146418  -0.007917
     6  H   -0.140349  -0.023406
     7  H   -0.148131  -0.037711
 Sum of Mulliken charges =  -0.00000   1.00000

 Dipole moment (field-independent basis, Debye):
    X=              1.0071    Y=              1.0434    Z=              0.2109  Tot=              1.4654
                          Isotropic Fermi Contact Couplings
        Atom                 a.u.       MegaHertz       Gauss      10(-4) cm-1
     1  Si(29)             0.49860    -443.11825    -158.11561    -147.80834
     2  Si(29)            -0.01528      13.57863       4.84519       4.52934
     3  F(19)             -0.00399     -16.79062      -5.99131      -5.60075
     4  H(1)               0.00810      36.21962      12.92406      12.08157
     5  H(1)              -0.00176      -7.84962      -2.80094      -2.61835
     6  H(1)              -0.00410     -18.33699      -6.54309      -6.11656
     7  H(1)              -0.00573     -25.61418      -9.13978      -8.54397
 --------------------------------------------------------

 Normal termination of Gaussian 16 at Tue Apr  8 23:56:22 2025.
