 Gaussian 16, Revision C.01,

 ----------------------------------------------------------------------
 #t hf aug-cc-pvdz symm=none int=(grid=ultrafine) guess=(read,tcheck) s
 table=(opt,rrhf)
 ----------------------------------------------------------------------
 -----
 title
 -----
 Symbolic Z-matrix:
 Charge =  0 Multiplicity = 1

 SCF Done:  E(RHF) =  -612.048999805     A.U. after   13 cycles
 Normal termination of Gaussian 16 at Tue Apr  8 23:59:58 2025.
 Gaussian 16:  ES64L-G16RevC.01  3-Jul-2019

 ----------------------------------------------------------------------
 #t hf aug-cc-pvdz iop(5/13=1,5/36=2,99/5=2) pseudo=read geom=check gue
 ss=(read,tcheck) scf=(maxcycle=1)
 ----------------------------------------------------------------------
 -----
 title
 -----
 Structure from the checkpoint file:  "BDE49_nonexpt_2079_mol1.chk"
 Charge =  0 Multiplicity = 1

                         Standard orientation:
 ---------------------------------------------------------------------
 Center     Atomic      Atomic             Coordinates (Angstroms)
 Number     Number       Type             X           Y           Z
 ---------------------------------------------------------------------
      1         14           0        2.427219    0.117617    0.000000
      2          8           0        0.807115    0.611546   -0.000004
      3          6           0       -0.146395   -0.361151   -0.000006
      4          8           0        0.158573   -1.541380    0.000001
      5          7           0       -1.413955    0.125410   -0.000005
      6          6           0       -1.744585    1.542789    0.000001
      7          1           0       -0.835194    2.134601   -0.000021
      8          1           0       -2.335921    1.794264    0.887657
      9          1           0       -2.335960    1.794258   -0.887630
     10          6           0       -2.528225   -0.810848    0.000007
     11          1           0       -3.151449   -0.662892    0.888695
     12          1           0       -2.135900   -1.824205    0.000000
     13          1           0       -3.151468   -0.662888   -0.888667
     14          1           0        3.146609    1.406538    0.000002
     15          1           0        2.752820   -0.645125   -1.218568
     16          1           0        2.752813   -0.645125    1.218570
 ---------------------------------------------------------------------

 SCF Done:  E(RHF) =  -612.409624468     A.U. after    2 cycles

 The electronic state is 1-A.
 Alpha  occ. eigenvalues --  -69.56598 -20.57447 -20.51390 -15.53385 -11.41331
 Alpha  occ. eigenvalues --  -11.27679 -11.27046  -6.23161  -3.98658  -3.98507
 Alpha  occ. eigenvalues --   -3.98482  -1.53037  -1.43240  -1.26055  -0.98959
 Alpha  occ. eigenvalues --   -0.97552  -0.81687  -0.74811  -0.71888  -0.69161
 Alpha  occ. eigenvalues --   -0.68261  -0.62091  -0.61488  -0.57943  -0.57234
 Alpha  occ. eigenvalues --   -0.56896  -0.54674  -0.51066  -0.48410  -0.46351
 Alpha  occ. eigenvalues --   -0.44566  -0.40925
 Alpha virt. eigenvalues --    0.03305   0.04126   0.04678   0.04724   0.05778
 Alpha virt. eigenvalues --    0.05796   0.06333   0.07150   0.07398   0.09308
 Alpha virt. eigenvalues --    0.10336   0.10412   0.10964   0.12842   0.13920

 Mulliken charges:
               1
     1  Si   1.234163
     2  O   -1.772210
     3  C    0.866865
     4  O   -1.097098
     5  N    0.888599
     6  C   -0.286812
     7  H    0.059900
     8  H    0.157061
     9  H    0.157057
    10  C   -0.137128
    11  H    0.194374
    12  H    0.013445
    13  H    0.194372
    14  H   -0.166687
    15  H   -0.152951
    16  H   -0.152950
 Sum of Mulliken charges =  -0.00000

 Dipole moment (field-independent basis, Debye):
    X=             -1.5945    Y=              2.2171    Z=              0.0000  Tot=              2.7309

 Test job not archived.
 1\1\GINC-SE328\SP\RHF\Aug-CC-pVDZ\C3H9N1O2Si1\OHZDE\09-Apr-2025\0\\#t
 hf aug-cc-pvdz iop(5/13=1,5/36=2,99/5=2) pseudo=read geom=check guess=
 (read,tcheck) scf=(maxcycle=1)\\title\\0,1\Si,0,2.427219,0.117617,0.\O
 ,0,0.807115,0.611546,-0.000004\C,0,-0.146395,-0.361151,-0.000006\O,0,0
 .158573,-1.54138,0.000001\N,0,-1.413955,0.12541,-0.000005\C,0,-1.74458
 5,1.542789,0.000001\H,0,-0.835194,2.134601,-0.000021\H,0,-2.335921,1.7
 94264,0.887657\H,0,-2.33596,1.794258,-0.88763\C,0,-2.528225,-0.810848,
 0.000007\H,0,-3.151449,-0.662892,0.888695\H,0,-2.1359,-1.824205,0.\H,0

 Normal termination of Gaussian 16 at Wed Apr  9 00:00:03 2025.
