 Gaussian 16, Revision C.01,

 ----------------------------------------------------------------------
 #t hf aug-cc-pvdz symm=none int=(grid=ultrafine) guess=(read,tcheck) s
 table=(opt,rrhf)
 ----------------------------------------------------------------------
 -----
 title
 -----
 Symbolic Z-matrix:
 Charge =  0 Multiplicity = 1

 SCF Done:  E(RHF) =  -635.408758845     A.U. after   13 cycles
 Normal termination of Gaussian 16 at Tue Apr  8 23:30:41 2025.
 Gaussian 16:  ES64L-G16RevC.01  3-Jul-2019

 ----------------------------------------------------------------------
 #t hf aug-cc-pvdz iop(5/13=1,5/36=2,99/5=2) pseudo=read geom=check gue
 ss=(read,tcheck) scf=(maxcycle=1)
 ----------------------------------------------------------------------
 -----
 title
 -----
 Structure from the checkpoint file:  "BDE49_nonexpt_1373_mol1.chk"
 Charge =  0 Multiplicity = 1

                         Standard orientation:
 ---------------------------------------------------------------------
 Center     Atomic      Atomic             Coordinates (Angstroms)
 Number     Number       Type             X           Y           Z
 ---------------------------------------------------------------------
      1          9           0       -1.846600   -0.510090    0.000000
      2         15           0       -0.406308   -1.330744    0.000000
      3          6           0        0.405948   -0.429761    1.399168
      4          6           0        0.405948    1.102465    1.281354
      5          6           0        1.083327    1.608901   -0.000000
      6          6           0        0.405948    1.102465   -1.281354
      7          6           0        0.405948   -0.429761   -1.399168
      8          1           0        1.431543   -0.821973    1.440020
      9          1           0       -0.081787   -0.754820    2.323196
     10          1           0        0.905761    1.530828   -2.156867
     11          1           0       -0.629654    1.456292   -1.307699
     12          1           0        1.431543   -0.821973   -1.440020
     13          1           0       -0.081787   -0.754820   -2.323196
     14          1           0        0.905761    1.530828    2.156867
     15          1           0       -0.629654    1.456292    1.307699
     16          1           0        2.137924    1.301946   -0.000000
     17          1           0        1.081653    2.703518   -0.000000
 ---------------------------------------------------------------------

 SCF Done:  E(RHF) =  -635.759709093     A.U. after    2 cycles

 The electronic state is 1-A'.
 Alpha  occ. eigenvalues --  -84.32267 -26.43803 -11.24143 -11.24133 -11.23681
 Alpha  occ. eigenvalues --  -11.23673 -11.23395  -6.78631  -4.31379  -4.30860
 Alpha  occ. eigenvalues --   -4.30258  -1.54549  -1.10699  -1.01858  -0.97668
 Alpha  occ. eigenvalues --   -0.84689  -0.81629  -0.75209  -0.66022  -0.64274
 Alpha  occ. eigenvalues --   -0.63871  -0.61422  -0.59396  -0.58717  -0.55425
 Alpha  occ. eigenvalues --   -0.54936  -0.52419  -0.49649  -0.49206  -0.47523
 Alpha  occ. eigenvalues --   -0.41883  -0.33105
 Alpha virt. eigenvalues --    0.03456   0.03688   0.03846   0.04571   0.05852
 Alpha virt. eigenvalues --    0.06273   0.06396   0.06943   0.07380   0.09497
 Alpha virt. eigenvalues --    0.09601   0.11739   0.12246   0.13746   0.14168

 Mulliken charges:
               1
     1  F   -0.860115
     2  P    2.054508
     3  C   -0.811323
     4  C   -0.305037
     5  C   -0.378852
     6  C   -0.305037
     7  C   -0.811323
     8  H    0.225232
     9  H    0.101739
    10  H    0.093977
    11  H    0.152521
    12  H    0.225232
    13  H    0.101739
    14  H    0.093977
    15  H    0.152521
    16  H    0.141838
    17  H    0.128402
 Sum of Mulliken charges =  -0.00000

 Dipole moment (field-independent basis, Debye):
    X=              2.0121    Y=              0.7790    Z=             -0.0000  Tot=              2.1576

 Test job not archived.
 1\1\GINC-SE284\SP\RHF\Aug-CC-pVDZ\C5H10F1P1\OHZDE\08-Apr-2025\0\\#t hf
  aug-cc-pvdz iop(5/13=1,5/36=2,99/5=2) pseudo=read geom=check guess=(r
 ead,tcheck) scf=(maxcycle=1)\\title\\0,1\F,0,-1.8466,-0.51009,0.\P,0,-
 0.406308,-1.330744,0.\C,0,0.405948,-0.429761,1.399168\C,0,0.405948,1.1
 02465,1.281354\C,0,1.083327,1.608901,0.\C,0,0.405948,1.102465,-1.28135
 4\C,0,0.405948,-0.429761,-1.399168\H,0,1.431543,-0.821973,1.44002\H,0,
 -0.081787,-0.75482,2.323196\H,0,0.905761,1.530828,-2.156867\H,0,-0.629
 654,1.456292,-1.307699\H,0,1.431543,-0.821973,-1.44002\H,0,-0.081787,-

 Normal termination of Gaussian 16 at Tue Apr  8 23:30:45 2025.
