 Gaussian 16, Revision C.01,

 ----------------------------------------------------------------------
 #t hf aug-cc-pvdz symm=none int=(grid=ultrafine) guess=(read,tcheck) s
 table=(opt,rrhf)
 ----------------------------------------------------------------------
 -----
 title
 -----
 Symbolic Z-matrix:
 Charge =  0 Multiplicity = 1

 SCF Done:  E(RHF) =  -594.499715643     A.U. after   13 cycles
 Normal termination of Gaussian 16 at Wed Apr  9 00:44:00 2025.
 Gaussian 16:  ES64L-G16RevC.01  3-Jul-2019

 ----------------------------------------------------------------------
 #t hf aug-cc-pvdz iop(5/13=1,5/36=2,99/5=2) pseudo=read geom=check gue
 ss=(read,tcheck) scf=(maxcycle=1)
 ----------------------------------------------------------------------
 -----
 title
 -----
 Structure from the checkpoint file:  "BDE49_nonexpt_749_mol1.chk"
 Charge =  0 Multiplicity = 1

                         Standard orientation:
 ---------------------------------------------------------------------
 Center     Atomic      Atomic             Coordinates (Angstroms)
 Number     Number       Type             X           Y           Z
 ---------------------------------------------------------------------
      1          6           0        1.665574   -0.204112    0.467121
      2          5           0       -1.166309    0.269877    0.002536
      3          8           0       -2.489542   -0.053522    0.012952
      4          8           0       -0.848169    1.585287    0.066164
      5          6           0        2.411131    0.630207   -0.262950
      6          1           0        3.247117    1.169949    0.169725
      7          1           0        2.228520    0.789217   -1.322169
      8          1           0        0.104492    1.727468    0.120321
      9          1           0       -2.666535   -0.993142   -0.068910
     10         15           0        0.224567   -1.109784   -0.215199
     11          1           0        1.908580   -0.355619    1.515511
     12          1           0       -0.117665   -1.851192    0.942874
 ---------------------------------------------------------------------

 SCF Done:  E(RHF) =  -594.800818005     A.U. after    2 cycles

 The electronic state is 1-A.
 Alpha  occ. eigenvalues --  -84.26745 -20.56340 -20.55793 -11.26830 -11.26033
 Alpha  occ. eigenvalues --   -7.65884  -6.74096  -4.26771  -4.26494  -4.25925
 Alpha  occ. eigenvalues --   -1.48406  -1.44683  -1.06905  -0.88891  -0.79811
 Alpha  occ. eigenvalues --   -0.76888  -0.67591  -0.66057  -0.63038  -0.59863
 Alpha  occ. eigenvalues --   -0.57906  -0.57362  -0.49563  -0.49288  -0.44583
 Alpha  occ. eigenvalues --   -0.41553  -0.32838
 Alpha virt. eigenvalues --    0.03252   0.03849   0.04270   0.05461   0.05766
 Alpha virt. eigenvalues --    0.06830   0.07413   0.08476   0.08891   0.09448
 Alpha virt. eigenvalues --    0.10447   0.11045   0.11810   0.13330   0.14321

 Mulliken charges:
               1
     1  C   -0.001325
     2  B    1.989621
     3  O   -1.280015
     4  O   -1.254160
     5  C   -0.136534
     6  H   -0.072465
     7  H   -0.079065
     8  H    0.699470
     9  H    0.516561
    10  P   -0.515191
    11  H   -0.179907
    12  H    0.313009
 Sum of Mulliken charges =  -0.00000

 Dipole moment (field-independent basis, Debye):
    X=              1.9147    Y=             -1.3318    Z=              0.5183  Tot=              2.3892

 Test job not archived.
 1\1\GINC-SE345\SP\RHF\Aug-CC-pVDZ\C2H6B1O2P1\OHZDE\09-Apr-2025\0\\#t h
 f aug-cc-pvdz iop(5/13=1,5/36=2,99/5=2) pseudo=read geom=check guess=(
 read,tcheck) scf=(maxcycle=1)\\title\\0,1\C,0,1.665574,-0.204112,0.467
 121\B,0,-1.166309,0.269877,0.002536\O,0,-2.489542,-0.053522,0.012952\O
 ,0,-0.848169,1.585287,0.066164\C,0,2.411131,0.630207,-0.26295\H,0,3.24
 7117,1.169949,0.169725\H,0,2.22852,0.789217,-1.322169\H,0,0.104492,1.7
 27468,0.120321\H,0,-2.666535,-0.993142,-0.06891\P,0,0.224567,-1.109784
 ,-0.215199\H,0,1.90858,-0.355619,1.515511\H,0,-0.117665,-1.851192,0.94

 Normal termination of Gaussian 16 at Wed Apr  9 00:44:04 2025.
