 Gaussian 16, Revision C.01,

 ----------------------------------------------------------------------
 #t hf aug-cc-pvdz symm=none int=(grid=ultrafine) guess=(read,tcheck) s
 table=(opt,rrhf)
 ----------------------------------------------------------------------
 -----
 title
 -----
 Symbolic Z-matrix:
 Charge =  0 Multiplicity = 1

 SCF Done:  E(RHF) =  -152.938821506     A.U. after   12 cycles
 Normal termination of Gaussian 16 at Tue Apr  8 23:00:36 2025.
 Gaussian 16:  ES64L-G16RevC.01  3-Jul-2019

 ----------------------------------------------------------------------
 #t hf aug-cc-pvdz iop(5/13=1,5/36=2,99/5=2) pseudo=read geom=check gue
 ss=(read,tcheck) scf=(maxcycle=1)
 ----------------------------------------------------------------------
 -----
 title
 -----
 Structure from the checkpoint file:  "BDE49_expt_203_mol1.chk"
 Charge =  0 Multiplicity = 1

                         Standard orientation:
 ---------------------------------------------------------------------
 Center     Atomic      Atomic             Coordinates (Angstroms)
 Number     Number       Type             X           Y           Z
 ---------------------------------------------------------------------
      1          6           0       -0.235515    0.397239   -0.000006
      2          8           0       -1.233093   -0.276593   -0.000000
      3          6           0        1.168546   -0.147779    0.000002
      4          1           0       -0.304875    1.508935    0.000015
      5          1           0        1.155793   -1.237611   -0.000008
      6          1           0        1.707815    0.222321    0.878897
      7          1           0        1.707831    0.222337   -0.878877
 ---------------------------------------------------------------------

 SCF Done:  E(RHF) =  -153.096192914     A.U. after    2 cycles

 The electronic state is 1-A.
 Alpha  occ. eigenvalues --  -20.54939 -11.34725 -11.25386  -1.48038  -1.02673
 Alpha  occ. eigenvalues --   -0.80812  -0.68242  -0.63158  -0.61051  -0.56707
 Alpha  occ. eigenvalues --   -0.50695  -0.42119
 Alpha virt. eigenvalues --    0.03293   0.04369   0.04975   0.06366   0.10372
 Alpha virt. eigenvalues --    0.10590   0.11810   0.14297   0.15382   0.15449
 Alpha virt. eigenvalues --    0.15499   0.16017   0.20276   0.25296   0.25313

 Mulliken charges:
               1
     1  C    0.904998
     2  O   -1.055388
     3  C   -0.554194
     4  H    0.141097
     5  H    0.139719
     6  H    0.211883
     7  H    0.211885
 Sum of Mulliken charges =  -0.00000

 Dipole moment (field-independent basis, Debye):
    X=              2.7609    Y=              1.3206    Z=              0.0000  Tot=              3.0605

 Test job not archived.
 1\1\GINC-SE393\SP\RHF\Aug-CC-pVDZ\C2H4O1\OHZDE\08-Apr-2025\0\\#t hf au
 g-cc-pvdz iop(5/13=1,5/36=2,99/5=2) pseudo=read geom=check guess=(read
 ,tcheck) scf=(maxcycle=1)\\title\\0,1\C,0,-0.235515,0.397239,-0.000006
 \O,0,-1.233093,-0.276593,0.\C,0,1.168546,-0.147779,0.000002\H,0,-0.304
 875,1.508935,0.000015\H,0,1.155793,-1.237611,-0.000008\H,0,1.707815,0.
 222321,0.878897\H,0,1.707831,0.222337,-0.878877\\Version=ES64L-G16RevC
 .01\State=1-A\HF=-153.0961929\RMSD=8.924e-03\Dipole=1.086205,0.5195789
 ,0.000002\Quadrupole=-1.660949,0.8973374,0.7636117,-0.8454437,0.000005

 Normal termination of Gaussian 16 at Tue Apr  8 23:00:38 2025.
