 Gaussian 16, Revision C.01,

 ----------------------------------------------------------------------
 #t hf aug-cc-pvdz symm=none int=(grid=ultrafine) guess=(read,tcheck) s
 table=(opt,rrhf)
 ----------------------------------------------------------------------
 -----
 title
 -----
 Symbolic Z-matrix:
 Charge =  0 Multiplicity = 1

 SCF Done:  E(RHF) =  -706.333435607     A.U. after   15 cycles

 1\1\GINC-SE044\Stability\RHF\Aug-CC-pVDZ\C8H10S1\OHZDE\08-Apr-2025\0\\
 #t hf aug-cc-pvdz symm=none int=(grid=ultrafine) guess=(read,tcheck) s
 table=(opt,rrhf)\\title\\0,1\C,0,2.466106,-0.921947,1.276493\C,0,2.426
 977,0.387667,0.497532\S,0,1.453903,0.321929,-1.065937\H,0,3.426623,0.6
 78384,0.163973\H,0,2.038136,1.205121,1.108264\C,0,-0.217951,0.140467,-
 0.442837\H,0,2.892245,-1.725487,0.671751\H,0,1.464144,-1.225931,1.5874
 1\H,0,3.077545,-0.808345,2.177934\C,0,-0.896222,-1.070372,-0.611564\C,
 0,-0.875409,1.21699,0.163731\C,0,-2.184735,1.074692,0.61415\C,0,-2.857

 Normal termination of Gaussian 16 at Tue Apr  8 22:39:43 2025.
 Gaussian 16:  ES64L-G16RevC.01  3-Jul-2019

 ----------------------------------------------------------------------
 #t hf aug-cc-pvdz iop(5/13=1,5/36=2,99/5=2) pseudo=read geom=check gue
 ss=(read,tcheck) scf=(maxcycle=1)
 ----------------------------------------------------------------------
 -----
 title
 -----
 Structure from the checkpoint file:  "BDE49_expt_1225_mol1.chk"
 Charge =  0 Multiplicity = 1

                         Standard orientation:
 ---------------------------------------------------------------------
 Center     Atomic      Atomic             Coordinates (Angstroms)
 Number     Number       Type             X           Y           Z
 ---------------------------------------------------------------------
      1          6           0       -2.466106    0.921947    1.276493
      2          6           0       -2.426977   -0.387667    0.497532
      3         16           0       -1.453903   -0.321929   -1.065937
      4          1           0       -3.426623   -0.678384    0.163973
      5          1           0       -2.038136   -1.205121    1.108264
      6          6           0        0.217951   -0.140467   -0.442837
      7          1           0       -2.892245    1.725487    0.671751
      8          1           0       -1.464144    1.225931    1.587410
      9          1           0       -3.077545    0.808345    2.177934
     10          6           0        0.896222    1.070372   -0.611564
     11          6           0        0.875409   -1.216990    0.163731
     12          6           0        2.184735   -1.074692    0.614150
     13          6           0        2.857605    0.134888    0.443781
     14          6           0        2.213366    1.203553   -0.174365
     15          1           0        2.732083    2.145701   -0.312377
     16          1           0        0.387930    1.901744   -1.084774
     17          1           0        2.685185   -1.913525    1.085086
     18          1           0        3.880492    0.240761    0.786977
     19          1           0        0.362219   -2.165747    0.269227
 ---------------------------------------------------------------------

 SCF Done:  E(RHF) =  -706.718839994     A.U. after    2 cycles

 The electronic state is 1-A.
 Alpha  occ. eigenvalues --  -93.94244 -11.27149 -11.26926 -11.25044 -11.24991
 Alpha  occ. eigenvalues --  -11.24953 -11.24876 -11.24824 -11.23178  -8.22283
 Alpha  occ. eigenvalues --   -6.20111  -6.19949  -6.19745  -1.16671  -1.08939
 Alpha  occ. eigenvalues --   -1.02667  -1.02298  -0.94626  -0.84813  -0.83992
 Alpha  occ. eigenvalues --   -0.79706  -0.71135  -0.65216  -0.64419  -0.63146
 Alpha  occ. eigenvalues --   -0.60576  -0.59907  -0.57034  -0.54379  -0.52270
 Alpha  occ. eigenvalues --   -0.51674  -0.51288  -0.48347  -0.44643  -0.36670
 Alpha  occ. eigenvalues --   -0.35167  -0.33425
 Alpha virt. eigenvalues --    0.03348   0.03443   0.03802   0.04540   0.04830
 Alpha virt. eigenvalues --    0.05091   0.07044   0.07177   0.07591   0.07876
 Alpha virt. eigenvalues --    0.09355   0.10046   0.10478   0.11971   0.12487

 Mulliken charges:
               1
     1  C   -0.424088
     2  C   -0.512785
     3  S    0.240850
     4  H    0.156360
     5  H    0.174410
     6  C    0.594942
     7  H    0.171579
     8  H    0.160087
     9  H    0.126475
    10  C   -0.152104
    11  C   -0.140576
    12  C    0.350838
    13  C    0.090134
    14  C    0.286097
    15  H   -0.212664
    16  H   -0.245482
    17  H   -0.216549
    18  H   -0.207311
    19  H   -0.240212
 Sum of Mulliken charges =  -0.00000

 Dipole moment (field-independent basis, Debye):
    X=              0.4691    Y=              0.1709    Z=              1.8644  Tot=              1.9301

 Test job not archived.
 1\1\GINC-SE044\SP\RHF\Aug-CC-pVDZ\C8H10S1\OHZDE\08-Apr-2025\0\\#t hf a
 ug-cc-pvdz iop(5/13=1,5/36=2,99/5=2) pseudo=read geom=check guess=(rea
 d,tcheck) scf=(maxcycle=1)\\title\\0,1\C,0,2.466106,-0.921947,1.276493
 \C,0,2.426977,0.387667,0.497532\S,0,1.453903,0.321929,-1.065937\H,0,3.
 426623,0.678384,0.163973\H,0,2.038136,1.205121,1.108264\C,0,-0.217951,
 0.140467,-0.442837\H,0,2.892245,-1.725487,0.671751\H,0,1.464144,-1.225
 931,1.58741\H,0,3.077545,-0.808345,2.177934\C,0,-0.896222,-1.070372,-0
 .611564\C,0,-0.875409,1.21699,0.163731\C,0,-2.184735,1.074692,0.61415\

 Normal termination of Gaussian 16 at Tue Apr  8 22:39:53 2025.
