 Gaussian 16, Revision C.01,

 ----------------------------------------------------------------------
 #t hf aug-cc-pvdz symm=none int=(grid=ultrafine) guess=(read,tcheck) s
 table=(opt,rrhf)
 ----------------------------------------------------------------------
 -----
 title
 -----
 Symbolic Z-matrix:
 Charge =  0 Multiplicity = 1

 SCF Done:  E(RHF) =  -1045.14715721     A.U. after   13 cycles
 Normal termination of Gaussian 16 at Tue Apr  8 23:35:12 2025.
 Gaussian 16:  ES64L-G16RevC.01  3-Jul-2019

 ----------------------------------------------------------------------
 #t hf aug-cc-pvdz iop(5/13=1,5/36=2,99/5=2) pseudo=read geom=check gue
 ss=(read,tcheck) scf=(maxcycle=1)
 ----------------------------------------------------------------------
 -----
 title
 -----
 Structure from the checkpoint file:  "BDE49_nonexpt_1500_mol1.chk"
 Charge =  0 Multiplicity = 1

                         Standard orientation:
 ---------------------------------------------------------------------
 Center     Atomic      Atomic             Coordinates (Angstroms)
 Number     Number       Type             X           Y           Z
 ---------------------------------------------------------------------
      1         15           0        0.371660    0.351424   -0.810404
      2          7           0       -1.246674    0.202546   -0.210229
      3          8           0       -1.404752    0.374469    1.188362
      4          6           0        0.846813    1.881016    0.086486
      5          1           0        0.674560    1.792696    1.157671
      6          1           0        0.256431    2.706004   -0.322205
      7         17           0        1.447079   -1.085494    0.377479
      8          1           0        1.902301    2.072063   -0.114996
      9          1           0       -2.253660    0.830712    1.258411
     10          8           0       -1.818706   -1.026330   -0.586686
     11          1           0       -1.321377   -1.708476   -0.100680
 ---------------------------------------------------------------------

 SCF Done:  E(RHF) =  -1045.51601677     A.U. after    2 cycles

 The electronic state is 1-A.
 Alpha  occ. eigenvalues -- -105.55890 -84.36017 -20.61198 -20.60780 -15.62870
 Alpha  occ. eigenvalues --  -11.25943 -10.60742  -7.77632  -7.77313  -7.77281
 Alpha  occ. eigenvalues --   -6.82413  -4.35024  -4.34360  -4.33848  -1.56138
 Alpha  occ. eigenvalues --   -1.46311  -1.11610  -1.03794  -0.98729  -0.81180
 Alpha  occ. eigenvalues --   -0.77628  -0.68950  -0.66223  -0.64864  -0.60600
 Alpha  occ. eigenvalues --   -0.58855  -0.53472  -0.51062  -0.49886  -0.48568
 Alpha  occ. eigenvalues --   -0.46636  -0.45228  -0.36758
 Alpha virt. eigenvalues --    0.03378   0.04531   0.05451   0.05879   0.06391
 Alpha virt. eigenvalues --    0.07974   0.08879   0.10307   0.11637   0.14198
 Alpha virt. eigenvalues --    0.14667   0.15156   0.15818   0.16856   0.16860

 Mulliken charges:
               1
     1  P    1.209642
     2  N    1.451710
     3  O   -1.196803
     4  C   -0.893493
     5  H    0.167768
     6  H    0.160748
     7  Cl  -0.566224
     8  H    0.181422
     9  H    0.354317
    10  O   -1.228219
    11  H    0.359131
 Sum of Mulliken charges =  -0.00000

 Dipole moment (field-independent basis, Debye):
    X=             -0.4197    Y=              2.2931    Z=              0.4697  Tot=              2.3780

 Test job not archived.
 1\1\GINC-SE082\SP\RHF\Aug-CC-pVDZ\C1H5Cl1N1O2P1\OHZDE\08-Apr-2025\0\\#
 t hf aug-cc-pvdz iop(5/13=1,5/36=2,99/5=2) pseudo=read geom=check gues
 s=(read,tcheck) scf=(maxcycle=1)\\title\\0,1\P,0,0.37166,0.351424,-0.8
 10404\N,0,-1.246674,0.202546,-0.210229\O,0,-1.404752,0.37447,1.188362\
 C,0,0.846814,1.881016,0.086486\H,0,0.674561,1.792696,1.157671\H,0,0.25
 6432,2.706004,-0.322205\Cl,0,1.447079,-1.085494,0.377479\H,0,1.902302,
 2.072063,-0.114996\H,0,-2.25366,0.830713,1.258411\O,0,-1.818706,-1.026
 329,-0.586686\H,0,-1.321377,-1.708475,-0.10068\\Version=ES64L-G16RevC.

 Normal termination of Gaussian 16 at Tue Apr  8 23:35:16 2025.
