 Gaussian 16, Revision C.01,

 ----------------------------------------------------------------------
 #t hf aug-cc-pvdz symm=none int=(grid=ultrafine) guess=(read,tcheck) s
 table=(opt,rrhf)
 ----------------------------------------------------------------------
 -----
 title
 -----
 Symbolic Z-matrix:
 Charge =  0 Multiplicity = 1

 SCF Done:  E(RHF) =  -325.978976571     A.U. after   14 cycles

 1\1\GINC-SE163\Stability\RHF\Aug-CC-pVDZ\C7H11N1\OHZDE\08-Apr-2025\0\\
 #t hf aug-cc-pvdz symm=none int=(grid=ultrafine) guess=(read,tcheck) s
 table=(opt,rrhf)\\title\\0,1\C,0,-2.157876,0.000286,0.070544\N,0,-3.27
 9464,-0.000157,-0.198325\C,0,-0.729622,0.000121,0.390346\C,0,2.150463,
 -0.000137,-0.33668\C,0,1.459956,-1.268123,0.184357\C,0,-0.038699,-1.27
 7188,-0.144563\H,0,1.592068,-1.333157,1.271918\H,0,1.931527,-2.160011,
 -0.238781\H,0,-0.182337,-1.324322,-1.22973\H,0,-0.522399,-2.161698,0.2
 78026\C,0,-0.038476,1.277296,-0.144602\H,0,-0.650128,0.000129,1.48529\

 Normal termination of Gaussian 16 at Tue Apr  8 22:37:53 2025.
 Gaussian 16:  ES64L-G16RevC.01  3-Jul-2019

 ----------------------------------------------------------------------
 #t hf aug-cc-pvdz iop(5/13=1,5/36=2,99/5=2) pseudo=read geom=check gue
 ss=(read,tcheck) scf=(maxcycle=1)
 ----------------------------------------------------------------------
 -----
 title
 -----
 Structure from the checkpoint file:  "BDE49_expt_1160_mol1.chk"
 Charge =  0 Multiplicity = 1

                         Standard orientation:
 ---------------------------------------------------------------------
 Center     Atomic      Atomic             Coordinates (Angstroms)
 Number     Number       Type             X           Y           Z
 ---------------------------------------------------------------------
      1          6           0        2.157876   -0.000286    0.070544
      2          7           0        3.279464    0.000157   -0.198325
      3          6           0        0.729622   -0.000121    0.390346
      4          6           0       -2.150463    0.000137   -0.336680
      5          6           0       -1.459956    1.268123    0.184357
      6          6           0        0.038699    1.277188   -0.144563
      7          1           0       -1.592068    1.333157    1.271918
      8          1           0       -1.931527    2.160011   -0.238781
      9          1           0        0.182337    1.324322   -1.229730
     10          1           0        0.522399    2.161698    0.278026
     11          6           0        0.038476   -1.277296   -0.144602
     12          1           0        0.650128   -0.000129    1.485290
     13          6           0       -1.460175   -1.267981    0.184329
     14          1           0       -2.125979    0.000146   -1.433692
     15          1           0       -3.205956    0.000225   -0.048374
     16          1           0        0.522036   -2.161902    0.277947
     17          1           0        0.182098   -1.324414   -1.229771
     18          1           0       -1.931899   -2.159778   -0.238829
     19          1           0       -1.592294   -1.333018    1.271888
 ---------------------------------------------------------------------

 SCF Done:  E(RHF) =  -326.323480370     A.U. after    2 cycles

 The electronic state is 1-A.
 Alpha  occ. eigenvalues --  -15.50515 -11.28678 -11.27268 -11.25337 -11.25316
 Alpha  occ. eigenvalues --  -11.24458 -11.24443 -11.24139  -1.22763  -1.14633
 Alpha  occ. eigenvalues --   -1.04530  -1.02711  -0.88668  -0.85938  -0.78688
 Alpha  occ. eigenvalues --   -0.72093  -0.66655  -0.63510  -0.63078  -0.60744
 Alpha  occ. eigenvalues --   -0.57570  -0.57392  -0.55878  -0.53761  -0.51407
 Alpha  occ. eigenvalues --   -0.49516  -0.48856  -0.48291  -0.46630  -0.45473
 Alpha virt. eigenvalues --    0.02854   0.03038   0.03121   0.03991   0.05339
 Alpha virt. eigenvalues --    0.05596   0.06405   0.06633   0.06901   0.08789
 Alpha virt. eigenvalues --    0.09077   0.10958   0.12312   0.12782   0.13514

 Mulliken charges:
               1
     1  C   -2.440132
     2  N    1.240421
     3  C    0.318398
     4  C   -0.333320
     5  C   -0.118381
     6  C    0.013229
     7  H    0.139571
     8  H    0.113622
     9  H    0.173655
    10  H    0.070550
    11  C    0.013083
    12  H    0.166985
    13  C   -0.118324
    14  H    0.144973
    15  H    0.118395
    16  H    0.070488
    17  H    0.173581
    18  H    0.113641
    19  H    0.139565
 Sum of Mulliken charges =  -0.00000

 Dipole moment (field-independent basis, Debye):
    X=             -5.2382    Y=             -0.0006    Z=              0.8936  Tot=              5.3139

 Test job not archived.
 1\1\GINC-SE163\SP\RHF\Aug-CC-pVDZ\C7H11N1\OHZDE\08-Apr-2025\0\\#t hf a
 ug-cc-pvdz iop(5/13=1,5/36=2,99/5=2) pseudo=read geom=check guess=(rea
 d,tcheck) scf=(maxcycle=1)\\title\\0,1\C,0,-2.157876,0.000286,0.070544
 \N,0,-3.279464,-0.000157,-0.198325\C,0,-0.729622,0.000121,0.390346\C,0
 ,2.150463,-0.000137,-0.33668\C,0,1.459956,-1.268123,0.184357\C,0,-0.03
 8699,-1.277188,-0.144563\H,0,1.592068,-1.333157,1.271918\H,0,1.931527,
 -2.160011,-0.238781\H,0,-0.182337,-1.324322,-1.22973\H,0,-0.522399,-2.
 161698,0.278026\C,0,-0.038476,1.277296,-0.144602\H,0,-0.650128,0.00012

 Normal termination of Gaussian 16 at Tue Apr  8 22:38:02 2025.
