 Gaussian 16, Revision C.01,

 ----------------------------------------------------------------------
 #t hf aug-cc-pvdz symm=none int=(grid=ultrafine) guess=(read,tcheck) s
 table=(opt,rrhf)
 ----------------------------------------------------------------------
 -----
 title
 -----
 Symbolic Z-matrix:
 Charge =  0 Multiplicity = 1

 SCF Done:  E(RHF) =  -956.997773383     A.U. after   13 cycles
 Normal termination of Gaussian 16 at Wed Apr  9 00:00:04 2025.
 Gaussian 16:  ES64L-G16RevC.01  3-Jul-2019

 ----------------------------------------------------------------------
 #t hf aug-cc-pvdz iop(5/13=1,5/36=2,99/5=2) pseudo=read geom=check gue
 ss=(read,tcheck) scf=(maxcycle=1)
 ----------------------------------------------------------------------
 -----
 title
 -----
 Structure from the checkpoint file:  "BDE49_nonexpt_2102_mol1.chk"
 Charge =  0 Multiplicity = 1

                         Standard orientation:
 ---------------------------------------------------------------------
 Center     Atomic      Atomic             Coordinates (Angstroms)
 Number     Number       Type             X           Y           Z
 ---------------------------------------------------------------------
      1         14           0       -0.138241   -0.384255    0.000003
      2          7           0        1.712583   -0.280835   -0.000017
      3          8           0        2.256644    0.800564   -0.000026
      4          6           0       -0.563959   -1.299894    1.565298
      5          1           0       -0.304925   -0.711613    2.448464
      6          1           0       -0.021212   -2.248139    1.608517
      7          6           0       -0.563991   -1.299906   -1.565276
      8         17           0       -1.024334    1.498956    0.000005
      9          1           0       -0.021244   -2.248151   -1.608500
     10          1           0       -0.304978   -0.711632   -2.448453
     11          1           0       -1.636080   -1.511519   -1.598481
     12          1           0       -1.636047   -1.511505    1.598527
 ---------------------------------------------------------------------

 SCF Done:  E(RHF) =  -957.316981572     A.U. after    2 cycles

 The electronic state is 1-A.
 Alpha  occ. eigenvalues -- -105.56463 -69.59939 -20.62648 -15.61532 -11.24439
 Alpha  occ. eigenvalues --  -11.24438 -10.61436  -7.78320  -7.78021  -7.78021
 Alpha  occ. eigenvalues --   -6.26516  -4.01904  -4.01771  -4.01706  -1.58220
 Alpha  occ. eigenvalues --   -1.06892  -1.00817  -0.96564  -0.96341  -0.75030
 Alpha  occ. eigenvalues --   -0.67939  -0.64414  -0.60966  -0.60252  -0.58594
 Alpha  occ. eigenvalues --   -0.58561  -0.57568  -0.52093  -0.51102  -0.48229
 Alpha  occ. eigenvalues --   -0.45887  -0.38984
 Alpha virt. eigenvalues --    0.02869   0.03911   0.04477   0.05088   0.05669
 Alpha virt. eigenvalues --    0.06829   0.07086   0.07418   0.08531   0.10122
 Alpha virt. eigenvalues --    0.10190   0.13589   0.13885   0.15614   0.16198

 Mulliken charges:
               1
     1  Si   1.865083
     2  N    0.689842
     3  O   -0.920418
     4  C   -0.620604
     5  H   -0.000705
     6  H    0.083394
     7  C   -0.620605
     8  Cl  -0.646022
     9  H    0.083395
    10  H   -0.000705
    11  H    0.043673
    12  H    0.043672
 Sum of Mulliken charges =  -0.00000

 Dipole moment (field-independent basis, Debye):
    X=             -2.1632    Y=             -2.3615    Z=              0.0000  Tot=              3.2025

 Test job not archived.
 1\1\GINC-SE099\SP\RHF\Aug-CC-pVDZ\C2H6Cl1N1O1Si1\OHZDE\09-Apr-2025\0\\
 #t hf aug-cc-pvdz iop(5/13=1,5/36=2,99/5=2) pseudo=read geom=check gue
 ss=(read,tcheck) scf=(maxcycle=1)\\title\\0,1\Si,0,-0.13824,-0.384255,
 0.000003\N,0,1.712584,-0.280832,-0.000017\O,0,2.256642,0.800568,-0.000
 026\C,0,-0.563956,-1.299895,1.565298\H,0,-0.304923,-0.711614,2.448464\
 H,0,-0.021207,-2.248139,1.608517\C,0,-0.563988,-1.299907,-1.565276\Cl,
 0,-1.024337,1.498954,0.000005\H,0,-0.021239,-2.248151,-1.6085\H,0,-0.3
 04976,-0.711633,-2.448453\H,0,-1.636077,-1.511522,-1.598481\H,0,-1.636

 Normal termination of Gaussian 16 at Wed Apr  9 00:00:10 2025.
