 Gaussian 16, Revision C.01,

 ----------------------------------------------------------------------
 #t hf aug-cc-pvdz symm=none int=(grid=ultrafine) guess=(read,tcheck) s
 table=opt
 ----------------------------------------------------------------------
 -----
 title
 -----
 Symbolic Z-matrix:
 Charge =  0 Multiplicity = 2

 SCF Done:  E(UHF) =  -617.903940948     A.U. after   16 cycles
 Normal termination of Gaussian 16 at Tue Apr  8 23:42:13 2025.
 Gaussian 16:  ES64L-G16RevC.01  3-Jul-2019

 ----------------------------------------------------------------------
 #t hf aug-cc-pvdz iop(5/13=1,5/36=2,99/5=2) pseudo=read geom=check gue
 ss=(read,tcheck) scf=(maxcycle=1)
 ----------------------------------------------------------------------
 -----
 title
 -----
 Structure from the checkpoint file:  "BDE49_nonexpt_165_mol2.chk"
 Charge =  0 Multiplicity = 2

                         Standard orientation:
 ---------------------------------------------------------------------
 Center     Atomic      Atomic             Coordinates (Angstroms)
 Number     Number       Type             X           Y           Z
 ---------------------------------------------------------------------
      1         17           0        1.966888   -0.075900   -0.000008
      2          7           0       -0.852352   -0.085261    0.000003
      3          5           0        0.339815   -0.778998   -0.000002
      4          6           0       -2.131394   -0.795995    0.000008
      5          1           0       -2.717286   -0.533454    0.888047
      6          1           0       -1.952671   -1.870352    0.000007
      7          1           0       -2.717293   -0.533454   -0.888026
      8          6           0       -0.986321    1.374030    0.000004
      9          1           0       -0.003436    1.840336   -0.000003
     10          1           0       -1.536355    1.705418    0.887495
     11          1           0       -1.536368    1.705418   -0.887478
 ---------------------------------------------------------------------

 SCF Done:  E(UHF) =  -618.145893038     A.U. after    2 cycles

 The electronic state is 2-A.
 Alpha  occ. eigenvalues -- -105.55396 -15.51569 -11.27668 -11.27519 -10.60392
 Alpha  occ. eigenvalues --   -7.77355  -7.77004  -7.76964  -7.65694  -1.23427
 Alpha  occ. eigenvalues --   -1.05948  -0.98270  -0.91619  -0.73473  -0.66181
 Alpha  occ. eigenvalues --   -0.65584  -0.61247  -0.57095  -0.56102  -0.55053
 Alpha  occ. eigenvalues --   -0.49305  -0.48659  -0.41529  -0.34589
 Alpha virt. eigenvalues --    0.03297   0.04436   0.04584   0.05495   0.06527
 Alpha virt. eigenvalues --    0.06531   0.06590   0.07292   0.08658   0.10085
 Alpha virt. eigenvalues --    0.12462   0.14061   0.14529   0.14649   0.16232

  Beta  occ. eigenvalues -- -105.55294 -15.51796 -11.27592 -11.27401 -10.60272
  Beta  occ. eigenvalues --   -7.77142  -7.76912  -7.76785  -7.63519  -1.23457
  Beta  occ. eigenvalues --   -1.04916  -0.97915  -0.90888  -0.72518  -0.66157
  Beta  occ. eigenvalues --   -0.65596  -0.58838  -0.57096  -0.55396  -0.54854
  Beta  occ. eigenvalues --   -0.48891  -0.46732  -0.42645
  Beta virt. eigenvalues --    0.03106   0.04484   0.04541   0.05003   0.06538
  Beta virt. eigenvalues --    0.06644   0.06661   0.07314   0.07649   0.09794
  Beta virt. eigenvalues --    0.12275   0.14144   0.14621   0.14786   0.15662

 Mulliken charges and spin densities:
               1          2
     1  Cl  -0.321459   0.014212
     2  N    0.571187  -0.137672
     3  B   -0.081406   1.099693
     4  C   -0.505727   0.073625
     5  H    0.186837   0.000004
     6  H    0.010889  -0.023980
     7  H    0.186836   0.000004
     8  C   -0.429611  -0.011704
     9  H   -0.004953  -0.003721
    10  H    0.193704  -0.005231
    11  H    0.193702  -0.005231
 Sum of Mulliken charges =  -0.00000   1.00000

 Dipole moment (field-independent basis, Debye):
    X=             -2.8132    Y=              0.8614    Z=              0.0000  Tot=              2.9421
                          Isotropic Fermi Contact Couplings
        Atom                 a.u.       MegaHertz       Gauss      10(-4) cm-1
     1  Cl(35)             0.10727      47.03471      16.78316      15.68909
     2  N(14)              0.01732       5.59645       1.99695       1.86678
     3  B(11)              0.41860     600.43040     214.24850     200.28202
     4  C(13)              0.01957      22.00262       7.85108       7.33928
     5  H(1)              -0.00071      -3.18303      -1.13578      -1.06174
     6  H(1)              -0.00054      -2.41005      -0.85997      -0.80391
     7  H(1)              -0.00071      -3.18302      -1.13578      -1.06174
     8  C(13)              0.01908      21.45318       7.65503       7.15601

 1\1\GINC-SE345\SP\UHF\Aug-CC-pVDZ\C2H6B1Cl1N1(2)\OHZDE\08-Apr-2025\0\\
 #t hf aug-cc-pvdz iop(5/13=1,5/36=2,99/5=2) pseudo=read geom=check gue
 ss=(read,tcheck) scf=(maxcycle=1)\\title\\0,2\Cl,0,1.966888,-0.0759,-0
 .000008\N,0,-0.852352,-0.085261,0.000003\B,0,0.339815,-0.778998,-0.000
 002\C,0,-2.131394,-0.795995,0.000008\H,0,-2.717286,-0.533454,0.888047\
 H,0,-1.952671,-1.870352,0.000007\H,0,-2.717293,-0.533454,-0.888026\C,0
 ,-0.986321,1.37403,0.000004\H,0,-0.003436,1.840336,-0.000003\H,0,-1.53
 6355,1.705418,0.887495\H,0,-1.536368,1.705418,-0.887478\\Version=ES64L

 Normal termination of Gaussian 16 at Tue Apr  8 23:42:16 2025.
