 Gaussian 16, Revision C.01,

 ----------------------------------------------------------------------
 #t hf aug-cc-pvdz symm=none int=(grid=ultrafine) guess=(read,tcheck) s
 table=opt
 ----------------------------------------------------------------------
 -----
 title
 -----
 Symbolic Z-matrix:
 Charge =  0 Multiplicity = 2

 SCF Done:  E(UHF) =  -370.567023124     A.U. after   21 cycles
 Normal termination of Gaussian 16 at Wed Apr  9 00:33:21 2025.
 Gaussian 16:  ES64L-G16RevC.01  3-Jul-2019

 ----------------------------------------------------------------------
 #t hf aug-cc-pvdz iop(5/13=1,5/36=2,99/5=2) pseudo=read geom=check gue
 ss=(read,tcheck) scf=(maxcycle=1)
 ----------------------------------------------------------------------
 -----
 title
 -----
 Structure from the checkpoint file:  "BDE49_nonexpt_391_mol2.chk"
 Charge =  0 Multiplicity = 2

                         Standard orientation:
 ---------------------------------------------------------------------
 Center     Atomic      Atomic             Coordinates (Angstroms)
 Number     Number       Type             X           Y           Z
 ---------------------------------------------------------------------
      1          9           0       -2.615718    0.392243    0.334413
      2          5           0       -1.611814    0.244998   -0.494464
      3          6           0       -0.249011   -0.462282   -0.143152
      4          8           0       -0.390777   -1.686342   -0.095982
      5          7           0        0.937786    0.188148   -0.025647
      6          6           0        1.023433    1.634642   -0.067757
      7          1           0        0.053753    2.055158   -0.346819
      8          1           0        1.756471    1.955324   -0.815096
      9          1           0        1.313871    2.048487    0.904500
     10          6           0        2.162966   -0.565131    0.196283
     11          1           0        1.913460   -1.624645    0.191871
     12          1           0        2.611573   -0.302154    1.160074
     13          1           0        2.888802   -0.357015   -0.596790
 ---------------------------------------------------------------------

 SCF Done:  E(UHF) =  -370.928983425     A.U. after    2 cycles

 The electronic state is 2-A.
 Alpha  occ. eigenvalues --  -26.49721 -20.52172 -15.54223 -11.35188 -11.29596
 Alpha  occ. eigenvalues --  -11.27583  -7.70469  -1.62893  -1.46192  -1.26911
 Alpha  occ. eigenvalues --   -1.00494  -0.97867  -0.83980  -0.77778  -0.74313
 Alpha  occ. eigenvalues --   -0.69815  -0.68678  -0.68091  -0.66985  -0.60440
 Alpha  occ. eigenvalues --   -0.58837  -0.58484  -0.56189  -0.55122  -0.44636
 Alpha  occ. eigenvalues --   -0.41229  -0.36167
 Alpha virt. eigenvalues --    0.02859   0.04056   0.04221   0.04981   0.05642
 Alpha virt. eigenvalues --    0.06028   0.06460   0.07361   0.07869   0.09885
 Alpha virt. eigenvalues --    0.10115   0.12467   0.13103   0.14113   0.14522

  Beta  occ. eigenvalues --  -26.49393 -20.51958 -15.54217 -11.34943 -11.29585
  Beta  occ. eigenvalues --  -11.27575  -7.68560  -1.62000  -1.45681  -1.26805
  Beta  occ. eigenvalues --   -1.00402  -0.97524  -0.81977  -0.77193  -0.73054
  Beta  occ. eigenvalues --   -0.68603  -0.68531  -0.67225  -0.66018  -0.59324
  Beta  occ. eigenvalues --   -0.58676  -0.58404  -0.56146  -0.53946  -0.42444
  Beta  occ. eigenvalues --   -0.40511
  Beta virt. eigenvalues --    0.02672   0.03816   0.04156   0.04621   0.05597
  Beta virt. eigenvalues --    0.06221   0.06473   0.06921   0.07543   0.09307
  Beta virt. eigenvalues --    0.09950   0.12226   0.13071   0.13339   0.14566

 Mulliken charges and spin densities:
               1          2
     1  F   -0.557882  -0.015943
     2  B    0.540535   0.951356
     3  C    0.435869   0.000313
     4  O   -1.170730   0.064934
     5  N    0.781902  -0.000531
     6  C   -0.454192   0.005484
     7  H   -0.009001  -0.006753
     8  H    0.154199   0.001959
     9  H    0.175838  -0.002855
    10  C   -0.269638   0.003103
    11  H    0.020379  -0.000590
    12  H    0.182485  -0.000454
    13  H    0.170238  -0.000025
 Sum of Mulliken charges =  -0.00000   1.00000

 Dipole moment (field-independent basis, Debye):
    X=              2.6280    Y=              3.3053    Z=              0.1286  Tot=              4.2246
                          Isotropic Fermi Contact Couplings
        Atom                 a.u.       MegaHertz       Gauss      10(-4) cm-1
     1  F(19)              0.06831     287.39685     102.55034      95.86527
     2  B(11)              0.32943     472.52865     168.60997     157.61859
     3  C(13)              0.06871      77.24442      27.56273      25.76596
     4  O(17)              0.01588      -9.62721      -3.43523      -3.21129
     5  N(14)              0.00046       0.14795       0.05279       0.04935
     6  C(13)              0.00084       0.94057       0.33562       0.31374
     7  H(1)              -0.00018      -0.79053      -0.28208      -0.26369
     8  H(1)              -0.00011      -0.48351      -0.17253      -0.16128

 Normal termination of Gaussian 16 at Wed Apr  9 00:33:26 2025.
