 Gaussian 16, Revision C.01,

 ----------------------------------------------------------------------
 #t hf aug-cc-pvdz symm=none int=(grid=ultrafine) guess=(read,tcheck) s
 table=opt
 ----------------------------------------------------------------------
 -----
 title
 -----
 Symbolic Z-matrix:
 Charge =  0 Multiplicity = 2

 SCF Done:  E(UHF) =  -153.473020081     A.U. after   15 cycles
 Normal termination of Gaussian 16 at Tue Apr  8 22:40:26 2025.
 Gaussian 16:  ES64L-G16RevC.01  3-Jul-2019

 ----------------------------------------------------------------------
 #t hf aug-cc-pvdz iop(5/13=1,5/36=2,99/5=2) pseudo=read geom=check gue
 ss=(read,tcheck) scf=(maxcycle=1)
 ----------------------------------------------------------------------
 -----
 title
 -----
 Structure from the checkpoint file:  "BDE49_expt_1351_mol2.chk"
 Charge =  0 Multiplicity = 2

                         Standard orientation:
 ---------------------------------------------------------------------
 Center     Atomic      Atomic             Coordinates (Angstroms)
 Number     Number       Type             X           Y           Z
 ---------------------------------------------------------------------
      1          6           0       -1.251921   -0.254635   -0.019708
      2          6           0        0.008520    0.519370    0.037213
      3          1           0       -2.189772    0.238194   -0.239965
      4          1           0       -1.253040   -1.287024    0.303987
      5          8           0        1.112763   -0.377132   -0.063789
      6          1           0        0.060182    1.086366    0.988093
      7          1           0        0.026145    1.271885   -0.769042
      8          1           0        1.914785    0.119222    0.122207
 ---------------------------------------------------------------------

 SCF Done:  E(UHF) =  -153.633815967     A.U. after    2 cycles

 The electronic state is 2-A.
 Alpha  occ. eigenvalues --  -20.55014 -11.29105 -11.24095  -1.44821  -1.02776
 Alpha  occ. eigenvalues --   -0.83690  -0.70836  -0.64777  -0.58954  -0.56446
 Alpha  occ. eigenvalues --   -0.51354  -0.45799  -0.35987
 Alpha virt. eigenvalues --    0.03544   0.04433   0.05038   0.05529   0.07060
 Alpha virt. eigenvalues --    0.12068   0.13325   0.13463   0.13974   0.16800
 Alpha virt. eigenvalues --    0.16994   0.19012   0.20821   0.22872   0.23340

  Beta  occ. eigenvalues --  -20.54983 -11.29446 -11.21655  -1.44725  -0.98538
  Beta  occ. eigenvalues --   -0.79065  -0.70298  -0.63125  -0.58121  -0.55210
  Beta  occ. eigenvalues --   -0.50480  -0.44554
  Beta virt. eigenvalues --    0.03561   0.04486   0.05041   0.05520   0.07081
  Beta virt. eigenvalues --    0.08864   0.12129   0.13495   0.14015   0.16569
  Beta virt. eigenvalues --    0.17041   0.19196   0.19510   0.21316   0.23103

 Mulliken charges and spin densities:
               1          2
     1  C   -0.117644   1.357172
     2  C    0.635335  -0.211759
     3  H   -0.006904  -0.099700
     4  H    0.011114  -0.096174
     5  O   -1.089920   0.004285
     6  H    0.143368   0.032305
     7  H    0.107719   0.016448
     8  H    0.316932  -0.002577
 Sum of Mulliken charges =  -0.00000   1.00000

 Dipole moment (field-independent basis, Debye):
    X=              0.1302    Y=              1.7207    Z=              0.5087  Tot=              1.7990
                          Isotropic Fermi Contact Couplings
        Atom                 a.u.       MegaHertz       Gauss      10(-4) cm-1
     1  C(13)              0.20721     232.94484      83.12051      77.70203
     2  C(13)             -0.06179     -69.45821     -24.78441     -23.16876
     3  H(1)              -0.02417    -108.03341     -38.54901     -36.03607
     4  H(1)              -0.02410    -107.71510     -38.43543     -35.92989
     5  O(17)              0.00798      -4.83528      -1.72535      -1.61288
     6  H(1)               0.02381     106.42308      37.97440      35.49892
     7  H(1)               0.01223      54.66144      19.50456      18.23309
     8  H(1)              -0.00047      -2.09361      -0.74705      -0.69835

 Normal termination of Gaussian 16 at Tue Apr  8 22:40:28 2025.
