 Gaussian 16, Revision C.01,

 ----------------------------------------------------------------------
 #t hf aug-cc-pvdz symm=none int=(grid=ultrafine) guess=(read,tcheck) s
 table=(opt,rrhf)
 ----------------------------------------------------------------------
 -----
 title
 -----
 Symbolic Z-matrix:
 Charge =  0 Multiplicity = 1

 SCF Done:  E(RHF) =  -159.561011946     A.U. after   11 cycles
 Normal termination of Gaussian 16 at Wed Apr  9 00:34:49 2025.
 Gaussian 16:  ES64L-G16RevC.01  3-Jul-2019

 ----------------------------------------------------------------------
 #t hf aug-cc-pvdz iop(5/13=1,5/36=2,99/5=2) pseudo=read geom=check gue
 ss=(read,tcheck) scf=(maxcycle=1)
 ----------------------------------------------------------------------
 -----
 title
 -----
 Structure from the checkpoint file:  "BDE49_nonexpt_453_mol1.chk"
 Charge =  0 Multiplicity = 1

                         Standard orientation:
 ---------------------------------------------------------------------
 Center     Atomic      Atomic             Coordinates (Angstroms)
 Number     Number       Type             X           Y           Z
 ---------------------------------------------------------------------
      1          1           0        1.042033    2.121559    0.000002
      2          1           0       -1.042035    2.121557    0.000001
      3          7           0       -0.000000    0.151328    0.000000
      4          5           0       -0.000001    1.540603    0.000000
      5          6           0       -1.218341   -0.651520   -0.000001
      6          1           0       -1.260662   -1.297475   -0.885537
      7          1           0       -2.089531    0.001347   -0.000001
      8          1           0       -1.260664   -1.297474    0.885536
      9          6           0        1.218341   -0.651518    0.000000
     10          1           0        2.089531    0.001349    0.000001
     11          1           0        1.260666   -1.297473   -0.885536
     12          1           0        1.260664   -1.297473    0.885537
 ---------------------------------------------------------------------

 SCF Done:  E(RHF) =  -159.736511707     A.U. after    2 cycles

 The electronic state is 1-A.
 Alpha  occ. eigenvalues --  -15.49762 -11.26219 -11.26213  -7.56889  -1.21507
 Alpha  occ. eigenvalues --   -0.96852  -0.89790  -0.72963  -0.64962  -0.64254
 Alpha  occ. eigenvalues --   -0.59367  -0.55719  -0.53685  -0.53612  -0.46332
 Alpha  occ. eigenvalues --   -0.41332
 Alpha virt. eigenvalues --    0.03592   0.04469   0.04474   0.05158   0.05591
 Alpha virt. eigenvalues --    0.06438   0.06504   0.07410   0.09219   0.09949
 Alpha virt. eigenvalues --    0.11727   0.13911   0.14808   0.14842   0.15238

 Mulliken charges:
               1
     1  H    0.222281
     2  H    0.222281
     3  N    0.382292
     4  B   -0.629383
     5  C   -0.441414
     6  H    0.187573
     7  H   -0.032468
     8  H    0.187573
     9  C   -0.441415
    10  H   -0.032468
    11  H    0.187572
    12  H    0.187575
 Sum of Mulliken charges =  -0.00000

 Dipole moment (field-independent basis, Debye):
    X=              0.0000    Y=             -1.6071    Z=             -0.0000  Tot=              1.6071

 Test job not archived.
 1\1\GINC-SE329\SP\RHF\Aug-CC-pVDZ\C2H8B1N1\OHZDE\09-Apr-2025\0\\#t hf
 aug-cc-pvdz iop(5/13=1,5/36=2,99/5=2) pseudo=read geom=check guess=(re
 ad,tcheck) scf=(maxcycle=1)\\title\\0,1\H,0,1.042034,2.121558,0.000002
 \H,0,-1.042034,2.121558,0.000001\N,0,0.,0.151328,0.\B,0,0.,1.540603,0.
 \C,0,-1.218341,-0.651519,-0.000001\H,0,-1.260663,-1.297474,-0.885537\H
 ,0,-2.089531,0.001348,-0.000001\H,0,-1.260665,-1.297473,0.885536\C,0,1
 .218341,-0.651519,0.\H,0,2.089531,0.001348,0.000001\H,0,1.260665,-1.29
 7474,-0.885536\H,0,1.260663,-1.297474,0.885537\\Version=ES64L-G16RevC.

 Normal termination of Gaussian 16 at Wed Apr  9 00:34:52 2025.
