 Gaussian 16, Revision C.01,

 ----------------------------------------------------------------------
 #t hf aug-cc-pvdz symm=none int=(grid=ultrafine) guess=(read,tcheck) s
 table=(opt,rrhf)
 ----------------------------------------------------------------------
 -----
 title
 -----
 Symbolic Z-matrix:
 Charge =  0 Multiplicity = 1

 SCF Done:  E(RHF) =  -790.298674796     A.U. after   13 cycles
 Normal termination of Gaussian 16 at Wed Apr  9 00:32:18 2025.
 Gaussian 16:  ES64L-G16RevC.01  3-Jul-2019

 ----------------------------------------------------------------------
 #t hf aug-cc-pvdz iop(5/13=1,5/36=2,99/5=2) pseudo=read geom=check gue
 ss=(read,tcheck) scf=(maxcycle=1)
 ----------------------------------------------------------------------
 -----
 title
 -----
 Structure from the checkpoint file:  "BDE49_nonexpt_375_mol1.chk"
 Charge =  0 Multiplicity = 1

                         Standard orientation:
 ---------------------------------------------------------------------
 Center     Atomic      Atomic             Coordinates (Angstroms)
 Number     Number       Type             X           Y           Z
 ---------------------------------------------------------------------
      1          9           0       -1.880903   -1.172246   -0.065955
      2          9           0       -1.972232    1.091392    0.029648
      3          5           0       -1.258422   -0.011489   -0.002781
      4         15           0        0.677277    0.006126    0.128824
      5          8           0        1.190693   -0.269969    1.479065
      6          8           0        1.214810   -1.027970   -0.989779
      7          1           0        1.471603   -1.871963   -0.597332
      8          8           0        1.017219    1.414078   -0.545266
      9          1           0        1.957794    1.636091   -0.546512
 ---------------------------------------------------------------------

 SCF Done:  E(RHF) =  -790.766036276     A.U. after    2 cycles

 The electronic state is 1-A.
 Alpha  occ. eigenvalues --  -84.44130 -26.51050 -26.50974 -20.61066 -20.60746
 Alpha  occ. eigenvalues --  -20.51989  -7.76347  -6.89517  -4.43612  -4.42936
 Alpha  occ. eigenvalues --   -4.42084  -1.66286  -1.62390  -1.54827  -1.48911
 Alpha  occ. eigenvalues --   -1.40252  -0.90243  -0.83159  -0.77778  -0.76152
 Alpha  occ. eigenvalues --   -0.73975  -0.72271  -0.68207  -0.66097  -0.65551
 Alpha  occ. eigenvalues --   -0.64686  -0.61672  -0.56924  -0.56426  -0.51527
 Alpha  occ. eigenvalues --   -0.47128  -0.45298
 Alpha virt. eigenvalues --    0.03216   0.04200   0.05156   0.05499   0.06802
 Alpha virt. eigenvalues --    0.09144   0.09490   0.10144   0.12130   0.12718
 Alpha virt. eigenvalues --    0.15568   0.18154   0.19422   0.20321   0.21649

 Mulliken charges:
               1
     1  F   -0.580018
     2  F   -0.582060
     3  B    1.434835
     4  P    3.027268
     5  O   -1.450684
     6  O   -1.280414
     7  H    0.346374
     8  O   -1.266364
     9  H    0.351063
 Sum of Mulliken charges =  -0.00000

 Dipole moment (field-independent basis, Debye):
    X=              0.9665    Y=             -0.2703    Z=             -2.1817  Tot=              2.4014

 Test job not archived.
 1\1\GINC-SE362\SP\RHF\Aug-CC-pVDZ\B1F2H2O3P1\OHZDE\09-Apr-2025\0\\#t h
 f aug-cc-pvdz iop(5/13=1,5/36=2,99/5=2) pseudo=read geom=check guess=(
 read,tcheck) scf=(maxcycle=1)\\title\\0,1\F,0,-1.880903,-1.172246,-0.0
 65955\F,0,-1.972232,1.091392,0.029648\B,0,-1.258422,-0.011489,-0.00278
 1\P,0,0.677277,0.006126,0.128824\O,0,1.190693,-0.269969,1.479065\O,0,1
 .21481,-1.02797,-0.989779\H,0,1.471603,-1.871963,-0.597332\O,0,1.01721
 9,1.414078,-0.545266\H,0,1.957794,1.636091,-0.546512\\Version=ES64L-G1
 6RevC.01\State=1-A\HF=-790.7660363\RMSD=1.248e-02\Dipole=0.3802564,-0.

 Normal termination of Gaussian 16 at Wed Apr  9 00:32:21 2025.
