 Gaussian 16, Revision C.01,

 ----------------------------------------------------------------------
 #t hf aug-cc-pvdz symm=none int=(grid=ultrafine) guess=(read,tcheck) s
 table=opt
 ----------------------------------------------------------------------
 -----
 title
 -----
 Symbolic Z-matrix:
 Charge =  0 Multiplicity = 2

 SCF Done:  E(UHF) =  -687.202387809     A.U. after   23 cycles
 Normal termination of Gaussian 16 at Tue Apr  8 23:09:52 2025.
 Gaussian 16:  ES64L-G16RevC.01  3-Jul-2019

 ----------------------------------------------------------------------
 #t hf aug-cc-pvdz iop(5/13=1,5/36=2,99/5=2) pseudo=read geom=check gue
 ss=(read,tcheck) scf=(maxcycle=1)
 ----------------------------------------------------------------------
 -----
 title
 -----
 Structure from the checkpoint file:  "BDE49_expt_623_mol2.chk"
 Charge =  0 Multiplicity = 2

                         Standard orientation:
 ---------------------------------------------------------------------
 Center     Atomic      Atomic             Coordinates (Angstroms)
 Number     Number       Type             X           Y           Z
 ---------------------------------------------------------------------
      1          6           0       -0.014534    0.397018    0.344992
      2          8           0        1.190720    0.190395   -0.420400
      3          8           0        2.002971   -0.677034    0.154296
      4          6           0       -0.553615    1.757525   -0.019538
      5          1           0        0.181109    2.521188    0.246655
      6          1           0       -1.479537    1.948096    0.522975
      7          1           0       -0.752911    1.811994   -1.090489
      8         17           0       -1.195760   -0.916652   -0.052775
      9          1           0        0.238621    0.267663    1.394141
 ---------------------------------------------------------------------

 SCF Done:  E(UHF) =  -687.502354736     A.U. after    2 cycles

 The electronic state is 2-A.
 Alpha  occ. eigenvalues -- -105.57048 -20.68232 -20.66800 -11.38577 -11.26496
 Alpha  occ. eigenvalues --  -10.61905  -7.78857  -7.78456  -7.78452  -1.70733
 Alpha  occ. eigenvalues --   -1.30079  -1.10632  -1.01058  -0.86864  -0.76805
 Alpha  occ. eigenvalues --   -0.73170  -0.69994  -0.64525  -0.59440  -0.58490
 Alpha  occ. eigenvalues --   -0.55960  -0.51184  -0.48970  -0.46479  -0.46201
 Alpha virt. eigenvalues --    0.03453   0.04422   0.05139   0.06220   0.08868
 Alpha virt. eigenvalues --    0.11199   0.11671   0.13760   0.14066   0.14789
 Alpha virt. eigenvalues --    0.15820   0.16845   0.17902   0.18351   0.18676

  Beta  occ. eigenvalues -- -105.57038 -20.66040 -20.64175 -11.38643 -11.26500
  Beta  occ. eigenvalues --  -10.61896  -7.78814  -7.78457  -7.78442  -1.64733
  Beta  occ. eigenvalues --   -1.21801  -1.08980  -1.00758  -0.86300  -0.71959
  Beta  occ. eigenvalues --   -0.68815  -0.66270  -0.59851  -0.58347  -0.57067
  Beta  occ. eigenvalues --   -0.50904  -0.48546  -0.46196  -0.45808
  Beta virt. eigenvalues --    0.03442   0.04380   0.05117   0.06225   0.08765
  Beta virt. eigenvalues --    0.09093   0.11247   0.11772   0.14062   0.14252
  Beta virt. eigenvalues --    0.15511   0.15887   0.17153   0.18091   0.18382

 Mulliken charges and spin densities:
               1          2
     1  C    0.325403  -0.018013
     2  O   -0.617478   0.059580
     3  O   -0.241578   0.957446
     4  C   -0.260019  -0.000439
     5  H    0.208718   0.001680
     6  H    0.190023  -0.000664
     7  H    0.199459  -0.000638
     8  Cl  -0.045260   0.006032
     9  H    0.240732  -0.004984
 Sum of Mulliken charges =  -0.00000   1.00000

 Dipole moment (field-independent basis, Debye):
    X=             -0.6310    Y=              2.3618    Z=              1.1435  Tot=              2.6989
                          Isotropic Fermi Contact Couplings
        Atom                 a.u.       MegaHertz       Gauss      10(-4) cm-1
     1  C(13)             -0.01070     -12.03272      -4.29357      -4.01368
     2  O(17)              0.07740     -46.91811     -16.74155     -15.65020
     3  O(17)              0.26682    -161.74613     -57.71504     -53.95270
     4  C(13)             -0.00088      -0.98373      -0.35102      -0.32814
     5  H(1)               0.00003       0.12121       0.04325       0.04043
     6  H(1)              -0.00037      -1.64021      -0.58527      -0.54711
     7  H(1)              -0.00007      -0.32522      -0.11605      -0.10848
     8  Cl(35)            -0.00245      -1.07342      -0.38302      -0.35806

 Normal termination of Gaussian 16 at Tue Apr  8 23:09:56 2025.
