 Gaussian 16, Revision C.01,

 ----------------------------------------------------------------------
 #t hf aug-cc-pvdz symm=none int=(grid=ultrafine) guess=(read,tcheck) s
 table=(opt,rrhf)
 ----------------------------------------------------------------------
 -----
 title
 -----
 Symbolic Z-matrix:
 Charge =  0 Multiplicity = 1

 SCF Done:  E(RHF) =  -1640.07802069     A.U. after   13 cycles
 Normal termination of Gaussian 16 at Wed Apr  9 00:32:19 2025.
 Gaussian 16:  ES64L-G16RevC.01  3-Jul-2019

 ----------------------------------------------------------------------
 #t hf aug-cc-pvdz iop(5/13=1,5/36=2,99/5=2) pseudo=read geom=check gue
 ss=(read,tcheck) scf=(maxcycle=1)
 ----------------------------------------------------------------------
 -----
 title
 -----
 Structure from the checkpoint file:  "BDE49_nonexpt_365_mol1.chk"
 Charge =  0 Multiplicity = 1

                         Standard orientation:
 ---------------------------------------------------------------------
 Center     Atomic      Atomic             Coordinates (Angstroms)
 Number     Number       Type             X           Y           Z
 ---------------------------------------------------------------------
      1          9           0       -2.004215    1.132660   -0.256201
      2          9           0       -2.004246   -1.132594   -0.256188
      3          5           0       -1.343100    0.000025   -0.199186
      4          6           0        0.240626    0.000000   -0.021706
      5         17           0        0.989355   -1.464166   -0.721787
      6         17           0        0.453471   -0.000063    1.780986
      7         17           0        0.989403    1.464186   -0.721689
 ---------------------------------------------------------------------

 SCF Done:  E(RHF) =  -1640.54351754     A.U. after    2 cycles

 The electronic state is 1-A.
 Alpha  occ. eigenvalues -- -105.61287-105.60901-105.60901 -26.51203 -26.51203
 Alpha  occ. eigenvalues --  -11.44793 -10.66068 -10.65706 -10.65704  -7.83005
 Alpha  occ. eigenvalues --   -7.82657  -7.82650  -7.82586  -7.82572  -7.82218
 Alpha  occ. eigenvalues --   -7.82216  -7.82214  -7.82211  -7.77022  -1.66647
 Alpha  occ. eigenvalues --   -1.62810  -1.22038  -1.08226  -1.08086  -0.89994
 Alpha  occ. eigenvalues --   -0.82596  -0.78132  -0.74492  -0.72954  -0.66492
 Alpha  occ. eigenvalues --   -0.66445  -0.64411  -0.63790  -0.63539  -0.52729
 Alpha  occ. eigenvalues --   -0.52520  -0.48812  -0.48605  -0.47430  -0.47241
 Alpha virt. eigenvalues --    0.04759   0.05134   0.05417   0.05903   0.07346
 Alpha virt. eigenvalues --    0.08235   0.09084   0.11495   0.12667   0.13592
 Alpha virt. eigenvalues --    0.14418   0.17114   0.17281   0.17744   0.18375

 Mulliken charges:
               1
     1  F   -0.656013
     2  F   -0.656022
     3  B    2.062784
     4  C   -0.893412
     5  Cl   0.039810
     6  Cl   0.063042
     7  Cl   0.039811
 Sum of Mulliken charges =  -0.00000

 Dipole moment (field-independent basis, Debye):
    X=             -0.0443    Y=              0.0000    Z=             -0.1387  Tot=              0.1456

 Test job not archived.
 1\1\GINC-SE054\SP\RHF\Aug-CC-pVDZ\C1B1Cl3F2\OHZDE\09-Apr-2025\0\\#t hf
  aug-cc-pvdz iop(5/13=1,5/36=2,99/5=2) pseudo=read geom=check guess=(r
 ead,tcheck) scf=(maxcycle=1)\\title\\0,1\F,0,-2.004215,1.13266,-0.2562
 01\F,0,-2.004246,-1.132594,-0.256188\B,0,-1.3431,0.000025,-0.199186\C,
 0,0.240626,0.,-0.021706\Cl,0,0.989355,-1.464166,-0.721787\Cl,0,0.45347
 1,-0.000063,1.780986\Cl,0,0.989403,1.464186,-0.721689\\Version=ES64L-G
 16RevC.01\State=1-A\HF=-1640.5435175\RMSD=4.195e-03\Dipole=-0.0174148,
 0.0000064,-0.0545663\Quadrupole=-1.1523219,-0.6087082,1.7610301,-0.000

 Normal termination of Gaussian 16 at Wed Apr  9 00:32:22 2025.
