 Gaussian 16, Revision C.01,

 ----------------------------------------------------------------------
 #t hf aug-cc-pvdz symm=none int=(grid=ultrafine) guess=(read,tcheck) s
 table=(opt,rrhf)
 ----------------------------------------------------------------------
 -----
 title
 -----
 Symbolic Z-matrix:
 Charge =  0 Multiplicity = 1

 SCF Done:  E(RHF) =  -1326.60527755     A.U. after   18 cycles
 Normal termination of Gaussian 16 at Wed Apr  9 00:19:56 2025.
 Gaussian 16:  ES64L-G16RevC.01  3-Jul-2019

 ----------------------------------------------------------------------
 #t hf aug-cc-pvdz iop(5/13=1,5/36=2,99/5=2) pseudo=read geom=check gue
 ss=(read,tcheck) scf=(maxcycle=1)
 ----------------------------------------------------------------------
 -----
 title
 -----
 Structure from the checkpoint file:  "BDE49_nonexpt_250_mol1.chk"
 Charge =  0 Multiplicity = 1

                         Standard orientation:
 ---------------------------------------------------------------------
 Center     Atomic      Atomic             Coordinates (Angstroms)
 Number     Number       Type             X           Y           Z
 ---------------------------------------------------------------------
      1         17           0        2.100427   -1.784686    0.737386
      2         17           0        3.266909    0.598868   -0.648964
      3          6           0        0.449585    0.529615    0.000838
      4          5           0        1.818229   -0.193464    0.007841
      5          6           0       -0.844382   -0.109049   -0.075685
      6          6           0       -1.025311   -1.490108   -0.350535
      7          1           0       -0.162799   -2.120408   -0.508964
      8          6           0       -2.280030   -2.047703   -0.432117
      9          1           0       -2.381946   -3.105826   -0.645218
     10          6           0       -3.434807   -1.258821   -0.247575
     11          1           0       -4.416984   -1.712850   -0.311179
     12          6           0       -3.304706    0.084584   -0.001265
     13          1           0       -4.182562    0.709297    0.125809
     14          6           0       -2.024550    0.691192    0.080552
     15          6           0       -1.901561    2.086734    0.299003
     16          1           0       -2.805133    2.674292    0.425369
     17          6           0       -0.669506    2.688171    0.334857
     18          1           0       -0.581809    3.757149    0.489871
     19          6           0        0.492354    1.911119    0.171308
     20          1           0        1.452854    2.410169    0.205629
 ---------------------------------------------------------------------

 SCF Done:  E(RHF) =  -1327.16880815     A.U. after    2 cycles

 The electronic state is 1-A.
 Alpha  occ. eigenvalues -- -105.57099-105.56935 -11.27047 -11.26897 -11.26737
 Alpha  occ. eigenvalues --  -11.26131 -11.25531 -11.25460 -11.25392 -11.25195
 Alpha  occ. eigenvalues --  -11.24926 -11.24791 -10.62114 -10.61936  -7.79009
 Alpha  occ. eigenvalues --   -7.78832  -7.78735  -7.78688  -7.78558  -7.78515
 Alpha  occ. eigenvalues --   -7.71681  -1.19101  -1.12733  -1.10585  -1.06028
 Alpha  occ. eigenvalues --   -1.05103  -1.02227  -0.99676  -0.87752  -0.85905
 Alpha  occ. eigenvalues --   -0.83804  -0.73791  -0.72854  -0.70706  -0.68200
 Alpha  occ. eigenvalues --   -0.64477  -0.63410  -0.61379  -0.60044  -0.58959
 Alpha  occ. eigenvalues --   -0.57467  -0.55131  -0.54795  -0.52580  -0.51330
 Alpha  occ. eigenvalues --   -0.51146  -0.47313  -0.47087  -0.46264  -0.45524
 Alpha  occ. eigenvalues --   -0.40476  -0.34117  -0.31266
 Alpha virt. eigenvalues --    0.02892   0.03078   0.03263   0.03670   0.04649
 Alpha virt. eigenvalues --    0.04876   0.05209   0.06551   0.07093   0.07604
 Alpha virt. eigenvalues --    0.08433   0.08570   0.09469   0.10185   0.10507

 Mulliken charges:
               1
     1  Cl  -0.383611
     2  Cl  -0.429078
     3  C    0.349819
     4  B    0.564216
     5  C    0.807780
     6  C    0.229409
     7  H   -0.406771
     8  C   -0.339391
     9  H   -0.255290
    10  C   -0.184981
    11  H   -0.231653
    12  C    0.389599
    13  H   -0.310360
    14  C    1.024103
    15  C    0.223462
    16  H   -0.315483
    17  C   -0.248526
    18  H   -0.241395
    19  C    0.143593
    20  H   -0.385443
 Sum of Mulliken charges =   0.00000

 Dipole moment (field-independent basis, Debye):
    X=             -2.6397    Y=              1.1037    Z=              0.0360  Tot=              2.8614

 Test job not archived.
 1\1\GINC-SE227\SP\RHF\Aug-CC-pVDZ\C10H7B1Cl2\OHZDE\09-Apr-2025\0\\#t h
 f aug-cc-pvdz iop(5/13=1,5/36=2,99/5=2) pseudo=read geom=check guess=(
 read,tcheck) scf=(maxcycle=1)\\title\\0,1\Cl,0,2.100427,-1.784686,0.73
 7386\Cl,0,3.266909,0.598868,-0.648964\C,0,0.449585,0.529615,0.000838\B
 ,0,1.818229,-0.193464,0.007841\C,0,-0.844382,-0.109049,-0.075685\C,0,-
 1.025311,-1.490108,-0.350535\H,0,-0.162799,-2.120408,-0.508964\C,0,-2.
 28003,-2.047703,-0.432117\H,0,-2.381946,-3.105826,-0.645218\C,0,-3.434
 807,-1.258821,-0.247575\H,0,-4.416984,-1.71285,-0.311179\C,0,-3.304706

 Normal termination of Gaussian 16 at Wed Apr  9 00:20:14 2025.
