 Gaussian 16, Revision C.01,

 ----------------------------------------------------------------------
 #t hf aug-cc-pvdz symm=none int=(grid=ultrafine) guess=(read,tcheck) s
 table=(opt,rrhf)
 ----------------------------------------------------------------------
 -----
 title
 -----
 Symbolic Z-matrix:
 Charge =  0 Multiplicity = 1

 SCF Done:  E(RHF) =  -154.987784352     A.U. after   12 cycles
 Normal termination of Gaussian 16 at Tue Apr  8 22:52:31 2025.
 Gaussian 16:  ES64L-G16RevC.01  3-Jul-2019

 ----------------------------------------------------------------------
 #t hf aug-cc-pvdz iop(5/13=1,5/36=2,99/5=2) pseudo=read geom=check gue
 ss=(read,tcheck) scf=(maxcycle=1)
 ----------------------------------------------------------------------
 -----
 title
 -----
 Structure from the checkpoint file:  "BDE49_expt_1812_mol1.chk"
 Charge =  0 Multiplicity = 1

                         Standard orientation:
 ---------------------------------------------------------------------
 Center     Atomic      Atomic             Coordinates (Angstroms)
 Number     Number       Type             X           Y           Z
 ---------------------------------------------------------------------
      1          7           0        0.680597   -0.000002   -0.142110
      2          9           0       -0.740414   -0.000014    0.017603
      3          1           0        0.949640    0.811373    0.418137
      4          1           0        0.949907   -0.811234    0.418208
 ---------------------------------------------------------------------

 SCF Done:  E(RHF) =  -155.138589617     A.U. after    2 cycles

 The electronic state is 1-A.
 Alpha  occ. eigenvalues --  -26.46803 -15.60455  -1.57608  -1.14117  -0.76443
 Alpha  occ. eigenvalues --   -0.70501  -0.65567  -0.58164  -0.50084
 Alpha virt. eigenvalues --    0.02987   0.05884   0.11630   0.14558   0.18102
 Alpha virt. eigenvalues --    0.20467   0.24332   0.26008   0.26473   0.28780
 Alpha virt. eigenvalues --    0.29799   0.30938   0.40996   0.43136   0.47733

 Mulliken charges:
               1
     1  N    0.418521
     2  F   -0.571224
     3  H    0.076340
     4  H    0.076362
 Sum of Mulliken charges =   0.00000

 Dipole moment (field-independent basis, Debye):
    X=              1.6782    Y=              0.0002    Z=              1.7459  Tot=              2.4217

 Test job not archived.
 1\1\GINC-SE082\SP\RHF\Aug-CC-pVDZ\F1H2N1\OHZDE\08-Apr-2025\0\\#t hf au
 g-cc-pvdz iop(5/13=1,5/36=2,99/5=2) pseudo=read geom=check guess=(read
 ,tcheck) scf=(maxcycle=1)\\title\\0,1\N,0,-0.680597,0.000002,-0.14211\
 F,0,0.740414,0.000014,0.017603\H,0,-0.94964,-0.811373,0.418137\H,0,-0.
 949907,0.811234,0.418208\\Version=ES64L-G16RevC.01\State=1-A\HF=-155.1
 385896\RMSD=9.283e-03\Dipole=-0.660272,-0.0000604,0.6868763\Quadrupole
 =-0.0695697,0.9640201,-0.8944504,-0.0001983,-1.4270917,-0.0000114\PG=C
 01 [X(F1H2N1)]\\@

 Normal termination of Gaussian 16 at Tue Apr  8 22:52:32 2025.
