 Gaussian 16, Revision C.01,

 ----------------------------------------------------------------------
 #t hf aug-cc-pvdz symm=none int=(grid=ultrafine) guess=(read,tcheck) s
 table=(opt,rrhf)
 ----------------------------------------------------------------------
 -----
 title
 -----
 Symbolic Z-matrix:
 Charge =  0 Multiplicity = 1

 SCF Done:  E(RHF) =  -520.749466307     A.U. after   13 cycles
 Normal termination of Gaussian 16 at Wed Apr  9 00:42:02 2025.
 Gaussian 16:  ES64L-G16RevC.01  3-Jul-2019

 ----------------------------------------------------------------------
 #t hf aug-cc-pvdz iop(5/13=1,5/36=2,99/5=2) pseudo=read geom=check gue
 ss=(read,tcheck) scf=(maxcycle=1)
 ----------------------------------------------------------------------
 -----
 title
 -----
 Structure from the checkpoint file:  "BDE49_nonexpt_696_mol1.chk"
 Charge =  0 Multiplicity = 1

                         Standard orientation:
 ---------------------------------------------------------------------
 Center     Atomic      Atomic             Coordinates (Angstroms)
 Number     Number       Type             X           Y           Z
 ---------------------------------------------------------------------
      1         15           0        0.483700   -0.009230   -0.576893
      2          5           0       -1.155246   -0.808200   -0.006484
      3          8           0       -2.247041   -0.019628    0.178656
      4          6           0        1.758220   -0.948687    0.405582
      5          1           0        1.693703   -2.007822    0.146107
      6          1           0        1.632711   -0.843017    1.485971
      7          6           0        0.466091    1.661593    0.241440
      8          1           0        0.451712    1.595990    1.332134
      9          1           0       -0.429508    2.193516   -0.085182
     10          1           0        1.339295    2.238961   -0.069028
     11          1           0        2.756481   -0.600054    0.132903
     12          1           0       -3.052015   -0.516220    0.355791
     13          1           0       -1.241182   -2.002310    0.075739
 ---------------------------------------------------------------------

 SCF Done:  E(RHF) =  -520.986210715     A.U. after    2 cycles

 The electronic state is 1-A.
 Alpha  occ. eigenvalues --  -84.23946 -20.57111 -11.23416 -11.22955  -7.62425
 Alpha  occ. eigenvalues --   -6.71324  -4.23834  -4.23809  -4.23045  -1.46981
 Alpha  occ. eigenvalues --   -1.00165  -0.93512  -0.79674  -0.71817  -0.65471
 Alpha  occ. eigenvalues --   -0.58846  -0.58329  -0.55614  -0.55484  -0.53958
 Alpha  occ. eigenvalues --   -0.52809  -0.44761  -0.41275  -0.29799
 Alpha virt. eigenvalues --    0.03074   0.03980   0.04370   0.04743   0.06211
 Alpha virt. eigenvalues --    0.06533   0.06946   0.07711   0.08400   0.09185
 Alpha virt. eigenvalues --    0.10840   0.11070   0.11627   0.13389   0.13468

 Mulliken charges:
               1
     1  P    0.461406
     2  B    1.106663
     3  O   -1.048369
     4  C   -0.786154
     5  H    0.061490
     6  H    0.100617
     7  C   -0.811859
     8  H    0.088798
     9  H    0.081329
    10  H    0.100515
    11  H    0.109364
    12  H    0.516904
    13  H    0.019295
 Sum of Mulliken charges =  -0.00000

 Dipole moment (field-independent basis, Debye):
    X=             -0.7742    Y=             -0.7137    Z=              1.3242  Tot=              1.6918

 Test job not archived.
 1\1\GINC-SE363\SP\RHF\Aug-CC-pVDZ\C2H8B1O1P1\OHZDE\09-Apr-2025\0\\#t h
 f aug-cc-pvdz iop(5/13=1,5/36=2,99/5=2) pseudo=read geom=check guess=(
 read,tcheck) scf=(maxcycle=1)\\title\\0,1\P,0,0.4837,-0.00923,-0.57689
 3\B,0,-1.155246,-0.8082,-0.006484\O,0,-2.247041,-0.019628,0.178656\C,0
 ,1.75822,-0.948687,0.405582\H,0,1.693704,-2.007822,0.146107\H,0,1.6327
 11,-0.843017,1.485971\C,0,0.466091,1.661593,0.24144\H,0,0.451712,1.595
 99,1.332134\H,0,-0.429508,2.193516,-0.085182\H,0,1.339295,2.238961,-0.
 069028\H,0,2.756481,-0.600053,0.132903\H,0,-3.052015,-0.51622,0.355791

 Normal termination of Gaussian 16 at Wed Apr  9 00:42:06 2025.
