 Gaussian 16, Revision C.01,

 ----------------------------------------------------------------------
 #t hf aug-cc-pvdz symm=none int=(grid=ultrafine) guess=(read,tcheck) s
 table=(opt,rrhf)
 ----------------------------------------------------------------------
 -----
 title
 -----
 Symbolic Z-matrix:
 Charge =  0 Multiplicity = 1

 SCF Done:  E(RHF) =  -1087.17704865     A.U. after   17 cycles
 Normal termination of Gaussian 16 at Tue Apr  8 23:15:31 2025.
 Gaussian 16:  ES64L-G16RevC.01  3-Jul-2019

 ----------------------------------------------------------------------
 #t hf aug-cc-pvdz iop(5/13=1,5/36=2,99/5=2) pseudo=read geom=check gue
 ss=(read,tcheck) scf=(maxcycle=1)
 ----------------------------------------------------------------------
 -----
 title
 -----
 Structure from the checkpoint file:  "BDE49_expt_851_mol1.chk"
 Charge =  0 Multiplicity = 1

                         Standard orientation:
 ---------------------------------------------------------------------
 Center     Atomic      Atomic             Coordinates (Angstroms)
 Number     Number       Type             X           Y           Z
 ---------------------------------------------------------------------
      1          6           0        2.423258    0.623939    0.000005
      2          6           0        1.241623    1.354255    0.000006
      3          6           0        0.013689    0.696881    0.000002
      4          6           0        2.370120   -0.769023    0.000000
      5          6           0        1.144710   -1.419597   -0.000004
      6          6           0       -0.061160   -0.702660   -0.000002
      7          1           0        3.374988    1.141026    0.000007
      8          1           0        1.257407    2.436558    0.000009
      9         17           0       -1.439150    1.688029    0.000004
     10          1           0        3.283698   -1.351666   -0.000001
     11          1           0        1.108414   -2.503148   -0.000008
     12         16           0       -1.558802   -1.656323   -0.000007
     13          1           0       -2.411553   -0.620881   -0.000008
 ---------------------------------------------------------------------

 SCF Done:  E(RHF) =  -1087.54632500     A.U. after    2 cycles

 The electronic state is 1-A.
 Alpha  occ. eigenvalues -- -105.58290 -93.97000 -11.32133 -11.30245 -11.26744
 Alpha  occ. eigenvalues --  -11.26345 -11.26219 -11.25931 -10.63098  -8.25136
 Alpha  occ. eigenvalues --   -7.80058  -7.79682  -7.79645  -6.22993  -6.22841
 Alpha  occ. eigenvalues --   -6.22607  -1.20054  -1.10724  -1.08588  -1.00791
 Alpha  occ. eigenvalues --   -0.97667  -0.85546  -0.82928  -0.71773  -0.68766
 Alpha  occ. eigenvalues --   -0.65303  -0.61487  -0.60265  -0.57115  -0.55434
 Alpha  occ. eigenvalues --   -0.52867  -0.49696  -0.49033  -0.47187  -0.43565
 Alpha  occ. eigenvalues --   -0.35932  -0.32648
 Alpha virt. eigenvalues --    0.03204   0.03712   0.04471   0.05404   0.06069
 Alpha virt. eigenvalues --    0.08200   0.08777   0.09120   0.10906   0.11163
 Alpha virt. eigenvalues --    0.11173   0.12771   0.12917   0.13341   0.14029

 Mulliken charges:
               1
     1  C    0.219957
     2  C    0.358452
     3  C    0.181439
     4  C   -0.113310
     5  C   -0.302865
     6  C    0.546325
     7  H   -0.199182
     8  H   -0.176869
     9  Cl  -0.425526
    10  H   -0.206221
    11  H   -0.229896
    12  S   -0.008492
    13  H    0.356188
 Sum of Mulliken charges =  -0.00000

 Dipole moment (field-independent basis, Debye):
    X=              1.7949    Y=              0.1647    Z=             -0.0000  Tot=              1.8024

 Test job not archived.
 1\1\GINC-SE102\SP\RHF\Aug-CC-pVDZ\C6H5Cl1S1\OHZDE\08-Apr-2025\0\\#t hf
  aug-cc-pvdz iop(5/13=1,5/36=2,99/5=2) pseudo=read geom=check guess=(r
 ead,tcheck) scf=(maxcycle=1)\\title\\0,1\C,0,2.423258,0.62394,0.000005
 \C,0,1.241623,1.354255,0.000006\C,0,0.013689,0.696881,0.000002\C,0,2.3
 7012,-0.769022,0.\C,0,1.14471,-1.419597,-0.000004\C,0,-0.06116,-0.7026
 6,-0.000002\H,0,3.374988,1.141027,0.000007\H,0,1.257406,2.436558,0.000
 009\Cl,0,-1.439151,1.688029,0.000004\H,0,3.283698,-1.351665,-0.000001\
 H,0,1.108415,-2.503148,-0.000008\S,0,-1.558802,-1.656323,-0.000007\H,0

 Normal termination of Gaussian 16 at Tue Apr  8 23:15:37 2025.
