 Gaussian 16, Revision C.01,

 ----------------------------------------------------------------------
 #t hf aug-cc-pvdz symm=none int=(grid=ultrafine) guess=(read,tcheck) s
 table=(opt,rrhf)
 ----------------------------------------------------------------------
 -----
 title
 -----
 Symbolic Z-matrix:
 Charge =  0 Multiplicity = 1

 SCF Done:  E(RHF) =  -443.485599286     A.U. after   14 cycles
 Normal termination of Gaussian 16 at Tue Apr  8 22:42:09 2025.
 Gaussian 16:  ES64L-G16RevC.01  3-Jul-2019

 ----------------------------------------------------------------------
 #t hf aug-cc-pvdz iop(5/13=1,5/36=2,99/5=2) pseudo=read geom=check gue
 ss=(read,tcheck) scf=(maxcycle=1)
 ----------------------------------------------------------------------
 -----
 title
 -----
 Structure from the checkpoint file:  "BDE49_expt_1400_mol1.chk"
 Charge =  0 Multiplicity = 1

                         Standard orientation:
 ---------------------------------------------------------------------
 Center     Atomic      Atomic             Coordinates (Angstroms)
 Number     Number       Type             X           Y           Z
 ---------------------------------------------------------------------
      1          6           0        0.424763   -1.785341    0.000000
      2          6           0        1.519200   -0.929273    0.000000
      3          6           0        1.303278    0.440719    0.000000
      4          6           0       -0.869916   -1.302272    0.000000
      5          6           0       -1.087514    0.077605    0.000000
      6          6           0        0.000000    0.954743    0.000000
      7          9           0        0.635106   -3.124082    0.000000
      8          1           0        2.520786   -1.341034    0.000000
      9          1           0        2.132511    1.137122    0.000000
     10          1           0       -1.700452   -1.997182    0.000000
     11          1           0       -2.103646    0.447177    0.000000
     12          8           0       -0.098830    2.316117    0.000000
     13          6           0       -1.392660    2.898769    0.000000
     14          1           0       -1.234594    3.976043    0.000000
     15          1           0       -1.961412    2.617986    0.894082
     16          1           0       -1.961412    2.617986   -0.894082
 ---------------------------------------------------------------------

 SCF Done:  E(RHF) =  -443.928658402     A.U. after    2 cycles

 The electronic state is 1-A'.
 Alpha  occ. eigenvalues --  -26.46908 -20.57712 -11.32674 -11.31267 -11.30095
 Alpha  occ. eigenvalues --  -11.25669 -11.25645 -11.25368 -11.25020  -1.59648
 Alpha  occ. eigenvalues --   -1.50132  -1.16332  -1.03961  -1.02545  -0.95196
 Alpha  occ. eigenvalues --   -0.86880  -0.82935  -0.74818  -0.71646  -0.71445
 Alpha  occ. eigenvalues --   -0.66739  -0.66063  -0.64447  -0.62938  -0.61719
 Alpha  occ. eigenvalues --   -0.58941  -0.57556  -0.53816  -0.53154  -0.49796
 Alpha  occ. eigenvalues --   -0.47380  -0.36414  -0.32146
 Alpha virt. eigenvalues --    0.03185   0.03625   0.04118   0.05104   0.05325
 Alpha virt. eigenvalues --    0.05690   0.08472   0.09292   0.09415   0.11226
 Alpha virt. eigenvalues --    0.11484   0.12825   0.13676   0.13735   0.13756

 Mulliken charges:
               1
     1  C    1.119244
     2  C    0.115718
     3  C    0.177957
     4  C   -0.020051
     5  C    0.111617
     6  C    1.932778
     7  F   -0.995017
     8  H   -0.178357
     9  H   -0.253300
    10  H   -0.183818
    11  H   -0.407491
    12  O   -1.855517
    13  C    0.119055
    14  H   -0.035707
    15  H    0.176445
    16  H    0.176445
 Sum of Mulliken charges =  -0.00000

 Dipole moment (field-independent basis, Debye):
    X=             -1.5319    Y=              1.9245    Z=              0.0000  Tot=              2.4598

 Test job not archived.
 1\1\GINC-SE340\SP\RHF\Aug-CC-pVDZ\C7H7F1O1\OHZDE\08-Apr-2025\0\\#t hf
 aug-cc-pvdz iop(5/13=1,5/36=2,99/5=2) pseudo=read geom=check guess=(re
 ad,tcheck) scf=(maxcycle=1)\\title\\0,1\C,0,-0.424763,-1.785341,0.\C,0
 ,-1.5192,-0.929273,0.\C,0,-1.303278,0.440719,0.\C,0,0.869916,-1.302272
 ,0.\C,0,1.087514,0.077605,0.\C,0,0.,0.954743,0.\F,0,-0.635106,-3.12408
 2,0.\H,0,-2.520786,-1.341034,0.\H,0,-2.132511,1.137122,0.\H,0,1.700452
 ,-1.997182,0.\H,0,2.103646,0.447177,0.\O,0,0.09883,2.316117,0.\C,0,1.3
 9266,2.898769,0.\H,0,1.234594,3.976043,0.\H,0,1.961412,2.617986,-0.894

 Normal termination of Gaussian 16 at Tue Apr  8 22:42:15 2025.
