 Gaussian 16, Revision C.01,

 ----------------------------------------------------------------------
 #t hf aug-cc-pvdz symm=none int=(grid=ultrafine) guess=(read,tcheck) s
 table=(opt,rrhf)
 ----------------------------------------------------------------------
 -----
 title
 -----
 Symbolic Z-matrix:
 Charge =  0 Multiplicity = 1

 SCF Done:  E(RHF) =  -1257.16057343     A.U. after   16 cycles
 Normal termination of Gaussian 16 at Tue Apr  8 23:31:34 2025.
 Gaussian 16:  ES64L-G16RevC.01  3-Jul-2019

 ----------------------------------------------------------------------
 #t hf aug-cc-pvdz iop(5/13=1,5/36=2,99/5=2) pseudo=read geom=check gue
 ss=(read,tcheck) scf=(maxcycle=1)
 ----------------------------------------------------------------------
 -----
 title
 -----
 Structure from the checkpoint file:  "BDE49_nonexpt_1355_mol1.chk"
 Charge =  0 Multiplicity = 1

                         Standard orientation:
 ---------------------------------------------------------------------
 Center     Atomic      Atomic             Coordinates (Angstroms)
 Number     Number       Type             X           Y           Z
 ---------------------------------------------------------------------
      1          9           0       -1.845310    2.154799   -0.366413
      2         16           0       -1.445788   -0.700757    0.382346
      3          8           0       -1.760744   -1.960865   -0.277137
      4          8           0       -1.817640   -0.440655    1.760810
      5         15           0       -2.520999    0.766609   -0.886609
      6          6           0        0.301660   -0.381346    0.208776
      7          6           0        1.046636   -1.117793   -0.711146
      8          6           0        2.405630   -0.857390   -0.838776
      9          6           0        3.028587    0.134936   -0.070692
     10          6           0        2.254289    0.856559    0.845630
     11          6           0        0.894808    0.606361    0.993534
     12          6           0        4.497293    0.430358   -0.242501
     13          1           0        0.566624   -1.894260   -1.293391
     14          1           0        2.994424   -1.438407   -1.540580
     15          1           0        2.723251    1.618970    1.458110
     16          1           0        0.302706    1.151580    1.716846
     17          1           0        5.061344   -0.475746   -0.474179
     18          1           0        4.922519    0.877621    0.657913
     19          1           0        4.656176    1.134289   -1.066578
     20          1           0       -1.618008    0.527785   -1.957147
 ---------------------------------------------------------------------

 SCF Done:  E(RHF) =  -1257.77981171     A.U. after    2 cycles

 The electronic state is 1-A.
 Alpha  occ. eigenvalues --  -94.19306 -84.39185 -26.49297 -20.54595 -20.54230
 Alpha  occ. eigenvalues --  -11.28784 -11.28269 -11.27947 -11.27925 -11.26409
 Alpha  occ. eigenvalues --  -11.26362 -11.25627  -8.44748  -6.85411  -6.42830
 Alpha  occ. eigenvalues --   -6.42594  -6.42525  -4.38012  -4.37175  -4.36789
 Alpha  occ. eigenvalues --   -1.60319  -1.55644  -1.44185  -1.19270  -1.09263
 Alpha  occ. eigenvalues --   -1.04768  -1.00112  -0.94438  -0.87139  -0.87046
 Alpha  occ. eigenvalues --   -0.81369  -0.74312  -0.70534  -0.69430  -0.68750
 Alpha  occ. eigenvalues --   -0.67121  -0.66470  -0.64388  -0.64084  -0.62916
 Alpha  occ. eigenvalues --   -0.61120  -0.60453  -0.57257  -0.54879  -0.53357
 Alpha  occ. eigenvalues --   -0.52785  -0.50413  -0.49005  -0.47211  -0.44381
 Alpha  occ. eigenvalues --   -0.39383  -0.37360  -0.36029
 Alpha virt. eigenvalues --    0.02744   0.03153   0.03614   0.03950   0.04523
 Alpha virt. eigenvalues --    0.05228   0.06139   0.06981   0.07563   0.08089
 Alpha virt. eigenvalues --    0.08656   0.08864   0.09311   0.09885   0.11793

 Mulliken charges:
               1
     1  F   -0.804289
     2  S    3.931854
     3  O   -1.708419
     4  O   -1.717280
     5  P    0.984875
     6  C    0.156454
     7  C   -0.843501
     8  C    0.755134
     9  C   -0.018842
    10  C    0.887191
    11  C   -0.536160
    12  C   -0.652172
    13  H   -0.281071
    14  H   -0.298643
    15  H   -0.294452
    16  H   -0.309929
    17  H    0.141284
    18  H    0.110827
    19  H    0.283341
    20  H    0.213799
 Sum of Mulliken charges =  -0.00000

 Dipole moment (field-independent basis, Debye):
    X=              4.1150    Y=              2.5544    Z=             -3.1258  Tot=              5.7644

 Test job not archived.
 1\1\GINC-SE362\SP\RHF\Aug-CC-pVDZ\C7H8F1O2P1S1\OHZDE\08-Apr-2025\0\\#t
  hf aug-cc-pvdz iop(5/13=1,5/36=2,99/5=2) pseudo=read geom=check guess
 =(read,tcheck) scf=(maxcycle=1)\\title\\0,1\F,0,-1.84531,2.154799,-0.3
 66413\S,0,-1.445788,-0.700757,0.382346\O,0,-1.760744,-1.960865,-0.2771
 37\O,0,-1.81764,-0.440655,1.76081\P,0,-2.520999,0.766609,-0.886609\C,0
 ,0.30166,-0.381346,0.208776\C,0,1.046636,-1.117793,-0.711146\C,0,2.405
 63,-0.85739,-0.838776\C,0,3.028587,0.134936,-0.070692\C,0,2.254289,0.8
 56559,0.84563\C,0,0.894808,0.606361,0.993534\C,0,4.497293,0.430358,-0.

 Normal termination of Gaussian 16 at Tue Apr  8 23:31:46 2025.
