 Gaussian 16, Revision C.01,

 ----------------------------------------------------------------------
 #t hf aug-cc-pvdz symm=none int=(grid=ultrafine) guess=(read,tcheck) s
 table=opt
 ----------------------------------------------------------------------
 -----
 title
 -----
 Symbolic Z-matrix:
 Charge =  0 Multiplicity = 2

 SCF Done:  E(UHF) =  -983.805692233     A.U. after   23 cycles
 Normal termination of Gaussian 16 at Tue Apr  8 23:10:14 2025.
 Gaussian 16:  ES64L-G16RevC.01  3-Jul-2019

 ----------------------------------------------------------------------
 #t hf aug-cc-pvdz iop(5/13=1,5/36=2,99/5=2) pseudo=read geom=check gue
 ss=(read,tcheck) scf=(maxcycle=1)
 ----------------------------------------------------------------------
 -----
 title
 -----
 Structure from the checkpoint file:  "BDE49_expt_625_mol2.chk"
 Charge =  0 Multiplicity = 2

                         Standard orientation:
 ---------------------------------------------------------------------
 Center     Atomic      Atomic             Coordinates (Angstroms)
 Number     Number       Type             X           Y           Z
 ---------------------------------------------------------------------
      1          6           0        0.435477   -0.034324   -0.352092
      2          8           0        1.105693   -1.024400    0.436279
      3          8           0        2.119857   -1.557975   -0.222709
      4          6           0       -1.060872   -0.140802   -0.019770
      5         17           0        1.076927    1.586538    0.012591
      6          1           0        0.607206   -0.250489   -1.403479
      7          9           0       -1.755562    0.751907   -0.736933
      8          9           0       -1.490934   -1.369940   -0.348963
      9          9           0       -1.305391    0.061266    1.276122
 ---------------------------------------------------------------------

 SCF Done:  E(UHF) =  -984.362905370     A.U. after    2 cycles

 The electronic state is 2-A.
 Alpha  occ. eigenvalues -- -105.60525 -26.53415 -26.53261 -26.53240 -20.71009
 Alpha  occ. eigenvalues --  -20.69776 -11.55622 -11.42373 -10.65373  -7.82338
 Alpha  occ. eigenvalues --   -7.81897  -7.81888  -1.74663  -1.73342  -1.64367
 Alpha  occ. eigenvalues --   -1.64157  -1.33307  -1.14199  -1.02966  -0.92612
 Alpha  occ. eigenvalues --   -0.84626  -0.84061  -0.83118  -0.79203  -0.75383
 Alpha  occ. eigenvalues --   -0.71456  -0.70898  -0.69976  -0.66669  -0.66200
 Alpha  occ. eigenvalues --   -0.64564  -0.63339  -0.60990  -0.54621  -0.52332
 Alpha  occ. eigenvalues --   -0.49649  -0.49222
 Alpha virt. eigenvalues --    0.03996   0.07087   0.07855   0.09342   0.10877
 Alpha virt. eigenvalues --    0.11311   0.12595   0.12900   0.14891   0.15197
 Alpha virt. eigenvalues --    0.17027   0.17438   0.18564   0.19681   0.22710

  Beta  occ. eigenvalues -- -105.60516 -26.53418 -26.53261 -26.53240 -20.69050
  Beta  occ. eigenvalues --  -20.66925 -11.55625 -11.42436 -10.65364  -7.82300
  Beta  occ. eigenvalues --   -7.81898  -7.81879  -1.74461  -1.67681  -1.64361
  Beta  occ. eigenvalues --   -1.64147  -1.25080  -1.12473  -1.02590  -0.92290
  Beta  occ. eigenvalues --   -0.84557  -0.83939  -0.82704  -0.74307  -0.71827
  Beta  occ. eigenvalues --   -0.70579  -0.68906  -0.67239  -0.66164  -0.65345
  Beta  occ. eigenvalues --   -0.64561  -0.60957  -0.55106  -0.51748  -0.49458
  Beta  occ. eigenvalues --   -0.48751
  Beta virt. eigenvalues --    0.03939   0.06638   0.07247   0.07870   0.09394
  Beta virt. eigenvalues --    0.11018   0.11503   0.12627   0.14407   0.14914
  Beta virt. eigenvalues --    0.15312   0.17214   0.17681   0.18685   0.19794

 Mulliken charges and spin densities:
               1          2
     1  C    0.028838  -0.020334
     2  O   -0.625645   0.057878
     3  O   -0.208802   0.961721
     4  C    2.654676   0.000173
     5  Cl   0.024918   0.005038
     6  H    0.281007  -0.004463
     7  F   -0.703280  -0.000109
     8  F   -0.734489  -0.000102
     9  F   -0.717222   0.000198
 Sum of Mulliken charges =  -0.00000   1.00000

 Dipole moment (field-independent basis, Debye):
    X=              0.2196    Y=              0.0979    Z=             -1.3794  Tot=              1.4002
                          Isotropic Fermi Contact Couplings
        Atom                 a.u.       MegaHertz       Gauss      10(-4) cm-1
     1  C(13)             -0.01165     -13.09142      -4.67135      -4.36683
     2  O(17)              0.07297     -44.23613     -15.78455     -14.75559
     3  O(17)              0.26540    -160.88642     -57.40828     -53.66593
     4  C(13)             -0.00078      -0.87263      -0.31138      -0.29108
     5  Cl(35)            -0.00120      -0.52625      -0.18778      -0.17554
     6  H(1)               0.00002       0.07522       0.02684       0.02509
     7  F(19)             -0.00045      -1.89496      -0.67617      -0.63209
     8  F(19)             -0.00002      -0.07373      -0.02631      -0.02459

 1\1\GINC-SE103\SP\UHF\Aug-CC-pVDZ\C2H1Cl1F3O2(2)\OHZDE\08-Apr-2025\0\\
 #t hf aug-cc-pvdz iop(5/13=1,5/36=2,99/5=2) pseudo=read geom=check gue
 ss=(read,tcheck) scf=(maxcycle=1)\\title\\0,2\C,0,0.435477,-0.034324,-
 0.352092\O,0,1.105693,-1.024399,0.436279\O,0,2.119857,-1.557974,-0.222
 709\C,0,-1.060872,-0.140802,-0.01977\Cl,0,1.076926,1.586538,0.012591\H
 ,0,0.607206,-0.250489,-1.403479\F,0,-1.755562,0.751907,-0.736933\F,0,-
 1.490934,-1.36994,-0.348963\F,0,-1.305391,0.061266,1.276122\\Version=E
 S64L-G16RevC.01\State=2-A\HF=-984.3629054\S2=0.762146\S2-1=0.\S2A=0.75

 Normal termination of Gaussian 16 at Tue Apr  8 23:10:21 2025.
