 Gaussian 16, Revision C.01,

 ----------------------------------------------------------------------
 #t hf aug-cc-pvdz symm=none int=(grid=ultrafine) guess=(read,tcheck) s
 table=opt
 ----------------------------------------------------------------------
 -----
 title
 -----
 Symbolic Z-matrix:
 Charge =  0 Multiplicity = 2

 SCF Done:  E(UHF) =  -1038.97847179     A.U. after   22 cycles
 Normal termination of Gaussian 16 at Wed Apr  9 00:17:08 2025.
 Gaussian 16:  ES64L-G16RevC.01  3-Jul-2019

 ----------------------------------------------------------------------
 #t hf aug-cc-pvdz iop(5/13=1,5/36=2,99/5=2) pseudo=read geom=check gue
 ss=(read,tcheck) scf=(maxcycle=1)
 ----------------------------------------------------------------------
 -----
 title
 -----
 Structure from the checkpoint file:  "BDE49_nonexpt_2555_mol2.chk"
 Charge =  0 Multiplicity = 2

                         Standard orientation:
 ---------------------------------------------------------------------
 Center     Atomic      Atomic             Coordinates (Angstroms)
 Number     Number       Type             X           Y           Z
 ---------------------------------------------------------------------
      1         16           0        2.117183   -0.061264   -0.000670
      2         15           0       -0.790012    0.012573   -0.092592
      3          8           0       -1.814909   -0.392108   -1.037381
      4          8           0       -1.005787   -0.415972    1.427148
      5          1           0       -1.532274   -1.220672    1.511014
      6          8           0       -0.459525    1.548235    0.012284
      7          1           0        0.433886    1.723836    0.354664
      8          8           0        0.664427   -0.704098   -0.460311
 ---------------------------------------------------------------------

 SCF Done:  E(UHF) =  -1039.36715941     A.U. after    2 cycles

 The electronic state is 2-A.
 Alpha  occ. eigenvalues --  -94.06323 -84.48195 -20.63789 -20.61658 -20.61480
 Alpha  occ. eigenvalues --  -20.52340  -8.33723  -6.93037  -6.32776  -6.31172
 Alpha  occ. eigenvalues --   -6.30727  -4.47246  -4.46514  -4.46195  -1.58702
 Alpha  occ. eigenvalues --   -1.51306  -1.50147  -1.41175  -1.03003  -0.86840
 Alpha  occ. eigenvalues --   -0.77740  -0.74177  -0.68371  -0.66150  -0.64590
 Alpha  occ. eigenvalues --   -0.59875  -0.58043  -0.57632  -0.55177  -0.48813
 Alpha  occ. eigenvalues --   -0.48340  -0.45886  -0.42583
 Alpha virt. eigenvalues --    0.03431   0.04201   0.05951   0.08073   0.08925
 Alpha virt. eigenvalues --    0.10541   0.10974   0.12114   0.13505   0.16160
 Alpha virt. eigenvalues --    0.17981   0.18256   0.19767   0.20654   0.22323

  Beta  occ. eigenvalues --  -94.05445 -84.48200 -20.63168 -20.61673 -20.61481
  Beta  occ. eigenvalues --  -20.52346  -8.32715  -6.93044  -6.30779  -6.30203
  Beta  occ. eigenvalues --   -6.28792  -4.47250  -4.46516  -4.46213  -1.58242
  Beta  occ. eigenvalues --   -1.50185  -1.49978  -1.41142  -0.96160  -0.85807
  Beta  occ. eigenvalues --   -0.77560  -0.73077  -0.67468  -0.63558  -0.62116
  Beta  occ. eigenvalues --   -0.59255  -0.57726  -0.56245  -0.53937  -0.48645
  Beta  occ. eigenvalues --   -0.47835  -0.40623
  Beta virt. eigenvalues --   -0.02170   0.03457   0.04461   0.06410   0.08247
  Beta virt. eigenvalues --    0.09606   0.10594   0.11339   0.13334   0.13817
  Beta virt. eigenvalues --    0.17030   0.18080   0.18555   0.20170   0.20709

 Mulliken charges and spin densities:
               1          2
     1  S    0.496720   0.965615
     2  P    3.943216  -0.002753
     3  O   -1.317442  -0.000396
     4  O   -1.265977   0.003529
     5  H    0.384371   0.000601
     6  O   -1.249276   0.004200
     7  H    0.390343  -0.017915
     8  O   -1.381954   0.047119
 Sum of Mulliken charges =   0.00000   1.00000

 Dipole moment (field-independent basis, Debye):
    X=              2.6984    Y=              0.1959    Z=              2.9184  Tot=              3.9796
                          Isotropic Fermi Contact Couplings
        Atom                 a.u.       MegaHertz       Gauss      10(-4) cm-1
     1  S(33)              0.20716      71.15219      25.38887      23.73382
     2  P(31)             -0.00543      -9.83046      -3.50775      -3.27909
     3  O(17)             -0.00036       0.22056       0.07870       0.07357
     4  O(17)             -0.00173       1.04697       0.37358       0.34923
     5  H(1)              -0.00002      -0.10206      -0.03642      -0.03404
     6  O(17)             -0.00210       1.27211       0.45392       0.42433
     7  H(1)               0.00020       0.89786       0.32038       0.29949
     8  O(17)              0.05916     -35.86391     -12.79713     -11.96291

 Normal termination of Gaussian 16 at Wed Apr  9 00:17:12 2025.
