 Gaussian 16, Revision C.01,

 ----------------------------------------------------------------------
 #t hf aug-cc-pvdz symm=none int=(grid=ultrafine) guess=(read,tcheck) s
 table=(opt,rrhf)
 ----------------------------------------------------------------------
 -----
 title
 -----
 Symbolic Z-matrix:
 Charge =  0 Multiplicity = 1

 SCF Done:  E(RHF) =  -276.982301584     A.U. after   11 cycles
 Normal termination of Gaussian 16 at Tue Apr  8 22:29:17 2025.
 Gaussian 16:  ES64L-G16RevC.01  3-Jul-2019

 ----------------------------------------------------------------------
 #t hf aug-cc-pvdz iop(5/13=1,5/36=2,99/5=2) pseudo=read geom=check gue
 ss=(read,tcheck) scf=(maxcycle=1)
 ----------------------------------------------------------------------
 -----
 title
 -----
 Structure from the checkpoint file:  "BDE49_expt_1008_mol1.chk"
 Charge =  0 Multiplicity = 1

                         Standard orientation:
 ---------------------------------------------------------------------
 Center     Atomic      Atomic             Coordinates (Angstroms)
 Number     Number       Type             X           Y           Z
 ---------------------------------------------------------------------
      1          6           0       -0.324080    0.166855    0.000000
      2          6           0        0.903923    1.036414   -0.000000
      3          9           0       -0.324080   -0.648874    1.104465
      4          9           0       -0.324080   -0.648874   -1.104465
      5          1           0       -1.268052    0.718496    0.000000
      6          1           0        1.792548    0.402762   -0.000000
      7          1           0        0.914948    1.669434    0.889054
      8          1           0        0.914948    1.669434   -0.889054
 ---------------------------------------------------------------------

 SCF Done:  E(RHF) =  -277.249829890     A.U. after    2 cycles

 The electronic state is 1-A'.
 Alpha  occ. eigenvalues --  -26.46981 -26.46979 -11.41701 -11.25367  -1.63224
 Alpha  occ. eigenvalues --   -1.56610  -1.04920  -0.88594  -0.76365  -0.73732
 Alpha  occ. eigenvalues --   -0.71190  -0.63682  -0.60532  -0.59866  -0.57104
 Alpha  occ. eigenvalues --   -0.56428  -0.51516
 Alpha virt. eigenvalues --    0.03482   0.04254   0.05249   0.06322   0.10808
 Alpha virt. eigenvalues --    0.11556   0.11587   0.14174   0.15449   0.15889
 Alpha virt. eigenvalues --    0.16800   0.20749   0.24020   0.25923   0.28305

 Mulliken charges:
               1
     1  C    1.407515
     2  C   -0.581864
     3  F   -0.717947
     4  F   -0.717947
     5  H    0.049133
     6  H    0.185152
     7  H    0.187979
     8  H    0.187979
 Sum of Mulliken charges =  -0.00000

 Dipole moment (field-independent basis, Debye):
    X=              0.3415    Y=              2.3407    Z=             -0.0000  Tot=              2.3655

 Test job not archived.
 1\1\GINC-SE332\SP\RHF\Aug-CC-pVDZ\C2H4F2\OHZDE\08-Apr-2025\0\\#t hf au
 g-cc-pvdz iop(5/13=1,5/36=2,99/5=2) pseudo=read geom=check guess=(read
 ,tcheck) scf=(maxcycle=1)\\title\\0,1\C,0,-0.32408,0.166855,0.\C,0,0.9
 03923,1.036414,0.\F,0,-0.32408,-0.648874,1.104465\F,0,-0.32408,-0.6488
 74,-1.104465\H,0,-1.268052,0.718496,0.\H,0,1.792548,0.402762,0.\H,0,0.
 914948,1.669434,0.889054\H,0,0.914948,1.669434,-0.889054\\Version=ES64
 L-G16RevC.01\State=1-A'\HF=-277.2498299\RMSD=6.538e-03\Dipole=0.134365
 7,0.9209198,0.\Quadrupole=1.4461147,0.2711826,-1.7172973,-0.4148794,0.

 Normal termination of Gaussian 16 at Tue Apr  8 22:29:18 2025.
