 Gaussian 16, Revision C.01,

 ----------------------------------------------------------------------
 #t hf aug-cc-pvdz symm=none int=(grid=ultrafine) guess=(read,tcheck) s
 table=(opt,rrhf)
 ----------------------------------------------------------------------
 -----
 title
 -----
 Symbolic Z-matrix:
 Charge =  0 Multiplicity = 1

 SCF Done:  E(RHF) =  -519.009682157     A.U. after   14 cycles
 Normal termination of Gaussian 16 at Wed Apr  9 00:08:43 2025.
 Gaussian 16:  ES64L-G16RevC.01  3-Jul-2019

 ----------------------------------------------------------------------
 #t hf aug-cc-pvdz iop(5/13=1,5/36=2,99/5=2) pseudo=read geom=check gue
 ss=(read,tcheck) scf=(maxcycle=1)
 ----------------------------------------------------------------------
 -----
 title
 -----
 Structure from the checkpoint file:  "BDE49_nonexpt_2280_mol1.chk"
 Charge =  0 Multiplicity = 1

                         Standard orientation:
 ---------------------------------------------------------------------
 Center     Atomic      Atomic             Coordinates (Angstroms)
 Number     Number       Type             X           Y           Z
 ---------------------------------------------------------------------
      1          6           0       -2.077962   -0.782473   -0.365701
      2          6           0       -1.325845    0.099512    0.646468
      3          1           0       -1.439470   -1.584208   -0.746234
      4          1           0       -2.418851   -0.202074   -1.227753
      5          1           0       -2.957808   -1.248486    0.086625
      6         14           0        0.193210    0.960835   -0.031281
      7          1           0       -1.989646    0.881885    1.037588
      8          1           0       -1.018908   -0.491645    1.516253
      9          8           0        1.325731   -0.119834   -0.669050
     10          8           0        1.807922   -0.937926    0.452124
     11          1           0        1.769201   -1.810422    0.038668
     12          1           0        0.820239    1.796125    1.017336
     13          1           0       -0.116074    1.766980   -1.233744
 ---------------------------------------------------------------------

 SCF Done:  E(RHF) =  -519.278491744     A.U. after    2 cycles

 The electronic state is 1-A.
 Alpha  occ. eigenvalues --  -69.55435 -20.62284 -20.59637 -11.23640 -11.22633
 Alpha  occ. eigenvalues --   -6.22143  -3.97605  -3.97470  -3.97414  -1.56573
 Alpha  occ. eigenvalues --   -1.27180  -1.03086  -0.86039  -0.73169  -0.70635
 Alpha  occ. eigenvalues --   -0.63495  -0.60799  -0.59944  -0.58051  -0.53076
 Alpha  occ. eigenvalues --   -0.51504  -0.50236  -0.47737  -0.46568  -0.42742
 Alpha virt. eigenvalues --    0.03450   0.03970   0.04505   0.04664   0.06253
 Alpha virt. eigenvalues --    0.07145   0.07449   0.07664   0.08461   0.10450
 Alpha virt. eigenvalues --    0.11329   0.13673   0.14902   0.15093   0.15332

 Mulliken charges:
               1
     1  C   -0.387303
     2  C   -0.600115
     3  H    0.112137
     4  H    0.131173
     5  H    0.115530
     6  Si   1.900858
     7  H    0.056781
     8  H    0.105082
     9  O   -0.888831
    10  O   -0.614290
    11  H    0.471358
    12  H   -0.225424
    13  H   -0.176957
 Sum of Mulliken charges =  -0.00000

 Dipole moment (field-independent basis, Debye):
    X=             -1.5999    Y=             -1.0292    Z=              0.2779  Tot=              1.9226

 Test job not archived.
 1\1\GINC-SE094\SP\RHF\Aug-CC-pVDZ\C2H8O2Si1\OHZDE\09-Apr-2025\0\\#t hf
  aug-cc-pvdz iop(5/13=1,5/36=2,99/5=2) pseudo=read geom=check guess=(r
 ead,tcheck) scf=(maxcycle=1)\\title\\0,1\C,0,-2.077962,-0.782473,-0.36
 5701\C,0,-1.325845,0.099512,0.646468\H,0,-1.43947,-1.584208,-0.746234\
 H,0,-2.418851,-0.202074,-1.227753\H,0,-2.957808,-1.248486,0.086625\Si,
 0,0.19321,0.960835,-0.031281\H,0,-1.989646,0.881885,1.037588\H,0,-1.01
 8908,-0.491645,1.516253\O,0,1.325731,-0.119834,-0.66905\O,0,1.807922,-
 0.937926,0.452124\H,0,1.769201,-1.810422,0.038668\H,0,0.820239,1.79612

 Normal termination of Gaussian 16 at Wed Apr  9 00:08:47 2025.
