 Gaussian 16, Revision C.01,

 ----------------------------------------------------------------------
 #t hf aug-cc-pvdz symm=none int=(grid=ultrafine) guess=(read,tcheck) s
 table=(opt,rrhf)
 ----------------------------------------------------------------------
 -----
 title
 -----
 Symbolic Z-matrix:
 Charge =  0 Multiplicity = 1

 SCF Done:  E(RHF) =  -951.669957200     A.U. after   15 cycles
 Normal termination of Gaussian 16 at Wed Apr  9 00:15:34 2025.
 Gaussian 16:  ES64L-G16RevC.01  3-Jul-2019

 ----------------------------------------------------------------------
 #t hf aug-cc-pvdz iop(5/13=1,5/36=2,99/5=2) pseudo=read geom=check gue
 ss=(read,tcheck) scf=(maxcycle=1)
 ----------------------------------------------------------------------
 -----
 title
 -----
 Structure from the checkpoint file:  "BDE49_nonexpt_2528_mol1.chk"
 Charge =  0 Multiplicity = 1

                         Standard orientation:
 ---------------------------------------------------------------------
 Center     Atomic      Atomic             Coordinates (Angstroms)
 Number     Number       Type             X           Y           Z
 ---------------------------------------------------------------------
      1         17           0        1.665216   -0.516683    0.044932
      2          7           0       -1.293157    0.262927    0.446267
      3         16           0        0.055579    0.927395   -0.177748
      4          6           0       -2.023838   -0.817399   -0.220352
      5          1           0       -1.356643    0.259219    1.458006
      6          1           0       -2.071806   -0.602783   -1.287543
      7          1           0       -3.038256   -0.860495    0.182276
      8          1           0       -1.536118   -1.786747   -0.074377
 ---------------------------------------------------------------------

 SCF Done:  E(RHF) =  -951.908575656     A.U. after    2 cycles

 The electronic state is 1-A.
 Alpha  occ. eigenvalues -- -105.55566 -94.03988 -15.56002 -11.28758 -10.60275
 Alpha  occ. eigenvalues --   -8.31259  -7.77177  -7.76804  -7.76770  -6.29028
 Alpha  occ. eigenvalues --   -6.28801  -6.28478  -1.27237  -1.06558  -0.98392
 Alpha  occ. eigenvalues --   -0.88938  -0.72210  -0.65348  -0.64892  -0.57476
 Alpha  occ. eigenvalues --   -0.53437  -0.48949  -0.45442  -0.43692  -0.37973
 Alpha virt. eigenvalues --    0.03031   0.04632   0.04827   0.05634   0.06293
 Alpha virt. eigenvalues --    0.08710   0.10216   0.11736   0.12733   0.14571
 Alpha virt. eigenvalues --    0.14845   0.15626   0.16534   0.17943   0.18120

 Mulliken charges:
               1
     1  Cl  -0.345142
     2  N   -0.057001
     3  S    0.417785
     4  C   -0.497903
     5  H    0.097782
     6  H    0.122062
     7  H    0.092188
     8  H    0.170228
 Sum of Mulliken charges =  -0.00000

 Dipole moment (field-independent basis, Debye):
    X=             -3.0627    Y=             -0.3381    Z=              0.6450  Tot=              3.1481

 Test job not archived.
 1\1\GINC-SE458\SP\RHF\Aug-CC-pVDZ\C1H4Cl1N1S1\OHZDE\09-Apr-2025\0\\#t
 hf aug-cc-pvdz iop(5/13=1,5/36=2,99/5=2) pseudo=read geom=check guess=
 (read,tcheck) scf=(maxcycle=1)\\title\\0,1\Cl,0,1.665216,-0.516682,0.0
 44932\N,0,-1.293157,0.262927,0.446267\S,0,0.055579,0.927395,-0.177748\
 C,0,-2.023838,-0.817399,-0.220352\H,0,-1.356643,0.259219,1.458006\H,0,
 -2.071806,-0.602783,-1.287543\H,0,-3.038256,-0.860495,0.182276\H,0,-1.
 536118,-1.786747,-0.074377\\Version=ES64L-G16RevC.01\State=1-A\HF=-951
 .9085757\RMSD=7.642e-03\Dipole=-1.2049646,-0.1330166,0.2537507\Quadrup

 Normal termination of Gaussian 16 at Wed Apr  9 00:15:37 2025.
