 Gaussian 16, Revision C.01,

 ----------------------------------------------------------------------
 #t hf aug-cc-pvdz symm=none int=(grid=ultrafine) guess=(read,tcheck) s
 table=(opt,rrhf)
 ----------------------------------------------------------------------
 -----
 title
 -----
 Symbolic Z-matrix:
 Charge =  0 Multiplicity = 1

 SCF Done:  E(RHF) =  -184.797854610     A.U. after   13 cycles
 Normal termination of Gaussian 16 at Wed Apr  9 00:40:03 2025.
 Gaussian 16:  ES64L-G16RevC.01  3-Jul-2019

 ----------------------------------------------------------------------
 #t hf aug-cc-pvdz iop(5/13=1,5/36=2,99/5=2) pseudo=read geom=check gue
 ss=(read,tcheck) scf=(maxcycle=1)
 ----------------------------------------------------------------------
 -----
 title
 -----
 Structure from the checkpoint file:  "BDE49_nonexpt_62_mol1.chk"
 Charge =  0 Multiplicity = 1

                         Standard orientation:
 ---------------------------------------------------------------------
 Center     Atomic      Atomic             Coordinates (Angstroms)
 Number     Number       Type             X           Y           Z
 ---------------------------------------------------------------------
      1          5           0        2.396631   -0.115831    0.000005
      2          5           0        0.851257   -0.740536   -0.000005
      3          7           0       -0.368467   -0.065621   -0.000002
      4          6           0       -1.666708   -0.734138   -0.000006
      5          1           0       -2.250723   -0.454293    0.885541
      6          1           0       -1.524752   -1.813077   -0.000012
      7          1           0       -2.250723   -0.454283   -0.885550
      8          6           0       -0.484035    1.389394    0.000006
      9          1           0        0.505472    1.846757    0.000010
     10          1           0       -1.027626    1.740655    0.885715
     11          1           0       -1.027625    1.740665   -0.885699
     12          1           0        0.796958   -1.946124   -0.000006
     13          1           0        3.011653    0.074687   -1.010674
     14          1           0        3.011651    0.074662    1.010690
 ---------------------------------------------------------------------

 SCF Done:  E(RHF) =  -184.998830790     A.U. after    2 cycles

 The electronic state is 1-A.
 Alpha  occ. eigenvalues --  -15.49709 -11.26628 -11.26120  -7.57362  -7.55526
 Alpha  occ. eigenvalues --   -1.21367  -0.96905  -0.89805  -0.74620  -0.68424
 Alpha  occ. eigenvalues --   -0.64594  -0.64371  -0.57413  -0.55807  -0.53790
 Alpha  occ. eigenvalues --   -0.52586  -0.48424  -0.41404  -0.40956
 Alpha virt. eigenvalues --    0.03358   0.03901   0.04204   0.04235   0.05391
 Alpha virt. eigenvalues --    0.05417   0.05606   0.06814   0.07103   0.09010
 Alpha virt. eigenvalues --    0.09406   0.09572   0.10495   0.10892   0.12969

 Mulliken charges:
               1
     1  B   -0.992434
     2  B    0.123372
     3  N    0.464294
     4  C   -0.608945
     5  H    0.176707
     6  H   -0.065462
     7  H    0.176707
     8  C   -0.360849
     9  H   -0.045335
    10  H    0.185617
    11  H    0.185615
    12  H    0.089266
    13  H    0.335723
    14  H    0.335723
 Sum of Mulliken charges =   0.00000

 Dipole moment (field-independent basis, Debye):
    X=             -1.5512    Y=              0.7675    Z=             -0.0000  Tot=              1.7306

 Test job not archived.
 1\1\GINC-SE120\SP\RHF\Aug-CC-pVDZ\C2H9B2N1\OHZDE\09-Apr-2025\0\\#t hf
 aug-cc-pvdz iop(5/13=1,5/36=2,99/5=2) pseudo=read geom=check guess=(re
 ad,tcheck) scf=(maxcycle=1)\\title\\0,1\B,0,2.396631,-0.115832,0.00000
 5\B,0,0.851257,-0.740536,-0.000005\N,0,-0.368467,-0.065621,-0.000002\C
 ,0,-1.666708,-0.734137,-0.000006\H,0,-2.250723,-0.454292,0.885541\H,0,
 -1.524753,-1.813077,-0.000012\H,0,-2.250723,-0.454282,-0.88555\C,0,-0.
 484035,1.389394,0.000006\H,0,0.505472,1.846757,0.00001\H,0,-1.027626,1
 .740655,0.885715\H,0,-1.027625,1.740665,-0.885699\H,0,0.796957,-1.9461

 Normal termination of Gaussian 16 at Wed Apr  9 00:40:07 2025.
