 Gaussian 16, Revision C.01,

 ----------------------------------------------------------------------
 #t hf aug-cc-pvdz symm=none int=(grid=ultrafine) guess=(read,tcheck) s
 table=(opt,rrhf)
 ----------------------------------------------------------------------
 -----
 title
 -----
 Symbolic Z-matrix:
 Charge =  0 Multiplicity = 1

 SCF Done:  E(RHF) =  -513.437018124     A.U. after   12 cycles
 Normal termination of Gaussian 16 at Tue Apr  8 23:37:17 2025.
 Gaussian 16:  ES64L-G16RevC.01  3-Jul-2019

 ----------------------------------------------------------------------
 #t hf aug-cc-pvdz iop(5/13=1,5/36=2,99/5=2) pseudo=read geom=check gue
 ss=(read,tcheck) scf=(maxcycle=1)
 ----------------------------------------------------------------------
 -----
 title
 -----
 Structure from the checkpoint file:  "BDE49_nonexpt_1531_mol1.chk"
 Charge =  0 Multiplicity = 1

                         Standard orientation:
 ---------------------------------------------------------------------
 Center     Atomic      Atomic             Coordinates (Angstroms)
 Number     Number       Type             X           Y           Z
 ---------------------------------------------------------------------
      1          7           0       -2.141275    0.545170    0.122323
      2          6           0        0.642853    0.073042    0.518319
      3          6           0        1.605078    0.894412   -0.315576
      4          6           0        1.965283   -0.513710    0.057758
      5          1           0        1.940895   -1.265406   -0.723508
      6          1           0        2.731388   -0.672823    0.807063
      7          1           0        2.128068    1.707432    0.174132
      8          1           0        1.339896    1.089764   -1.349072
      9         15           0       -0.890347   -0.560162   -0.271230
     10          1           0        0.586288    0.333621    1.572337
     11          1           0       -1.182939   -1.530839    0.720252
     12          1           0       -2.325104    1.233188   -0.594105
     13          1           0       -2.153644    0.968835    1.042076
 ---------------------------------------------------------------------

 SCF Done:  E(RHF) =  -513.670180267     A.U. after    2 cycles

 The electronic state is 1-A.
 Alpha  occ. eigenvalues --  -84.28381 -15.49093 -11.24199 -11.24079 -11.23946
 Alpha  occ. eigenvalues --   -6.75083  -4.27901  -4.27470  -4.26808  -1.16475
 Alpha  occ. eigenvalues --   -1.14011  -0.87648  -0.82842  -0.76956  -0.69814
 Alpha  occ. eigenvalues --   -0.67705  -0.63214  -0.56303  -0.52795  -0.52093
 Alpha  occ. eigenvalues --   -0.46375  -0.42959  -0.40595  -0.33152
 Alpha virt. eigenvalues --    0.03294   0.04032   0.04492   0.04802   0.06386
 Alpha virt. eigenvalues --    0.06819   0.07053   0.07816   0.09806   0.10965
 Alpha virt. eigenvalues --    0.11803   0.12739   0.13786   0.14844   0.15262

 Mulliken charges:
               1
     1  N   -0.099165
     2  C   -0.015211
     3  C    0.110773
     4  C    0.247475
     5  H   -0.132001
     6  H   -0.130157
     7  H   -0.110301
     8  H   -0.097373
     9  P   -0.009201
    10  H   -0.198374
    11  H    0.362575
    12  H    0.081197
    13  H   -0.010237
 Sum of Mulliken charges =   0.00000

 Dipole moment (field-independent basis, Debye):
    X=              0.9855    Y=              1.3333    Z=              0.9518  Tot=              1.9118

 Test job not archived.
 1\1\GINC-SE184\SP\RHF\Aug-CC-pVDZ\C3H8N1P1\OHZDE\08-Apr-2025\0\\#t hf
 aug-cc-pvdz iop(5/13=1,5/36=2,99/5=2) pseudo=read geom=check guess=(re
 ad,tcheck) scf=(maxcycle=1)\\title\\0,1\N,0,-2.141275,0.54517,0.122323
 \C,0,0.642853,0.073042,0.518319\C,0,1.605078,0.894412,-0.315576\C,0,1.
 965283,-0.51371,0.057758\H,0,1.940895,-1.265406,-0.723508\H,0,2.731388
 ,-0.672823,0.807063\H,0,2.128068,1.707432,0.174132\H,0,1.339896,1.0897
 64,-1.349072\P,0,-0.890347,-0.560162,-0.27123\H,0,0.586288,0.333621,1.
 572337\H,0,-1.182939,-1.530839,0.720252\H,0,-2.325104,1.233188,-0.5941

 Normal termination of Gaussian 16 at Tue Apr  8 23:37:21 2025.
