 Gaussian 16, Revision C.01,

 ----------------------------------------------------------------------
 #t hf aug-cc-pvdz symm=none int=(grid=ultrafine) guess=(read,tcheck) s
 table=(opt,rrhf)
 ----------------------------------------------------------------------
 -----
 title
 -----
 Symbolic Z-matrix:
 Charge =  0 Multiplicity = 1

 SCF Done:  E(RHF) =  -574.053416317     A.U. after   13 cycles
 Normal termination of Gaussian 16 at Tue Apr  8 22:55:41 2025.
 Gaussian 16:  ES64L-G16RevC.01  3-Jul-2019

 ----------------------------------------------------------------------
 #t hf aug-cc-pvdz iop(5/13=1,5/36=2,99/5=2) pseudo=read geom=check gue
 ss=(read,tcheck) scf=(maxcycle=1)
 ----------------------------------------------------------------------
 -----
 title
 -----
 Structure from the checkpoint file:  "BDE49_expt_1871_mol1.chk"
 Charge =  0 Multiplicity = 1

                         Standard orientation:
 ---------------------------------------------------------------------
 Center     Atomic      Atomic             Coordinates (Angstroms)
 Number     Number       Type             X           Y           Z
 ---------------------------------------------------------------------
      1          8           0       -0.621919    0.354875   -0.835434
      2          8           0        0.621913   -0.355243   -0.835262
      3          6           0        1.465808    0.203322    0.086099
      4          6           0       -1.465853   -0.203382    0.086073
      5          9           0       -2.598625    0.462498   -0.071040
      6          8           0       -1.261360   -1.069533    0.850850
      7          8           0        1.261372    1.069914    0.850391
      8          9           0        2.598650   -0.462470   -0.070892
 ---------------------------------------------------------------------

 SCF Done:  E(RHF) =  -574.584852720     A.U. after    2 cycles

 The electronic state is 1-A.
 Alpha  occ. eigenvalues --  -26.55833 -26.55833 -20.73434 -20.73432 -20.61461
 Alpha  occ. eigenvalues --  -20.61458 -11.53453 -11.53450  -1.75665  -1.71643
 Alpha  occ. eigenvalues --   -1.67764  -1.56935  -1.56356  -1.42784  -0.96996
 Alpha  occ. eigenvalues --   -0.89604  -0.85495  -0.84248  -0.80054  -0.77322
 Alpha  occ. eigenvalues --   -0.77217  -0.76455  -0.69848  -0.69469  -0.66570
 Alpha  occ. eigenvalues --   -0.62999  -0.62546  -0.56313  -0.55544  -0.54393
 Alpha  occ. eigenvalues --   -0.53931
 Alpha virt. eigenvalues --    0.06885   0.07408   0.08283   0.08554   0.10502
 Alpha virt. eigenvalues --    0.10756   0.11242   0.14407   0.14953   0.15654
 Alpha virt. eigenvalues --    0.16474   0.18829   0.20161   0.22791   0.23142

 Mulliken charges:
               1
     1  O   -0.637008
     2  O   -0.637054
     3  C    2.071763
     4  C    2.071724
     5  F   -0.605911
     6  O   -0.828789
     7  O   -0.828811
     8  F   -0.605913
 Sum of Mulliken charges =  -0.00000

 Dipole moment (field-independent basis, Debye):
    X=             -0.0002    Y=             -0.0007    Z=             -1.5165  Tot=              1.5165

 Test job not archived.
 1\1\GINC-SE338\SP\RHF\Aug-CC-pVDZ\C2F2O4\OHZDE\08-Apr-2025\0\\#t hf au
 g-cc-pvdz iop(5/13=1,5/36=2,99/5=2) pseudo=read geom=check guess=(read
 ,tcheck) scf=(maxcycle=1)\\title\\0,1\O,0,-0.621919,-0.354875,0.835434
 \O,0,0.621913,0.355243,0.835262\C,0,1.465808,-0.203322,-0.086099\C,0,-
 1.465853,0.203382,-0.086073\F,0,-2.598625,-0.462498,0.07104\O,0,-1.261
 36,1.069533,-0.85085\O,0,1.261372,-1.069914,-0.850391\F,0,2.59865,0.46
 247,0.070892\\Version=ES64L-G16RevC.01\State=1-A\HF=-574.5848527\RMSD=
 6.546e-03\Dipole=-0.0000829,0.000259,0.5966526\Quadrupole=1.2200393,-0

 Normal termination of Gaussian 16 at Tue Apr  8 22:55:44 2025.
