 Gaussian 16, Revision C.01,

 ----------------------------------------------------------------------
 #t hf aug-cc-pvdz symm=none int=(grid=ultrafine) guess=(read,tcheck) s
 table=(opt,rrhf)
 ----------------------------------------------------------------------
 -----
 title
 -----
 Symbolic Z-matrix:
 Charge =  0 Multiplicity = 1

 SCF Done:  E(RHF) =  -1085.41453447     A.U. after   14 cycles
 Normal termination of Gaussian 16 at Wed Apr  9 00:19:43 2025.
 Gaussian 16:  ES64L-G16RevC.01  3-Jul-2019

 ----------------------------------------------------------------------
 #t hf aug-cc-pvdz iop(5/13=1,5/36=2,99/5=2) pseudo=read geom=check gue
 ss=(read,tcheck) scf=(maxcycle=1)
 ----------------------------------------------------------------------
 -----
 title
 -----
 Structure from the checkpoint file:  "BDE49_nonexpt_2588_mol1.chk"
 Charge =  0 Multiplicity = 1

                         Standard orientation:
 ---------------------------------------------------------------------
 Center     Atomic      Atomic             Coordinates (Angstroms)
 Number     Number       Type             X           Y           Z
 ---------------------------------------------------------------------
      1         17           0        2.367226    0.218701    0.254996
      2         16           0        0.702583   -0.904477   -0.276112
      3          6           0       -0.659769    0.265830    0.198652
      4          8           0       -1.750915   -0.473437   -0.260754
      5          8           0       -0.561816    1.526082   -0.353523
      6          6           0       -2.990215   -0.144595    0.375916
      7          1           0       -2.960355   -0.395915    1.442077
      8          1           0       -3.755513   -0.742528   -0.115531
      9          1           0       -3.217127    0.917981    0.252473
     10          1           0       -0.482999    1.423862   -1.311909
     11          1           0       -0.666415    0.401737    1.282553
 ---------------------------------------------------------------------

 SCF Done:  E(RHF) =  -1085.78264883     A.U. after    2 cycles

 The electronic state is 1-A.
 Alpha  occ. eigenvalues -- -105.58155 -94.00963 -20.58606 -20.58455 -11.40104
 Alpha  occ. eigenvalues --  -11.30754 -10.62856  -8.28717  -7.79798  -7.79355
 Alpha  occ. eigenvalues --   -7.79322  -6.26512  -6.26247  -6.25977  -1.53877
 Alpha  occ. eigenvalues --   -1.46764  -1.12135  -1.01129  -0.93180  -0.87697
 Alpha  occ. eigenvalues --   -0.73678  -0.71349  -0.67918  -0.62731  -0.61763
 Alpha  occ. eigenvalues --   -0.57930  -0.53427  -0.51875  -0.50770  -0.49550
 Alpha  occ. eigenvalues --   -0.46787  -0.43788  -0.37698
 Alpha virt. eigenvalues --    0.03315   0.04221   0.04754   0.05697   0.06228
 Alpha virt. eigenvalues --    0.07210   0.08448   0.11316   0.12177   0.12625
 Alpha virt. eigenvalues --    0.13682   0.14273   0.14689   0.15569   0.15964

 Mulliken charges:
               1
     1  Cl  -0.280234
     2  S    0.399303
     3  C    1.273148
     4  O   -1.207316
     5  O   -1.086579
     6  C    0.138270
     7  H    0.154671
     8  H   -0.001988
     9  H    0.195629
    10  H    0.273229
    11  H    0.141867
 Sum of Mulliken charges =  -0.00000

 Dipole moment (field-independent basis, Debye):
    X=             -3.0077    Y=              0.2456    Z=              0.2162  Tot=              3.0255

 Test job not archived.
 1\1\GINC-SE049\SP\RHF\Aug-CC-pVDZ\C2H5Cl1O2S1\OHZDE\09-Apr-2025\0\\#t
 hf aug-cc-pvdz iop(5/13=1,5/36=2,99/5=2) pseudo=read geom=check guess=
 (read,tcheck) scf=(maxcycle=1)\\title\\0,1\Cl,0,2.367226,0.218701,0.25
 4996\S,0,0.702583,-0.904477,-0.276112\C,0,-0.659769,0.26583,0.198652\O
 ,0,-1.750915,-0.473437,-0.260754\O,0,-0.561816,1.526082,-0.353523\C,0,
 -2.990215,-0.144595,0.375916\H,0,-2.960355,-0.395915,1.442077\H,0,-3.7
 55513,-0.742528,-0.115531\H,0,-3.217127,0.917981,0.252473\H,0,-0.48299
 9,1.423862,-1.311909\H,0,-0.666415,0.401737,1.282553\\Version=ES64L-G1

 Normal termination of Gaussian 16 at Wed Apr  9 00:19:48 2025.
