 Gaussian 16, Revision C.01,

 ----------------------------------------------------------------------
 #t hf aug-cc-pvdz symm=none int=(grid=ultrafine) guess=(read,tcheck) s
 table=(opt,rrhf)
 ----------------------------------------------------------------------
 -----
 title
 -----
 Symbolic Z-matrix:
 Charge =  0 Multiplicity = 1

 SCF Done:  E(RHF) =  -1396.84068438     A.U. after   14 cycles
 Normal termination of Gaussian 16 at Tue Apr  8 23:45:18 2025.
 Gaussian 16:  ES64L-G16RevC.01  3-Jul-2019

 ----------------------------------------------------------------------
 #t hf aug-cc-pvdz iop(5/13=1,5/36=2,99/5=2) pseudo=read geom=check gue
 ss=(read,tcheck) scf=(maxcycle=1)
 ----------------------------------------------------------------------
 -----
 title
 -----
 Structure from the checkpoint file:  "BDE49_nonexpt_1761_mol1.chk"
 Charge =  0 Multiplicity = 1

                         Standard orientation:
 ---------------------------------------------------------------------
 Center     Atomic      Atomic             Coordinates (Angstroms)
 Number     Number       Type             X           Y           Z
 ---------------------------------------------------------------------
      1          6           0        1.560056   -0.052807    0.039569
      2          8           0        2.283313   -0.888180    0.510463
      3         14           0       -0.283611   -0.103128    0.560495
      4          8           0        2.018271    0.881576   -0.819227
      5         17           0       -1.210408   -1.657062   -0.412638
      6         17           0       -1.183973    1.693356    0.026753
      7          1           0        1.304895    1.488808   -1.061754
      8          1           0       -0.402870   -0.292344    2.007567
 ---------------------------------------------------------------------

 SCF Done:  E(RHF) =  -1397.20730847     A.U. after    2 cycles

 The electronic state is 1-A.
 Alpha  occ. eigenvalues -- -105.60174-105.59475 -69.66201 -20.62535 -20.56905
 Alpha  occ. eigenvalues --  -11.41033 -10.65172 -10.64490  -7.82051  -7.81748
 Alpha  occ. eigenvalues --   -7.81731  -7.81381  -7.81043  -7.81042  -6.32421
 Alpha  occ. eigenvalues --   -4.07838  -4.07738  -4.07614  -1.56642  -1.48219
 Alpha  occ. eigenvalues --   -1.11347  -1.07692  -0.87980  -0.81946  -0.70595
 Alpha  occ. eigenvalues --   -0.68645  -0.64978  -0.60255  -0.58869  -0.58288
 Alpha  occ. eigenvalues --   -0.53557  -0.51537  -0.50339  -0.49781  -0.49227
 Alpha  occ. eigenvalues --   -0.43878
 Alpha virt. eigenvalues --    0.03602   0.04573   0.04828   0.05670   0.07229
 Alpha virt. eigenvalues --    0.08249   0.08865   0.10631   0.11494   0.11844
 Alpha virt. eigenvalues --    0.13253   0.13409   0.14978   0.15811   0.16748

 Mulliken charges:
               1
     1  C    1.316221
     2  O   -1.039860
     3  Si   1.521270
     4  O   -1.077160
     5  Cl  -0.504197
     6  Cl  -0.535284
     7  H    0.432123
     8  H   -0.113112
 Sum of Mulliken charges =  -0.00000

 Dipole moment (field-independent basis, Debye):
    X=             -2.2119    Y=              1.8021    Z=              0.1772  Tot=              2.8586

 Test job not archived.
 1\1\GINC-SE070\SP\RHF\Aug-CC-pVDZ\C1H2Cl2O2Si1\OHZDE\08-Apr-2025\0\\#t
  hf aug-cc-pvdz iop(5/13=1,5/36=2,99/5=2) pseudo=read geom=check guess
 =(read,tcheck) scf=(maxcycle=1)\\title\\0,1\C,0,1.560056,-0.052806,0.0
 39569\O,0,2.283314,-0.888179,0.510463\Si,0,-0.283611,-0.103128,0.56049
 5\O,0,2.018271,0.881577,-0.819227\Cl,0,-1.210407,-1.657063,-0.412638\C
 l,0,-1.183974,1.693355,0.026753\H,0,1.304894,1.488808,-1.061754\H,0,-0
 .40287,-0.292344,2.007567\\Version=ES64L-G16RevC.01\State=1-A\HF=-1397
 .2073085\RMSD=6.187e-03\Dipole=-0.8702161,0.7090055,0.0697149\Quadrupo

 Normal termination of Gaussian 16 at Tue Apr  8 23:45:21 2025.
