 Gaussian 16, Revision C.01,

 ----------------------------------------------------------------------
 #t hf aug-cc-pvdz symm=none int=(grid=ultrafine) guess=(read,tcheck) s
 table=(opt,rrhf)
 ----------------------------------------------------------------------
 -----
 title
 -----
 Symbolic Z-matrix:
 Charge =  0 Multiplicity = 1

 SCF Done:  E(RHF) =  -1199.38827604     A.U. after   15 cycles
 Normal termination of Gaussian 16 at Tue Apr  8 23:09:49 2025.
 Gaussian 16:  ES64L-G16RevC.01  3-Jul-2019

 ----------------------------------------------------------------------
 #t hf aug-cc-pvdz iop(5/13=1,5/36=2,99/5=2) pseudo=read geom=check gue
 ss=(read,tcheck) scf=(maxcycle=1)
 ----------------------------------------------------------------------
 -----
 title
 -----
 Structure from the checkpoint file:  "BDE49_expt_645_mol1.chk"
 Charge =  0 Multiplicity = 1

                         Standard orientation:
 ---------------------------------------------------------------------
 Center     Atomic      Atomic             Coordinates (Angstroms)
 Number     Number       Type             X           Y           Z
 ---------------------------------------------------------------------
      1          8           0       -0.517922   -0.157335    1.308962
      2          8           0       -1.948348   -0.046130    1.115770
      3          1           0       -2.194144   -0.982535    1.038933
      4          6           0        0.103401    0.042958    0.083370
      5          6           0       -0.304281    1.279927   -0.582909
      6          7           0       -0.604284    2.262256   -1.102536
      7         17           0        1.838843    0.099448    0.485877
      8         17           0       -0.229457   -1.344322   -1.057748
 ---------------------------------------------------------------------

 SCF Done:  E(RHF) =  -1199.80484257     A.U. after    2 cycles

 The electronic state is 1-A.
 Alpha  occ. eigenvalues -- -105.62357-105.61763 -20.69218 -20.67653 -15.55917
 Alpha  occ. eigenvalues --  -11.50576 -11.32124 -10.67164 -10.66551  -7.84122
 Alpha  occ. eigenvalues --   -7.83662  -7.83656  -7.83489  -7.83073  -7.83062
 Alpha  occ. eigenvalues --   -1.66439  -1.38274  -1.27283  -1.17612  -1.09443
 Alpha  occ. eigenvalues --   -0.97401  -0.81884  -0.74966  -0.72231  -0.70467
 Alpha  occ. eigenvalues --   -0.64631  -0.61504  -0.56160  -0.55347  -0.54271
 Alpha  occ. eigenvalues --   -0.53598  -0.52136  -0.51100  -0.50514  -0.49033
 Alpha virt. eigenvalues --    0.03310   0.05892   0.06408   0.07340   0.08515
 Alpha virt. eigenvalues --    0.10052   0.11734   0.11825   0.11901   0.12729
 Alpha virt. eigenvalues --    0.13774   0.14703   0.15344   0.16557   0.17671

 Mulliken charges:
               1
     1  O   -0.821862
     2  O   -0.403644
     3  H    0.420359
     4  C    0.837427
     5  C   -0.906894
     6  N    0.749888
     7  Cl   0.067926
     8  Cl   0.056800
 Sum of Mulliken charges =  -0.00000

 Dipole moment (field-independent basis, Debye):
    X=             -0.0795    Y=             -3.6348    Z=              1.1877  Tot=              3.8248

 Test job not archived.
 1\1\GINC-SE423\SP\RHF\Aug-CC-pVDZ\C2H1Cl2N1O2\OHZDE\08-Apr-2025\0\\#t
 hf aug-cc-pvdz iop(5/13=1,5/36=2,99/5=2) pseudo=read geom=check guess=
 (read,tcheck) scf=(maxcycle=1)\\title\\0,1\O,0,-0.517922,-0.157335,1.3
 08962\O,0,-1.948348,-0.046131,1.11577\H,0,-2.194144,-0.982536,1.038933
 \C,0,0.103401,0.042958,0.08337\C,0,-0.304281,1.279927,-0.582909\N,0,-0
 .604285,2.262256,-1.102536\Cl,0,1.838843,0.099449,0.485877\Cl,0,-0.229
 456,-1.344322,-1.057748\\Version=ES64L-G16RevC.01\State=1-A\HF=-1199.8
 048426\RMSD=1.230e-02\Dipole=-0.0312831,-1.4300451,0.467289\Quadrupole

 Normal termination of Gaussian 16 at Tue Apr  8 23:09:53 2025.
