 Gaussian 16, Revision C.01,

 ----------------------------------------------------------------------
 #t hf aug-cc-pvdz symm=none int=(grid=ultrafine) guess=(read,tcheck) s
 table=opt
 ----------------------------------------------------------------------
 -----
 title
 -----
 Symbolic Z-matrix:
 Charge =  0 Multiplicity = 2

 SCF Done:  E(UHF) =  -217.850391721     A.U. after   15 cycles
 Normal termination of Gaussian 16 at Tue Apr  8 23:54:35 2025.
 Gaussian 16:  ES64L-G16RevC.01  3-Jul-2019

 ----------------------------------------------------------------------
 #t hf aug-cc-pvdz iop(5/13=1,5/36=2,99/5=2) pseudo=read geom=check gue
 ss=(read,tcheck) scf=(maxcycle=1)
 ----------------------------------------------------------------------
 -----
 title
 -----
 Structure from the checkpoint file:  "BDE49_nonexpt_1962_mol2.chk"
 Charge =  0 Multiplicity = 2

                         Standard orientation:
 ---------------------------------------------------------------------
 Center     Atomic      Atomic             Coordinates (Angstroms)
 Number     Number       Type             X           Y           Z
 ---------------------------------------------------------------------
      1          6           0        1.832308   -0.876663    0.000001
      2          5           0        0.543614   -0.038896   -0.000006
      3          8           0       -0.617306   -0.769744   -0.000001
      4          6           0        0.537507    1.543191    0.000000
      5          1           0        1.543002    1.969385    0.000006
      6          1           0        0.010188    1.944305    0.874958
      7          1           0        0.010196    1.944311   -0.874960
      8          6           0       -1.906363   -0.170832    0.000002
      9          1           0       -2.642743   -0.975132    0.000002
     10          1           0       -2.058802    0.449005   -0.889487
     11          1           0       -2.058799    0.449002    0.889494
     12          1           0        2.826679   -0.439243    0.000005
     13          1           0        1.809939   -1.963373    0.000002
 ---------------------------------------------------------------------

 SCF Done:  E(UHF) =  -218.080665199     A.U. after    2 cycles

 The electronic state is 2-A.
 Alpha  occ. eigenvalues --  -20.54077 -11.28617 -11.22758 -11.20217  -7.59678
 Alpha  occ. eigenvalues --   -1.45460  -0.97718  -0.94313  -0.91461  -0.70537
 Alpha  occ. eigenvalues --   -0.63675  -0.63483  -0.60650  -0.54945  -0.54828
 Alpha  occ. eigenvalues --   -0.54222  -0.50833  -0.47506  -0.44544  -0.38004
 Alpha virt. eigenvalues --    0.03513   0.04007   0.04441   0.04611   0.06255
 Alpha virt. eigenvalues --    0.06672   0.07578   0.08295   0.08462   0.09349
 Alpha virt. eigenvalues --    0.10138   0.11119   0.15001   0.15498   0.16697

  Beta  occ. eigenvalues --  -20.53833 -11.28640 -11.20785 -11.20233  -7.59769
  Beta  occ. eigenvalues --   -1.44882  -0.95688  -0.94192  -0.85192  -0.70177
  Beta  occ. eigenvalues --   -0.63178  -0.62998  -0.59593  -0.54526  -0.54246
  Beta  occ. eigenvalues --   -0.53807  -0.50141  -0.45398  -0.43990
  Beta virt. eigenvalues --    0.03540   0.03671   0.04038   0.04692   0.06051
  Beta virt. eigenvalues --    0.06272   0.06679   0.07880   0.08561   0.09167
  Beta virt. eigenvalues --    0.09358   0.10157   0.11157   0.15070   0.16088

 Mulliken charges and spin densities:
               1          2
     1  C   -0.234823   1.179202
     2  B    1.586777  -0.132508
     3  O   -1.377351   0.085285
     4  C   -0.507218   0.004869
     5  H   -0.133089  -0.003722
     6  H    0.141746   0.004654
     7  H    0.141750   0.004654
     8  C    0.415033  -0.008953
     9  H   -0.075249   0.000091
    10  H    0.153255   0.002866
    11  H    0.153254   0.002866
    12  H   -0.142698  -0.069886
    13  H   -0.121386  -0.069420
 Sum of Mulliken charges =  -0.00000   1.00000

 Dipole moment (field-independent basis, Debye):
    X=             -0.5895    Y=              0.9274    Z=             -0.0000  Tot=              1.0989
                          Isotropic Fermi Contact Couplings
        Atom                 a.u.       MegaHertz       Gauss      10(-4) cm-1
     1  C(13)              0.14742     165.72744      59.13567      55.28072
     2  B(11)             -0.02028     -29.08389     -10.37785      -9.70134
     3  O(17)              0.02003     -12.14309      -4.33296      -4.05050
     4  C(13)             -0.00424      -4.76480      -1.70020      -1.58937
     5  H(1)              -0.00016      -0.70573      -0.25182      -0.23541
     6  H(1)               0.00142       6.33460       2.26034       2.11300
     7  H(1)               0.00142       6.33476       2.26040       2.11305
     8  C(13)             -0.00397      -4.46053      -1.59163      -1.48787

 Normal termination of Gaussian 16 at Tue Apr  8 23:54:39 2025.
