 Gaussian 16, Revision C.01,

 ----------------------------------------------------------------------
 #t hf aug-cc-pvdz symm=none int=(grid=ultrafine) guess=(read,tcheck) s
 table=(opt,rrhf)
 ----------------------------------------------------------------------
 -----
 title
 -----
 Symbolic Z-matrix:
 Charge =  0 Multiplicity = 1

 SCF Done:  E(RHF) =  -703.324663852     A.U. after   14 cycles
 Normal termination of Gaussian 16 at Tue Apr  8 22:46:56 2025.
 Gaussian 16:  ES64L-G16RevC.01  3-Jul-2019

 ----------------------------------------------------------------------
 #t hf aug-cc-pvdz iop(5/13=1,5/36=2,99/5=2) pseudo=read geom=check gue
 ss=(read,tcheck) scf=(maxcycle=1)
 ----------------------------------------------------------------------
 -----
 title
 -----
 Structure from the checkpoint file:  "BDE49_expt_1600_mol1.chk"
 Charge =  0 Multiplicity = 1

                         Standard orientation:
 ---------------------------------------------------------------------
 Center     Atomic      Atomic             Coordinates (Angstroms)
 Number     Number       Type             X           Y           Z
 ---------------------------------------------------------------------
      1         16           0        0.870603   -0.102754    0.030733
      2          6           0       -0.711841   -0.682949   -0.668247
      3          6           0        0.704833    1.685562    0.073773
      4          8           0        1.905369   -0.434066   -0.928798
      5          8           0        0.948863   -0.574796    1.399939
      6          1           0        0.620585    2.062612   -0.944690
      7          1           0        1.619661    2.052815    0.539469
      8          1           0       -0.162801    1.952702    0.674835
      9          6           0       -1.880475   -0.434997    0.230314
     10          1           0       -0.517876   -1.751204   -0.808824
     11          6           0       -2.930745    0.311551   -0.100896
     12          1           0       -1.831121   -0.909791    1.205456
     13          1           0       -3.007879    0.795644   -1.069855
     14          1           0       -3.759111    0.454184    0.583089
     15          1           0       -0.815599   -0.217011   -1.650012
 ---------------------------------------------------------------------

 SCF Done:  E(RHF) =  -703.705766229     A.U. after    2 cycles

 The electronic state is 1-A.
 Alpha  occ. eigenvalues --  -94.18630 -20.53143 -20.53134 -11.29516 -11.28638
 Alpha  occ. eigenvalues --  -11.27338 -11.26419  -8.44015  -6.42131  -6.41892
 Alpha  occ. eigenvalues --   -6.41837  -1.55033  -1.43185  -1.12425  -1.05891
 Alpha  occ. eigenvalues --   -0.99430  -0.84501  -0.79377  -0.71088  -0.68439
 Alpha  occ. eigenvalues --   -0.66762  -0.66059  -0.63454  -0.60474  -0.60134
 Alpha  occ. eigenvalues --   -0.58176  -0.54003  -0.48824  -0.48737  -0.45798
 Alpha  occ. eigenvalues --   -0.44733  -0.39256
 Alpha virt. eigenvalues --    0.02692   0.03537   0.03915   0.04454   0.06134
 Alpha virt. eigenvalues --    0.06393   0.06892   0.07044   0.09519   0.10170
 Alpha virt. eigenvalues --    0.12643   0.13338   0.13827   0.13968   0.14235

 Mulliken charges:
               1
     1  S    3.255798
     2  C   -1.004983
     3  C   -0.733030
     4  O   -1.559594
     5  O   -1.601002
     6  H    0.230960
     7  H    0.240898
     8  H    0.284976
     9  C    0.824095
    10  H    0.302537
    11  C   -0.079479
    12  H   -0.130000
    13  H   -0.078587
    14  H   -0.073559
    15  H    0.120971
 Sum of Mulliken charges =  -0.00000

 Dipole moment (field-independent basis, Debye):
    X=             -4.1160    Y=              2.7945    Z=             -1.2751  Tot=              5.1358

 Test job not archived.
 1\1\GINC-SE368\SP\RHF\Aug-CC-pVDZ\C4H8O2S1\OHZDE\08-Apr-2025\0\\#t hf
 aug-cc-pvdz iop(5/13=1,5/36=2,99/5=2) pseudo=read geom=check guess=(re
 ad,tcheck) scf=(maxcycle=1)\\title\\0,1\S,0,0.870603,-0.102754,0.03073
 3\C,0,-0.711841,-0.682949,-0.668247\C,0,0.704833,1.685562,0.073773\O,0
 ,1.905369,-0.434066,-0.928798\O,0,0.948863,-0.574796,1.399939\H,0,0.62
 0585,2.062612,-0.94469\H,0,1.619661,2.052815,0.539469\H,0,-0.162801,1.
 952702,0.674835\C,0,-1.880475,-0.434997,0.230314\H,0,-0.517876,-1.7512
 04,-0.808824\C,0,-2.930745,0.311551,-0.100896\H,0,-1.831121,-0.909791,

 Normal termination of Gaussian 16 at Tue Apr  8 22:47:01 2025.
