 Gaussian 16, Revision C.01,

 ----------------------------------------------------------------------
 #t hf aug-cc-pvdz symm=none int=(grid=ultrafine) guess=(read,tcheck) s
 table=(opt,rrhf)
 ----------------------------------------------------------------------
 -----
 title
 -----
 Symbolic Z-matrix:
 Charge =  0 Multiplicity = 1

 SCF Done:  E(RHF) =  -833.534461992     A.U. after   12 cycles

 1\1\GINC-SE221\Stability\RHF\Aug-CC-pVDZ\C2Cl1F3\OHZDE\08-Apr-2025\0\\
 #t hf aug-cc-pvdz symm=none int=(grid=ultrafine) guess=(read,tcheck) s
 table=(opt,rrhf)\\title\\0,1\C,0,0.251973,0.400381,0.000008\C,0,-0.934
 846,-0.192889,0.000008\Cl,0,1.743398,-0.445415,-0.000002\F,0,0.34352,1
 .732376,-0.000003\F,0,-1.106436,-1.49888,-0.000003\F,0,-2.07492,0.4695
 14,-0.000002\\Version=ES64L-G16RevC.01\HF=-833.534462\RMSD=7.766e-09\D
 ipole=0.1126614,-0.1773363,0.0000056\Quadrupole=0.3095464,-1.4113599,1
 .1018135,-0.5394935,-0.0000206,0.0000048\PG=Unknown\\@

 Normal termination of Gaussian 16 at Tue Apr  8 22:44:28 2025.
 Gaussian 16:  ES64L-G16RevC.01  3-Jul-2019

 ----------------------------------------------------------------------
 #t hf aug-cc-pvdz iop(5/13=1,5/36=2,99/5=2) pseudo=read geom=check gue
 ss=(read,tcheck) scf=(maxcycle=1)
 ----------------------------------------------------------------------
 -----
 title
 -----
 Structure from the checkpoint file:  "BDE49_expt_1509_mol1.chk"
 Charge =  0 Multiplicity = 1

                         Standard orientation:
 ---------------------------------------------------------------------
 Center     Atomic      Atomic             Coordinates (Angstroms)
 Number     Number       Type             X           Y           Z
 ---------------------------------------------------------------------
      1          6           0        0.251973    0.400381    0.000008
      2          6           0       -0.934846   -0.192889    0.000008
      3         17           0        1.743398   -0.445414   -0.000002
      4          9           0        0.343519    1.732376   -0.000003
      5          9           0       -1.106436   -1.498880   -0.000003
      6          9           0       -2.074920    0.469514   -0.000002
 ---------------------------------------------------------------------

 SCF Done:  E(RHF) =  -833.952219270     A.U. after    2 cycles

 The electronic state is 1-A.
 Alpha  occ. eigenvalues -- -105.61880 -26.54017 -26.53867 -26.52437 -11.46508
 Alpha  occ. eigenvalues --  -11.42118 -10.66675  -7.83650  -7.83199  -7.83175
 Alpha  occ. eigenvalues --   -1.71148  -1.65812  -1.64361  -1.17160  -1.05538
 Alpha  occ. eigenvalues --   -0.88839  -0.82475  -0.80880  -0.77936  -0.71999
 Alpha  occ. eigenvalues --   -0.71485  -0.69401  -0.68867  -0.66303  -0.61257
 Alpha  occ. eigenvalues --   -0.54606  -0.51461  -0.39617
 Alpha virt. eigenvalues --    0.06588   0.07372   0.08690   0.09759   0.11220
 Alpha virt. eigenvalues --    0.12933   0.13130   0.13317   0.14615   0.16522
 Alpha virt. eigenvalues --    0.17047   0.20583   0.21480   0.25270   0.27283

 Mulliken charges:
               1
     1  C    0.181957
     2  C    1.934441
     3  Cl  -0.022339
     4  F   -0.770592
     5  F   -0.660319
     6  F   -0.663148
 Sum of Mulliken charges =  -0.00000

 Dipole moment (field-independent basis, Debye):
    X=              0.1068    Y=             -0.3651    Z=              0.0000  Tot=              0.3804

 Test job not archived.
 1\1\GINC-SE221\SP\RHF\Aug-CC-pVDZ\C2Cl1F3\OHZDE\08-Apr-2025\0\\#t hf a
 ug-cc-pvdz iop(5/13=1,5/36=2,99/5=2) pseudo=read geom=check guess=(rea
 d,tcheck) scf=(maxcycle=1)\\title\\0,1\C,0,0.251973,0.400381,0.000008\
 C,0,-0.934846,-0.192889,0.000008\Cl,0,1.743398,-0.445415,-0.000002\F,0
 ,0.34352,1.732376,-0.000003\F,0,-1.106436,-1.49888,-0.000003\F,0,-2.07
 492,0.469514,-0.000002\\Version=ES64L-G16RevC.01\State=1-A\HF=-833.952
 2193\RMSD=8.080e-03\Dipole=0.0420372,-0.1436355,0.000004\Quadrupole=0.
 3980697,-1.1739904,0.7759207,-0.4837939,-0.0000186,0.0000043\PG=C01 [X

 Normal termination of Gaussian 16 at Tue Apr  8 22:44:30 2025.
