 Gaussian 16, Revision C.01,

 ----------------------------------------------------------------------
 #t hf aug-cc-pvdz symm=none int=(grid=ultrafine) guess=(read,tcheck) s
 table=(opt,rrhf)
 ----------------------------------------------------------------------
 -----
 title
 -----
 Symbolic Z-matrix:
 Charge =  0 Multiplicity = 1

 SCF Done:  E(RHF) =  -1144.90999942     A.U. after   18 cycles
 Normal termination of Gaussian 16 at Tue Apr  8 23:30:20 2025.
 Gaussian 16:  ES64L-G16RevC.01  3-Jul-2019

 ----------------------------------------------------------------------
 #t hf aug-cc-pvdz iop(5/13=1,5/36=2,99/5=2) pseudo=read geom=check gue
 ss=(read,tcheck) scf=(maxcycle=1)
 ----------------------------------------------------------------------
 -----
 title
 -----
 Structure from the checkpoint file:  "BDE49_nonexpt_1379_mol1.chk"
 Charge =  0 Multiplicity = 1

                         Standard orientation:
 ---------------------------------------------------------------------
 Center     Atomic      Atomic             Coordinates (Angstroms)
 Number     Number       Type             X           Y           Z
 ---------------------------------------------------------------------
      1          9           0       -2.405025   -0.840029    0.135347
      2          9           0        1.975060   -0.037502    1.280077
      3          8           0        0.129567   -2.087798   -1.083627
      4          8           0       -1.635720    1.957364   -0.478564
      5         15           0        1.828224    0.023397   -0.366270
      6         15           0       -1.007624   -0.381284    0.805531
      7          6           0        0.262087   -1.120329   -0.397692
      8          6           0        0.745662    1.541645   -0.427268
      9          1           0        1.145646    2.247932    0.309688
     10          1           0        0.808083    2.027742   -1.405733
     11          6           0       -0.731719    1.250998   -0.130732
 ---------------------------------------------------------------------

 SCF Done:  E(RHF) =  -1145.42730820     A.U. after    2 cycles

 The electronic state is 1-A.
 Alpha  occ. eigenvalues --  -84.39160 -84.38378 -26.49622 -26.49155 -20.60804
 Alpha  occ. eigenvalues --  -20.58944 -11.39260 -11.39085 -11.30150  -6.85441
 Alpha  occ. eigenvalues --   -6.84799  -4.38045  -4.37618  -4.37385  -4.36993
 Alpha  occ. eigenvalues --   -4.36763  -4.36355  -1.60451  -1.60339  -1.53734
 Alpha  occ. eigenvalues --   -1.52286  -1.10071  -0.96645  -0.90611  -0.78739
 Alpha  occ. eigenvalues --   -0.78175  -0.71439  -0.70448  -0.70328  -0.68880
 Alpha  occ. eigenvalues --   -0.67184  -0.66886  -0.65729  -0.64466  -0.61793
 Alpha  occ. eigenvalues --   -0.59085  -0.57501  -0.55538  -0.49789  -0.44243
 Alpha  occ. eigenvalues --   -0.38641  -0.35259
 Alpha virt. eigenvalues --    0.02740   0.03196   0.04263   0.05556   0.06344
 Alpha virt. eigenvalues --    0.07035   0.07150   0.08565   0.09311   0.09868
 Alpha virt. eigenvalues --    0.10911   0.11817   0.12430   0.13827   0.14501

 Mulliken charges:
               1
     1  F   -0.833808
     2  F   -0.782170
     3  O   -1.148777
     4  O   -1.240678
     5  P    1.986562
     6  P    1.784950
     7  C    0.129855
     8  C   -1.059960
     9  H    0.288086
    10  H    0.225344
    11  C    0.650598
 Sum of Mulliken charges =   0.00000

 Dipole moment (field-independent basis, Debye):
    X=              2.8571    Y=              1.5848    Z=              0.6727  Tot=              3.3358

 Test job not archived.
 1\1\GINC-SE366\SP\RHF\Aug-CC-pVDZ\C3H2F2O2P2\OHZDE\08-Apr-2025\0\\#t h
 f aug-cc-pvdz iop(5/13=1,5/36=2,99/5=2) pseudo=read geom=check guess=(
 read,tcheck) scf=(maxcycle=1)\\title\\0,1\F,0,-2.405025,-0.840029,0.13
 5347\F,0,1.97506,-0.037502,1.280077\O,0,0.129567,-2.087798,-1.083627\O
 ,0,-1.63572,1.957364,-0.478564\P,0,1.828224,0.023397,-0.36627\P,0,-1.0
 07624,-0.381284,0.805531\C,0,0.262087,-1.120329,-0.397692\C,0,0.745662
 ,1.541645,-0.427268\H,0,1.145646,2.247932,0.309688\H,0,0.808083,2.0277
 42,-1.405733\C,0,-0.731719,1.250998,-0.130732\\Version=ES64L-G16RevC.0

 Normal termination of Gaussian 16 at Tue Apr  8 23:30:26 2025.
