 Gaussian 16, Revision C.01,

 ----------------------------------------------------------------------
 #t hf aug-cc-pvdz symm=none int=(grid=ultrafine) guess=(read,tcheck) s
 table=(opt,rrhf)
 ----------------------------------------------------------------------
 -----
 title
 -----
 Symbolic Z-matrix:
 Charge =  0 Multiplicity = 1

 SCF Done:  E(RHF) =  -1692.99809368     A.U. after   14 cycles
 Normal termination of Gaussian 16 at Wed Apr  9 00:27:25 2025.
 Gaussian 16:  ES64L-G16RevC.01  3-Jul-2019

 ----------------------------------------------------------------------
 #t hf aug-cc-pvdz iop(5/13=1,5/36=2,99/5=2) pseudo=read geom=check gue
 ss=(read,tcheck) scf=(maxcycle=1)
 ----------------------------------------------------------------------
 -----
 title
 -----
 Structure from the checkpoint file:  "BDE49_nonexpt_2727_mol1.chk"
 Charge =  0 Multiplicity = 1

                         Standard orientation:
 ---------------------------------------------------------------------
 Center     Atomic      Atomic             Coordinates (Angstroms)
 Number     Number       Type             X           Y           Z
 ---------------------------------------------------------------------
      1         16           0       -0.921992   -1.242890   -0.472467
      2         16           0        0.921995   -1.242893    0.472454
      3          6           0        1.715866    0.140618   -0.395612
      4          6           0       -1.715874    0.140593    0.395634
      5          8           0       -1.205677    0.854344    1.198788
      6          8           0        1.205655    0.854402   -1.198729
      7          6           0        3.202714    0.326690    0.017527
      8          6           0       -3.202711    0.326690   -0.017532
      9          9           0       -3.426500    1.592089   -0.371198
     10          9           0       -3.994649    0.018046    1.015695
     11          9           0       -3.527920   -0.471510   -1.051872
     12          9           0        3.426529    1.592081    0.371203
     13          9           0        3.994626    0.018045   -1.015720
     14          9           0        3.527931   -0.471529    1.051851
 ---------------------------------------------------------------------

 SCF Done:  E(RHF) =  -1693.93591032     A.U. after    2 cycles

 The electronic state is 1-A.
 Alpha  occ. eigenvalues --  -94.04492 -94.04480 -26.54567 -26.54567 -26.54160
 Alpha  occ. eigenvalues --  -26.54160 -26.54046 -26.54046 -20.61737 -20.61737
 Alpha  occ. eigenvalues --  -11.56547 -11.56546 -11.43769 -11.43768  -8.32468
 Alpha  occ. eigenvalues --   -8.32443  -6.30239  -6.30200  -6.30016  -6.30002
 Alpha  occ. eigenvalues --   -6.29779  -6.29778  -1.75297  -1.75282  -1.65244
 Alpha  occ. eigenvalues --   -1.65240  -1.65045  -1.65045  -1.55947  -1.55737
 Alpha  occ. eigenvalues --   -1.17445  -1.08634  -1.04374  -0.98786  -0.91183
 Alpha  occ. eigenvalues --   -0.88612  -0.84876  -0.84681  -0.84677  -0.84531
 Alpha  occ. eigenvalues --   -0.78035  -0.76577  -0.73278  -0.72255  -0.72234
 Alpha  occ. eigenvalues --   -0.71801  -0.69793  -0.67849  -0.67461  -0.67340
 Alpha  occ. eigenvalues --   -0.67034  -0.66569  -0.66460  -0.65400  -0.65397
 Alpha  occ. eigenvalues --   -0.65226  -0.61015  -0.60321  -0.53746  -0.48158
 Alpha  occ. eigenvalues --   -0.47977  -0.44465  -0.42946
 Alpha virt. eigenvalues --    0.04977   0.05405   0.05971   0.06217   0.07068
 Alpha virt. eigenvalues --    0.07504   0.08025   0.08435   0.09478   0.09804
 Alpha virt. eigenvalues --    0.10461   0.11365   0.11396   0.11992   0.13048

 Mulliken charges:
               1
     1  S    0.184485
     2  S    0.184488
     3  C    0.461017
     4  C    0.461030
     5  O   -1.107861
     6  O   -1.107859
     7  C    2.587002
     8  C    2.586997
     9  F   -0.702230
    10  F   -0.690235
    11  F   -0.732184
    12  F   -0.702231
    13  F   -0.690235
    14  F   -0.732183
 Sum of Mulliken charges =  -0.00000

 Dipole moment (field-independent basis, Debye):
    X=              0.0000    Y=             -1.9398    Z=             -0.0000  Tot=              1.9398

 Test job not archived.
 1\1\GINC-SE015\SP\RHF\Aug-CC-pVDZ\C4F6O2S2\OHZDE\09-Apr-2025\0\\#t hf
 aug-cc-pvdz iop(5/13=1,5/36=2,99/5=2) pseudo=read geom=check guess=(re
 ad,tcheck) scf=(maxcycle=1)\\title\\0,1\S,0,-0.921992,-1.24289,-0.4724
 67\S,0,0.921995,-1.242893,0.472454\C,0,1.715866,0.140618,-0.395612\C,0
 ,-1.715874,0.140593,0.395634\O,0,-1.205677,0.854344,1.198788\O,0,1.205
 655,0.854402,-1.198729\C,0,3.202714,0.32669,0.017527\C,0,-3.202711,0.3
 2669,-0.017532\F,0,-3.4265,1.592089,-0.371198\F,0,-3.994649,0.018046,1
 .015695\F,0,-3.52792,-0.47151,-1.051872\F,0,3.426529,1.592081,0.371203

 Normal termination of Gaussian 16 at Wed Apr  9 00:27:34 2025.
