 Gaussian 16, Revision C.01,

 ----------------------------------------------------------------------
 #t hf aug-cc-pvdz symm=none int=(grid=ultrafine) guess=(read,tcheck) s
 table=(opt,rrhf)
 ----------------------------------------------------------------------
 -----
 title
 -----
 Symbolic Z-matrix:
 Charge =  0 Multiplicity = 1

 SCF Done:  E(RHF) =  -1046.23903574     A.U. after   16 cycles
 Normal termination of Gaussian 16 at Wed Apr  9 00:17:07 2025.
 Gaussian 16:  ES64L-G16RevC.01  3-Jul-2019

 ----------------------------------------------------------------------
 #t hf aug-cc-pvdz iop(5/13=1,5/36=2,99/5=2) pseudo=read geom=check gue
 ss=(read,tcheck) scf=(maxcycle=1)
 ----------------------------------------------------------------------
 -----
 title
 -----
 Structure from the checkpoint file:  "BDE49_nonexpt_2559_mol1.chk"
 Charge =  0 Multiplicity = 1

                         Standard orientation:
 ---------------------------------------------------------------------
 Center     Atomic      Atomic             Coordinates (Angstroms)
 Number     Number       Type             X           Y           Z
 ---------------------------------------------------------------------
      1         17           0        1.857580   -0.801612    0.009994
      2         16           0        0.722380    0.963203   -0.081238
      3          8           0       -0.692421    0.598245    0.512045
      4          8           0       -1.641630    0.018713   -0.583458
      5          6           0       -2.628335   -0.684313    0.139358
      6          1           0       -3.297070   -1.066013   -0.638685
      7          1           0       -3.193512   -0.023892    0.805130
      8          1           0       -2.203941   -1.523729    0.698630
 ---------------------------------------------------------------------

 SCF Done:  E(RHF) =  -1046.56062415     A.U. after    2 cycles

 The electronic state is 1-A.
 Alpha  occ. eigenvalues -- -105.58491 -94.07308 -20.67310 -20.65111 -11.31014
 Alpha  occ. eigenvalues --  -10.63233  -8.34460  -7.80156  -7.79734  -7.79691
 Alpha  occ. eigenvalues --   -6.32252  -6.32002  -6.31627  -1.59327  -1.39135
 Alpha  occ. eigenvalues --   -1.09437  -0.94697  -0.91517  -0.69700  -0.69091
 Alpha  occ. eigenvalues --   -0.68108  -0.61680  -0.60241  -0.55796  -0.50770
 Alpha  occ. eigenvalues --   -0.50457  -0.47855  -0.46336  -0.37936
 Alpha virt. eigenvalues --    0.03533   0.04743   0.05272   0.05962   0.07903
 Alpha virt. eigenvalues --    0.09338   0.11138   0.11849   0.12255   0.13966
 Alpha virt. eigenvalues --    0.14539   0.15310   0.16399   0.17390   0.17685

 Mulliken charges:
               1
     1  Cl  -0.322433
     2  S    0.997328
     3  O   -0.665814
     4  O   -0.752138
     5  C    0.385389
     6  H    0.067172
     7  H    0.143326
     8  H    0.147170
 Sum of Mulliken charges =  -0.00000

 Dipole moment (field-independent basis, Debye):
    X=             -2.3271    Y=             -0.2545    Z=              0.3266  Tot=              2.3637

 Test job not archived.
 1\1\GINC-SE016\SP\RHF\Aug-CC-pVDZ\C1H3Cl1O2S1\OHZDE\09-Apr-2025\0\\#t
 hf aug-cc-pvdz iop(5/13=1,5/36=2,99/5=2) pseudo=read geom=check guess=
 (read,tcheck) scf=(maxcycle=1)\\title\\0,1\Cl,0,-1.85758,0.801611,0.00
 9994\S,0,-0.72238,-0.963203,-0.081238\O,0,0.692421,-0.598245,0.512045\
 O,0,1.64163,-0.018713,-0.583458\C,0,2.628335,0.684314,0.139358\H,0,3.2
 9707,1.066014,-0.638685\H,0,3.193512,0.023893,0.80513\H,0,2.203941,1.5
 23729,0.69863\\Version=ES64L-G16RevC.01\State=1-A\HF=-1046.5606241\RMS
 D=5.319e-03\Dipole=0.9155596,0.1001088,0.1284932\Quadrupole=2.8875136,

 Normal termination of Gaussian 16 at Wed Apr  9 00:17:10 2025.
