 Gaussian 16, Revision C.01,

 ----------------------------------------------------------------------
 #t hf aug-cc-pvdz symm=none int=(grid=ultrafine) guess=(read,tcheck) s
 table=(opt,rrhf)
 ----------------------------------------------------------------------
 -----
 title
 -----
 Symbolic Z-matrix:
 Charge =  0 Multiplicity = 1

 SCF Done:  E(RHF) =  -1690.51930373     A.U. after   15 cycles
 Normal termination of Gaussian 16 at Wed Apr  9 00:18:36 2025.
 Gaussian 16:  ES64L-G16RevC.01  3-Jul-2019

 ----------------------------------------------------------------------
 #t hf aug-cc-pvdz iop(5/13=1,5/36=2,99/5=2) pseudo=read geom=check gue
 ss=(read,tcheck) scf=(maxcycle=1)
 ----------------------------------------------------------------------
 -----
 title
 -----
 Structure from the checkpoint file:  "BDE49_nonexpt_2575_mol1.chk"
 Charge =  0 Multiplicity = 1

                         Standard orientation:
 ---------------------------------------------------------------------
 Center     Atomic      Atomic             Coordinates (Angstroms)
 Number     Number       Type             X           Y           Z
 ---------------------------------------------------------------------
      1         17           0       -2.377830   -0.035929   -0.000067
      2         16           0       -0.529542   -1.093975    0.000052
      3          6           0        0.769745    0.051003    0.000098
      4         16           0        2.189819   -0.780550   -0.000040
      5         16           0        0.622862    1.778646    0.000020
      6          1           0       -0.725578    1.838836    0.000045
 ---------------------------------------------------------------------

 SCF Done:  E(RHF) =  -1690.80676231     A.U. after    2 cycles

 The electronic state is 1-A.
 Alpha  occ. eigenvalues -- -105.60885 -94.06337 -94.02030 -93.95515 -11.41364
 Alpha  occ. eigenvalues --  -10.65549  -8.33956  -8.30174  -8.23758  -7.82470
 Alpha  occ. eigenvalues --   -7.82072  -7.82012  -6.31723  -6.31448  -6.31168
 Alpha  occ. eigenvalues --   -6.28003  -6.27830  -6.27627  -6.21596  -6.21294
 Alpha  occ. eigenvalues --   -6.21180  -1.21482  -1.11148  -1.05789  -0.97234
 Alpha  occ. eigenvalues --   -0.75920  -0.67893  -0.60230  -0.57352  -0.54754
 Alpha  occ. eigenvalues --   -0.51489  -0.50986  -0.49376  -0.42100  -0.37640
 Alpha  occ. eigenvalues --   -0.36742
 Alpha virt. eigenvalues --    0.01753   0.02168   0.04264   0.07130   0.07630
 Alpha virt. eigenvalues --    0.07997   0.10182   0.10930   0.11506   0.12957
 Alpha virt. eigenvalues --    0.13163   0.14191   0.14488   0.16172   0.17023

 Mulliken charges:
               1
     1  Cl  -0.361817
     2  S    0.750832
     3  C   -1.104118
     4  S    0.183401
     5  S    0.112427
     6  H    0.419275
 Sum of Mulliken charges =  -0.00000

 Dipole moment (field-independent basis, Debye):
    X=             -1.5410    Y=              1.4358    Z=              0.0001  Tot=              2.1062

 Test job not archived.
 1\1\GINC-SE128\SP\RHF\Aug-CC-pVDZ\C1H1Cl1S3\OHZDE\09-Apr-2025\0\\#t hf
  aug-cc-pvdz iop(5/13=1,5/36=2,99/5=2) pseudo=read geom=check guess=(r
 ead,tcheck) scf=(maxcycle=1)\\title\\0,1\Cl,0,-2.37783,-0.035929,-0.00
 0067\S,0,-0.529542,-1.093975,0.000052\C,0,0.769745,0.051003,0.000098\S
 ,0,2.189819,-0.780549,-0.00004\S,0,0.622862,1.778646,0.00002\H,0,-0.72
 5578,1.838836,0.000045\\Version=ES64L-G16RevC.01\State=1-A\HF=-1690.80
 67623\RMSD=4.913e-03\Dipole=-0.6062671,0.5649063,0.0000198\Quadrupole=
 -1.9694445,3.200006,-1.2305615,-0.6269128,-0.0000986,-0.0000156\PG=C01

 Normal termination of Gaussian 16 at Wed Apr  9 00:18:39 2025.
