 Gaussian 16, Revision C.01,

 ----------------------------------------------------------------------
 #t hf aug-cc-pvdz symm=none int=(grid=ultrafine) guess=(read,tcheck) s
 table=(opt,rrhf)
 ----------------------------------------------------------------------
 -----
 title
 -----
 Symbolic Z-matrix:
 Charge =  0 Multiplicity = 1

 SCF Done:  E(RHF) =  -608.193702806     A.U. after   14 cycles
 Normal termination of Gaussian 16 at Tue Apr  8 23:29:19 2025.
 Gaussian 16:  ES64L-G16RevC.01  3-Jul-2019

 ----------------------------------------------------------------------
 #t hf aug-cc-pvdz iop(5/13=1,5/36=2,99/5=2) pseudo=read geom=check gue
 ss=(read,tcheck) scf=(maxcycle=1)
 ----------------------------------------------------------------------
 -----
 title
 -----
 Structure from the checkpoint file:  "BDE49_nonexpt_1338_mol1.chk"
 Charge =  0 Multiplicity = 1

                         Standard orientation:
 ---------------------------------------------------------------------
 Center     Atomic      Atomic             Coordinates (Angstroms)
 Number     Number       Type             X           Y           Z
 ---------------------------------------------------------------------
      1          6           0        1.388218    0.103265    0.070745
      2          6           0        0.193699   -0.095737    0.994909
      3          8           0        2.133706    1.038167    0.137290
      4          8           0        1.585933   -0.873327   -0.853062
      5         15           0       -1.365320   -0.612302    0.088136
      6          1           0        0.067136    0.815416    1.578894
      7          1           0        0.432988   -0.913774    1.683884
      8          6           0       -1.951726    1.016258   -0.576958
      9          1           0       -2.955441    0.889728   -0.988458
     10          1           0       -1.293475    1.326410   -1.391395
     11          1           0       -1.971332    1.800588    0.181715
     12          1           0        0.857311   -1.511044   -0.825689
     13          1           0       -2.195652   -0.684227    1.233008
 ---------------------------------------------------------------------

 SCF Done:  E(RHF) =  -608.510655397     A.U. after    2 cycles

 The electronic state is 1-A.
 Alpha  occ. eigenvalues --  -84.29721 -20.60019 -20.53588 -11.39910 -11.27519
 Alpha  occ. eigenvalues --  -11.25758  -6.76776  -4.29391  -4.29174  -4.28523
 Alpha  occ. eigenvalues --   -1.54303  -1.45591  -1.05909  -0.98669  -0.84189
 Alpha  occ. eigenvalues --   -0.79870  -0.71834  -0.67526  -0.64787  -0.60592
 Alpha  occ. eigenvalues --   -0.59567  -0.59471  -0.55899  -0.51382  -0.48956
 Alpha  occ. eigenvalues --   -0.46860  -0.43665  -0.35536
 Alpha virt. eigenvalues --    0.03081   0.03478   0.04414   0.04875   0.06242
 Alpha virt. eigenvalues --    0.06970   0.07276   0.08679   0.09724   0.10440
 Alpha virt. eigenvalues --    0.13138   0.13589   0.14112   0.14269   0.14623

 Mulliken charges:
               1
     1  C    2.005221
     2  C   -0.726110
     3  O   -1.190111
     4  O   -1.311812
     5  P    0.270616
     6  H    0.113289
     7  H    0.224908
     8  C   -0.827577
     9  H    0.088195
    10  H    0.155681
    11  H    0.107777
    12  H    0.529274
    13  H    0.560649
 Sum of Mulliken charges =  -0.00000

 Dipole moment (field-independent basis, Debye):
    X=             -4.1560    Y=             -1.4838    Z=              1.2004  Tot=              4.5733

 Test job not archived.
 1\1\GINC-SE179\SP\RHF\Aug-CC-pVDZ\C3H7O2P1\OHZDE\08-Apr-2025\0\\#t hf
 aug-cc-pvdz iop(5/13=1,5/36=2,99/5=2) pseudo=read geom=check guess=(re
 ad,tcheck) scf=(maxcycle=1)\\title\\0,1\C,0,1.388218,0.103265,0.070745
 \C,0,0.193699,-0.095737,0.994909\O,0,2.133706,1.038167,0.13729\O,0,1.5
 85933,-0.873327,-0.853062\P,0,-1.36532,-0.612302,0.088136\H,0,0.067136
 ,0.815416,1.578894\H,0,0.432988,-0.913774,1.683884\C,0,-1.951726,1.016
 258,-0.576958\H,0,-2.955441,0.889729,-0.988458\H,0,-1.293475,1.32641,-
 1.391395\H,0,-1.971332,1.800588,0.181715\H,0,0.857311,-1.511044,-0.825

 Normal termination of Gaussian 16 at Tue Apr  8 23:29:23 2025.
