 Gaussian 16, Revision C.01,

 ----------------------------------------------------------------------
 #t hf aug-cc-pvdz symm=none int=(grid=ultrafine) guess=(read,tcheck) s
 table=(opt,rrhf)
 ----------------------------------------------------------------------
 -----
 title
 -----
 Symbolic Z-matrix:
 Charge =  0 Multiplicity = 1

 SCF Done:  E(RHF) =  -999.707272085     A.U. after   15 cycles
 Normal termination of Gaussian 16 at Wed Apr  9 00:26:41 2025.
 Gaussian 16:  ES64L-G16RevC.01  3-Jul-2019

 ----------------------------------------------------------------------
 #t hf aug-cc-pvdz iop(5/13=1,5/36=2,99/5=2) pseudo=read geom=check gue
 ss=(read,tcheck) scf=(maxcycle=1)
 ----------------------------------------------------------------------
 -----
 title
 -----
 Structure from the checkpoint file:  "BDE49_nonexpt_2750_mol1.chk"
 Charge =  0 Multiplicity = 1

                         Standard orientation:
 ---------------------------------------------------------------------
 Center     Atomic      Atomic             Coordinates (Angstroms)
 Number     Number       Type             X           Y           Z
 ---------------------------------------------------------------------
      1         16           0        1.845705    0.323326   -0.090179
      2         16           0        0.265333   -0.952049    0.016433
      3          7           0       -1.257814    0.217911   -0.002177
      4          8           0       -2.291236   -0.406895   -0.006001
      5          8           0       -1.082577    1.404473    0.001827
      6          1           0        2.018596    0.553564    1.228568
 ---------------------------------------------------------------------

 SCF Done:  E(RHF) =  -1000.01507797     A.U. after    2 cycles

 The electronic state is 1-A.
 Alpha  occ. eigenvalues --  -94.06277 -94.02830 -20.62026 -20.61522 -15.81486
 Alpha  occ. eigenvalues --   -8.33843  -8.30816  -6.31560  -6.31363  -6.31051
 Alpha  occ. eigenvalues --   -6.28629  -6.28418  -6.28201  -1.70151  -1.54757
 Alpha  occ. eigenvalues --   -1.15969  -1.01791  -0.89345  -0.78894  -0.76949
 Alpha  occ. eigenvalues --   -0.76575  -0.62220  -0.55032  -0.51084  -0.48743
 Alpha  occ. eigenvalues --   -0.47783  -0.43680  -0.42840
 Alpha virt. eigenvalues --    0.02733   0.03125   0.05292   0.05900   0.08755
 Alpha virt. eigenvalues --    0.09473   0.10692   0.12235   0.12620   0.13057
 Alpha virt. eigenvalues --    0.15127   0.16456   0.17076   0.18245   0.21689

 Mulliken charges:
               1
     1  S   -0.246122
     2  S    0.214433
     3  N    1.761683
     4  O   -1.110972
     5  O   -1.070150
     6  H    0.451128
 Sum of Mulliken charges =  -0.00000

 Dipole moment (field-independent basis, Debye):
    X=              3.4218    Y=             -0.5668    Z=              0.9801  Tot=              3.6043

 Test job not archived.
 1\1\GINC-SE102\SP\RHF\Aug-CC-pVDZ\H1N1O2S2\OHZDE\09-Apr-2025\0\\#t hf
 aug-cc-pvdz iop(5/13=1,5/36=2,99/5=2) pseudo=read geom=check guess=(re
 ad,tcheck) scf=(maxcycle=1)\\title\\0,1\S,0,1.845705,0.323326,-0.09017
 9\S,0,0.265333,-0.952049,0.016433\N,0,-1.257814,0.217911,-0.002177\O,0
 ,-2.291236,-0.406895,-0.006001\O,0,-1.082577,1.404473,0.001827\H,0,2.0
 18596,0.553564,1.228568\\Version=ES64L-G16RevC.01\State=1-A\HF=-1000.0
 15078\RMSD=1.327e-02\Dipole=1.3462486,-0.2229779,0.3856196\Quadrupole=
 -0.8656013,-0.6771652,1.5427664,1.4504546,1.7023953,0.6255861\PG=C01 [

 Normal termination of Gaussian 16 at Wed Apr  9 00:26:44 2025.
