 Gaussian 16, Revision C.01,

 ----------------------------------------------------------------------
 #t hf aug-cc-pvdz symm=none int=(grid=ultrafine) guess=(read,tcheck) s
 table=(opt,rrhf)
 ----------------------------------------------------------------------
 -----
 title
 -----
 Symbolic Z-matrix:
 Charge =  0 Multiplicity = 1

 SCF Done:  E(RHF) =  -1264.00575941     A.U. after   11 cycles

 1\1\GINC-SE097\Stability\RHF\Aug-CC-pVDZ\H8P2Si2\OHZDE\09-Apr-2025\0\\
 #t hf aug-cc-pvdz symm=none int=(grid=ultrafine) guess=(read,tcheck) s
 table=(opt,rrhf)\\title\\0,1\Si,0,-0.971172,-0.670134,0.913699\Si,0,0.
 971172,0.670134,0.913699\P,0,0.971172,2.079821,-0.887826\H,0,2.176252,
 -0.194861,0.965832\H,0,0.963186,1.528703,2.124773\H,0,1.263231,1.05765
 9,-1.829255\H,0,2.332886,2.452382,-0.735748\P,0,-0.971172,-2.079821,-0
 .887826\H,0,-2.176252,0.194861,0.965832\H,0,-0.963186,-1.528703,2.1247
 73\H,0,-1.263231,-1.057659,-1.829255\H,0,-2.332886,-2.452382,-0.735748

 Normal termination of Gaussian 16 at Wed Apr  9 00:13:39 2025.
 Gaussian 16:  ES64L-G16RevC.01  3-Jul-2019

 ----------------------------------------------------------------------
 #t hf aug-cc-pvdz iop(5/13=1,5/36=2,99/5=2) pseudo=read geom=check gue
 ss=(read,tcheck) scf=(maxcycle=1)
 ----------------------------------------------------------------------
 -----
 title
 -----
 Structure from the checkpoint file:  "BDE49_nonexpt_2444_mol1.chk"
 Charge =  0 Multiplicity = 1

                         Standard orientation:
 ---------------------------------------------------------------------
 Center     Atomic      Atomic             Coordinates (Angstroms)
 Number     Number       Type             X           Y           Z
 ---------------------------------------------------------------------
      1         14           0       -0.971172   -0.670134    0.913699
      2         14           0        0.971172    0.670134    0.913699
      3         15           0        0.971172    2.079821   -0.887826
      4          1           0        2.176252   -0.194861    0.965832
      5          1           0        0.963186    1.528703    2.124773
      6          1           0        1.263231    1.057659   -1.829255
      7          1           0        2.332886    2.452382   -0.735748
      8         15           0       -0.971172   -2.079821   -0.887826
      9          1           0       -2.176252    0.194861    0.965832
     10          1           0       -0.963186   -1.528703    2.124773
     11          1           0       -1.263231   -1.057659   -1.829255
     12          1           0       -2.332886   -2.452382   -0.735748
 ---------------------------------------------------------------------

 SCF Done:  E(RHF) =  -1264.17020877     A.U. after    2 cycles

 The electronic state is 1-A.
 Alpha  occ. eigenvalues --  -84.27257 -84.27255 -69.54172 -69.54171  -6.74497
 Alpha  occ. eigenvalues --   -6.74497  -6.21290  -6.21278  -4.26824  -4.26763
 Alpha  occ. eigenvalues --   -4.26649  -4.26632  -4.26144  -4.26125  -3.96633
 Alpha  occ. eigenvalues --   -3.96607  -3.96597  -3.96573  -3.96566  -3.96531
 Alpha  occ. eigenvalues --   -0.88400  -0.86871  -0.74790  -0.66971  -0.53107
 Alpha  occ. eigenvalues --   -0.52239  -0.50605  -0.49121  -0.46259  -0.43265
 Alpha  occ. eigenvalues --   -0.39596  -0.35246  -0.35103
 Alpha virt. eigenvalues --    0.03829   0.04114   0.04263   0.05183   0.06585
 Alpha virt. eigenvalues --    0.06789   0.07562   0.07628   0.08024   0.09365
 Alpha virt. eigenvalues --    0.09715   0.10362   0.10402   0.11012   0.11085

 Mulliken charges:
               1
     1  Si   0.647849
     2  Si   0.647849
     3  P   -1.148477
     4  H   -0.109648
     5  H   -0.121934
     6  H    0.363471
     7  H    0.368738
     8  P   -1.148477
     9  H   -0.109648
    10  H   -0.121934
    11  H    0.363471
    12  H    0.368738
 Sum of Mulliken charges =   0.00000

 Dipole moment (field-independent basis, Debye):
    X=              0.0000    Y=             -0.0000    Z=             -0.1803  Tot=              0.1803

 Test job not archived.
 1\1\GINC-SE097\SP\RHF\Aug-CC-pVDZ\H8P2Si2\OHZDE\09-Apr-2025\0\\#t hf a
 ug-cc-pvdz iop(5/13=1,5/36=2,99/5=2) pseudo=read geom=check guess=(rea
 d,tcheck) scf=(maxcycle=1)\\title\\0,1\Si,0,-0.971172,-0.670134,0.9136
 99\Si,0,0.971172,0.670134,0.913699\P,0,0.971172,2.079821,-0.887826\H,0
 ,2.176252,-0.194861,0.965832\H,0,0.963186,1.528703,2.124773\H,0,1.2632
 31,1.057659,-1.829255\H,0,2.332886,2.452382,-0.735748\P,0,-0.971172,-2
 .079821,-0.887826\H,0,-2.176252,0.194861,0.965832\H,0,-0.963186,-1.528
 703,2.124773\H,0,-1.263231,-1.057659,-1.829255\H,0,-2.332886,-2.452382

 Normal termination of Gaussian 16 at Wed Apr  9 00:13:43 2025.
