 Gaussian 16, Revision C.01,

 ----------------------------------------------------------------------
 #t hf aug-cc-pvdz symm=none int=(grid=ultrafine) guess=(read,tcheck) s
 table=opt
 ----------------------------------------------------------------------
 -----
 title
 -----
 Symbolic Z-matrix:
 Charge =  0 Multiplicity = 2

 SCF Done:  E(UHF) =  -39.5658099566     A.U. after   11 cycles
 Normal termination of Gaussian 16 at Tue Apr  8 22:28:14 2025.
 Gaussian 16:  ES64L-G16RevC.01  3-Jul-2019

 ----------------------------------------------------------------------
 #t hf aug-cc-pvdz iop(5/13=1,5/36=2,99/5=2) pseudo=read geom=check gue
 ss=(read,tcheck) scf=(maxcycle=1)
 ----------------------------------------------------------------------
 -----
 title
 -----
 Structure from the checkpoint file:  "BDE49_expt_1001_mol3.chk"
 Charge =  0 Multiplicity = 2

                         Standard orientation:
 ---------------------------------------------------------------------
 Center     Atomic      Atomic             Coordinates (Angstroms)
 Number     Number       Type             X           Y           Z
 ---------------------------------------------------------------------
      1          6           0        0.000000    0.000000    0.000000
      2          1           0       -0.000000    0.000000    1.080500
      3          1           0        0.000000    0.935740   -0.540250
      4          1           0       -0.000000   -0.935740   -0.540250
 ---------------------------------------------------------------------

 SCF Done:  E(UHF) =  -39.6103659596     A.U. after    2 cycles

 The electronic state is 2-B1.
 Alpha  occ. eigenvalues --  -11.24768  -0.94968  -0.58780  -0.58780  -0.38880
 Alpha virt. eigenvalues --    0.03769   0.05742   0.05742   0.11669   0.15169
 Alpha virt. eigenvalues --    0.15169   0.17015   0.28344   0.28344   0.28594
 Alpha virt. eigenvalues --    0.36053   0.36053   0.44293   0.44293   0.48534

  Beta  occ. eigenvalues --  -11.22395  -0.85820  -0.57237  -0.57237
  Beta virt. eigenvalues --    0.03978   0.05781   0.05781   0.06753   0.15235
  Beta virt. eigenvalues --    0.15235   0.17765   0.19362   0.28741   0.28741
  Beta virt. eigenvalues --    0.31127   0.37757   0.37757   0.44509   0.44509

 Mulliken charges and spin densities:
               1          2
     1  C   -0.282334   1.265733
     2  H    0.094112  -0.088578
     3  H    0.094111  -0.088578
     4  H    0.094111  -0.088578
 Sum of Mulliken charges =   0.00000   1.00000

 Dipole moment (field-independent basis, Debye):
    X=             -0.0000    Y=              0.0000    Z=             -0.0000  Tot=              0.0000
                          Isotropic Fermi Contact Couplings
        Atom                 a.u.       MegaHertz       Gauss      10(-4) cm-1
     1  C(13)              0.19004     213.64579      76.23413      71.26457
     2  H(1)              -0.02404    -107.43987     -38.33722     -35.83808
     3  H(1)              -0.02404    -107.43982     -38.33720     -35.83807
     4  H(1)              -0.02404    -107.43982     -38.33720     -35.83807
 --------------------------------------------------------
       Center         ----  Spin Dipole Couplings  ----
                      3XX-RR        3YY-RR        3ZZ-RR
 --------------------------------------------------------

 Normal termination of Gaussian 16 at Tue Apr  8 22:28:15 2025.
