 Gaussian 16, Revision C.01,

 ----------------------------------------------------------------------
 #t hf aug-cc-pvdz symm=none int=(grid=ultrafine) guess=(read,tcheck) s
 table=opt
 ----------------------------------------------------------------------
 -----
 title
 -----
 Symbolic Z-matrix:
 Charge =  0 Multiplicity = 2

 SCF Done:  E(UHF) =  -557.601299917     A.U. after   15 cycles
 Normal termination of Gaussian 16 at Tue Apr  8 23:43:46 2025.
 Gaussian 16:  ES64L-G16RevC.01  3-Jul-2019

 ----------------------------------------------------------------------
 #t hf aug-cc-pvdz iop(5/13=1,5/36=2,99/5=2) pseudo=read geom=check gue
 ss=(read,tcheck) scf=(maxcycle=1)
 ----------------------------------------------------------------------
 -----
 title
 -----
 Structure from the checkpoint file:  "BDE49_nonexpt_1691_mol2.chk"
 Charge =  0 Multiplicity = 2

                         Standard orientation:
 ---------------------------------------------------------------------
 Center     Atomic      Atomic             Coordinates (Angstroms)
 Number     Number       Type             X           Y           Z
 ---------------------------------------------------------------------
      1          6           0       -3.026189   -0.029240   -0.178028
      2          6           0       -1.520568   -0.009678   -0.462634
      3          1           0       -3.313358   -0.928543    0.376014
      4          1           0       -3.604674   -0.010875   -1.106631
      5          1           0       -3.326278    0.837455    0.419008
      6          6           0       -0.665844   -0.032915    0.821370
      7          1           0       -1.265820    0.881866   -1.043264
      8          1           0       -1.253958   -0.867435   -1.089006
      9         14           0        1.193761   -0.003472    0.479784
     10          1           0       -0.893931   -0.922915    1.420501
     11          1           0       -0.899381    0.831220    1.454786
     12          8           0        1.446485    1.395839   -0.366724
     13          1           0        2.255709    1.462237   -0.880622
     14          8           0        1.671723   -1.237456   -0.536339
     15          1           0        1.918973   -2.070459   -0.127503
 ---------------------------------------------------------------------

 SCF Done:  E(UHF) =  -557.911413269     A.U. after    2 cycles

 The electronic state is 2-A.
 Alpha  occ. eigenvalues --  -69.57632 -20.55176 -20.54609 -11.22940 -11.22108
 Alpha  occ. eigenvalues --  -11.22075  -6.23988  -3.99724  -3.99165  -3.98978
 Alpha  occ. eigenvalues --   -1.44872  -1.42303  -1.05635  -0.93171  -0.80993
 Alpha  occ. eigenvalues --   -0.75929  -0.69789  -0.63217  -0.60877  -0.58999
 Alpha  occ. eigenvalues --   -0.56892  -0.54603  -0.54189  -0.51992  -0.50907
 Alpha  occ. eigenvalues --   -0.48881  -0.47552  -0.46037  -0.32045
 Alpha virt. eigenvalues --    0.03278   0.04045   0.04283   0.04416   0.06074
 Alpha virt. eigenvalues --    0.06452   0.06594   0.07122   0.08798   0.09058
 Alpha virt. eigenvalues --    0.09747   0.10599   0.13079   0.13849   0.14373

  Beta  occ. eigenvalues --  -69.57144 -20.54793 -20.54265 -11.22888 -11.22053
  Beta  occ. eigenvalues --  -11.21735  -6.23201  -3.98872  -3.98733  -3.97914
  Beta  occ. eigenvalues --   -1.43841  -1.41297  -1.05202  -0.92433  -0.80532
  Beta  occ. eigenvalues --   -0.74849  -0.69406  -0.63003  -0.59106  -0.56633
  Beta  occ. eigenvalues --   -0.56137  -0.54136  -0.53578  -0.50177  -0.49931
  Beta  occ. eigenvalues --   -0.48335  -0.47413  -0.43871
  Beta virt. eigenvalues --    0.02392   0.04115   0.04283   0.04383   0.06038
  Beta virt. eigenvalues --    0.06246   0.06602   0.07172   0.07963   0.08834
  Beta virt. eigenvalues --    0.09138   0.09819   0.10771   0.13167   0.14652

 Mulliken charges and spin densities:
               1          2
     1  C   -0.347055  -0.003747
     2  C   -0.320806  -0.044527
     3  H    0.158800  -0.000479
     4  H    0.123517   0.001540
     5  H    0.163089  -0.001193
     6  C   -0.714547   0.156318
     7  H    0.109868  -0.000254
     8  H    0.095920  -0.001487
     9  Si   2.420377   0.881814
    10  H    0.099552  -0.010297
    11  H    0.120976  -0.004574
    12  O   -1.390493   0.034355
    13  H    0.419121  -0.003050
    14  O   -1.342978   0.017023
    15  H    0.404656  -0.021443
 Sum of Mulliken charges =  -0.00000   1.00000

 Dipole moment (field-independent basis, Debye):
    X=              0.5070    Y=             -1.2202    Z=              0.5374  Tot=              1.4264
                          Isotropic Fermi Contact Couplings
        Atom                 a.u.       MegaHertz       Gauss      10(-4) cm-1
     1  C(13)              0.00543       6.10243       2.17750       2.03555
     2  C(13)              0.00983      11.04948       3.94273       3.68571
     3  H(1)              -0.00006      -0.27385      -0.09772      -0.09135
     4  H(1)               0.00094       4.19497       1.49687       1.39929
     5  H(1)              -0.00006      -0.28362      -0.10120      -0.09460
     6  C(13)              0.07636      85.84354      30.63111      28.63432
     7  H(1)              -0.00026      -1.14245      -0.40765      -0.38108
     8  H(1)              -0.00021      -0.93749      -0.33452      -0.31271

 Normal termination of Gaussian 16 at Tue Apr  8 23:43:51 2025.
