 Gaussian 16, Revision C.01,

 ----------------------------------------------------------------------
 #t hf aug-cc-pvdz symm=none int=(grid=ultrafine) guess=(read,tcheck) s
 table=(opt,rrhf)
 ----------------------------------------------------------------------
 -----
 title
 -----
 Symbolic Z-matrix:
 Charge =  0 Multiplicity = 1

 SCF Done:  E(RHF) =  -934.138580824     A.U. after   13 cycles
 Normal termination of Gaussian 16 at Tue Apr  8 23:42:43 2025.
 Gaussian 16:  ES64L-G16RevC.01  3-Jul-2019

 ----------------------------------------------------------------------
 #t hf aug-cc-pvdz iop(5/13=1,5/36=2,99/5=2) pseudo=read geom=check gue
 ss=(read,tcheck) scf=(maxcycle=1)
 ----------------------------------------------------------------------
 -----
 title
 -----
 Structure from the checkpoint file:  "BDE49_nonexpt_1685_mol1.chk"
 Charge =  0 Multiplicity = 1

                         Standard orientation:
 ---------------------------------------------------------------------
 Center     Atomic      Atomic             Coordinates (Angstroms)
 Number     Number       Type             X           Y           Z
 ---------------------------------------------------------------------
      1         15           0       -0.990612   -0.097950   -0.130461
      2          8           0       -0.994796   -1.147500   -1.164455
      3          8           0       -1.683733    1.311733   -0.468784
      4         14           0        1.070102    0.533217    0.509532
      5          6           0        2.416080    0.304116   -0.748807
      6          6           0        2.369194   -0.787258    0.341958
      7          1           0        3.264220    0.981508   -0.727010
      8          1           0        2.137374   -0.003381   -1.751082
      9          1           0        2.069920   -1.778148    0.016934
     10          1           0        3.188317   -0.798843    1.054495
     11          1           0       -2.632099    1.247573   -0.647430
     12          8           0       -1.839081   -0.517443    1.192638
     13          1           0       -1.877237   -1.478182    1.281116
     14          1           0        1.156502    1.558214    1.562337
 ---------------------------------------------------------------------

 SCF Done:  E(RHF) =  -934.522652223     A.U. after    2 cycles

 The electronic state is 1-A.
 Alpha  occ. eigenvalues --  -84.42433 -69.54368 -20.59579 -20.59336 -20.50427
 Alpha  occ. eigenvalues --  -11.24013 -11.23946  -6.87775  -6.21718  -4.41828
 Alpha  occ. eigenvalues --   -4.41085  -4.40141  -3.97152  -3.97021  -3.96958
 Alpha  occ. eigenvalues --   -1.53179  -1.47095  -1.38590  -1.05974  -0.86923
 Alpha  occ. eigenvalues --   -0.82329  -0.74361  -0.71400  -0.66628  -0.64735
 Alpha  occ. eigenvalues --   -0.63030  -0.59908  -0.57984  -0.55404  -0.54788
 Alpha  occ. eigenvalues --   -0.52641  -0.49499  -0.45649  -0.44808  -0.41346
 Alpha  occ. eigenvalues --   -0.36746
 Alpha virt. eigenvalues --    0.03196   0.03819   0.03939   0.05142   0.05655
 Alpha virt. eigenvalues --    0.06516   0.07342   0.08357   0.08535   0.10465
 Alpha virt. eigenvalues --    0.11089   0.11793   0.12431   0.13202   0.14423

 Mulliken charges:
               1
     1  P    3.012335
     2  O   -1.511669
     3  O   -1.275260
     4  Si   1.037095
     5  C   -0.051095
     6  C   -0.037282
     7  H   -0.101931
     8  H   -0.109296
     9  H   -0.107045
    10  H   -0.106849
    11  H    0.343858
    12  O   -1.288844
    13  H    0.347137
    14  H   -0.151153
 Sum of Mulliken charges =  -0.00000

 Dipole moment (field-independent basis, Debye):
    X=             -0.0982    Y=              0.8856    Z=              2.0888  Tot=              2.2709

 Test job not archived.
 1\1\GINC-SE082\SP\RHF\Aug-CC-pVDZ\C2H7O3P1Si1\OHZDE\08-Apr-2025\0\\#t
 hf aug-cc-pvdz iop(5/13=1,5/36=2,99/5=2) pseudo=read geom=check guess=
 (read,tcheck) scf=(maxcycle=1)\\title\\0,1\P,0,0.990612,-0.09795,0.130
 461\O,0,0.994796,-1.1475,1.164455\O,0,1.683733,1.311733,0.468784\Si,0,
 -1.070102,0.533217,-0.509532\C,0,-2.41608,0.304116,0.748807\C,0,-2.369
 194,-0.787258,-0.341958\H,0,-3.26422,0.981508,0.72701\H,0,-2.137374,-0
 .003381,1.751082\H,0,-2.06992,-1.778148,-0.016934\H,0,-3.188317,-0.798
 843,-1.054495\H,0,2.632099,1.247573,0.64743\O,0,1.839081,-0.517443,-1.

 Normal termination of Gaussian 16 at Tue Apr  8 23:42:48 2025.
