 Gaussian 16, Revision C.01,

 ----------------------------------------------------------------------
 #t hf aug-cc-pvdz symm=none int=(grid=ultrafine) guess=(read,tcheck) s
 table=(opt,rrhf)
 ----------------------------------------------------------------------
 -----
 title
 -----
 Symbolic Z-matrix:
 Charge =  0 Multiplicity = 1

 SCF Done:  E(RHF) =  -1047.03787716     A.U. after   10 cycles
 Normal termination of Gaussian 16 at Tue Apr  8 23:47:52 2025.
 Gaussian 16:  ES64L-G16RevC.01  3-Jul-2019

 ----------------------------------------------------------------------
 #t hf aug-cc-pvdz iop(5/13=1,5/36=2,99/5=2) pseudo=read geom=check gue
 ss=(read,tcheck) scf=(maxcycle=1)
 ----------------------------------------------------------------------
 -----
 title
 -----
 Structure from the checkpoint file:  "BDE49_nonexpt_1803_mol1.chk"
 Charge =  0 Multiplicity = 1

                         Standard orientation:
 ---------------------------------------------------------------------
 Center     Atomic      Atomic             Coordinates (Angstroms)
 Number     Number       Type             X           Y           Z
 ---------------------------------------------------------------------
      1         14           0        0.335838    0.000054   -0.000004
      2          9           0        0.884804   -0.777136   -1.253797
      3          9           0        0.884772   -0.697406    1.299838
      4         17           0       -1.681822   -0.000011   -0.000008
      5          9           0        0.884784    1.474479   -0.046020
 ---------------------------------------------------------------------

 SCF Done:  E(RHF) =  -1047.41420188     A.U. after    2 cycles

 The electronic state is 1-A.
 Alpha  occ. eigenvalues -- -105.60617 -69.73415 -26.50564 -26.50562 -26.50561
 Alpha  occ. eigenvalues --  -10.65736  -7.82623  -7.82264  -7.82264  -6.38882
 Alpha  occ. eigenvalues --   -4.14206  -4.14206  -4.14110  -1.64691  -1.61293
 Alpha  occ. eigenvalues --   -1.61291  -1.10846  -0.83686  -0.75623  -0.75622
 Alpha  occ. eigenvalues --   -0.72990  -0.69359  -0.69358  -0.66681  -0.66680
 Alpha  occ. eigenvalues --   -0.64715  -0.60105  -0.52444  -0.52444
 Alpha virt. eigenvalues --    0.05216   0.06116   0.06127   0.06127   0.12397
 Alpha virt. eigenvalues --    0.14738   0.14738   0.19706   0.19707   0.19952
 Alpha virt. eigenvalues --    0.21037   0.21039   0.23508   0.25246   0.27815

 Mulliken charges:
               1
     1  Si   2.979973
     2  F   -0.850235
     3  F   -0.850242
     4  Cl  -0.429317
     5  F   -0.850179
 Sum of Mulliken charges =   0.00000

 Dipole moment (field-independent basis, Debye):
    X=             -0.5474    Y=              0.0005    Z=             -0.0000  Tot=              0.5474

 Test job not archived.
 1\1\GINC-SE054\SP\RHF\Aug-CC-pVDZ\Cl1F3Si1\OHZDE\08-Apr-2025\0\\#t hf
 aug-cc-pvdz iop(5/13=1,5/36=2,99/5=2) pseudo=read geom=check guess=(re
 ad,tcheck) scf=(maxcycle=1)\\title\\0,1\Si,0,0.335838,0.000054,-0.0000
 04\F,0,0.884804,-0.774759,-1.255267\F,0,0.884773,-0.699867,1.298514\Cl
 ,0,-1.681822,-0.000012,-0.000007\F,0,0.884783,1.474564,-0.043227\\Vers
 ion=ES64L-G16RevC.01\State=1-A\HF=-1047.4142019\RMSD=2.912e-03\Dipole=
 -0.2153574,0.0002139,-0.0000187\Quadrupole=0.8755382,-0.4380256,-0.437
 5126,0.0003943,-0.0000078,-0.0000059\PG=C01 [X(Cl1F3Si1)]\\@

 Normal termination of Gaussian 16 at Tue Apr  8 23:47:54 2025.
