 Gaussian 16, Revision C.01,

 ----------------------------------------------------------------------
 #t hf aug-cc-pvdz symm=none int=(grid=ultrafine) guess=(read,tcheck) s
 table=(opt,rrhf)
 ----------------------------------------------------------------------
 -----
 title
 -----
 Symbolic Z-matrix:
 Charge =  0 Multiplicity = 1

 SCF Done:  E(RHF) =  -1662.50542149     A.U. after   15 cycles
 Normal termination of Gaussian 16 at Tue Apr  8 22:51:44 2025.
 Gaussian 16:  ES64L-G16RevC.01  3-Jul-2019

 ----------------------------------------------------------------------
 #t hf aug-cc-pvdz iop(5/13=1,5/36=2,99/5=2) pseudo=read geom=check gue
 ss=(read,tcheck) scf=(maxcycle=1)
 ----------------------------------------------------------------------
 -----
 title
 -----
 Structure from the checkpoint file:  "BDE49_expt_1730_mol1.chk"
 Charge =  0 Multiplicity = 1

                         Standard orientation:
 ---------------------------------------------------------------------
 Center     Atomic      Atomic             Coordinates (Angstroms)
 Number     Number       Type             X           Y           Z
 ---------------------------------------------------------------------
      1          6           0        2.738890    1.156852   -0.000016
      2          6           0        1.344933    1.234662   -0.000016
      3          7           0        3.421995    0.013901   -0.000006
      4          6           0        2.707185   -1.117280    0.000005
      5          6           0        1.319230   -1.155150    0.000006
      6          6           0        0.613267    0.051888   -0.000005
      7          1           0        3.327558    2.069635   -0.000025
      8          1           0        0.859645    2.199571   -0.000025
      9          1           0        3.274452   -2.043120    0.000013
     10          1           0        0.802339   -2.105912    0.000015
     11          6           0       -0.907574    0.016840   -0.000000
     12         17           0       -1.659024    1.646712   -0.000043
     13         17           0       -1.497350   -0.862854    1.466727
     14         17           0       -1.497364   -0.862937   -1.466670
 ---------------------------------------------------------------------

 SCF Done:  E(RHF) =  -1663.01611076     A.U. after    2 cycles

 The electronic state is 1-A.
 Alpha  occ. eigenvalues -- -105.60349-105.60029-105.60029 -15.52364 -11.46617
 Alpha  occ. eigenvalues --  -11.30749 -11.29844 -11.29693 -11.27154 -11.27013
 Alpha  occ. eigenvalues --  -10.65173 -10.64813 -10.64812  -7.82124  -7.81762
 Alpha  occ. eigenvalues --   -7.81759  -7.81706  -7.81688  -7.81334  -7.81333
 Alpha  occ. eigenvalues --   -7.81328  -7.81327  -1.27998  -1.22857  -1.11095
 Alpha  occ. eigenvalues --   -1.07856  -1.07020  -1.05429  -0.93034  -0.89935
 Alpha  occ. eigenvalues --   -0.82361  -0.74172  -0.72328  -0.68060  -0.64776
 Alpha  occ. eigenvalues --   -0.64644  -0.63386  -0.62487  -0.57882  -0.55496
 Alpha  occ. eigenvalues --   -0.52420  -0.51660  -0.49624  -0.47810  -0.47569
 Alpha  occ. eigenvalues --   -0.47131  -0.46371  -0.41789  -0.37476
 Alpha virt. eigenvalues --    0.03358   0.04063   0.04546   0.05050   0.05614
 Alpha virt. eigenvalues --    0.07868   0.07915   0.08740   0.08816   0.09479
 Alpha virt. eigenvalues --    0.10378   0.10978   0.11873   0.12059   0.13511

 Mulliken charges:
               1
     1  C   -1.264949
     2  C    1.069276
     3  N    1.078821
     4  C   -1.217670
     5  C    0.982499
     6  C    1.445864
     7  H   -0.175745
     8  H   -0.183296
     9  H   -0.179379
    10  H   -0.268305
    11  C   -1.617429
    12  Cl   0.048222
    13  Cl   0.141046
    14  Cl   0.141044
 Sum of Mulliken charges =  -0.00000

 Dipole moment (field-independent basis, Debye):
    X=             -0.5050    Y=              0.1783    Z=             -0.0000  Tot=              0.5356

 Test job not archived.
 1\1\GINC-SE212\SP\RHF\Aug-CC-pVDZ\C6H4Cl3N1\OHZDE\08-Apr-2025\0\\#t hf
  aug-cc-pvdz iop(5/13=1,5/36=2,99/5=2) pseudo=read geom=check guess=(r
 ead,tcheck) scf=(maxcycle=1)\\title\\0,1\C,0,2.73889,1.156852,-0.00001
 6\C,0,1.344933,1.234662,-0.000016\N,0,3.421995,0.013901,-0.000006\C,0,
 2.707185,-1.11728,0.000005\C,0,1.31923,-1.15515,0.000006\C,0,0.613267,
 0.051888,-0.000005\H,0,3.327558,2.069635,-0.000025\H,0,0.859645,2.1995
 71,-0.000025\H,0,3.274452,-2.04312,0.000013\H,0,0.802339,-2.105912,0.0
 00015\C,0,-0.907574,0.01684,0.\Cl,0,-1.659024,1.646712,-0.000043\Cl,0,

 Normal termination of Gaussian 16 at Tue Apr  8 22:51:53 2025.
