 Gaussian 16, Revision C.01,

 ----------------------------------------------------------------------
 #t hf aug-cc-pvdz symm=none int=(grid=ultrafine) guess=(read,tcheck) s
 table=(opt,rrhf)
 ----------------------------------------------------------------------
 -----
 title
 -----
 Symbolic Z-matrix:
 Charge =  0 Multiplicity = 1

 SCF Done:  E(RHF) =  -877.483151518     A.U. after   13 cycles
 Normal termination of Gaussian 16 at Tue Apr  8 23:58:27 2025.
 Gaussian 16:  ES64L-G16RevC.01  3-Jul-2019

 ----------------------------------------------------------------------
 #t hf aug-cc-pvdz iop(5/13=1,5/36=2,99/5=2) pseudo=read geom=check gue
 ss=(read,tcheck) scf=(maxcycle=1)
 ----------------------------------------------------------------------
 -----
 title
 -----
 Structure from the checkpoint file:  "BDE49_nonexpt_2059_mol1.chk"
 Charge =  0 Multiplicity = 1

                         Standard orientation:
 ---------------------------------------------------------------------
 Center     Atomic      Atomic             Coordinates (Angstroms)
 Number     Number       Type             X           Y           Z
 ---------------------------------------------------------------------
      1         14           0       -1.770577    0.169165   -0.000002
      2         16           0        0.447955   -0.198505    0.000001
      3          8           0        0.777642   -0.842999   -1.266387
      4          6           0        1.249845    1.418167   -0.000005
      5          8           0        0.777640   -0.842988    1.266395
      6          1           0        0.967976    1.958684   -0.903343
      7          1           0        2.322081    1.212527   -0.000004
      8          1           0        0.967975    1.958691    0.903328
      9          1           0       -2.335898   -1.190933    0.000004
     10          1           0       -2.121332    0.923844   -1.219828
     11          1           0       -2.121333    0.923855    1.219818
 ---------------------------------------------------------------------

 SCF Done:  E(RHF) =  -877.773315661     A.U. after    2 cycles

 The electronic state is 1-A.
 Alpha  occ. eigenvalues --  -94.17324 -69.58643 -20.53036 -20.53033 -11.29005
 Alpha  occ. eigenvalues --   -8.42933  -6.41021  -6.40789  -6.40715  -6.25677
 Alpha  occ. eigenvalues --   -4.01072  -4.00975  -4.00974  -1.54081  -1.42543
 Alpha  occ. eigenvalues --   -1.05950  -0.89155  -0.77540  -0.67387  -0.66468
 Alpha  occ. eigenvalues --   -0.65757  -0.60604  -0.59935  -0.54086  -0.53411
 Alpha  occ. eigenvalues --   -0.48749  -0.47715  -0.45505  -0.40423
 Alpha virt. eigenvalues --    0.02419   0.03618   0.04821   0.04916   0.05889
 Alpha virt. eigenvalues --    0.06529   0.07693   0.08359   0.08732   0.10684
 Alpha virt. eigenvalues --    0.12271   0.12711   0.13748   0.14393   0.15587

 Mulliken charges:
               1
     1  Si   1.026299
     2  S    2.527467
     3  O   -1.451025
     4  C   -0.806079
     5  O   -1.451025
     6  H    0.190977
     7  H    0.232609
     8  H    0.190976
     9  H   -0.190099
    10  H   -0.135050
    11  H   -0.135050
 Sum of Mulliken charges =  -0.00000

 Dipole moment (field-independent basis, Debye):
    X=             -2.6218    Y=              4.4347    Z=             -0.0000  Tot=              5.1517

 Test job not archived.
 1\1\GINC-SE252\SP\RHF\Aug-CC-pVDZ\C1H6O2S1Si1\OHZDE\08-Apr-2025\0\\#t
 hf aug-cc-pvdz iop(5/13=1,5/36=2,99/5=2) pseudo=read geom=check guess=
 (read,tcheck) scf=(maxcycle=1)\\title\\0,1\Si,0,-1.770577,0.169165,-0.
 000002\S,0,0.447955,-0.198505,0.000001\O,0,0.777642,-0.842999,-1.26638
 7\C,0,1.249845,1.418167,-0.000005\O,0,0.77764,-0.842988,1.266395\H,0,0
 .967976,1.958684,-0.903343\H,0,2.322081,1.212527,-0.000004\H,0,0.96797
 5,1.958691,0.903328\H,0,-2.335898,-1.190933,0.000004\H,0,-2.121332,0.9
 23844,-1.219828\H,0,-2.121333,0.923855,1.219818\\Version=ES64L-G16RevC

 Normal termination of Gaussian 16 at Tue Apr  8 23:58:31 2025.
