 Gaussian 16, Revision C.01,

 ----------------------------------------------------------------------
 #t hf aug-cc-pvdz symm=none int=(grid=ultrafine) guess=(read,tcheck) s
 table=opt
 ----------------------------------------------------------------------
 -----
 title
 -----
 Symbolic Z-matrix:
 Charge =  0 Multiplicity = 2

 SCF Done:  E(UHF) =  -179.802190924     A.U. after   14 cycles
 Normal termination of Gaussian 16 at Wed Apr  9 00:30:41 2025.
 Gaussian 16:  ES64L-G16RevC.01  3-Jul-2019

 ----------------------------------------------------------------------
 #t hf aug-cc-pvdz iop(5/13=1,5/36=2,99/5=2) pseudo=read geom=check gue
 ss=(read,tcheck) scf=(maxcycle=1)
 ----------------------------------------------------------------------
 -----
 title
 -----
 Structure from the checkpoint file:  "BDE49_nonexpt_351_mol2.chk"
 Charge =  0 Multiplicity = 2

                         Standard orientation:
 ---------------------------------------------------------------------
 Center     Atomic      Atomic             Coordinates (Angstroms)
 Number     Number       Type             X           Y           Z
 ---------------------------------------------------------------------
      1          9           0        1.225575    0.141458   -0.000001
      2          7           0       -1.160296    0.098043    0.000001
      3          5           0        0.075908   -0.531284   -0.000000
      4          1           0       -1.259141    1.106773    0.000001
      5          1           0       -2.028506   -0.409776    0.000003
 ---------------------------------------------------------------------

 SCF Done:  E(UHF) =  -179.969948861     A.U. after    2 cycles

 The electronic state is 2-A.
 Alpha  occ. eigenvalues --  -26.46130 -15.51131  -7.67500  -1.59174  -1.18685
 Alpha  occ. eigenvalues --   -0.79002  -0.73997  -0.71765  -0.65076  -0.63920
 Alpha  occ. eigenvalues --   -0.48661  -0.36909
 Alpha virt. eigenvalues --    0.03333   0.05354   0.05678   0.06133   0.07581
 Alpha virt. eigenvalues --    0.10397   0.14980   0.16720   0.18461   0.19504
 Alpha virt. eigenvalues --    0.19830   0.25483   0.27059   0.28071   0.28177

  Beta  occ. eigenvalues --  -26.45791 -15.51081  -7.65414  -1.58203  -1.18137
  Beta  occ. eigenvalues --   -0.77576  -0.72570  -0.69780  -0.64737  -0.61892
  Beta  occ. eigenvalues --   -0.49465
  Beta virt. eigenvalues --    0.02436   0.05314   0.05889   0.05896   0.07218
  Beta virt. eigenvalues --    0.08696   0.14629   0.17712   0.17843   0.19969
  Beta virt. eigenvalues --    0.20317   0.20522   0.26216   0.27920   0.28382

 Mulliken charges and spin densities:
               1          2
     1  F   -0.524413  -0.006573
     2  N    0.143276  -0.019600
     3  B    0.350670   1.007414
     4  H    0.006693   0.027011
     5  H    0.023774  -0.008252
 Sum of Mulliken charges =  -0.00000   1.00000

 Dipole moment (field-independent basis, Debye):
    X=             -2.2003    Y=              0.6535    Z=              0.0000  Tot=              2.2953
                          Isotropic Fermi Contact Couplings
        Atom                 a.u.       MegaHertz       Gauss      10(-4) cm-1
     1  F(19)              0.08517     358.33166     127.86165     119.52658
     2  N(14)              0.10349      33.43952      11.93205      11.15422
     3  B(11)              0.40976     587.74734     209.72287     196.05141
     4  H(1)               0.01118      49.97885      17.83370      16.67115
     5  H(1)               0.00174       7.79882       2.78281       2.60141
 --------------------------------------------------------
       Center         ----  Spin Dipole Couplings  ----
                      3XX-RR        3YY-RR        3ZZ-RR

 Normal termination of Gaussian 16 at Wed Apr  9 00:30:42 2025.
