 Gaussian 16, Revision C.01,

 ----------------------------------------------------------------------
 #t hf aug-cc-pvdz symm=none int=(grid=ultrafine) guess=(read,tcheck) s
 table=opt
 ----------------------------------------------------------------------
 -----
 title
 -----
 Symbolic Z-matrix:
 Charge =  0 Multiplicity = 2

 SCF Done:  E(UHF) =  -280.864061414     A.U. after   16 cycles
 Normal termination of Gaussian 16 at Wed Apr  9 00:32:47 2025.
 Gaussian 16:  ES64L-G16RevC.01  3-Jul-2019

 ----------------------------------------------------------------------
 #t hf aug-cc-pvdz iop(5/13=1,5/36=2,99/5=2) pseudo=read geom=check gue
 ss=(read,tcheck) scf=(maxcycle=1)
 ----------------------------------------------------------------------
 -----
 title
 -----
 Structure from the checkpoint file:  "BDE49_nonexpt_371_mol2.chk"
 Charge =  0 Multiplicity = 2

                         Standard orientation:
 ---------------------------------------------------------------------
 Center     Atomic      Atomic             Coordinates (Angstroms)
 Number     Number       Type             X           Y           Z
 ---------------------------------------------------------------------
      1          9           0        2.094320   -1.173432    0.050132
      2          5           0        0.916251   -0.800480   -0.413587
      3          6           0        0.075993    0.352608    0.249369
      4          6           0       -1.383401    0.426705   -0.230435
      5          6           0        0.832019    1.685822    0.020280
      6          1           0        0.886488    1.933342   -1.044073
      7          1           0        1.852260    1.645146    0.409302
      8          1           0        0.311442    2.505773    0.523396
      9          1           0        0.082756    0.147862    1.332980
     10          6           0       -2.202764   -0.820568    0.110655
     11          1           0       -1.393974    0.585859   -1.314863
     12          1           0       -1.859437    1.308885    0.214371
     13          1           0       -1.770511   -1.714055   -0.351229
     14          1           0       -3.232622   -0.728948   -0.244338
     15          1           0       -2.237626   -0.987982    1.191985
 ---------------------------------------------------------------------

 SCF Done:  E(UHF) =  -281.151129789     A.U. after    2 cycles

 The electronic state is 2-A.
 Alpha  occ. eigenvalues --  -26.47543 -11.23805 -11.23449 -11.22957 -11.22755
 Alpha  occ. eigenvalues --   -7.67094  -1.60637  -1.08633  -0.99350  -0.87651
 Alpha  occ. eigenvalues --   -0.82174  -0.76115  -0.68316  -0.66510  -0.65255
 Alpha  occ. eigenvalues --   -0.59748  -0.59427  -0.58390  -0.53299  -0.51767
 Alpha  occ. eigenvalues --   -0.49040  -0.48486  -0.47698  -0.33936
 Alpha virt. eigenvalues --    0.03441   0.03717   0.03742   0.04080   0.06190
 Alpha virt. eigenvalues --    0.06414   0.06557   0.06800   0.07311   0.09170
 Alpha virt. eigenvalues --    0.09753   0.10294   0.11369   0.13424   0.13863

  Beta  occ. eigenvalues --  -26.47215 -11.23811 -11.23454 -11.22741 -11.22633
  Beta  occ. eigenvalues --   -7.65271  -1.59722  -1.08198  -0.99179  -0.87322
  Beta  occ. eigenvalues --   -0.81252  -0.74756  -0.66352  -0.65348  -0.64521
  Beta  occ. eigenvalues --   -0.59486  -0.59339  -0.58093  -0.53119  -0.50981
  Beta  occ. eigenvalues --   -0.48623  -0.47590  -0.46628
  Beta virt. eigenvalues --    0.03341   0.03626   0.03771   0.03867   0.06113
  Beta virt. eigenvalues --    0.06454   0.06566   0.06750   0.07299   0.08918
  Beta virt. eigenvalues --    0.09399   0.09989   0.10776   0.13070   0.13896

 Mulliken charges and spin densities:
               1          2
     1  F   -0.729131  -0.015708
     2  B    0.622712   1.053816
     3  C   -0.106716   0.013442
     4  C   -0.292525  -0.047338
     5  C   -0.356151   0.009584
     6  H    0.163783   0.001359
     7  H    0.079853   0.001328
     8  H    0.157575  -0.000631
     9  H    0.072237  -0.008580
    10  C   -0.366269   0.010632
    11  H    0.153368  -0.004306
    12  H    0.133341  -0.005667
    13  H    0.188320  -0.007561
    14  H    0.107897  -0.000397
    15  H    0.171706   0.000027
 Sum of Mulliken charges =  -0.00000   1.00000

 Dipole moment (field-independent basis, Debye):
    X=             -0.9452    Y=              1.0496    Z=              0.4532  Tot=              1.4834
                          Isotropic Fermi Contact Couplings
        Atom                 a.u.       MegaHertz       Gauss      10(-4) cm-1
     1  F(19)              0.07656     322.13074     114.94426     107.45125
     2  B(11)              0.30487     437.29089     156.03626     145.86454
     3  C(13)              0.06886      77.41198      27.62252      25.82186
     4  C(13)              0.00153       1.72353       0.61500       0.57491
     5  C(13)             -0.00219      -2.45921      -0.87751      -0.82030
     6  H(1)              -0.00026      -1.18042      -0.42120      -0.39375
     7  H(1)               0.00000       0.01695       0.00605       0.00565
     8  H(1)               0.00046       2.06229       0.73588       0.68791

 Normal termination of Gaussian 16 at Wed Apr  9 00:32:56 2025.
