 Gaussian 16, Revision C.01,

 ----------------------------------------------------------------------
 #t hf aug-cc-pvdz symm=none int=(grid=ultrafine) guess=(read,tcheck) s
 table=(opt,rrhf)
 ----------------------------------------------------------------------
 -----
 title
 -----
 Symbolic Z-matrix:
 Charge =  0 Multiplicity = 1

 SCF Done:  E(RHF) =  -281.242172161     A.U. after   12 cycles
 Normal termination of Gaussian 16 at Wed Apr  9 00:37:26 2025.
 Gaussian 16:  ES64L-G16RevC.01  3-Jul-2019

 ----------------------------------------------------------------------
 #t hf aug-cc-pvdz iop(5/13=1,5/36=2,99/5=2) pseudo=read geom=check gue
 ss=(read,tcheck) scf=(maxcycle=1)
 ----------------------------------------------------------------------
 -----
 title
 -----
 Structure from the checkpoint file:  "BDE49_nonexpt_534_mol1.chk"
 Charge =  0 Multiplicity = 1

                         Standard orientation:
 ---------------------------------------------------------------------
 Center     Atomic      Atomic             Coordinates (Angstroms)
 Number     Number       Type             X           Y           Z
 ---------------------------------------------------------------------
      1          1           0       -0.000223    3.566490    1.030078
      2          1           0       -0.000223    3.566490   -1.030078
      3          5           0        0.000005    2.965523    0.000000
      4          6           0        0.000000    1.422631    0.000000
      5          6           0        0.000000    0.693959   -1.208609
      6          1           0        0.000000    1.235800   -2.148537
      7          6           0        0.000000    0.693959    1.208609
      8          1           0        0.000000    1.235800    2.148537
      9          1           0        0.000142   -3.566490   -1.030078
     10          1           0        0.000142   -3.566490    1.030078
     11          5           0        0.000005   -2.965523   -0.000000
     12          6           0        0.000006   -1.422631   -0.000000
     13          6           0        0.000005   -0.693959    1.208609
     14          1           0        0.000006   -1.235800    2.148537
     15          6           0        0.000005   -0.693959   -1.208609
     16          1           0        0.000006   -1.235800   -2.148537
 ---------------------------------------------------------------------

 SCF Done:  E(RHF) =  -281.532970213     A.U. after    2 cycles

 The electronic state is 1-A'.
 Alpha  occ. eigenvalues --  -11.25603 -11.25580 -11.25528 -11.25499 -11.23540
 Alpha  occ. eigenvalues --  -11.23500  -7.60163  -7.60013  -1.15795  -1.02603
 Alpha  occ. eigenvalues --   -1.02489  -0.85335  -0.83993  -0.75084  -0.71462
 Alpha  occ. eigenvalues --   -0.65559  -0.64018  -0.62760  -0.60653  -0.51971
 Alpha  occ. eigenvalues --   -0.51823  -0.51721  -0.48503  -0.48269  -0.47375
 Alpha  occ. eigenvalues --   -0.36449  -0.35388
 Alpha virt. eigenvalues --    0.00978   0.03252   0.03477   0.03505   0.04602
 Alpha virt. eigenvalues --    0.04682   0.04703   0.05319   0.07293   0.07657
 Alpha virt. eigenvalues --    0.07677   0.09759   0.10036   0.10193   0.11381

 Mulliken charges:
               1
     1  H    0.253796
     2  H    0.253796
     3  B   -0.863450
     4  C    0.250726
     5  C    0.312786
     6  H   -0.260220
     7  C    0.312786
     8  H   -0.260220
     9  H    0.253796
    10  H    0.253796
    11  B   -0.863450
    12  C    0.250726
    13  C    0.312786
    14  H   -0.260220
    15  C    0.312786
    16  H   -0.260220
 Sum of Mulliken charges =  -0.00000

 Dipole moment (field-independent basis, Debye):
    X=              0.0001    Y=             -0.0000    Z=             -0.0000  Tot=              0.0001

 Test job not archived.
 1\1\GINC-SE132\SP\RHF\Aug-CC-pVDZ\C6H8B2\OHZDE\09-Apr-2025\0\\#t hf au
 g-cc-pvdz iop(5/13=1,5/36=2,99/5=2) pseudo=read geom=check guess=(read
 ,tcheck) scf=(maxcycle=1)\\title\\0,1\H,0,-0.000223,3.56649,1.030078\H
 ,0,-0.000223,3.56649,-1.030078\B,0,0.000005,2.965523,0.\C,0,0.,1.42263
 1,0.\C,0,0.,0.693959,-1.208609\H,0,0.,1.2358,-2.148537\C,0,0.,0.693959
 ,1.208609\H,0,0.,1.2358,2.148537\H,0,0.000142,-3.56649,-1.030078\H,0,0
 .000142,-3.56649,1.030078\B,0,0.000005,-2.965523,0.\C,0,0.000006,-1.42
 2631,0.\C,0,0.000005,-0.693959,1.208609\H,0,0.000006,-1.2358,2.148537\

 Normal termination of Gaussian 16 at Wed Apr  9 00:37:31 2025.
