 Gaussian 16, Revision C.01,

 ----------------------------------------------------------------------
 #t hf aug-cc-pvdz symm=none int=(grid=ultrafine) guess=(read,tcheck) s
 table=(opt,rrhf)
 ----------------------------------------------------------------------
 -----
 title
 -----
 Symbolic Z-matrix:
 Charge =  0 Multiplicity = 1

 SCF Done:  E(RHF) =  -1003.76111771     A.U. after   13 cycles
 Normal termination of Gaussian 16 at Tue Apr  8 23:43:19 2025.
 Gaussian 16:  ES64L-G16RevC.01  3-Jul-2019

 ----------------------------------------------------------------------
 #t hf aug-cc-pvdz iop(5/13=1,5/36=2,99/5=2) pseudo=read geom=check gue
 ss=(read,tcheck) scf=(maxcycle=1)
 ----------------------------------------------------------------------
 -----
 title
 -----
 Structure from the checkpoint file:  "BDE49_nonexpt_1712_mol1.chk"
 Charge =  0 Multiplicity = 1

                         Standard orientation:
 ---------------------------------------------------------------------
 Center     Atomic      Atomic             Coordinates (Angstroms)
 Number     Number       Type             X           Y           Z
 ---------------------------------------------------------------------
      1          6           0        2.210128    0.653799    0.079198
      2         16           0        1.198793   -0.876118   -0.026979
      3          1           0        2.082385    1.251258   -0.820825
      4          1           0        3.245071    0.321778    0.160601
      5          1           0        1.938255    1.227273    0.963353
      6         15           0       -0.726918   -0.078882   -0.034415
      7          8           0       -0.864209    0.932534    1.221185
      8          8           0       -1.750338   -1.125243   -0.076396
      9          1           0       -1.195727    0.467210    1.999753
     10          8           0       -0.658814    0.995356   -1.219718
     11          1           0       -1.420777    1.589638   -1.230755
 ---------------------------------------------------------------------

 SCF Done:  E(RHF) =  -1004.13408062     A.U. after    2 cycles

 The electronic state is 1-A.
 Alpha  occ. eigenvalues --  -93.96980 -84.45211 -20.60424 -20.60397 -20.51097
 Alpha  occ. eigenvalues --  -11.28639  -8.25251  -6.90303  -6.23039  -6.22874
 Alpha  occ. eigenvalues --   -6.22650  -4.44363  -4.43574  -4.42568  -1.54546
 Alpha  occ. eigenvalues --   -1.48127  -1.39704  -1.08609  -0.92557  -0.83478
 Alpha  occ. eigenvalues --   -0.75315  -0.67563  -0.65525  -0.62080  -0.61246
 Alpha  occ. eigenvalues --   -0.59350  -0.56873  -0.56078  -0.52605  -0.47321
 Alpha  occ. eigenvalues --   -0.46639  -0.44528  -0.39135
 Alpha virt. eigenvalues --    0.02934   0.03947   0.04414   0.05793   0.06526
 Alpha virt. eigenvalues --    0.08607   0.10093   0.11433   0.11877   0.13325
 Alpha virt. eigenvalues --    0.13686   0.14653   0.15062   0.16400   0.16675

 Mulliken charges:
               1
     1  C   -0.708201
     2  S   -0.293852
     3  H    0.211906
     4  H    0.145563
     5  H    0.183928
     6  P    3.652655
     7  O   -1.275425
     8  O   -1.396642
     9  H    0.381792
    10  O   -1.261169
    11  H    0.359444
 Sum of Mulliken charges =  -0.00000

 Dipole moment (field-independent basis, Debye):
    X=              1.7371    Y=              3.7403    Z=              1.3046  Tot=              4.3254

 Test job not archived.
 1\1\GINC-SE080\SP\RHF\Aug-CC-pVDZ\C1H5O3P1S1\OHZDE\08-Apr-2025\0\\#t h
 f aug-cc-pvdz iop(5/13=1,5/36=2,99/5=2) pseudo=read geom=check guess=(
 read,tcheck) scf=(maxcycle=1)\\title\\0,1\C,0,2.210128,0.653799,0.0791
 98\S,0,1.198793,-0.876118,-0.026979\H,0,2.082385,1.251258,-0.820825\H,
 0,3.245071,0.321778,0.160601\H,0,1.938255,1.227273,0.963353\P,0,-0.726
 918,-0.078882,-0.034415\O,0,-0.864209,0.932534,1.221185\O,0,-1.750338,
 -1.125243,-0.076396\H,0,-1.195727,0.46721,1.999753\O,0,-0.658814,0.995
 356,-1.219718\H,0,-1.420777,1.589638,-1.230755\\Version=ES64L-G16RevC.

 Normal termination of Gaussian 16 at Tue Apr  8 23:43:23 2025.
