 Gaussian 16, Revision C.01,

 ----------------------------------------------------------------------
 #t hf aug-cc-pvdz symm=none int=(grid=ultrafine) guess=(read,tcheck) s
 table=(opt,rrhf)
 ----------------------------------------------------------------------
 -----
 title
 -----
 Symbolic Z-matrix:
 Charge =  0 Multiplicity = 1

 SCF Done:  E(RHF) =  -862.142543455     A.U. after   15 cycles
 Normal termination of Gaussian 16 at Tue Apr  8 23:43:12 2025.
 Gaussian 16:  ES64L-G16RevC.01  3-Jul-2019

 ----------------------------------------------------------------------
 #t hf aug-cc-pvdz iop(5/13=1,5/36=2,99/5=2) pseudo=read geom=check gue
 ss=(read,tcheck) scf=(maxcycle=1)
 ----------------------------------------------------------------------
 -----
 title
 -----
 Structure from the checkpoint file:  "BDE49_nonexpt_1688_mol1.chk"
 Charge =  0 Multiplicity = 1

                         Standard orientation:
 ---------------------------------------------------------------------
 Center     Atomic      Atomic             Coordinates (Angstroms)
 Number     Number       Type             X           Y           Z
 ---------------------------------------------------------------------
      1         14           0        2.583758   -0.004931   -0.896692
      2         15           0        1.460163   -0.086065    1.087204
      3          6           0       -0.271789    0.000873    0.445609
      4          6           0       -0.956994   -1.203056    0.229591
      5          6           0       -0.944358    1.207111    0.205470
      6          6           0       -2.263927    1.206902   -0.239076
      7          6           0       -2.930146    0.003577   -0.463105
      8          6           0       -2.271575   -1.201535   -0.230077
      9          1           0       -3.956313    0.005618   -0.812521
     10          1           0       -2.783878   -2.142786   -0.395491
     11          1           0       -0.462021   -2.147874    0.429541
     12          1           0       -0.435740    2.150970    0.366517
     13          1           0       -2.770559    2.149488   -0.414844
     14          1           0        1.633226    1.295040    1.359947
     15          1           0        2.383741   -1.299872   -1.586922
     16          1           0        4.028049    0.174138   -0.611387
     17          1           0        2.121166    1.092054   -1.779689
 ---------------------------------------------------------------------

 SCF Done:  E(RHF) =  -862.461667030     A.U. after    2 cycles

 The electronic state is 1-A.
 Alpha  occ. eigenvalues --  -84.26905 -69.53788 -11.25958 -11.25127 -11.25072
 Alpha  occ. eigenvalues --  -11.24985 -11.24923 -11.24867  -6.74130  -6.20834
 Alpha  occ. eigenvalues --   -4.27013  -4.26467  -4.25998  -3.96193  -3.96162
 Alpha  occ. eigenvalues --   -3.96147  -1.16092  -1.03208  -1.02319  -0.88477
 Alpha  occ. eigenvalues --   -0.84106  -0.80699  -0.72936  -0.69918  -0.65003
 Alpha  occ. eigenvalues --   -0.64015  -0.60583  -0.56671  -0.52623  -0.51286
 Alpha  occ. eigenvalues --   -0.50488  -0.49711  -0.47221  -0.43177  -0.37452
 Alpha  occ. eigenvalues --   -0.35264  -0.31336
 Alpha virt. eigenvalues --    0.03338   0.03682   0.03843   0.04513   0.05245
 Alpha virt. eigenvalues --    0.05470   0.07128   0.07591   0.07698   0.08048
 Alpha virt. eigenvalues --    0.09160   0.09602   0.09805   0.09864   0.11380

 Mulliken charges:
               1
     1  Si   0.940496
     2  P   -0.670226
     3  C    0.573801
     4  C   -0.370037
     5  C    0.034005
     6  C    0.499805
     7  C    0.059532
     8  C    0.394699
     9  H   -0.207894
    10  H   -0.219253
    11  H   -0.258411
    12  H   -0.288794
    13  H   -0.221661
    14  H    0.236559
    15  H   -0.174438
    16  H   -0.176600
    17  H   -0.151584
 Sum of Mulliken charges =   0.00000

 Dipole moment (field-independent basis, Debye):
    X=             -0.8396    Y=              0.3735    Z=             -0.3036  Tot=              0.9678

 Test job not archived.
 1\1\GINC-SE070\SP\RHF\Aug-CC-pVDZ\C6H9P1Si1\OHZDE\08-Apr-2025\0\\#t hf
  aug-cc-pvdz iop(5/13=1,5/36=2,99/5=2) pseudo=read geom=check guess=(r
 ead,tcheck) scf=(maxcycle=1)\\title\\0,1\Si,0,2.583758,-0.004931,-0.89
 6692\P,0,1.460163,-0.086065,1.087204\C,0,-0.271789,0.000873,0.445609\C
 ,0,-0.956994,-1.203056,0.229591\C,0,-0.944358,1.207111,0.20547\C,0,-2.
 263927,1.206902,-0.239076\C,0,-2.930146,0.003577,-0.463105\C,0,-2.2715
 75,-1.201535,-0.230077\H,0,-3.956313,0.005618,-0.812521\H,0,-2.783878,
 -2.142786,-0.395491\H,0,-0.462021,-2.147874,0.429541\H,0,-0.43574,2.15

 Normal termination of Gaussian 16 at Tue Apr  8 23:43:20 2025.
