 Gaussian 16, Revision C.01,

 ----------------------------------------------------------------------
 #t hf aug-cc-pvdz symm=none int=(grid=ultrafine) guess=(read,tcheck) s
 table=(opt,rrhf)
 ----------------------------------------------------------------------
 -----
 title
 -----
 Symbolic Z-matrix:
 Charge =  0 Multiplicity = 1

 SCF Done:  E(RHF) =  -891.834542747     A.U. after   16 cycles
 Normal termination of Gaussian 16 at Tue Apr  8 23:12:39 2025.
 Gaussian 16:  ES64L-G16RevC.01  3-Jul-2019

 ----------------------------------------------------------------------
 #t hf aug-cc-pvdz iop(5/13=1,5/36=2,99/5=2) pseudo=read geom=check gue
 ss=(read,tcheck) scf=(maxcycle=1)
 ----------------------------------------------------------------------
 -----
 title
 -----
 Structure from the checkpoint file:  "BDE49_expt_756_mol1.chk"
 Charge =  0 Multiplicity = 1

                         Standard orientation:
 ---------------------------------------------------------------------
 Center     Atomic      Atomic             Coordinates (Angstroms)
 Number     Number       Type             X           Y           Z
 ---------------------------------------------------------------------
      1          6           0       -0.404386    1.559767   -0.033582
      2          6           0        0.002784    0.227012   -0.081471
      3          6           0       -0.903799   -0.825778   -0.066448
      4          6           0       -1.767356    1.829523    0.043429
      5          6           0       -2.696227    0.791844    0.070848
      6          6           0       -2.268018   -0.537454    0.012508
      7          1           0       -2.113810    2.855916    0.074921
      8          1           0       -3.757638    1.014420    0.128352
      9          8           0       -3.127911   -1.593586    0.024582
     10          1           0       -4.034994   -1.271726    0.052956
     11          1           0       -0.570544   -1.852589   -0.141017
     12         16           0        1.759157   -0.148479   -0.175567
     13          8           0        1.906512   -1.460551   -0.773434
     14          8           0        2.431923    1.011263   -0.726774
     15          6           0        2.246457   -0.284841    1.550300
     16          1           0        1.685859   -1.094101    2.015936
     17          1           0        2.061468    0.665421    2.049069
     18          1           0        3.313272   -0.512495    1.542738
     19          1           0        0.328952    2.353384   -0.082379
 ---------------------------------------------------------------------

 SCF Done:  E(RHF) =  -892.396043261     A.U. after    2 cycles

 The electronic state is 1-A.
 Alpha  occ. eigenvalues --  -94.19024 -20.60070 -20.53126 -20.53117 -11.33528
 Alpha  occ. eigenvalues --  -11.29093 -11.28512 -11.27445 -11.27137 -11.26860
 Alpha  occ. eigenvalues --  -11.26676  -8.44330  -6.42458  -6.42229  -6.42151
 Alpha  occ. eigenvalues --   -1.55096  -1.51575  -1.43289  -1.18621  -1.08294
 Alpha  occ. eigenvalues --   -1.04426  -1.03405  -0.91670  -0.86459  -0.83820
 Alpha  occ. eigenvalues --   -0.75789  -0.72280  -0.69697  -0.68412  -0.67224
 Alpha  occ. eigenvalues --   -0.65515  -0.63886  -0.61393  -0.60779  -0.60584
 Alpha  occ. eigenvalues --   -0.59589  -0.56656  -0.54040  -0.51703  -0.48884
 Alpha  occ. eigenvalues --   -0.48773  -0.45801  -0.43618  -0.38409  -0.34724
 Alpha virt. eigenvalues --    0.02195   0.03185   0.03543   0.04918   0.05104
 Alpha virt. eigenvalues --    0.05810   0.06688   0.07217   0.07472   0.09402
 Alpha virt. eigenvalues --    0.10159   0.10432   0.11728   0.12146   0.12722

 Mulliken charges:
               1
     1  C   -0.407944
     2  C    0.804362
     3  C   -0.316202
     4  C    0.419892
     5  C   -0.311127
     6  C    2.074587
     7  H   -0.210204
     8  H   -0.308037
     9  O   -1.818836
    10  H    0.423228
    11  H   -0.230982
    12  S    3.681417
    13  O   -1.649239
    14  O   -1.655953
    15  C   -0.898664
    16  H    0.226893
    17  H    0.230205
    18  H    0.213928
    19  H   -0.267324
 Sum of Mulliken charges =  -0.00000

 Dipole moment (field-independent basis, Debye):
    X=             -4.5821    Y=              1.6216    Z=              3.9850  Tot=              6.2853

 Test job not archived.
 1\1\GINC-SE073\SP\RHF\Aug-CC-pVDZ\C7H8O3S1\OHZDE\08-Apr-2025\0\\#t hf
 aug-cc-pvdz iop(5/13=1,5/36=2,99/5=2) pseudo=read geom=check guess=(re
 ad,tcheck) scf=(maxcycle=1)\\title\\0,1\C,0,-0.404386,1.559767,-0.0335
 82\C,0,0.002784,0.227012,-0.081471\C,0,-0.903799,-0.825778,-0.066448\C
 ,0,-1.767356,1.829523,0.043429\C,0,-2.696227,0.791844,0.070848\C,0,-2.
 268018,-0.537454,0.012508\H,0,-2.11381,2.855916,0.074921\H,0,-3.757638
 ,1.01442,0.128352\O,0,-3.127911,-1.593586,0.024582\H,0,-4.034994,-1.27
 1726,0.052956\H,0,-0.570544,-1.852589,-0.141017\S,0,1.759157,-0.148479

 Normal termination of Gaussian 16 at Tue Apr  8 23:12:52 2025.
