 Gaussian 16, Revision C.01,

 ----------------------------------------------------------------------
 #t hf aug-cc-pvdz symm=none int=(grid=ultrafine) guess=(read,tcheck) s
 table=(opt,rrhf)
 ----------------------------------------------------------------------
 -----
 title
 -----
 Symbolic Z-matrix:
 Charge =  0 Multiplicity = 1

 SCF Done:  E(RHF) =  -168.857401961     A.U. after   13 cycles
 Normal termination of Gaussian 16 at Tue Apr  8 22:38:21 2025.
 Gaussian 16:  ES64L-G16RevC.01  3-Jul-2019

 ----------------------------------------------------------------------
 #t hf aug-cc-pvdz iop(5/13=1,5/36=2,99/5=2) pseudo=read geom=check gue
 ss=(read,tcheck) scf=(maxcycle=1)
 ----------------------------------------------------------------------
 -----
 title
 -----
 Structure from the checkpoint file:  "BDE49_expt_1227_mol1.chk"
 Charge =  0 Multiplicity = 1

                         Standard orientation:
 ---------------------------------------------------------------------
 Center     Atomic      Atomic             Coordinates (Angstroms)
 Number     Number       Type             X           Y           Z
 ---------------------------------------------------------------------
      1          6           0        1.098084    0.143749    0.000002
      2          7           0       -0.231550   -0.520855    0.000005
      3          1           0        1.633103   -0.220991    0.881770
      4          1           0        1.000698    1.231438   -0.000011
      5          1           0        1.633109   -0.221012   -0.881755
      6          8           0       -1.154321    0.249257   -0.000006
 ---------------------------------------------------------------------

 SCF Done:  E(RHF) =  -169.023309849     A.U. after    2 cycles

 The electronic state is 1-A.
 Alpha  occ. eigenvalues --  -20.61850 -15.64447 -11.28235  -1.59798  -1.09786
 Alpha  occ. eigenvalues --   -0.88174  -0.71558  -0.70329  -0.65795  -0.57494
 Alpha  occ. eigenvalues --   -0.55149  -0.42021
 Alpha virt. eigenvalues --    0.03482   0.05322   0.05617   0.07011   0.08324
 Alpha virt. eigenvalues --    0.13936   0.14440   0.14445   0.15974   0.17738
 Alpha virt. eigenvalues --    0.19249   0.23609   0.23834   0.26502   0.27237

 Mulliken charges:
               1
     1  C   -0.469041
     2  N    0.879290
     3  H    0.181702
     4  H    0.167514
     5  H    0.181704
     6  O   -0.941169
 Sum of Mulliken charges =  -0.00000

 Dipole moment (field-independent basis, Debye):
    X=              2.3702    Y=              0.7503    Z=             -0.0000  Tot=              2.4861

 Test job not archived.
 1\1\GINC-SE247\SP\RHF\Aug-CC-pVDZ\C1H3N1O1\OHZDE\08-Apr-2025\0\\#t hf
 aug-cc-pvdz iop(5/13=1,5/36=2,99/5=2) pseudo=read geom=check guess=(re
 ad,tcheck) scf=(maxcycle=1)\\title\\0,1\C,0,1.098084,0.143749,0.000002
 \N,0,-0.23155,-0.520855,0.000005\H,0,1.633103,-0.220992,0.88177\H,0,1.
 000698,1.231438,-0.000011\H,0,1.633109,-0.221013,-0.881755\O,0,-1.1543
 21,0.249257,-0.000006\\Version=ES64L-G16RevC.01\State=1-A\HF=-169.0233
 098\RMSD=1.398e-02\Dipole=0.9325055,0.295183,-0.0000001\Quadrupole=0.2
 406426,-0.9860042,0.7453616,-0.1117611,0.0000002,0.0000185\PG=C01 [X(C

 Normal termination of Gaussian 16 at Tue Apr  8 22:38:23 2025.
