 Gaussian 16, Revision C.01,

 ----------------------------------------------------------------------
 #t hf aug-cc-pvdz symm=none int=(grid=ultrafine) guess=(read,tcheck) s
 table=opt
 ----------------------------------------------------------------------
 -----
 title
 -----
 Symbolic Z-matrix:
 Charge =  0 Multiplicity = 2

 SCF Done:  E(UHF) =  -786.351242808     A.U. after   18 cycles
 Normal termination of Gaussian 16 at Wed Apr  9 00:08:45 2025.
 Gaussian 16:  ES64L-G16RevC.01  3-Jul-2019

 ----------------------------------------------------------------------
 #t hf aug-cc-pvdz iop(5/13=1,5/36=2,99/5=2) pseudo=read geom=check gue
 ss=(read,tcheck) scf=(maxcycle=1)
 ----------------------------------------------------------------------
 -----
 title
 -----
 Structure from the checkpoint file:  "BDE49_nonexpt_229_mol2.chk"
 Charge =  0 Multiplicity = 2

                         Standard orientation:
 ---------------------------------------------------------------------
 Center     Atomic      Atomic             Coordinates (Angstroms)
 Number     Number       Type             X           Y           Z
 ---------------------------------------------------------------------
      1          5           0        1.403536    0.519450    0.000162
      2         17           0        2.995809   -0.211067    0.000466
      3          8           0        0.298255   -0.261319   -0.000332
      4          6           0       -0.978824    0.258472   -0.000623
      5          8           0       -1.257372    1.419289   -0.000019
      6          8           0       -1.810102   -0.774036   -0.000398
      7          6           0       -3.211406   -0.426654    0.000074
      8          1           0       -3.455913    0.152531    0.890830
      9          1           0       -3.738912   -1.376647    0.000200
     10          1           0       -3.456477    0.152612   -0.890474
 ---------------------------------------------------------------------

 SCF Done:  E(UHF) =  -786.740771143     A.U. after    2 cycles

 The electronic state is 2-A.
 Alpha  occ. eigenvalues -- -105.57977 -20.62427 -20.62260 -20.56448 -11.47305
 Alpha  occ. eigenvalues --  -11.31978 -10.62987  -7.79997  -7.79558  -7.79532
 Alpha  occ. eigenvalues --   -7.72650  -1.61571  -1.52089  -1.49205  -1.09145
 Alpha  occ. eigenvalues --   -1.01373  -0.87923  -0.78737  -0.74476  -0.72219
 Alpha  occ. eigenvalues --   -0.66780  -0.64246  -0.63451  -0.62151  -0.56495
 Alpha  occ. eigenvalues --   -0.54746  -0.51391  -0.49247  -0.48646  -0.48400
 Alpha  occ. eigenvalues --   -0.37746
 Alpha virt. eigenvalues --    0.03232   0.04409   0.05006   0.05780   0.06072
 Alpha virt. eigenvalues --    0.06180   0.07238   0.09222   0.10771   0.13185
 Alpha virt. eigenvalues --    0.13272   0.14036   0.14757   0.15888   0.16643

  Beta  occ. eigenvalues -- -105.57862 -20.62271 -20.62266 -20.56435 -11.47273
  Beta  occ. eigenvalues --  -11.31979 -10.62853  -7.79689  -7.79511  -7.79339
  Beta  occ. eigenvalues --   -7.70392  -1.61366  -1.51728  -1.49143  -1.07977
  Beta  occ. eigenvalues --   -1.01245  -0.87460  -0.78603  -0.73601  -0.72255
  Beta  occ. eigenvalues --   -0.64275  -0.63477  -0.63171  -0.60252  -0.56325
  Beta  occ. eigenvalues --   -0.54625  -0.49840  -0.49345  -0.48705  -0.47951
  Beta virt. eigenvalues --    0.03182   0.04169   0.04632   0.05090   0.06113
  Beta virt. eigenvalues --    0.06602   0.06762   0.09881   0.11982   0.12079
  Beta virt. eigenvalues --    0.13256   0.13290   0.14202   0.14785   0.16050

 Mulliken charges and spin densities:
               1          2
     1  B    0.230044   1.004610
     2  Cl  -0.286245   0.042729
     3  O   -0.875355  -0.085808
     4  C    2.385428   0.059768
     5  O   -0.841131  -0.018073
     6  O   -1.153356  -0.004725
     7  C    0.206006   0.001373
     8  H    0.166749   0.000168
     9  H    0.001137  -0.000209
    10  H    0.166723   0.000167
 Sum of Mulliken charges =  -0.00000   1.00000

 Dipole moment (field-independent basis, Debye):
    X=             -2.6250    Y=             -1.1309    Z=             -0.0007  Tot=              2.8582
                          Isotropic Fermi Contact Couplings
        Atom                 a.u.       MegaHertz       Gauss      10(-4) cm-1
     1  B(11)              0.43956     630.49617     224.97671     210.31088
     2  Cl(35)             0.11400      49.98658      17.83645      16.67373
     3  O(17)              0.01142      -6.92187      -2.46989      -2.30889
     4  C(13)              0.00633       7.11511       2.53885       2.37335
     5  O(17)              0.00287      -1.73911      -0.62056      -0.58011
     6  O(17)             -0.00073       0.44193       0.15769       0.14741
     7  C(13)             -0.00016      -0.17615      -0.06285      -0.05876
     8  H(1)              -0.00001      -0.02785      -0.00994      -0.00929

 1\1\GINC-SE361\SP\UHF\Aug-CC-pVDZ\C2H3B1Cl1O3(2)\OHZDE\09-Apr-2025\0\\
 #t hf aug-cc-pvdz iop(5/13=1,5/36=2,99/5=2) pseudo=read geom=check gue
 ss=(read,tcheck) scf=(maxcycle=1)\\title\\0,2\B,0,-1.403536,0.51945,-0
 .000162\Cl,0,-2.995809,-0.211067,-0.000466\O,0,-0.298255,-0.261319,0.0
 00332\C,0,0.978824,0.258472,0.000623\O,0,1.257372,1.419289,0.000019\O,
 0,1.810102,-0.774036,0.000398\C,0,3.211406,-0.426654,-0.000074\H,0,3.4
 55913,0.152531,-0.89083\H,0,3.738912,-1.376647,-0.0002\H,0,3.456477,0.
 152612,0.890474\\Version=ES64L-G16RevC.01\State=2-A\HF=-786.7407711\S2

 Normal termination of Gaussian 16 at Wed Apr  9 00:08:49 2025.
