 Gaussian 16, Revision C.01,

 ----------------------------------------------------------------------
 #t hf aug-cc-pvdz symm=none int=(grid=ultrafine) guess=(read,tcheck) s
 table=opt
 ----------------------------------------------------------------------
 -----
 title
 -----
 Symbolic Z-matrix:
 Charge =  0 Multiplicity = 2

 SCF Done:  E(UHF) =  -626.757737270     A.U. after   19 cycles
 Normal termination of Gaussian 16 at Tue Apr  8 23:22:10 2025.
 Gaussian 16:  ES64L-G16RevC.01  3-Jul-2019

 ----------------------------------------------------------------------
 #t hf aug-cc-pvdz iop(5/13=1,5/36=2,99/5=2) pseudo=read geom=check gue
 ss=(read,tcheck) scf=(maxcycle=1)
 ----------------------------------------------------------------------
 -----
 title
 -----
 Structure from the checkpoint file:  "BDE49_nonexpt_1191_mol2.chk"
 Charge =  0 Multiplicity = 2

                         Standard orientation:
 ---------------------------------------------------------------------
 Center     Atomic      Atomic             Coordinates (Angstroms)
 Number     Number       Type             X           Y           Z
 ---------------------------------------------------------------------
      1         16           0       -2.039890   -0.412427   -0.000117
      2          6           0       -0.414343    0.276690    0.000185
      3          8           0       -0.380340    1.493241   -0.000080
      4          6           0        0.763903   -0.610305    0.000105
      5          6           0        2.004903   -0.129426   -0.744097
      6          6           0        2.004977   -0.129441    0.744185
      7          1           0        0.549958   -1.672211    0.000103
      8          1           0        2.573900   -0.884870    1.271131
      9          1           0        1.913400    0.824846    1.247192
     10          1           0        1.913278    0.824872   -1.247073
     11          1           0        2.573777   -0.884842   -1.271115
 ---------------------------------------------------------------------

 SCF Done:  E(UHF) =  -627.044084915     A.U. after    2 cycles

 The electronic state is 2-A.
 Alpha  occ. eigenvalues --  -93.99416 -20.54670 -11.38025 -11.27208 -11.26502
 Alpha  occ. eigenvalues --  -11.26442  -8.27623  -6.26801  -6.24995  -6.24708
 Alpha  occ. eigenvalues --   -1.48781  -1.17639  -1.07657  -0.91561  -0.84935
 Alpha  occ. eigenvalues --   -0.75704  -0.70420  -0.68065  -0.61586  -0.58464
 Alpha  occ. eigenvalues --   -0.58363  -0.54192  -0.49885  -0.45574  -0.44319
 Alpha  occ. eigenvalues --   -0.42037  -0.40885
 Alpha virt. eigenvalues --    0.03080   0.04120   0.04405   0.05333   0.07108
 Alpha virt. eigenvalues --    0.07719   0.09429   0.10177   0.11536   0.11616
 Alpha virt. eigenvalues --    0.12234   0.14012   0.14411   0.14744   0.14872

  Beta  occ. eigenvalues --  -93.98490 -20.54478 -11.38134 -11.27195 -11.26498
  Beta  occ. eigenvalues --  -11.26438  -8.26559  -6.24485  -6.24123  -6.22702
  Beta  occ. eigenvalues --   -1.48262  -1.17567  -1.01667  -0.89198  -0.84923
  Beta  occ. eigenvalues --   -0.75347  -0.69191  -0.67474  -0.60196  -0.58222
  Beta  occ. eigenvalues --   -0.57999  -0.54155  -0.47685  -0.44244  -0.41169
  Beta  occ. eigenvalues --   -0.38656
  Beta virt. eigenvalues --   -0.00982   0.03154   0.04127   0.04647   0.05403
  Beta virt. eigenvalues --    0.07107   0.07906   0.09537   0.10073   0.11727
  Beta virt. eigenvalues --    0.11944   0.12407   0.14420   0.14524   0.14919

 Mulliken charges and spin densities:
               1          2
     1  S    0.331044   1.098342
     2  C    0.364016  -0.120438
     3  O   -1.263279   0.012034
     4  C    0.734237   0.016213
     5  C    0.177613  -0.000718
     6  C    0.177549  -0.000722
     7  H   -0.119161  -0.003999
     8  H   -0.112487  -0.000050
     9  H   -0.088522  -0.000306
    10  H   -0.088517  -0.000306
    11  H   -0.112493  -0.000050
 Sum of Mulliken charges =  -0.00000   1.00000

 Dipole moment (field-independent basis, Debye):
    X=              1.9764    Y=             -2.5650    Z=              0.0003  Tot=              3.2381
                          Isotropic Fermi Contact Couplings
        Atom                 a.u.       MegaHertz       Gauss      10(-4) cm-1
     1  S(33)              0.20594      70.73519      25.24007      23.59472
     2  C(13)             -0.01790     -20.12167      -7.17991      -6.71187
     3  O(17)              0.02556     -15.49282      -5.52822      -5.16785
     4  C(13)              0.00375       4.21606       1.50439       1.40633
     5  C(13)              0.00054       0.60422       0.21560       0.20155
     6  C(13)              0.00054       0.60513       0.21592       0.20185
     7  H(1)               0.00089       3.97787       1.41940       1.32688
     8  H(1)              -0.00006      -0.27314      -0.09746      -0.09111

 Normal termination of Gaussian 16 at Tue Apr  8 23:22:14 2025.
