 Gaussian 16, Revision C.01,

 ----------------------------------------------------------------------
 #t hf aug-cc-pvdz symm=none int=(grid=ultrafine) guess=(read,tcheck) s
 table=(opt,rrhf)
 ----------------------------------------------------------------------
 -----
 title
 -----
 Symbolic Z-matrix:
 Charge =  0 Multiplicity = 1

 SCF Done:  E(RHF) =  -721.125661193     A.U. after   17 cycles
 Normal termination of Gaussian 16 at Wed Apr  9 00:42:58 2025.
 Gaussian 16:  ES64L-G16RevC.01  3-Jul-2019

 ----------------------------------------------------------------------
 #t hf aug-cc-pvdz iop(5/13=1,5/36=2,99/5=2) pseudo=read geom=check gue
 ss=(read,tcheck) scf=(maxcycle=1)
 ----------------------------------------------------------------------
 -----
 title
 -----
 Structure from the checkpoint file:  "BDE49_nonexpt_723_mol1.chk"
 Charge =  0 Multiplicity = 1

                         Standard orientation:
 ---------------------------------------------------------------------
 Center     Atomic      Atomic             Coordinates (Angstroms)
 Number     Number       Type             X           Y           Z
 ---------------------------------------------------------------------
      1         15           0        0.087441   -1.038307   -0.449192
      2          7           0        1.477438    0.097985    0.049883
      3          5           0       -1.432529    0.114989    0.043026
      4          8           0        1.370151    1.288739   -0.265626
      5          8           0        2.458899   -0.387303    0.571036
      6          8           0       -2.574988   -0.567990    0.299692
      7          8           0       -1.362449    1.457997    0.033473
      8          1           0       -0.458416    1.773182   -0.145595
      9          1           0       -3.325220    0.013030    0.476776
     10          1           0        0.159694   -1.803995    0.733787
 ---------------------------------------------------------------------

 SCF Done:  E(RHF) =  -721.533429922     A.U. after    2 cycles

 The electronic state is 1-A.
 Alpha  occ. eigenvalues --  -84.34091 -20.61261 -20.60219 -20.59140 -20.57996
 Alpha  occ. eigenvalues --  -15.78835  -7.69178  -6.81121  -4.33877  -4.33337
 Alpha  occ. eigenvalues --   -4.32644  -1.67971  -1.52069  -1.51021  -1.47250
 Alpha  occ. eigenvalues --   -1.04644  -0.88116  -0.81372  -0.76846  -0.75687
 Alpha  occ. eigenvalues --   -0.74523  -0.72579  -0.64699  -0.60329  -0.59540
 Alpha  occ. eigenvalues --   -0.52210  -0.52091  -0.49599  -0.46968  -0.46742
 Alpha  occ. eigenvalues --   -0.39645
 Alpha virt. eigenvalues --    0.03085   0.03814   0.04610   0.05153   0.05424
 Alpha virt. eigenvalues --    0.07102   0.08002   0.08374   0.08820   0.09768
 Alpha virt. eigenvalues --    0.12285   0.13811   0.14658   0.15892   0.16479

 Mulliken charges:
               1
     1  P   -0.428004
     2  N    1.869849
     3  B    1.733434
     4  O   -1.225966
     5  O   -1.185903
     6  O   -1.126482
     7  O   -1.185257
     8  H    0.764012
     9  H    0.522429
    10  H    0.261889
 Sum of Mulliken charges =  -0.00000

 Dipole moment (field-independent basis, Debye):
    X=             -3.1332    Y=             -1.2938    Z=             -0.2626  Tot=              3.4000

 Test job not archived.
 1\1\GINC-SE345\SP\RHF\Aug-CC-pVDZ\B1H3N1O4P1\OHZDE\09-Apr-2025\0\\#t h
 f aug-cc-pvdz iop(5/13=1,5/36=2,99/5=2) pseudo=read geom=check guess=(
 read,tcheck) scf=(maxcycle=1)\\title\\0,1\P,0,0.087441,-1.038307,-0.44
 9192\N,0,1.477438,0.097985,0.049883\B,0,-1.432529,0.114989,0.043026\O,
 0,1.370151,1.288739,-0.265626\O,0,2.458899,-0.387303,0.571036\O,0,-2.5
 74988,-0.567989,0.299692\O,0,-1.362449,1.457997,0.033473\H,0,-0.458416
 ,1.773182,-0.145595\H,0,-3.32522,0.013031,0.476776\H,0,0.159694,-1.803
 995,0.733787\\Version=ES64L-G16RevC.01\State=1-A\HF=-721.5334299\RMSD=

 Normal termination of Gaussian 16 at Wed Apr  9 00:43:02 2025.
