 Gaussian 16, Revision C.01,

 ----------------------------------------------------------------------
 #t hf aug-cc-pvdz symm=none int=(grid=ultrafine) guess=(read,tcheck) s
 table=(opt,rrhf)
 ----------------------------------------------------------------------
 -----
 title
 -----
 Symbolic Z-matrix:
 Charge =  0 Multiplicity = 1

 SCF Done:  E(RHF) =  -1353.07516059     A.U. after   14 cycles
 Normal termination of Gaussian 16 at Tue Apr  8 23:56:06 2025.
 Gaussian 16:  ES64L-G16RevC.01  3-Jul-2019

 ----------------------------------------------------------------------
 #t hf aug-cc-pvdz iop(5/13=1,5/36=2,99/5=2) pseudo=read geom=check gue
 ss=(read,tcheck) scf=(maxcycle=1)
 ----------------------------------------------------------------------
 -----
 title
 -----
 Structure from the checkpoint file:  "BDE49_nonexpt_1967_mol1.chk"
 Charge =  0 Multiplicity = 1

                         Standard orientation:
 ---------------------------------------------------------------------
 Center     Atomic      Atomic             Coordinates (Angstroms)
 Number     Number       Type             X           Y           Z
 ---------------------------------------------------------------------
      1         14           0        0.604210    1.574566    0.045190
      2          6           0       -1.047963    1.165343   -0.784605
      3         16           0       -2.063217    0.012585    0.229949
      4          8           0       -1.276378   -0.200031    1.503331
      5          6           0       -1.841585   -1.483088   -0.788602
      6         16           0        1.992891   -0.185183   -0.256096
      7          1           0        0.535429    2.039338    1.442278
      8          1           0        1.225719    2.626323   -0.794258
      9          8           0        1.303501   -0.998309   -1.349847
     10          6           0        1.776389   -1.055059    1.339988
     11          1           0       -2.413453   -1.355240   -1.710714
     12          1           0       -2.256350   -2.306248   -0.206058
     13          1           0       -0.778396   -1.626872   -0.995952
     14          1           0        2.293324   -0.470072    2.105011
     15          1           0        2.267619   -2.021684    1.218327
     16          1           0        0.719268   -1.163028    1.580553
     17          1           0       -0.846141    0.729903   -1.765360
     18          1           0       -1.618777    2.088762   -0.916697
 ---------------------------------------------------------------------

 SCF Done:  E(RHF) =  -1353.50913662     A.U. after    2 cycles

 The electronic state is 1-A.
 Alpha  occ. eigenvalues --  -94.07615 -94.04845 -69.57356 -20.50355 -20.49318
 Alpha  occ. eigenvalues --  -11.27461 -11.26626 -11.26548  -8.34418  -8.31939
 Alpha  occ. eigenvalues --   -6.32273  -6.32145  -6.31928  -6.29781  -6.29642
 Alpha  occ. eigenvalues --   -6.29459  -6.24176  -3.99552  -3.99481  -3.99469
 Alpha  occ. eigenvalues --   -1.43584  -1.41114  -1.08467  -1.04467  -0.98227
 Alpha  occ. eigenvalues --   -0.87471  -0.84591  -0.72608  -0.65931  -0.63879
 Alpha  occ. eigenvalues --   -0.62206  -0.61515  -0.60897  -0.58363  -0.58046
 Alpha  occ. eigenvalues --   -0.57015  -0.54228  -0.52842  -0.51984  -0.50142
 Alpha  occ. eigenvalues --   -0.48054  -0.42472  -0.39911  -0.37325  -0.35393
 Alpha virt. eigenvalues --    0.02954   0.03516   0.04100   0.04727   0.05259
 Alpha virt. eigenvalues --    0.05590   0.06891   0.06968   0.08272   0.08468
 Alpha virt. eigenvalues --    0.08939   0.10012   0.10780   0.11454   0.11876

 Mulliken charges:
               1
     1  Si   1.284211
     2  C   -0.770122
     3  S    1.678077
     4  O   -1.566966
     5  C   -0.535059
     6  S    0.954558
     7  H   -0.036024
     8  H   -0.213982
     9  O   -1.465122
    10  C   -0.613346
    11  H    0.218917
    12  H    0.193438
    13  H    0.122617
    14  H    0.185757
    15  H    0.196713
    16  H    0.131435
    17  H    0.103740
    18  H    0.131157
 Sum of Mulliken charges =  -0.00000

 Dipole moment (field-independent basis, Debye):
    X=             -0.9562    Y=              1.6433    Z=             -0.2241  Tot=              1.9144

 Test job not archived.
 1\1\GINC-SE099\SP\RHF\Aug-CC-pVDZ\C3H10O2S2Si1\OHZDE\08-Apr-2025\0\\#t
  hf aug-cc-pvdz iop(5/13=1,5/36=2,99/5=2) pseudo=read geom=check guess
 =(read,tcheck) scf=(maxcycle=1)\\title\\0,1\Si,0,0.60421,1.574566,0.04
 519\C,0,-1.047963,1.165343,-0.784605\S,0,-2.063217,0.012585,0.229949\O
 ,0,-1.276378,-0.200031,1.503331\C,0,-1.841585,-1.483088,-0.788602\S,0,
 1.992891,-0.185183,-0.256096\H,0,0.535429,2.039338,1.442278\H,0,1.2257
 19,2.626323,-0.794258\O,0,1.303501,-0.998309,-1.349847\C,0,1.776389,-1
 .055059,1.339988\H,0,-2.413453,-1.35524,-1.710714\H,0,-2.25635,-2.3062

 Normal termination of Gaussian 16 at Tue Apr  8 23:56:16 2025.
