 Gaussian 16, Revision C.01,

 ----------------------------------------------------------------------
 #t hf aug-cc-pvdz symm=none int=(grid=ultrafine) guess=(read,tcheck) s
 table=opt
 ----------------------------------------------------------------------
 -----
 title
 -----
 Symbolic Z-matrix:
 Charge =  0 Multiplicity = 2

 SCF Done:  E(UHF) =  -153.482314808     A.U. after   15 cycles
 Normal termination of Gaussian 16 at Tue Apr  8 22:32:21 2025.
 Gaussian 16:  ES64L-G16RevC.01  3-Jul-2019

 ----------------------------------------------------------------------
 #t hf aug-cc-pvdz iop(5/13=1,5/36=2,99/5=2) pseudo=read geom=check gue
 ss=(read,tcheck) scf=(maxcycle=1)
 ----------------------------------------------------------------------
 -----
 title
 -----
 Structure from the checkpoint file:  "BDE49_expt_1062_mol2.chk"
 Charge =  0 Multiplicity = 2

                         Standard orientation:
 ---------------------------------------------------------------------
 Center     Atomic      Atomic             Coordinates (Angstroms)
 Number     Number       Type             X           Y           Z
 ---------------------------------------------------------------------
      1          6           0       -0.091765    0.507344   -0.101038
      2          8           0       -1.168194   -0.341333    0.022154
      3          1           0       -1.978603    0.175330   -0.009242
      4          6           0        1.227784   -0.163370    0.011228
      5          1           0        1.290836   -1.010534   -0.679558
      6          1           0        1.414089   -0.559700    1.022966
      7          1           0        2.033673    0.534856   -0.226401
      8          1           0       -0.230555    1.526867    0.253865
 ---------------------------------------------------------------------

 SCF Done:  E(UHF) =  -153.642884167     A.U. after    2 cycles

 The electronic state is 2-A.
 Alpha  occ. eigenvalues --  -20.56906 -11.28570 -11.22775  -1.47952  -1.02238
 Alpha  occ. eigenvalues --   -0.83434  -0.72502  -0.62584  -0.60035  -0.54900
 Alpha  occ. eigenvalues --   -0.53815  -0.50927  -0.32418
 Alpha virt. eigenvalues --    0.03524   0.04552   0.04990   0.05909   0.07452
 Alpha virt. eigenvalues --    0.11703   0.12338   0.13598   0.15122   0.16399
 Alpha virt. eigenvalues --    0.16571   0.17578   0.20889   0.22715   0.24488

  Beta  occ. eigenvalues --  -20.56369 -11.26052 -11.23051  -1.46228  -0.99622
  Beta  occ. eigenvalues --   -0.79488  -0.71115  -0.58724  -0.56682  -0.54646
  Beta  occ. eigenvalues --   -0.50788  -0.49081
  Beta virt. eigenvalues --    0.03568   0.04561   0.05016   0.05954   0.07473
  Beta virt. eigenvalues --    0.10068   0.12348   0.13589   0.15191   0.15759
  Beta virt. eigenvalues --    0.16639   0.17150   0.19128   0.21866   0.23171

 Mulliken charges and spin densities:
               1          2
     1  C    0.825820   1.187510
     2  O   -1.179449   0.054990
     3  H    0.392770  -0.012456
     4  C   -0.505777  -0.208314
     5  H    0.163863   0.008595
     6  H    0.192587   0.046595
     7  H    0.159392  -0.001210
     8  H   -0.049205  -0.075711
 Sum of Mulliken charges =  -0.00000   1.00000

 Dipole moment (field-independent basis, Debye):
    X=             -0.3210    Y=              1.3489    Z=              0.2750  Tot=              1.4136
                          Isotropic Fermi Contact Couplings
        Atom                 a.u.       MegaHertz       Gauss      10(-4) cm-1
     1  C(13)              0.27298     306.87810     109.50174     102.36352
     2  O(17)              0.04728     -28.66391     -10.22800      -9.56125
     3  H(1)              -0.00183      -8.15784      -2.91092      -2.72116
     4  C(13)             -0.04497     -50.55898     -18.04070     -16.86466
     5  H(1)               0.00938      41.91543      14.95647      13.98148
     6  H(1)               0.02291     102.41933      36.54577      34.16341
     7  H(1)               0.00289      12.89897       4.60267       4.30263
     8  H(1)              -0.01591     -71.09606     -25.36884     -23.71509

 Normal termination of Gaussian 16 at Tue Apr  8 22:32:22 2025.
