 Gaussian 16, Revision C.01,

 ----------------------------------------------------------------------
 #t hf aug-cc-pvdz symm=none int=(grid=ultrafine) guess=(read,tcheck) s
 table=(opt,rrhf)
 ----------------------------------------------------------------------
 -----
 title
 -----
 Symbolic Z-matrix:
 Charge =  0 Multiplicity = 1

 SCF Done:  E(RHF) =  -901.203581427     A.U. after   15 cycles
 Normal termination of Gaussian 16 at Tue Apr  8 23:44:49 2025.
 Gaussian 16:  ES64L-G16RevC.01  3-Jul-2019

 ----------------------------------------------------------------------
 #t hf aug-cc-pvdz iop(5/13=1,5/36=2,99/5=2) pseudo=read geom=check gue
 ss=(read,tcheck) scf=(maxcycle=1)
 ----------------------------------------------------------------------
 -----
 title
 -----
 Structure from the checkpoint file:  "BDE49_nonexpt_1697_mol1.chk"
 Charge =  0 Multiplicity = 1

                         Standard orientation:
 ---------------------------------------------------------------------
 Center     Atomic      Atomic             Coordinates (Angstroms)
 Number     Number       Type             X           Y           Z
 ---------------------------------------------------------------------
      1          6           0       -0.515683    0.089494   -0.258707
      2          6           0       -1.308839   -0.874904   -0.901777
      3          6           0       -2.668711   -0.991406   -0.624921
      4          6           0       -3.266315   -0.142257    0.304433
      5          6           0       -2.498573    0.822016    0.953742
      6          6           0       -1.138409    0.934496    0.673945
      7         15           0        2.422368   -1.268135    0.736919
      8          1           0       -3.262178   -1.741928   -1.135474
      9          1           0       -4.325365   -0.230430    0.520104
     10          1           0       -2.958874    1.486884    1.676464
     11          1           0       -0.560162    1.694489    1.190113
     12          1           0       -0.860633   -1.541291   -1.632233
     13         14           0        1.325216    0.209952   -0.624140
     14          6           0        1.948539    1.978656   -0.473980
     15          1           0        1.842577    2.358669    0.545569
     16          1           0        1.394661    2.641815   -1.145170
     17          1           0        3.007782    2.032400   -0.738967
     18          1           0        2.252667   -0.485057    1.910382
     19          1           0        3.715206   -0.744054    0.462698
     20          1           0        1.553713   -0.285366   -2.005734
 ---------------------------------------------------------------------

 SCF Done:  E(RHF) =  -901.567351572     A.U. after    2 cycles

 The electronic state is 1-A.
 Alpha  occ. eigenvalues --  -84.25707 -69.53491 -11.25051 -11.24925 -11.24910
 Alpha  occ. eigenvalues --  -11.24624 -11.24563 -11.23402 -11.22390  -6.72946
 Alpha  occ. eigenvalues --   -6.20457  -4.25331  -4.25221  -4.24662  -3.95784
 Alpha  occ. eigenvalues --   -3.95769  -3.95751  -1.15478  -1.02053  -1.01922
 Alpha  occ. eigenvalues --   -0.95915  -0.85897  -0.83546  -0.82970  -0.72972
 Alpha  occ. eigenvalues --   -0.67465  -0.64355  -0.63380  -0.60302  -0.57931
 Alpha  occ. eigenvalues --   -0.56962  -0.54979  -0.51865  -0.50830  -0.50271
 Alpha  occ. eigenvalues --   -0.47309  -0.45741  -0.42236  -0.35352  -0.34852
 Alpha  occ. eigenvalues --   -0.32987
 Alpha virt. eigenvalues --    0.03232   0.03577   0.03664   0.04542   0.04811
 Alpha virt. eigenvalues --    0.05157   0.06521   0.07242   0.07522   0.07720
 Alpha virt. eigenvalues --    0.08275   0.09249   0.09315   0.10039   0.10563

 Mulliken charges:
               1
     1  C   -0.495681
     2  C    0.010317
     3  C    0.465786
     4  C    0.331344
     5  C    0.278674
     6  C    0.600544
     7  P   -1.368969
     8  H   -0.220588
     9  H   -0.214293
    10  H   -0.234949
    11  H   -0.354648
    12  H   -0.344944
    13  Si   1.516577
    14  C   -0.556468
    15  H    0.061867
    16  H   -0.008347
    17  H   -0.039417
    18  H    0.410108
    19  H    0.325228
    20  H   -0.162144
 Sum of Mulliken charges =  -0.00000

 Dipole moment (field-independent basis, Debye):
    X=             -0.5556    Y=              0.9974    Z=              0.0789  Tot=              1.1445

 Test job not archived.
 1\1\GINC-SE179\SP\RHF\Aug-CC-pVDZ\C7H11P1Si1\OHZDE\08-Apr-2025\0\\#t h
 f aug-cc-pvdz iop(5/13=1,5/36=2,99/5=2) pseudo=read geom=check guess=(
 read,tcheck) scf=(maxcycle=1)\\title\\0,1\C,0,0.515683,0.089494,0.2587
 07\C,0,1.308839,-0.874904,0.901777\C,0,2.668711,-0.991406,0.624921\C,0
 ,3.266315,-0.142257,-0.304433\C,0,2.498573,0.822016,-0.953742\C,0,1.13
 8409,0.934496,-0.673945\P,0,-2.422368,-1.268135,-0.736919\H,0,3.262178
 ,-1.741928,1.135474\H,0,4.325365,-0.23043,-0.520104\H,0,2.958874,1.486
 884,-1.676464\H,0,0.560162,1.694489,-1.190113\H,0,0.860633,-1.541291,1

 Normal termination of Gaussian 16 at Tue Apr  8 23:45:01 2025.
