 Gaussian 16, Revision C.01,

 ----------------------------------------------------------------------
 #t hf aug-cc-pvdz symm=none int=(grid=ultrafine) guess=(read,tcheck) s
 table=(opt,rrhf)
 ----------------------------------------------------------------------
 -----
 title
 -----
 Symbolic Z-matrix:
 Charge =  0 Multiplicity = 1

 SCF Done:  E(RHF) =  -890.467245515     A.U. after   14 cycles
 Normal termination of Gaussian 16 at Tue Apr  8 23:30:38 2025.
 Gaussian 16:  ES64L-G16RevC.01  3-Jul-2019

 ----------------------------------------------------------------------
 #t hf aug-cc-pvdz iop(5/13=1,5/36=2,99/5=2) pseudo=read geom=check gue
 ss=(read,tcheck) scf=(maxcycle=1)
 ----------------------------------------------------------------------
 -----
 title
 -----
 Structure from the checkpoint file:  "BDE49_nonexpt_134_mol1.chk"
 Charge =  0 Multiplicity = 1

                         Standard orientation:
 ---------------------------------------------------------------------
 Center     Atomic      Atomic             Coordinates (Angstroms)
 Number     Number       Type             X           Y           Z
 ---------------------------------------------------------------------
      1          5           0       -0.737626    0.365774    1.154992
      2          5           0        0.737626   -0.365823    1.154979
      3         15           0        2.002924   -0.246981   -0.187961
      4         15           0       -2.002915    0.246974   -0.187959
      5          6           0        2.057876    1.418563   -0.989748
      6          1           0        2.463214    2.181620   -0.321153
      7          1           0        1.043464    1.701755   -1.275514
      8          1           0        2.670817    1.378005   -1.892712
      9          6           0        3.716617   -0.515854    0.455515
     10          1           0        3.725631   -1.431042    1.049980
     11          1           0        4.057124    0.313439    1.079599
     12          1           0        4.413101   -0.639735   -0.376632
     13          6           0       -3.716605    0.515890    0.455508
     14          1           0       -3.725598    1.431075    1.049978
     15          1           0       -4.057138   -0.313397    1.079585
     16          1           0       -4.413080    0.639795   -0.376643
     17          6           0       -2.057906   -1.418564   -0.989756
     18          1           0       -1.043499   -1.701782   -1.275515
     19          1           0       -2.670840   -1.377984   -1.892724
     20          1           0       -2.463270   -2.181613   -0.321168
     21          1           0       -1.000837    1.188109    1.986366
     22          1           0        1.000877   -1.188112    1.986388
 ---------------------------------------------------------------------

 SCF Done:  E(RHF) =  -890.790200298     A.U. after    2 cycles

 The electronic state is 1-A.
 Alpha  occ. eigenvalues --  -84.24738 -84.24735 -11.23851 -11.23850 -11.23588
 Alpha  occ. eigenvalues --  -11.23587  -7.57254  -7.57210  -6.72177  -6.72176
 Alpha  occ. eigenvalues --   -4.24876  -4.24873  -4.24741  -4.24707  -4.23967
 Alpha  occ. eigenvalues --   -4.23909  -1.00909  -1.00797  -0.94176  -0.94082
 Alpha  occ. eigenvalues --   -0.80925  -0.76701  -0.66916  -0.60524  -0.58780
 Alpha  occ. eigenvalues --   -0.58695  -0.58154  -0.57181  -0.56917  -0.56013
 Alpha  occ. eigenvalues --   -0.56006  -0.55427  -0.48686  -0.45871  -0.44490
 Alpha  occ. eigenvalues --   -0.42333  -0.41058  -0.30430  -0.27980
 Alpha virt. eigenvalues --    0.03000   0.03223   0.03819   0.04115   0.05202
 Alpha virt. eigenvalues --    0.05211   0.05767   0.05885   0.06322   0.06407
 Alpha virt. eigenvalues --    0.07700   0.07865   0.08342   0.08421   0.09732

 Mulliken charges:
               1
     1  B    0.220238
     2  B    0.220237
     3  P    1.002647
     4  P    1.002653
     5  C   -0.997336
     6  H    0.090473
     7  H    0.060309
     8  H    0.094350
     9  C   -0.921756
    10  H    0.030286
    11  H    0.094819
    12  H    0.087509
    13  C   -0.921755
    14  H    0.030286
    15  H    0.094815
    16  H    0.087510
    17  C   -0.997338
    18  H    0.060310
    19  H    0.094350
    20  H    0.090474
    21  H    0.238458
    22  H    0.238462
 Sum of Mulliken charges =  -0.00000

 Dipole moment (field-independent basis, Debye):
    X=             -0.0000    Y=              0.0000    Z=             -0.3304  Tot=              0.3304

 Test job not archived.
 1\1\GINC-SE329\SP\RHF\Aug-CC-pVDZ\C4H14B2P2\OHZDE\08-Apr-2025\0\\#t hf
  aug-cc-pvdz iop(5/13=1,5/36=2,99/5=2) pseudo=read geom=check guess=(r
 ead,tcheck) scf=(maxcycle=1)\\title\\0,1\B,0,-0.737626,0.365774,1.1549
 92\B,0,0.737626,-0.365823,1.154979\P,0,2.002924,-0.246981,-0.187961\P,
 0,-2.002915,0.246974,-0.187959\C,0,2.057876,1.418563,-0.989748\H,0,2.4
 63214,2.18162,-0.321153\H,0,1.043464,1.701755,-1.275514\H,0,2.670817,1
 .378005,-1.892712\C,0,3.716617,-0.515854,0.455515\H,0,3.725631,-1.4310
 42,1.04998\H,0,4.057124,0.313439,1.079599\H,0,4.413101,-0.639735,-0.37

 Normal termination of Gaussian 16 at Tue Apr  8 23:30:49 2025.
