 Gaussian 16, Revision C.01,

 ----------------------------------------------------------------------
 #t hf aug-cc-pvdz symm=none int=(grid=ultrafine) guess=(read,tcheck) s
 table=(opt,rrhf)
 ----------------------------------------------------------------------
 -----
 title
 -----
 Symbolic Z-matrix:
 Charge =  0 Multiplicity = 1

 SCF Done:  E(RHF) =  -1223.74608968     A.U. after   14 cycles
 Normal termination of Gaussian 16 at Tue Apr  8 22:50:05 2025.
 Gaussian 16:  ES64L-G16RevC.01  3-Jul-2019

 ----------------------------------------------------------------------
 #t hf aug-cc-pvdz iop(5/13=1,5/36=2,99/5=2) pseudo=read geom=check gue
 ss=(read,tcheck) scf=(maxcycle=1)
 ----------------------------------------------------------------------
 -----
 title
 -----
 Structure from the checkpoint file:  "BDE49_expt_1718_mol1.chk"
 Charge =  0 Multiplicity = 1

                         Standard orientation:
 ---------------------------------------------------------------------
 Center     Atomic      Atomic             Coordinates (Angstroms)
 Number     Number       Type             X           Y           Z
 ---------------------------------------------------------------------
      1          6           0       -0.236084   -0.000003    0.888332
      2          8           0       -0.537127    0.000002    2.053108
      3          6           0        1.231530    0.000001    0.449909
      4          8           0       -1.073903   -0.000001   -0.140951
      5         17           0        1.626399    1.485673   -0.476285
      6         17           0        1.626407   -1.485671   -0.476281
      7          1           0        1.852063    0.000004    1.338184
      8          6           0       -2.492873    0.000001    0.181053
      9          6           0       -3.252486   -0.000005   -1.127684
     10          1           0       -2.706349    0.883830    0.785986
     11          1           0       -2.706350   -0.883821    0.785996
     12          1           0       -3.011168    0.886148   -1.717891
     13          1           0       -4.327021   -0.000003   -0.927697
     14          1           0       -3.011169   -0.886166   -1.717880
 ---------------------------------------------------------------------

 SCF Done:  E(RHF) =  -1224.20448300     A.U. after    2 cycles

 The electronic state is 1-A.
 Alpha  occ. eigenvalues -- -105.59193-105.59193 -20.60959 -20.56306 -11.42178
 Alpha  occ. eigenvalues --  -11.39723 -11.31475 -11.24618 -10.63975 -10.63972
 Alpha  occ. eigenvalues --   -7.80925  -7.80925  -7.80513  -7.80513  -7.80500
 Alpha  occ. eigenvalues --   -7.80497  -1.56895  -1.47938  -1.18154  -1.06154
 Alpha  occ. eigenvalues --   -1.06074  -0.95189  -0.87835  -0.80904  -0.72558
 Alpha  occ. eigenvalues --   -0.71157  -0.70583  -0.64263  -0.63074  -0.59454
 Alpha  occ. eigenvalues --   -0.58386  -0.56832  -0.53541  -0.52925  -0.51534
 Alpha  occ. eigenvalues --   -0.49333  -0.47625  -0.46958  -0.46553  -0.44952
 Alpha virt. eigenvalues --    0.03479   0.04527   0.04553   0.04615   0.06174
 Alpha virt. eigenvalues --    0.07588   0.08165   0.08460   0.10517   0.11660
 Alpha virt. eigenvalues --    0.12189   0.12222   0.12816   0.14628   0.15333

 Mulliken charges:
               1
     1  C    1.847257
     2  O   -1.132639
     3  C   -0.649916
     4  O   -1.082150
     5  Cl   0.023027
     6  Cl   0.023028
     7  H    0.281015
     8  C    0.372402
     9  C   -0.464121
    10  H    0.127218
    11  H    0.127220
    12  H    0.177120
    13  H    0.173420
    14  H    0.177118
 Sum of Mulliken charges =  -0.00000

 Dipole moment (field-independent basis, Debye):
    X=             -1.7992    Y=             -0.0000    Z=             -0.6351  Tot=              1.9080

 Test job not archived.
 1\1\GINC-SE340\SP\RHF\Aug-CC-pVDZ\C4H6Cl2O2\OHZDE\08-Apr-2025\0\\#t hf
  aug-cc-pvdz iop(5/13=1,5/36=2,99/5=2) pseudo=read geom=check guess=(r
 ead,tcheck) scf=(maxcycle=1)\\title\\0,1\C,0,0.236084,0.000003,0.88833
 2\O,0,0.537127,-0.000002,2.053108\C,0,-1.23153,-0.000001,0.449909\O,0,
 1.073903,0.000001,-0.140951\Cl,0,-1.626399,-1.485673,-0.476285\Cl,0,-1
 .626407,1.485671,-0.476281\H,0,-1.852063,-0.000004,1.338184\C,0,2.4928
 73,-0.000001,0.181053\C,0,3.252486,0.000006,-1.127684\H,0,2.706349,-0.
 88383,0.785986\H,0,2.70635,0.883821,0.785996\H,0,3.011168,-0.886148,-1

 Normal termination of Gaussian 16 at Tue Apr  8 22:50:10 2025.
