 Gaussian 16, Revision C.01,

 ----------------------------------------------------------------------
 #t hf aug-cc-pvdz symm=none int=(grid=ultrafine) guess=(read,tcheck) s
 table=(opt,rrhf)
 ----------------------------------------------------------------------
 -----
 title
 -----
 Symbolic Z-matrix:
 Charge =  0 Multiplicity = 1

 SCF Done:  E(RHF) =  -1814.28541051     A.U. after   13 cycles
 Normal termination of Gaussian 16 at Tue Apr  8 23:42:28 2025.
 Gaussian 16:  ES64L-G16RevC.01  3-Jul-2019

 ----------------------------------------------------------------------
 #t hf aug-cc-pvdz iop(5/13=1,5/36=2,99/5=2) pseudo=read geom=check gue
 ss=(read,tcheck) scf=(maxcycle=1)
 ----------------------------------------------------------------------
 -----
 title
 -----
 Structure from the checkpoint file:  "BDE49_nonexpt_1641_mol1.chk"
 Charge =  0 Multiplicity = 1

                         Standard orientation:
 ---------------------------------------------------------------------
 Center     Atomic      Atomic             Coordinates (Angstroms)
 Number     Number       Type             X           Y           Z
 ---------------------------------------------------------------------
      1         14           0       -0.767048    0.012717    0.323167
      2         15           0        1.490156   -0.061978    0.051715
      3          8           0        2.131748   -1.089197    0.889163
      4          8           0        1.883278    1.469901    0.307948
      5          6           0       -1.233841    0.039585    2.115525
      6          1           0       -0.773881   -0.808649    2.628095
      7          1           0       -2.319054   -0.019733    2.226347
      8          1           0       -0.881572    0.964803    2.578495
      9         17           0       -1.577303    1.633400   -0.672921
     10         17           0       -1.460529   -1.722968   -0.580159
     11          8           0        1.811800   -0.207955   -1.525090
     12          1           0        1.959270   -1.130026   -1.772148
     13          1           0        2.833143    1.648394    0.272192
 ---------------------------------------------------------------------

 SCF Done:  E(RHF) =  -1814.78284058     A.U. after    2 cycles

 The electronic state is 1-A.
 Alpha  occ. eigenvalues -- -105.57877-105.57869 -84.43481 -69.64128 -20.60609
 Alpha  occ. eigenvalues --  -20.60236 -20.51479 -11.25216 -10.62859 -10.62848
 Alpha  occ. eigenvalues --   -7.79749  -7.79741  -7.79437  -7.79429  -7.79423
 Alpha  occ. eigenvalues --   -7.79420  -6.88851  -6.30380  -4.42924  -4.42240
 Alpha  occ. eigenvalues --   -4.41181  -4.05741  -4.05651  -4.05534  -1.54252
 Alpha  occ. eigenvalues --   -1.48253  -1.39642  -1.09642  -1.05677  -0.98495
 Alpha  occ. eigenvalues --   -0.87958  -0.75301  -0.72197  -0.67504  -0.64501
 Alpha  occ. eigenvalues --   -0.61694  -0.60856  -0.59175  -0.57022  -0.56063
 Alpha  occ. eigenvalues --   -0.55799  -0.55104  -0.52159  -0.49754  -0.49315
 Alpha  occ. eigenvalues --   -0.48104  -0.47611  -0.46460  -0.41757
 Alpha virt. eigenvalues --    0.03285   0.04040   0.04513   0.05793   0.06049
 Alpha virt. eigenvalues --    0.06859   0.07909   0.08994   0.09726   0.10745
 Alpha virt. eigenvalues --    0.11297   0.12217   0.12615   0.14080   0.14474

 Mulliken charges:
               1
     1  Si   1.865447
     2  P    3.144282
     3  O   -1.494787
     4  O   -1.287041
     5  C   -0.683017
     6  H    0.114897
     7  H    0.053882
     8  H    0.111755
     9  Cl  -0.591715
    10  Cl  -0.588425
    11  O   -1.328440
    12  H    0.339518
    13  H    0.343645
 Sum of Mulliken charges =  -0.00000

 Dipole moment (field-independent basis, Debye):
    X=              0.2494    Y=              1.1723    Z=              0.1709  Tot=              1.2107

 Test job not archived.
 1\1\GINC-SE041\SP\RHF\Aug-CC-pVDZ\C1H5Cl2O3P1Si1\OHZDE\08-Apr-2025\0\\
 #t hf aug-cc-pvdz iop(5/13=1,5/36=2,99/5=2) pseudo=read geom=check gue
 ss=(read,tcheck) scf=(maxcycle=1)\\title\\0,1\Si,0,-0.767048,0.012717,
 0.323167\P,0,1.490156,-0.061978,0.051715\O,0,2.131748,-1.089197,0.8891
 63\O,0,1.883278,1.469901,0.307948\C,0,-1.233841,0.039585,2.115525\H,0,
 -0.773881,-0.808649,2.628095\H,0,-2.319054,-0.019733,2.226347\H,0,-0.8
 81572,0.964803,2.578495\Cl,0,-1.577303,1.6334,-0.672921\Cl,0,-1.460529
 ,-1.722968,-0.580159\O,0,1.8118,-0.207955,-1.52509\H,0,1.95927,-1.1300

 Normal termination of Gaussian 16 at Tue Apr  8 23:42:36 2025.
