 Gaussian 16, Revision C.01,

 ----------------------------------------------------------------------
 #t hf aug-cc-pvdz symm=none int=(grid=ultrafine) guess=(read,tcheck) s
 table=(opt,rrhf)
 ----------------------------------------------------------------------
 -----
 title
 -----
 Symbolic Z-matrix:
 Charge =  0 Multiplicity = 1

 SCF Done:  E(RHF) =  -330.124883489     A.U. after   14 cycles
 Normal termination of Gaussian 16 at Tue Apr  8 23:36:58 2025.
 Gaussian 16:  ES64L-G16RevC.01  3-Jul-2019

 ----------------------------------------------------------------------
 #t hf aug-cc-pvdz iop(5/13=1,5/36=2,99/5=2) pseudo=read geom=check gue
 ss=(read,tcheck) scf=(maxcycle=1)
 ----------------------------------------------------------------------
 -----
 title
 -----
 Structure from the checkpoint file:  "BDE49_nonexpt_150_mol1.chk"
 Charge =  0 Multiplicity = 1

                         Standard orientation:
 ---------------------------------------------------------------------
 Center     Atomic      Atomic             Coordinates (Angstroms)
 Number     Number       Type             X           Y           Z
 ---------------------------------------------------------------------
      1          5           0        0.550459   -1.181206   -0.528372
      2          5           0       -0.599469   -1.147987    0.569819
      3          5           0       -1.789822    0.015649    0.132888
      4          8           0       -1.501118    1.337856   -0.004218
      5          6           0       -3.276953   -0.446941   -0.123802
      6          1           0       -3.759957   -0.681295    0.833475
      7          1           0       -3.336284   -1.363035   -0.721444
      8          1           0       -3.865711    0.332477   -0.617131
      9          5           0        1.764233   -0.050801   -0.149042
     10          8           0        1.382112    1.270458   -0.038939
     11          6           0        3.260632   -0.474721    0.110986
     12          1           0        3.338123   -1.418596    0.659285
     13          1           0        3.847799    0.278896    0.650953
     14          1           0        3.753650   -0.647876   -0.854537
     15          1           0       -0.557537    1.538713    0.088732
     16          1           0        2.104168    1.870444    0.183589
     17          1           0       -0.688239   -1.662070    1.643376
     18          1           0        0.586951   -1.762469   -1.570612
 ---------------------------------------------------------------------

 SCF Done:  E(RHF) =  -330.466132526     A.U. after    2 cycles

 The electronic state is 1-A.
 Alpha  occ. eigenvalues --  -20.58037 -20.53740 -11.21883 -11.19041  -7.61360
 Alpha  occ. eigenvalues --   -7.58789  -7.55625  -7.55310  -1.47733  -1.43669
 Alpha  occ. eigenvalues --   -0.96595  -0.93935  -0.80235  -0.74203  -0.72390
 Alpha  occ. eigenvalues --   -0.65141  -0.63241  -0.57958  -0.57421  -0.56880
 Alpha  occ. eigenvalues --   -0.54653  -0.54153  -0.53313  -0.51692  -0.50991
 Alpha  occ. eigenvalues --   -0.49579  -0.47061  -0.41258  -0.36842
 Alpha virt. eigenvalues --    0.02355   0.03040   0.03284   0.03866   0.05149
 Alpha virt. eigenvalues --    0.05443   0.05745   0.06195   0.06665   0.07047
 Alpha virt. eigenvalues --    0.07882   0.08003   0.08472   0.09115   0.09341

 Mulliken charges:
               1
     1  B   -0.371068
     2  B   -0.459327
     3  B    1.511822
     4  O   -1.689884
     5  C   -0.579846
     6  H    0.109295
     7  H    0.050340
     8  H   -0.104961
     9  B    1.431834
    10  O   -1.392253
    11  C   -0.531105
    12  H    0.047890
    13  H   -0.098033
    14  H    0.118312
    15  H    0.900596
    16  H    0.542912
    17  H    0.270936
    18  H    0.242540
 Sum of Mulliken charges =   0.00000

 Dipole moment (field-independent basis, Debye):
    X=              3.2538    Y=              0.0412    Z=              0.4717  Tot=              3.2881

 Test job not archived.
 1\1\GINC-SE219\SP\RHF\Aug-CC-pVDZ\C2H10B4O2\OHZDE\08-Apr-2025\0\\#t hf
  aug-cc-pvdz iop(5/13=1,5/36=2,99/5=2) pseudo=read geom=check guess=(r
 ead,tcheck) scf=(maxcycle=1)\\title\\0,1\B,0,0.550459,-1.181206,-0.528
 372\B,0,-0.599469,-1.147987,0.569819\B,0,-1.789822,0.015649,0.132888\O
 ,0,-1.501118,1.337856,-0.004218\C,0,-3.276953,-0.446941,-0.123802\H,0,
 -3.759957,-0.681295,0.833475\H,0,-3.336284,-1.363035,-0.721444\H,0,-3.
 865711,0.332477,-0.617131\B,0,1.764233,-0.050801,-0.149042\O,0,1.38211
 2,1.270458,-0.038939\C,0,3.260632,-0.474721,0.110986\H,0,3.338123,-1.4

 Normal termination of Gaussian 16 at Tue Apr  8 23:37:06 2025.
