 Gaussian 16, Revision C.01,

 ----------------------------------------------------------------------
 #t hf aug-cc-pvdz symm=none int=(grid=ultrafine) guess=(read,tcheck) s
 table=(opt,rrhf)
 ----------------------------------------------------------------------
 -----
 title
 -----
 Symbolic Z-matrix:
 Charge =  0 Multiplicity = 1

 SCF Done:  E(RHF) =  -309.105340154     A.U. after   12 cycles

 1\1\GINC-SE338\Stability\RHF\Aug-CC-pVDZ\C6H12O1\OHZDE\08-Apr-2025\0\\
 #t hf aug-cc-pvdz symm=none int=(grid=ultrafine) guess=(read,tcheck) s
 table=(opt,rrhf)\\title\\0,1\C,0,0.339372,1.255146,-0.180092\C,0,-1.14
 7606,1.27849,0.206211\C,0,1.036192,-0.014103,0.322816\H,0,0.850898,2.1
 40548,0.217627\H,0,0.446823,1.288594,-1.270904\C,0,-1.869775,0.013804,
 -0.280819\H,0,-1.626888,2.173665,-0.201861\H,0,-1.239197,1.348646,1.29
 7827\C,0,0.320197,-1.268958,-0.169164\C,0,-1.166569,-1.258502,0.214722
 \H,0,-1.889808,0.010687,-1.378066\H,0,-2.912988,0.023491,0.050867\H,0,

 Normal termination of Gaussian 16 at Tue Apr  8 22:41:08 2025.
 Gaussian 16:  ES64L-G16RevC.01  3-Jul-2019

 ----------------------------------------------------------------------
 #t hf aug-cc-pvdz iop(5/13=1,5/36=2,99/5=2) pseudo=read geom=check gue
 ss=(read,tcheck) scf=(maxcycle=1)
 ----------------------------------------------------------------------
 -----
 title
 -----
 Structure from the checkpoint file:  "BDE49_expt_1345_mol1.chk"
 Charge =  0 Multiplicity = 1

                         Standard orientation:
 ---------------------------------------------------------------------
 Center     Atomic      Atomic             Coordinates (Angstroms)
 Number     Number       Type             X           Y           Z
 ---------------------------------------------------------------------
      1          6           0        0.339372    1.255146   -0.180092
      2          6           0       -1.147606    1.278490    0.206211
      3          6           0        1.036192   -0.014103    0.322816
      4          1           0        0.850898    2.140548    0.217627
      5          1           0        0.446823    1.288594   -1.270904
      6          6           0       -1.869775    0.013804   -0.280819
      7          1           0       -1.626888    2.173665   -0.201861
      8          1           0       -1.239197    1.348646    1.297827
      9          6           0        0.320197   -1.268958   -0.169164
     10          6           0       -1.166569   -1.258502    0.214722
     11          1           0       -1.889808    0.010687   -1.378066
     12          1           0       -2.912988    0.023491    0.050867
     13          1           0        0.825360   -2.151128    0.234340
     14          1           0        0.427873   -1.311815   -1.259646
     15          1           0       -1.660923   -2.147521   -0.188553
     16          1           0       -1.261741   -1.320790    1.306512
     17          8           0        2.387456   -0.096107   -0.135521
     18          1           0        2.851255    0.690400    0.168539
     19          1           0        1.018830   -0.011185    1.425445
 ---------------------------------------------------------------------

 SCF Done:  E(RHF) =  -309.439898490     A.U. after    2 cycles

 The electronic state is 1-A.
 Alpha  occ. eigenvalues --  -20.54127 -11.27997 -11.22978 -11.22693 -11.22669
 Alpha  occ. eigenvalues --  -11.22636 -11.22058  -1.44057  -1.11329  -1.00665
 Alpha  occ. eigenvalues --   -0.99279  -0.84424  -0.82648  -0.76259  -0.68656
 Alpha  occ. eigenvalues --   -0.65726  -0.61907  -0.61312  -0.59200  -0.55210
 Alpha  occ. eigenvalues --   -0.53820  -0.53016  -0.49682  -0.49196  -0.46625
 Alpha  occ. eigenvalues --   -0.46452  -0.44208  -0.42200
 Alpha virt. eigenvalues --    0.03293   0.03588   0.03618   0.04267   0.05770
 Alpha virt. eigenvalues --    0.06050   0.06337   0.06601   0.06792   0.09187
 Alpha virt. eigenvalues --    0.09484   0.09607   0.13510   0.14091   0.14561

 Mulliken charges:
               1
     1  C   -0.324356
     2  C   -0.230104
     3  C    1.039289
     4  H    0.077744
     5  H    0.208010
     6  C   -0.264392
     7  H    0.095768
     8  H    0.164290
     9  C   -0.375459
    10  C   -0.208261
    11  H    0.151861
    12  H    0.111906
    13  H    0.138209
    14  H    0.197127
    15  H    0.097773
    16  H    0.163435
    17  O   -1.453296
    18  H    0.279742
    19  H    0.130713
 Sum of Mulliken charges =  -0.00000

 Dipole moment (field-independent basis, Debye):
    X=             -0.9399    Y=              1.1869    Z=              0.8171  Tot=              1.7204

 Test job not archived.
 1\1\GINC-SE338\SP\RHF\Aug-CC-pVDZ\C6H12O1\OHZDE\08-Apr-2025\0\\#t hf a
 ug-cc-pvdz iop(5/13=1,5/36=2,99/5=2) pseudo=read geom=check guess=(rea
 d,tcheck) scf=(maxcycle=1)\\title\\0,1\C,0,0.339372,1.255146,-0.180092
 \C,0,-1.147606,1.27849,0.206211\C,0,1.036192,-0.014103,0.322816\H,0,0.
 850898,2.140548,0.217627\H,0,0.446823,1.288594,-1.270904\C,0,-1.869775
 ,0.013804,-0.280819\H,0,-1.626888,2.173665,-0.201861\H,0,-1.239197,1.3
 48646,1.297827\C,0,0.320197,-1.268958,-0.169164\C,0,-1.166569,-1.25850
 2,0.214722\H,0,-1.889808,0.010687,-1.378066\H,0,-2.912988,0.023491,0.0

 Normal termination of Gaussian 16 at Tue Apr  8 22:41:15 2025.
