 Gaussian 16, Revision C.01,

 ----------------------------------------------------------------------
 #t hf aug-cc-pvdz symm=none int=(grid=ultrafine) guess=(read,tcheck) s
 table=(opt,rrhf)
 ----------------------------------------------------------------------
 -----
 title
 -----
 Symbolic Z-matrix:
 Charge =  0 Multiplicity = 1

 SCF Done:  E(RHF) =  -249.060504610     A.U. after   13 cycles
 Normal termination of Gaussian 16 at Tue Apr  8 22:36:44 2025.
 Gaussian 16:  ES64L-G16RevC.01  3-Jul-2019

 ----------------------------------------------------------------------
 #t hf aug-cc-pvdz iop(5/13=1,5/36=2,99/5=2) pseudo=read geom=check gue
 ss=(read,tcheck) scf=(maxcycle=1)
 ----------------------------------------------------------------------
 -----
 title
 -----
 Structure from the checkpoint file:  "BDE49_expt_1156_mol1.chk"
 Charge =  0 Multiplicity = 1

                         Standard orientation:
 ---------------------------------------------------------------------
 Center     Atomic      Atomic             Coordinates (Angstroms)
 Number     Number       Type             X           Y           Z
 ---------------------------------------------------------------------
      1          6           0       -1.872938   -0.166075    0.005088
      2          7           0       -2.535536   -1.096537   -0.151030
      3          6           0       -1.016364    1.004645    0.189977
      4          6           0        0.419085    0.795082   -0.335563
      5          1           0       -0.997433    1.248100    1.257576
      6          1           0       -1.487079    1.851086   -0.319144
      7          6           0        1.195955   -0.298764    0.403706
      8          1           0        0.946362    1.750550   -0.242535
      9          1           0        0.376202    0.562886   -1.404687
     10          6           0        2.618552   -0.478409   -0.132532
     11          1           0        0.651664   -1.245777    0.325083
     12          1           0        1.234309   -0.053273    1.471972
     13          1           0        2.609769   -0.759634   -1.189892
     14          1           0        3.149886   -1.261591    0.413783
     15          1           0        3.199334    0.444539   -0.039000
 ---------------------------------------------------------------------

 SCF Done:  E(RHF) =  -249.325275032     A.U. after    2 cycles

 The electronic state is 1-A.
 Alpha  occ. eigenvalues --  -15.50832 -11.29039 -11.27837 -11.25850 -11.24268
 Alpha  occ. eigenvalues --  -11.23422  -1.23056  -1.10989  -1.02840  -0.91360
 Alpha  occ. eigenvalues --   -0.82408  -0.71365  -0.65554  -0.63833  -0.61898
 Alpha  occ. eigenvalues --   -0.59950  -0.56889  -0.54564  -0.52105  -0.50532
 Alpha  occ. eigenvalues --   -0.49228  -0.48306  -0.47746
 Alpha virt. eigenvalues --    0.02935   0.03444   0.03576   0.04420   0.05678
 Alpha virt. eigenvalues --    0.06283   0.07038   0.07823   0.09034   0.10654
 Alpha virt. eigenvalues --    0.11216   0.12470   0.13662   0.14284   0.14595

 Mulliken charges:
               1
     1  C   -1.407991
     2  N    0.868060
     3  C   -0.037218
     4  C   -0.244240
     5  H    0.245410
     6  H    0.227348
     7  C   -0.304417
     8  H    0.131154
     9  H    0.144074
    10  C   -0.381693
    11  H    0.184320
    12  H    0.128164
    13  H    0.159194
    14  H    0.122842
    15  H    0.164995
 Sum of Mulliken charges =  -0.00000

 Dipole moment (field-independent basis, Debye):
    X=              3.2050    Y=              3.5975    Z=              0.5717  Tot=              4.8519

 Test job not archived.
 1\1\GINC-SE073\SP\RHF\Aug-CC-pVDZ\C5H9N1\OHZDE\08-Apr-2025\0\\#t hf au
 g-cc-pvdz iop(5/13=1,5/36=2,99/5=2) pseudo=read geom=check guess=(read
 ,tcheck) scf=(maxcycle=1)\\title\\0,1\C,0,-1.872938,-0.166075,0.005088
 \N,0,-2.535536,-1.096537,-0.15103\C,0,-1.016364,1.004645,0.189977\C,0,
 0.419085,0.795082,-0.335563\H,0,-0.997433,1.2481,1.257576\H,0,-1.48707
 9,1.851086,-0.319144\C,0,1.195955,-0.298764,0.403706\H,0,0.946362,1.75
 055,-0.242535\H,0,0.376202,0.562886,-1.404687\C,0,2.618552,-0.478409,-
 0.132532\H,0,0.651664,-1.245777,0.325083\H,0,1.234309,-0.053273,1.4719

 Normal termination of Gaussian 16 at Tue Apr  8 22:36:49 2025.
