 Gaussian 16, Revision C.01,

 ----------------------------------------------------------------------
 #t hf aug-cc-pvdz symm=none int=(grid=ultrafine) guess=(read,tcheck) s
 table=(opt,rrhf)
 ----------------------------------------------------------------------
 -----
 title
 -----
 Symbolic Z-matrix:
 Charge =  0 Multiplicity = 1

 SCF Done:  E(RHF) =  -1982.95650457     A.U. after   13 cycles
 Normal termination of Gaussian 16 at Tue Apr  8 23:28:13 2025.
 Gaussian 16:  ES64L-G16RevC.01  3-Jul-2019

 ----------------------------------------------------------------------
 #t hf aug-cc-pvdz iop(5/13=1,5/36=2,99/5=2) pseudo=read geom=check gue
 ss=(read,tcheck) scf=(maxcycle=1)
 ----------------------------------------------------------------------
 -----
 title
 -----
 Structure from the checkpoint file:  "BDE49_nonexpt_1330_mol1.chk"
 Charge =  0 Multiplicity = 1

                         Standard orientation:
 ---------------------------------------------------------------------
 Center     Atomic      Atomic             Coordinates (Angstroms)
 Number     Number       Type             X           Y           Z
 ---------------------------------------------------------------------
      1          6           0       -0.593601   -0.004744    0.007332
      2         15           0        1.274164   -0.139018    0.136318
      3         17           0       -1.191116   -1.414697   -0.929387
      4         17           0       -1.058080    1.516265   -0.847745
      5         17           0       -1.294305   -0.011016    1.644363
      6          8           0        1.689406   -1.316443    0.883105
      7          8           0        1.744567   -0.013030   -1.385737
      8          1           0        1.842704   -0.866652   -1.825771
      9          8           0        1.713945    1.258995    0.736245
     10          1           0        1.662613    2.004826    0.125181
 ---------------------------------------------------------------------

 SCF Done:  E(RHF) =  -1983.48604428     A.U. after    2 cycles

 The electronic state is 1-A.
 Alpha  occ. eigenvalues -- -105.61409-105.61249-105.60854 -84.46820 -20.62431
 Alpha  occ. eigenvalues --  -20.62145 -20.52896 -11.46094 -10.66203 -10.66043
 Alpha  occ. eigenvalues --  -10.65656  -7.83148  -7.82993  -7.82729  -7.82714
 Alpha  occ. eigenvalues --   -7.82613  -7.82564  -7.82548  -7.82165  -7.82158
 Alpha  occ. eigenvalues --   -6.92016  -4.46252  -4.45542  -4.44534  -1.56885
 Alpha  occ. eigenvalues --   -1.50493  -1.41814  -1.22362  -1.08421  -1.08304
 Alpha  occ. eigenvalues --   -0.92521  -0.83096  -0.78691  -0.71992  -0.67764
 Alpha  occ. eigenvalues --   -0.65472  -0.65161  -0.62035  -0.59176  -0.57189
 Alpha  occ. eigenvalues --   -0.56809  -0.53117  -0.52891  -0.50578  -0.49470
 Alpha  occ. eigenvalues --   -0.48220  -0.47859  -0.47176  -0.45457
 Alpha virt. eigenvalues --    0.03176   0.04479   0.06309   0.08024   0.08481
 Alpha virt. eigenvalues --    0.08697   0.09729   0.10946   0.11424   0.12939
 Alpha virt. eigenvalues --    0.13402   0.14187   0.15522   0.17057   0.17227

 Mulliken charges:
               1
     1  C   -1.065735
     2  P    4.311095
     3  Cl   0.060985
     4  Cl   0.011885
     5  Cl   0.074137
     6  O   -1.451720
     7  O   -1.326572
     8  H    0.360986
     9  O   -1.298233
    10  H    0.323172
 Sum of Mulliken charges =   0.00000

 Dipole moment (field-independent basis, Debye):
    X=             -0.0811    Y=              2.0338    Z=             -2.9732  Tot=              3.6031

 Test job not archived.
 1\1\GINC-SE435\SP\RHF\Aug-CC-pVDZ\C1H2Cl3O3P1\OHZDE\08-Apr-2025\0\\#t
 hf aug-cc-pvdz iop(5/13=1,5/36=2,99/5=2) pseudo=read geom=check guess=
 (read,tcheck) scf=(maxcycle=1)\\title\\0,1\C,0,0.593601,0.004744,0.007
 332\P,0,-1.274164,0.139018,0.136318\Cl,0,1.191116,1.414697,-0.929387\C
 l,0,1.05808,-1.516265,-0.847745\Cl,0,1.294305,0.011016,1.644363\O,0,-1
 .689406,1.316443,0.883105\O,0,-1.744567,0.01303,-1.385737\H,0,-1.84270
 4,0.866652,-1.825771\O,0,-1.713945,-1.258995,0.736245\H,0,-1.662613,-2
 .004826,0.125181\\Version=ES64L-G16RevC.01\State=1-A\HF=-1983.4860443\

 Normal termination of Gaussian 16 at Tue Apr  8 23:28:19 2025.
