 Gaussian 16, Revision C.01,

 ----------------------------------------------------------------------
 #t hf aug-cc-pvdz symm=none int=(grid=ultrafine) guess=(read,tcheck) s
 table=(opt,rrhf)
 ----------------------------------------------------------------------
 -----
 title
 -----
 Symbolic Z-matrix:
 Charge =  0 Multiplicity = 1

 SCF Done:  E(RHF) =  -1202.25663540     A.U. after   15 cycles
 Normal termination of Gaussian 16 at Tue Apr  8 23:53:46 2025.
 Gaussian 16:  ES64L-G16RevC.01  3-Jul-2019

 ----------------------------------------------------------------------
 #t hf aug-cc-pvdz iop(5/13=1,5/36=2,99/5=2) pseudo=read geom=check gue
 ss=(read,tcheck) scf=(maxcycle=1)
 ----------------------------------------------------------------------
 -----
 title
 -----
 Structure from the checkpoint file:  "BDE49_nonexpt_1948_mol1.chk"
 Charge =  0 Multiplicity = 1

                         Standard orientation:
 ---------------------------------------------------------------------
 Center     Atomic      Atomic             Coordinates (Angstroms)
 Number     Number       Type             X           Y           Z
 ---------------------------------------------------------------------
      1         14           0        2.525269   -0.356460   -0.447270
      2          6           0        1.192058   -0.233622    0.913214
      3          6           0       -0.140587    0.214292    0.383066
      4         16           0       -0.482953    1.776523    0.002971
      5         16           0       -1.242050   -1.136144    0.194537
      6          1           0        3.747624   -0.922220    0.170656
      7          1           0        2.818951    0.979683   -1.002397
      8          1           0        2.056393   -1.259207   -1.521790
      9          6           0       -2.720361   -0.400304   -0.549039
     10          1           0       -3.427312   -1.221512   -0.675034
     11          1           0       -2.477598    0.043219   -1.513730
     12          1           0       -3.135115    0.359813    0.111354
     13          1           0        1.550843    0.493541    1.645819
     14          1           0        1.125826   -1.211144    1.403323
 ---------------------------------------------------------------------

 SCF Done:  E(RHF) =  -1202.53339456     A.U. after    2 cycles

 The electronic state is 1-A.
 Alpha  occ. eigenvalues --  -93.98170 -93.92150 -69.54176 -11.36186 -11.27727
 Alpha  occ. eigenvalues --  -11.25554  -8.26339  -8.20405  -6.24164  -6.23959
 Alpha  occ. eigenvalues --   -6.23798  -6.21202  -6.18249  -6.18005  -6.17830
 Alpha  occ. eigenvalues --   -3.96585  -3.96569  -3.96555  -1.15894  -1.05228
 Alpha  occ. eigenvalues --   -0.97812  -0.91255  -0.75383  -0.71048  -0.64416
 Alpha  occ. eigenvalues --   -0.61743  -0.61068  -0.56762  -0.54282  -0.51425
 Alpha  occ. eigenvalues --   -0.49209  -0.48832  -0.47241  -0.42527  -0.35254
 Alpha  occ. eigenvalues --   -0.34461
 Alpha virt. eigenvalues --    0.03309   0.03553   0.04056   0.04590   0.05242
 Alpha virt. eigenvalues --    0.05868   0.06431   0.07050   0.08123   0.08475
 Alpha virt. eigenvalues --    0.09335   0.09895   0.10459   0.11346   0.12667

 Mulliken charges:
               1
     1  Si   1.068553
     2  C   -0.799698
     3  C   -0.422140
     4  S    0.043867
     5  S    0.401875
     6  H   -0.187711
     7  H   -0.151583
     8  H   -0.179321
     9  C   -0.670710
    10  H    0.129581
    11  H    0.245071
    12  H    0.248426
    13  H    0.153282
    14  H    0.120506
 Sum of Mulliken charges =  -0.00000

 Dipole moment (field-independent basis, Debye):
    X=             -0.3808    Y=             -2.0159    Z=              0.2268  Tot=              2.0640

 Test job not archived.
 1\1\GINC-SE435\SP\RHF\Aug-CC-pVDZ\C3H8S2Si1\OHZDE\08-Apr-2025\0\\#t hf
  aug-cc-pvdz iop(5/13=1,5/36=2,99/5=2) pseudo=read geom=check guess=(r
 ead,tcheck) scf=(maxcycle=1)\\title\\0,1\Si,0,2.525269,-0.35646,-0.447
 27\C,0,1.192058,-0.233622,0.913214\C,0,-0.140587,0.214292,0.383066\S,0
 ,-0.482953,1.776523,0.002971\S,0,-1.24205,-1.136144,0.194537\H,0,3.747
 624,-0.92222,0.170656\H,0,2.818951,0.979683,-1.002397\H,0,2.056393,-1.
 259207,-1.52179\C,0,-2.720361,-0.400304,-0.549039\H,0,-3.427312,-1.221
 512,-0.675034\H,0,-2.477598,0.043219,-1.51373\H,0,-3.135115,0.359813,0

 Normal termination of Gaussian 16 at Tue Apr  8 23:53:51 2025.
