 Gaussian 16, Revision C.01,

 ----------------------------------------------------------------------
 #t hf aug-cc-pvdz symm=none int=(grid=ultrafine) guess=(read,tcheck) s
 table=(opt,rrhf)
 ----------------------------------------------------------------------
 -----
 title
 -----
 Symbolic Z-matrix:
 Charge =  0 Multiplicity = 1

 SCF Done:  E(RHF) =  -2171.54724707     A.U. after   12 cycles

 1\1\GINC-SE361\Stability\RHF\Aug-CC-pVDZ\H6S4Si2\OHZDE\09-Apr-2025\0\\
 #t hf aug-cc-pvdz symm=none int=(grid=ultrafine) guess=(read,tcheck) s
 table=(opt,rrhf)\\title\\0,1\Si,0,0.897978,1.433368,0.773908\Si,0,-0.8
 97983,1.433349,-0.773939\S,0,-1.798323,-0.536656,-1.00147\H,0,-0.43075
 1,1.765702,-2.14158\H,0,-1.925582,2.415792,-0.355641\S,0,-2.423123,-0.
 88477,0.988051\H,0,-1.305272,-1.505729,1.414291\S,0,1.798325,-0.536629
 ,1.001481\H,0,0.430744,1.765748,2.141543\H,0,1.925572,2.415807,0.35559
 \S,0,2.423123,-0.884785,-0.988035\H,0,1.305339,-1.50591,-1.414211\\Ver

 Normal termination of Gaussian 16 at Wed Apr  9 00:12:46 2025.
 Gaussian 16:  ES64L-G16RevC.01  3-Jul-2019

 ----------------------------------------------------------------------
 #t hf aug-cc-pvdz iop(5/13=1,5/36=2,99/5=2) pseudo=read geom=check gue
 ss=(read,tcheck) scf=(maxcycle=1)
 ----------------------------------------------------------------------
 -----
 title
 -----
 Structure from the checkpoint file:  "BDE49_nonexpt_2419_mol1.chk"
 Charge =  0 Multiplicity = 1

                         Standard orientation:
 ---------------------------------------------------------------------
 Center     Atomic      Atomic             Coordinates (Angstroms)
 Number     Number       Type             X           Y           Z
 ---------------------------------------------------------------------
      1         14           0        0.897978    1.433368    0.773908
      2         14           0       -0.897983    1.433349   -0.773939
      3         16           0       -1.798323   -0.536656   -1.001470
      4          1           0       -0.430751    1.765702   -2.141580
      5          1           0       -1.925582    2.415792   -0.355641
      6         16           0       -2.423123   -0.884770    0.988051
      7          1           0       -1.305272   -1.505729    1.414291
      8         16           0        1.798325   -0.536629    1.001481
      9          1           0        0.430744    1.765748    2.141543
     10          1           0        1.925572    2.415807    0.355590
     11         16           0        2.423123   -0.884785   -0.988035
     12          1           0        1.305339   -1.505910   -1.414211
 ---------------------------------------------------------------------

 SCF Done:  E(RHF) =  -2171.86030396     A.U. after    2 cycles

 The electronic state is 1-A.
 Alpha  occ. eigenvalues --  -93.99308 -93.99307 -93.97819 -93.97815 -69.56959
 Alpha  occ. eigenvalues --  -69.56959  -8.27173  -8.27172  -8.25888  -8.25888
 Alpha  occ. eigenvalues --   -6.25001  -6.25000  -6.24830  -6.24830  -6.24580
 Alpha  occ. eigenvalues --   -6.24579  -6.23868  -6.23855  -6.23674  -6.23673
 Alpha  occ. eigenvalues --   -6.23479  -6.23479  -6.23269  -6.23269  -3.99248
 Alpha  occ. eigenvalues --   -3.99230  -3.99159  -3.99145  -3.99126  -3.99076
 Alpha  occ. eigenvalues --   -1.09249  -1.08659  -0.92466  -0.92279  -0.77018
 Alpha  occ. eigenvalues --   -0.69323  -0.59775  -0.58228  -0.53622  -0.51860
 Alpha  occ. eigenvalues --   -0.51516  -0.50411  -0.49622  -0.48078  -0.44189
 Alpha  occ. eigenvalues --   -0.39754  -0.38633  -0.38063  -0.37118
 Alpha virt. eigenvalues --    0.03286   0.03621   0.04289   0.04534   0.05549
 Alpha virt. eigenvalues --    0.06263   0.06961   0.07177   0.07406   0.08291
 Alpha virt. eigenvalues --    0.09255   0.10050   0.10271   0.10722   0.11426

 Mulliken charges:
               1
     1  Si   0.952354
     2  Si   0.952383
     3  S   -0.676965
     4  H   -0.119123
     5  H   -0.115426
     6  S   -0.450303
     7  H    0.409443
     8  S   -0.676968
     9  H   -0.119116
    10  H   -0.115425
    11  S   -0.450303
    12  H    0.409448
 Sum of Mulliken charges =  -0.00000

 Dipole moment (field-independent basis, Debye):
    X=              0.0001    Y=              1.2870    Z=             -0.0000  Tot=              1.2870

 Test job not archived.
 1\1\GINC-SE361\SP\RHF\Aug-CC-pVDZ\H6S4Si2\OHZDE\09-Apr-2025\0\\#t hf a
 ug-cc-pvdz iop(5/13=1,5/36=2,99/5=2) pseudo=read geom=check guess=(rea
 d,tcheck) scf=(maxcycle=1)\\title\\0,1\Si,0,0.897978,1.433368,0.773908
 \Si,0,-0.897983,1.433349,-0.773939\S,0,-1.798323,-0.536656,-1.00147\H,
 0,-0.430751,1.765702,-2.14158\H,0,-1.925582,2.415792,-0.355641\S,0,-2.
 423123,-0.88477,0.988051\H,0,-1.305272,-1.505729,1.414291\S,0,1.798325
 ,-0.536629,1.001481\H,0,0.430744,1.765748,2.141543\H,0,1.925572,2.4158
 07,0.35559\S,0,2.423123,-0.884785,-0.988035\H,0,1.305339,-1.50591,-1.4

 Normal termination of Gaussian 16 at Wed Apr  9 00:12:52 2025.
