 Gaussian 16, Revision C.01,

 ----------------------------------------------------------------------
 #t hf aug-cc-pvdz symm=none int=(grid=ultrafine) guess=(read,tcheck) s
 table=(opt,rrhf)
 ----------------------------------------------------------------------
 -----
 title
 -----
 Symbolic Z-matrix:
 Charge =  0 Multiplicity = 1

 SCF Done:  E(RHF) =  -421.511220797     A.U. after   15 cycles

 1\1\GINC-SE103\Stability\RHF\Aug-CC-pVDZ\C9H10O1\OHZDE\08-Apr-2025\0\\
 #t hf aug-cc-pvdz symm=none int=(grid=ultrafine) guess=(read,tcheck) s
 table=(opt,rrhf)\\title\\0,1\O,0,-0.930646,-1.100503,-0.22735\C,0,0.27
 9051,-0.462973,-0.140297\C,0,0.491067,0.886518,-0.432311\C,0,1.348303,
 -1.259101,0.285326\C,0,2.617546,-0.710458,0.409897\C,0,2.841139,0.6344
 06,0.109576\C,0,1.774045,1.421892,-0.308717\H,0,-0.329967,1.526267,-0.
 726363\H,0,1.929854,2.470871,-0.535584\H,0,1.157526,-2.302481,0.505656
 \H,0,3.43854,-1.338139,0.73839\H,0,3.83283,1.060347,0.205006\C,0,-2.01

 Normal termination of Gaussian 16 at Tue Apr  8 22:44:12 2025.
 Gaussian 16:  ES64L-G16RevC.01  3-Jul-2019

 ----------------------------------------------------------------------
 #t hf aug-cc-pvdz iop(5/13=1,5/36=2,99/5=2) pseudo=read geom=check gue
 ss=(read,tcheck) scf=(maxcycle=1)
 ----------------------------------------------------------------------
 -----
 title
 -----
 Structure from the checkpoint file:  "BDE49_expt_1435_mol1.chk"
 Charge =  0 Multiplicity = 1

                         Standard orientation:
 ---------------------------------------------------------------------
 Center     Atomic      Atomic             Coordinates (Angstroms)
 Number     Number       Type             X           Y           Z
 ---------------------------------------------------------------------
      1          8           0       -0.930646   -1.100503   -0.227350
      2          6           0        0.279051   -0.462973   -0.140297
      3          6           0        0.491067    0.886518   -0.432311
      4          6           0        1.348303   -1.259101    0.285326
      5          6           0        2.617546   -0.710458    0.409897
      6          6           0        2.841139    0.634406    0.109576
      7          6           0        1.774045    1.421892   -0.308717
      8          1           0       -0.329967    1.526267   -0.726363
      9          1           0        1.929854    2.470871   -0.535584
     10          1           0        1.157526   -2.302481    0.505656
     11          1           0        3.438540   -1.338139    0.738390
     12          1           0        3.832830    1.060347    0.205006
     13          6           0       -2.012472   -0.468243   -0.901645
     14          6           0       -2.857161    0.422776   -0.032430
     15          1           0       -2.628695   -1.290056   -1.281402
     16          1           0       -1.646311    0.082876   -1.777702
     17          6           0       -2.707879    0.591123    1.275812
     18          1           0       -3.660581    0.932120   -0.562116
     19          1           0       -1.920263    0.087353    1.823641
     20          1           0       -3.369595    1.239215    1.838002
 ---------------------------------------------------------------------

 SCF Done:  E(RHF) =  -421.946667407     A.U. after    2 cycles

 The electronic state is 1-A.
 Alpha  occ. eigenvalues --  -20.57073 -11.30597 -11.30389 -11.24870 -11.24582
 Alpha  occ. eigenvalues --  -11.24473 -11.23701 -11.23639 -11.23382 -11.23290
 Alpha  occ. eigenvalues --   -1.49424  -1.14991  -1.07541  -1.01814  -1.01055
 Alpha  occ. eigenvalues --   -0.94149  -0.84261  -0.82684  -0.76976  -0.72467
 Alpha  occ. eigenvalues --   -0.68679  -0.67380  -0.66489  -0.63054  -0.61602
 Alpha  occ. eigenvalues --   -0.59860  -0.58597  -0.55347  -0.53550  -0.52301
 Alpha  occ. eigenvalues --   -0.51564  -0.48686  -0.46678  -0.37998  -0.34678
 Alpha  occ. eigenvalues --   -0.31805
 Alpha virt. eigenvalues --    0.03254   0.03610   0.03812   0.04106   0.04907
 Alpha virt. eigenvalues --    0.05088   0.06393   0.07036   0.07376   0.08533
 Alpha virt. eigenvalues --    0.09854   0.10648   0.11749   0.12163   0.12411

 Mulliken charges:
               1
     1  O   -1.877890
     2  C    1.758404
     3  C   -0.084050
     4  C   -0.159831
     5  C    0.642224
     6  C    0.097048
     7  C    0.459861
     8  H   -0.368759
     9  H   -0.232210
    10  H   -0.287616
    11  H   -0.220551
    12  H   -0.223094
    13  C    0.196752
    14  C    0.508270
    15  H    0.040812
    16  H    0.232810
    17  C   -0.109278
    18  H   -0.155542
    19  H   -0.087960
    20  H   -0.129398
 Sum of Mulliken charges =   0.00000

 Dipole moment (field-independent basis, Debye):
    X=             -0.7308    Y=              0.8279    Z=             -0.6786  Tot=              1.2961

 Test job not archived.
 1\1\GINC-SE103\SP\RHF\Aug-CC-pVDZ\C9H10O1\OHZDE\08-Apr-2025\0\\#t hf a
 ug-cc-pvdz iop(5/13=1,5/36=2,99/5=2) pseudo=read geom=check guess=(rea
 d,tcheck) scf=(maxcycle=1)\\title\\0,1\O,0,-0.930646,-1.100503,-0.2273
 5\C,0,0.279051,-0.462973,-0.140297\C,0,0.491067,0.886518,-0.432311\C,0
 ,1.348303,-1.259101,0.285326\C,0,2.617546,-0.710458,0.409897\C,0,2.841
 139,0.634406,0.109576\C,0,1.774045,1.421892,-0.308717\H,0,-0.329967,1.
 526267,-0.726363\H,0,1.929854,2.470871,-0.535584\H,0,1.157526,-2.30248
 1,0.505656\H,0,3.43854,-1.338139,0.73839\H,0,3.83283,1.060347,0.205006

 Normal termination of Gaussian 16 at Tue Apr  8 22:44:24 2025.
