 Gaussian 16, Revision C.01,

 ----------------------------------------------------------------------
 #t hf aug-cc-pvdz symm=none int=(grid=ultrafine) guess=(read,tcheck) s
 table=(opt,rrhf)
 ----------------------------------------------------------------------
 -----
 title
 -----
 Symbolic Z-matrix:
 Charge =  0 Multiplicity = 1

 SCF Done:  E(RHF) =  -685.042573713     A.U. after   14 cycles
 Normal termination of Gaussian 16 at Tue Apr  8 23:20:52 2025.
 Gaussian 16:  ES64L-G16RevC.01  3-Jul-2019

 ----------------------------------------------------------------------
 #t hf aug-cc-pvdz iop(5/13=1,5/36=2,99/5=2) pseudo=read geom=check gue
 ss=(read,tcheck) scf=(maxcycle=1)
 ----------------------------------------------------------------------
 -----
 title
 -----
 Structure from the checkpoint file:  "BDE49_nonexpt_1144_mol1.chk"
 Charge =  0 Multiplicity = 1

                         Standard orientation:
 ---------------------------------------------------------------------
 Center     Atomic      Atomic             Coordinates (Angstroms)
 Number     Number       Type             X           Y           Z
 ---------------------------------------------------------------------
      1          9           0        1.653864   -0.778890   -0.000023
      2          8           0        1.202465    0.590435   -0.000028
      3          6           0       -0.181003    0.638938   -0.000009
      4          8           0       -0.659536    1.728222   -0.000002
      5         16           0       -0.996441   -0.939597    0.000028
      6          1           0       -2.199145   -0.339327    0.000054
 ---------------------------------------------------------------------

 SCF Done:  E(RHF) =  -685.367878850     A.U. after    2 cycles

 The electronic state is 1-A.
 Alpha  occ. eigenvalues --  -94.02020 -26.55573 -20.73351 -20.59088 -11.46729
 Alpha  occ. eigenvalues --   -8.30143  -6.27960  -6.27806  -6.27569  -1.71517
 Alpha  occ. eigenvalues --   -1.55376  -1.40937  -1.10676  -0.86713  -0.75606
 Alpha  occ. eigenvalues --   -0.74929  -0.74087  -0.65928  -0.64276  -0.62033
 Alpha  occ. eigenvalues --   -0.58467  -0.53145  -0.47979  -0.43705
 Alpha virt. eigenvalues --    0.03698   0.06858   0.09233   0.09713   0.10049
 Alpha virt. eigenvalues --    0.10828   0.11439   0.12429   0.14039   0.14996
 Alpha virt. eigenvalues --    0.16563   0.21074   0.22082   0.22823   0.24581

 Mulliken charges:
               1
     1  F   -0.341529
     2  O   -0.398989
     3  C    1.151478
     4  O   -0.931704
     5  S    0.143130
     6  H    0.377613
 Sum of Mulliken charges =   0.00000

 Dipole moment (field-independent basis, Debye):
    X=             -1.5260    Y=             -1.6765    Z=              0.0000  Tot=              2.2670

 Test job not archived.
 1\1\GINC-SE220\SP\RHF\Aug-CC-pVDZ\C1H1F1O2S1\OHZDE\08-Apr-2025\0\\#t h
 f aug-cc-pvdz iop(5/13=1,5/36=2,99/5=2) pseudo=read geom=check guess=(
 read,tcheck) scf=(maxcycle=1)\\title\\0,1\F,0,1.653864,-0.77889,-0.000
 023\O,0,1.202465,0.590435,-0.000028\C,0,-0.181003,0.638938,-0.000009\O
 ,0,-0.659536,1.728222,-0.000002\S,0,-0.996441,-0.939597,0.000028\H,0,-
 2.199145,-0.339327,0.000054\\Version=ES64L-G16RevC.01\State=1-A\HF=-68
 5.3678789\RMSD=6.882e-03\Dipole=-0.600382,-0.6595797,0.0000148\Quadrup
 ole=2.5603059,-2.5935429,0.0332369,1.7983415,-0.0000951,-0.0000297\PG=

 Normal termination of Gaussian 16 at Tue Apr  8 23:20:54 2025.
