 Gaussian 16, Revision C.01,

 ----------------------------------------------------------------------
 #t hf aug-cc-pvdz symm=none int=(grid=ultrafine) guess=(read,tcheck) s
 table=(opt,rrhf)
 ----------------------------------------------------------------------
 -----
 title
 -----
 Symbolic Z-matrix:
 Charge =  0 Multiplicity = 1

 SCF Done:  E(RHF) =  -516.556969530     A.U. after   16 cycles
 Normal termination of Gaussian 16 at Wed Apr  9 00:40:46 2025.
 Gaussian 16:  ES64L-G16RevC.01  3-Jul-2019

 ----------------------------------------------------------------------
 #t hf aug-cc-pvdz iop(5/13=1,5/36=2,99/5=2) pseudo=read geom=check gue
 ss=(read,tcheck) scf=(maxcycle=1)
 ----------------------------------------------------------------------
 -----
 title
 -----
 Structure from the checkpoint file:  "BDE49_nonexpt_644_mol1.chk"
 Charge =  0 Multiplicity = 1

                         Standard orientation:
 ---------------------------------------------------------------------
 Center     Atomic      Atomic             Coordinates (Angstroms)
 Number     Number       Type             X           Y           Z
 ---------------------------------------------------------------------
      1          8           0       -0.252935   -0.641292   -0.000026
      2          6           0        0.745326    0.301291   -0.000006
      3          6           0        0.174543    1.551510   -0.000005
      4          6           0       -1.230541    1.374645   -0.000021
      5          6           0       -1.448364    0.020213   -0.000035
      6          5           0        2.211651   -0.222361    0.000006
      7          8           0        3.217545    0.692601    0.000022
      8          8           0        2.497660   -1.556648   -0.000003
      9          6           0       -2.664049   -0.784408   -0.000059
     10          8           0       -3.781071   -0.315341    0.000088
     11          1           0       -2.483610   -1.879079    0.000083
     12          1           0        0.718951    2.482597    0.000007
     13          1           0       -2.002014    2.127806   -0.000025
     14          1           0        4.086488    0.277152    0.000028
     15          1           0        1.710855   -2.110738   -0.000015
 ---------------------------------------------------------------------

 SCF Done:  E(RHF) =  -517.066192740     A.U. after    2 cycles

 The electronic state is 1-A.
 Alpha  occ. eigenvalues --  -20.63657 -20.57435 -20.56941 -20.55563 -11.35914
 Alpha  occ. eigenvalues --  -11.31688 -11.30075 -11.27121 -11.26449  -7.66318
 Alpha  occ. eigenvalues --   -1.56760  -1.49574  -1.48279  -1.45587  -1.11929
 Alpha  occ. eigenvalues --   -1.05607  -0.90879  -0.84086  -0.79843  -0.78572
 Alpha  occ. eigenvalues --   -0.75927  -0.72903  -0.66885  -0.66440  -0.63988
 Alpha  occ. eigenvalues --   -0.62218  -0.60227  -0.58378  -0.58370  -0.57213
 Alpha  occ. eigenvalues --   -0.54267  -0.53215  -0.50718  -0.44005  -0.42275
 Alpha  occ. eigenvalues --   -0.34876
 Alpha virt. eigenvalues --    0.03172   0.03439   0.03999   0.04067   0.04868
 Alpha virt. eigenvalues --    0.05410   0.06154   0.06645   0.08756   0.09849
 Alpha virt. eigenvalues --    0.09973   0.11355   0.11444   0.13144   0.13192

 Mulliken charges:
               1
     1  O   -1.644417
     2  C    1.037868
     3  C    0.238830
     4  C   -0.046863
     5  C    1.156736
     6  B    1.519810
     7  O   -1.362087
     8  O   -1.573898
     9  C    1.044930
    10  O   -1.249825
    11  H    0.037450
    12  H   -0.180660
    13  H   -0.158678
    14  H    0.489581
    15  H    0.691222
 Sum of Mulliken charges =  -0.00000

 Dipole moment (field-independent basis, Debye):
    X=              2.5676    Y=             -0.5085    Z=             -0.0002  Tot=              2.6175

 Test job not archived.
 1\1\GINC-SE460\SP\RHF\Aug-CC-pVDZ\C5H5B1O4\OHZDE\09-Apr-2025\0\\#t hf
 aug-cc-pvdz iop(5/13=1,5/36=2,99/5=2) pseudo=read geom=check guess=(re
 ad,tcheck) scf=(maxcycle=1)\\title\\0,1\O,0,0.252935,-0.641292,0.00002
 6\C,0,-0.745326,0.301291,0.000006\C,0,-0.174543,1.55151,0.000005\C,0,1
 .230541,1.374645,0.000021\C,0,1.448364,0.020213,0.000035\B,0,-2.211651
 ,-0.222361,-0.000006\O,0,-3.217545,0.692601,-0.000022\O,0,-2.49766,-1.
 556648,0.000003\C,0,2.664049,-0.784408,0.000059\O,0,3.781071,-0.315341
 ,-0.000088\H,0,2.48361,-1.879079,-0.000083\H,0,-0.718951,2.482597,-0.0

 Normal termination of Gaussian 16 at Wed Apr  9 00:40:52 2025.
