 Gaussian 16, Revision C.01,

 ----------------------------------------------------------------------
 #t hf aug-cc-pvdz symm=none int=(grid=ultrafine) guess=(read,tcheck) s
 table=(opt,rrhf)
 ----------------------------------------------------------------------
 -----
 title
 -----
 Symbolic Z-matrix:
 Charge =  0 Multiplicity = 1

 SCF Done:  E(RHF) =  -799.831684073     A.U. after   15 cycles
 Normal termination of Gaussian 16 at Tue Apr  8 23:36:17 2025.
 Gaussian 16:  ES64L-G16RevC.01  3-Jul-2019

 ----------------------------------------------------------------------
 #t hf aug-cc-pvdz iop(5/13=1,5/36=2,99/5=2) pseudo=read geom=check gue
 ss=(read,tcheck) scf=(maxcycle=1)
 ----------------------------------------------------------------------
 -----
 title
 -----
 Structure from the checkpoint file:  "BDE49_nonexpt_1435_mol1.chk"
 Charge =  0 Multiplicity = 1

                         Standard orientation:
 ---------------------------------------------------------------------
 Center     Atomic      Atomic             Coordinates (Angstroms)
 Number     Number       Type             X           Y           Z
 ---------------------------------------------------------------------
      1          6           0       -1.389194   -1.293128    0.002401
      2          6           0       -0.055488   -1.712380    0.013509
      3          6           0        1.006474   -0.815033    0.020312
      4          6           0       -1.666310    0.072502    0.003495
      5          6           0       -0.618436    1.003777    0.013060
      6          6           0        0.698384    0.562364    0.016586
      7          1           0        0.151171   -2.776898    0.018623
      8         15           0        2.771537   -1.325301   -0.117434
      9          1           0       -2.179426   -2.030535   -0.001150
     10          1           0       -0.876883    2.053142    0.018387
     11          8           0        1.779086    1.394016    0.028705
     12          6           0        1.568535    2.798569   -0.025424
     13          1           0        1.031599    3.086229   -0.935523
     14          1           0        2.560296    3.247154   -0.032860
     15          1           0        1.016181    3.152570    0.851593
     16          8           0       -2.917465    0.614187   -0.000739
     17          6           0       -4.033407   -0.265161   -0.008884
     18          1           0       -4.040224   -0.896685   -0.904117
     19          1           0       -4.914901    0.373900   -0.012670
     20          1           0       -4.050526   -0.900195    0.883740
     21          1           0        2.561275   -2.674790    0.268109
     22          1           0        3.212062   -0.929051    1.173311
 ---------------------------------------------------------------------

 SCF Done:  E(RHF) =  -800.344482468     A.U. after    2 cycles

 The electronic state is 1-A.
 Alpha  occ. eigenvalues --  -84.26626 -20.57761 -20.57672 -11.31491 -11.31431
 Alpha  occ. eigenvalues --  -11.29840 -11.29814 -11.25437 -11.23664 -11.23327
 Alpha  occ. eigenvalues --  -11.23271  -6.73633  -4.26599  -4.26214  -4.25456
 Alpha  occ. eigenvalues --   -1.50284  -1.49997  -1.15250  -1.03835  -1.02496
 Alpha  occ. eigenvalues --   -0.95652  -0.95171  -0.86669  -0.83051  -0.79589
 Alpha  occ. eigenvalues --   -0.73407  -0.70523  -0.67275  -0.66335  -0.65666
 Alpha  occ. eigenvalues --   -0.64108  -0.62834  -0.60235  -0.57922  -0.54817
 Alpha  occ. eigenvalues --   -0.54482  -0.51700  -0.50788  -0.49908  -0.48606
 Alpha  occ. eigenvalues --   -0.47726  -0.45096  -0.36503  -0.33576  -0.29406
 Alpha virt. eigenvalues --    0.03287   0.03551   0.03805   0.04791   0.05039
 Alpha virt. eigenvalues --    0.05205   0.05887   0.06595   0.07947   0.08323
 Alpha virt. eigenvalues --    0.08958   0.09262   0.10647   0.11339   0.11561

 Mulliken charges:
               1
     1  C   -0.196166
     2  C    0.673869
     3  C   -0.486066
     4  C    2.294064
     5  C   -0.448711
     6  C    2.101987
     7  H   -0.288150
     8  P   -0.505152
     9  H   -0.428274
    10  H   -0.491092
    11  O   -1.897450
    12  C    0.162969
    13  H    0.196160
    14  H   -0.047983
    15  H    0.191456
    16  O   -1.964479
    17  C    0.151310
    18  H    0.182483
    19  H   -0.049163
    20  H    0.180621
    21  H    0.251089
    22  H    0.416678
 Sum of Mulliken charges =   0.00000

 Dipole moment (field-independent basis, Debye):
    X=             -2.0786    Y=              0.5939    Z=              0.3060  Tot=              2.1833

 Test job not archived.
 1\1\GINC-SE045\SP\RHF\Aug-CC-pVDZ\C8H11O2P1\OHZDE\08-Apr-2025\0\\#t hf
  aug-cc-pvdz iop(5/13=1,5/36=2,99/5=2) pseudo=read geom=check guess=(r
 ead,tcheck) scf=(maxcycle=1)\\title\\0,1\C,0,-1.389194,-1.293128,0.002
 401\C,0,-0.055488,-1.71238,0.013509\C,0,1.006474,-0.815033,0.020312\C,
 0,-1.66631,0.072502,0.003495\C,0,-0.618436,1.003777,0.01306\C,0,0.6983
 84,0.562364,0.016586\H,0,0.151171,-2.776898,0.018623\P,0,2.771537,-1.3
 25301,-0.117434\H,0,-2.179426,-2.030535,-0.00115\H,0,-0.876883,2.05314
 2,0.018387\O,0,1.779086,1.394016,0.028705\C,0,1.568535,2.798569,-0.025

 Normal termination of Gaussian 16 at Tue Apr  8 23:36:34 2025.
