 Gaussian 16, Revision C.01,

 ----------------------------------------------------------------------
 #t hf aug-cc-pvdz symm=none int=(grid=ultrafine) guess=(read,tcheck) s
 table=(opt,rrhf)
 ----------------------------------------------------------------------
 -----
 title
 -----
 Symbolic Z-matrix:
 Charge =  0 Multiplicity = 1

 SCF Done:  E(RHF) =  -862.152992034     A.U. after   15 cycles
 Normal termination of Gaussian 16 at Tue Apr  8 23:42:10 2025.
 Gaussian 16:  ES64L-G16RevC.01  3-Jul-2019

 ----------------------------------------------------------------------
 #t hf aug-cc-pvdz iop(5/13=1,5/36=2,99/5=2) pseudo=read geom=check gue
 ss=(read,tcheck) scf=(maxcycle=1)
 ----------------------------------------------------------------------
 -----
 title
 -----
 Structure from the checkpoint file:  "BDE49_nonexpt_1652_mol1.chk"
 Charge =  0 Multiplicity = 1

                         Standard orientation:
 ---------------------------------------------------------------------
 Center     Atomic      Atomic             Coordinates (Angstroms)
 Number     Number       Type             X           Y           Z
 ---------------------------------------------------------------------
      1          6           0        0.355685    0.230012    0.316371
      2          6           0        0.897219   -1.051449    0.512388
      3          6           0        2.223627   -1.326484    0.192491
      4          6           0        3.037052   -0.323459   -0.333125
      5          6           0        2.519079    0.953214   -0.535921
      6          6           0        1.190820    1.225803   -0.213624
      7         15           0       -2.813155   -0.571450   -0.662175
      8          1           0        2.623445   -2.321605    0.353202
      9          1           0        4.070549   -0.537022   -0.582290
     10          1           0        3.148336    1.736986   -0.943062
     11          1           0        0.802822    2.226723   -0.373614
     12          1           0        0.279051   -1.845217    0.920684
     13         14           0       -1.435110    0.603985    0.730490
     14          1           0       -2.581056    0.266389   -1.784535
     15          1           0       -3.986675    0.122962   -0.263043
     16          1           0       -1.644300    2.069110    0.642402
     17          1           0       -1.764207    0.151801    2.104530
 ---------------------------------------------------------------------

 SCF Done:  E(RHF) =  -862.472522441     A.U. after    2 cycles

 The electronic state is 1-A.
 Alpha  occ. eigenvalues --  -84.26291 -69.54026 -11.25282 -11.25253 -11.25173
 Alpha  occ. eigenvalues --  -11.24812 -11.24793 -11.23804  -6.73547  -6.21022
 Alpha  occ. eigenvalues --   -4.25912  -4.25740  -4.25225  -3.96362  -3.96341
 Alpha  occ. eigenvalues --   -3.96334  -1.15730  -1.02196  -1.02186  -0.87215
 Alpha  occ. eigenvalues --   -0.83841  -0.83279  -0.73906  -0.68767  -0.64619
 Alpha  occ. eigenvalues --   -0.63919  -0.60492  -0.56681  -0.52393  -0.51197
 Alpha  occ. eigenvalues --   -0.50873  -0.49352  -0.46487  -0.43049  -0.35791
 Alpha  occ. eigenvalues --   -0.35075  -0.33520
 Alpha virt. eigenvalues --    0.03303   0.03637   0.03803   0.04652   0.05073
 Alpha virt. eigenvalues --    0.05486   0.07028   0.07294   0.08141   0.08683
 Alpha virt. eigenvalues --    0.08874   0.09684   0.09937   0.10368   0.11549

 Mulliken charges:
               1
     1  C   -0.685493
     2  C    0.441680
     3  C    0.454458
     4  C    0.268036
     5  C    0.492296
     6  C    0.235023
     7  P   -1.243081
     8  H   -0.219023
     9  H   -0.208234
    10  H   -0.217693
    11  H   -0.303633
    12  H   -0.286904
    13  Si   0.849376
    14  H    0.388540
    15  H    0.338922
    16  H   -0.176733
    17  H   -0.127539
 Sum of Mulliken charges =  -0.00000

 Dipole moment (field-independent basis, Debye):
    X=              0.8530    Y=              0.1960    Z=             -0.2132  Tot=              0.9008

 Test job not archived.
 1\1\GINC-SE247\SP\RHF\Aug-CC-pVDZ\C6H9P1Si1\OHZDE\08-Apr-2025\0\\#t hf
  aug-cc-pvdz iop(5/13=1,5/36=2,99/5=2) pseudo=read geom=check guess=(r
 ead,tcheck) scf=(maxcycle=1)\\title\\0,1\C,0,0.355685,0.230012,0.31637
 1\C,0,0.897219,-1.051449,0.512388\C,0,2.223627,-1.326484,0.192491\C,0,
 3.037052,-0.323459,-0.333125\C,0,2.519079,0.953214,-0.535921\C,0,1.190
 82,1.225803,-0.213624\P,0,-2.813155,-0.57145,-0.662175\H,0,2.623445,-2
 .321605,0.353202\H,0,4.070549,-0.537022,-0.58229\H,0,3.148336,1.736986
 ,-0.943062\H,0,0.802822,2.226723,-0.373614\H,0,0.279051,-1.845217,0.92

 Normal termination of Gaussian 16 at Tue Apr  8 23:42:18 2025.
