 Gaussian 16, Revision C.01,

 ----------------------------------------------------------------------
 #t hf aug-cc-pvdz symm=none int=(grid=ultrafine) guess=(read,tcheck) s
 table=opt
 ----------------------------------------------------------------------
 -----
 title
 -----
 Symbolic Z-matrix:
 Charge =  0 Multiplicity = 2

 SCF Done:  E(UHF) =  -446.817430299     A.U. after   14 cycles
 Normal termination of Gaussian 16 at Tue Apr  8 23:06:14 2025.
 Gaussian 16:  ES64L-G16RevC.01  3-Jul-2019

 ----------------------------------------------------------------------
 #t hf aug-cc-pvdz iop(5/13=1,5/36=2,99/5=2) pseudo=read geom=check gue
 ss=(read,tcheck) scf=(maxcycle=1)
 ----------------------------------------------------------------------
 -----
 title
 -----
 Structure from the checkpoint file:  "BDE49_expt_396_mol2.chk"
 Charge =  0 Multiplicity = 2

                         Standard orientation:
 ---------------------------------------------------------------------
 Center     Atomic      Atomic             Coordinates (Angstroms)
 Number     Number       Type             X           Y           Z
 ---------------------------------------------------------------------
      1          6           0       -0.000025   -0.353647    1.866209
      2         14           0       -0.000001   -0.012198    0.042449
      3          1           0       -0.911204   -0.444039    2.453039
      4          1           0        0.911140   -0.444050    2.453059
      5          6           0       -1.546635   -0.761850   -0.729263
      6          1           0       -1.573345   -1.847274   -0.596214
      7          1           0       -1.590684   -0.556358   -1.803558
      8          1           0       -2.454324   -0.349511   -0.277531
      9          6           0        1.546570   -0.761993   -0.729251
     10          1           0        1.590648   -0.556501   -1.803545
     11          1           0        1.573179   -1.847420   -0.596204
     12          1           0        2.454294   -0.349737   -0.277509
     13          6           0        0.000088    1.851426   -0.265714
     14          1           0       -0.882905    2.327226    0.170855
     15          1           0        0.000105    2.067677   -1.339424
     16          1           0        0.883119    2.327143    0.170867
 ---------------------------------------------------------------------

 SCF Done:  E(UHF) =  -447.029250126     A.U. after    2 cycles

 The electronic state is 2-A.
 Alpha  occ. eigenvalues --  -69.50811 -11.22952 -11.20582 -11.20580 -11.20512
 Alpha  occ. eigenvalues --   -6.17787  -3.93156  -3.93131  -3.93106  -0.98548
 Alpha  occ. eigenvalues --   -0.92456  -0.92368  -0.92265  -0.64914  -0.58507
 Alpha  occ. eigenvalues --   -0.57506  -0.56506  -0.55928  -0.54456  -0.53879
 Alpha  occ. eigenvalues --   -0.53271  -0.46859  -0.45243  -0.43625  -0.37173
 Alpha virt. eigenvalues --    0.03213   0.03973   0.04069   0.04370   0.06339
 Alpha virt. eigenvalues --    0.06503   0.06612   0.06791   0.07280   0.09261
 Alpha virt. eigenvalues --    0.09390   0.10402   0.11008   0.11904   0.13188

  Beta  occ. eigenvalues --  -69.50878 -11.20762 -11.20562 -11.20559 -11.20408
  Beta  occ. eigenvalues --   -6.17886  -3.93301  -3.93206  -3.93201  -0.97508
  Beta  occ. eigenvalues --   -0.92407  -0.92120  -0.84448  -0.64412  -0.57455
  Beta  occ. eigenvalues --   -0.57348  -0.56324  -0.55657  -0.54160  -0.53629
  Beta  occ. eigenvalues --   -0.53232  -0.44757  -0.43499  -0.43464
  Beta virt. eigenvalues --    0.03266   0.03853   0.03985   0.04126   0.06354
  Beta virt. eigenvalues --    0.06393   0.06627   0.06804   0.06812   0.08615
  Beta virt. eigenvalues --    0.09268   0.09392   0.11198   0.11803   0.12125

 Mulliken charges and spin densities:
               1          2
     1  C   -0.495754   1.283577
     2  Si   2.620917  -0.201214
     3  H   -0.077735  -0.077030
     4  H   -0.077753  -0.077029
     5  C   -0.546561   0.001422
     6  H   -0.041354   0.011793
     7  H    0.002528   0.001074
     8  H   -0.049223   0.000950
     9  C   -0.546562   0.001424
    10  H    0.002533   0.001075
    11  H   -0.041354   0.011794
    12  H   -0.049219   0.000950
    13  C   -0.590963   0.014336
    14  H   -0.072432   0.010469
    15  H    0.035360   0.005939
    16  H   -0.072429   0.010468
 Sum of Mulliken charges =  -0.00000   1.00000

 Dipole moment (field-independent basis, Debye):
    X=             -0.0000    Y=             -0.0083    Z=              0.0102  Tot=              0.0132
                          Isotropic Fermi Contact Couplings
        Atom                 a.u.       MegaHertz       Gauss      10(-4) cm-1
     1  C(13)              0.17626     198.15346      70.70608      66.09688
     2  Si(29)            -0.08347      74.17819      26.46862      24.74318
     3  H(1)              -0.02154     -96.26587     -34.35006     -32.11084
     4  H(1)              -0.02154     -96.26560     -34.34996     -32.11075
     5  C(13)              0.00435       4.88761       1.74402       1.63033
     6  H(1)              -0.00009      -0.39225      -0.13996      -0.13084
     7  H(1)               0.00001       0.05814       0.02075       0.01939
     8  H(1)              -0.00022      -1.00284      -0.35784      -0.33451

 Normal termination of Gaussian 16 at Tue Apr  8 23:06:20 2025.
