 Gaussian 16, Revision C.01,

 ----------------------------------------------------------------------
 #t hf aug-cc-pvdz symm=none int=(grid=ultrafine) guess=(read,tcheck) s
 table=opt
 ----------------------------------------------------------------------
 -----
 title
 -----
 Symbolic Z-matrix:
 Charge =  0 Multiplicity = 2

 SCF Done:  E(UHF) =  -479.527326470     A.U. after   15 cycles
 Normal termination of Gaussian 16 at Tue Apr  8 23:42:16 2025.
 Gaussian 16:  ES64L-G16RevC.01  3-Jul-2019

 ----------------------------------------------------------------------
 #t hf aug-cc-pvdz iop(5/13=1,5/36=2,99/5=2) pseudo=read geom=check gue
 ss=(read,tcheck) scf=(maxcycle=1)
 ----------------------------------------------------------------------
 -----
 title
 -----
 Structure from the checkpoint file:  "BDE49_nonexpt_1677_mol2.chk"
 Charge =  0 Multiplicity = 2

                         Standard orientation:
 ---------------------------------------------------------------------
 Center     Atomic      Atomic             Coordinates (Angstroms)
 Number     Number       Type             X           Y           Z
 ---------------------------------------------------------------------
      1         14           0       -0.065488   -0.013760   -0.402501
      2          8           0       -0.530884    1.458431    0.187750
      3          6           0        1.716164   -0.215793    0.163399
      4          1           0        2.122889   -1.180423   -0.148993
      5          1           0        1.753954   -0.151971    1.256117
      6          1           0        2.340894    0.576544   -0.255398
      7          1           0       -1.472143    1.650693    0.203762
      8          8           0       -1.082355   -1.139426    0.286361
      9          1           0       -1.219830   -1.959489   -0.193764
 ---------------------------------------------------------------------

 SCF Done:  E(UHF) =  -479.750143672     A.U. after    2 cycles

 The electronic state is 2-A.
 Alpha  occ. eigenvalues --  -69.58042 -20.55280 -20.54778 -11.22160  -6.24370
 Alpha  occ. eigenvalues --   -4.00112  -3.99555  -3.99376  -1.44996  -1.42516
 Alpha  occ. eigenvalues --   -0.95857  -0.76197  -0.69820  -0.61514  -0.57677
 Alpha  occ. eigenvalues --   -0.56116  -0.55667  -0.53045  -0.51707  -0.48422
 Alpha  occ. eigenvalues --   -0.32355
 Alpha virt. eigenvalues --    0.03445   0.04453   0.04750   0.05435   0.06921
 Alpha virt. eigenvalues --    0.07619   0.08543   0.09584   0.12859   0.15070
 Alpha virt. eigenvalues --    0.16126   0.16275   0.17245   0.17979   0.20597

  Beta  occ. eigenvalues --  -69.57551 -20.54890 -20.54432 -11.21807  -6.23578
  Beta  occ. eigenvalues --   -3.99261  -3.99120  -3.98305  -1.43946  -1.41494
  Beta  occ. eigenvalues --   -0.94709  -0.74977  -0.69421  -0.58100  -0.56888
  Beta  occ. eigenvalues --   -0.55377  -0.54941  -0.50971  -0.50096  -0.46491
  Beta virt. eigenvalues --    0.02391   0.04575   0.04804   0.05395   0.06860
  Beta virt. eigenvalues --    0.07056   0.07784   0.09156   0.10075   0.14181
  Beta virt. eigenvalues --    0.15830   0.16229   0.17284   0.18451   0.18990

 Mulliken charges and spin densities:
               1          2
     1  Si   2.318808   0.865037
     2  O   -1.362020   0.037503
     3  C   -0.639416   0.108569
     4  H    0.032050  -0.014294
     5  H    0.076252   0.003525
     6  H    0.056796  -0.008716
     7  H    0.432960  -0.003318
     8  O   -1.305222   0.034125
     9  H    0.389793  -0.022432
 Sum of Mulliken charges =  -0.00000   1.00000

 Dipole moment (field-independent basis, Debye):
    X=             -0.3402    Y=             -1.1917    Z=             -0.9304  Tot=              1.5496
                          Isotropic Fermi Contact Couplings
        Atom                 a.u.       MegaHertz       Gauss      10(-4) cm-1
     1  Si(29)             0.69952    -621.68282    -221.83189    -207.37107
     2  O(17)              0.03845     -23.30809      -8.31691      -7.77474
     3  C(13)              0.07519      84.53032      30.16252      28.19628
     4  H(1)              -0.00200      -8.95077      -3.19386      -2.98566
     5  H(1)               0.00512      22.90712       8.17383       7.64099
     6  H(1)              -0.00206      -9.19481      -3.28094      -3.06706
     7  H(1)              -0.00179      -7.99234      -2.85187      -2.66596
     8  O(17)              0.04243     -25.72160      -9.17811      -8.57980

 Normal termination of Gaussian 16 at Tue Apr  8 23:42:18 2025.
