 Gaussian 16, Revision C.01,

 ----------------------------------------------------------------------
 #t hf aug-cc-pvdz symm=none int=(grid=ultrafine) guess=(read,tcheck) s
 table=opt
 ----------------------------------------------------------------------
 -----
 title
 -----
 Symbolic Z-matrix:
 Charge =  0 Multiplicity = 2

 SCF Done:  E(UHF) =  -149.636300489     A.U. after   18 cycles
 Normal termination of Gaussian 16 at Tue Apr  8 22:50:32 2025.
 Gaussian 16:  ES64L-G16RevC.01  3-Jul-2019

 ----------------------------------------------------------------------
 #t hf aug-cc-pvdz iop(5/13=1,5/36=2,99/5=2) pseudo=read geom=check gue
 ss=(read,tcheck) scf=(maxcycle=1)
 ----------------------------------------------------------------------
 -----
 title
 -----
 Structure from the checkpoint file:  "BDE49_expt_1749_mol2.chk"
 Charge =  0 Multiplicity = 2

                         Standard orientation:
 ---------------------------------------------------------------------
 Center     Atomic      Atomic             Coordinates (Angstroms)
 Number     Number       Type             X           Y           Z
 ---------------------------------------------------------------------
      1          7           0        1.133378    0.199966    0.086943
      2          7           0        0.062110   -0.615970   -0.037986
      3          1           0        1.062402    1.150029   -0.280109
      4          1           0        2.001484   -0.260573   -0.149212
      5          6           0       -1.159169    0.156774    0.005398
      6          1           0       -1.168591    0.967258   -0.745371
      7          1           0       -1.306712    0.620394    0.992822
      8          1           0       -2.001986   -0.505726   -0.193214
 ---------------------------------------------------------------------

 SCF Done:  E(UHF) =  -149.794568911     A.U. after    2 cycles

 The electronic state is 2-A.
 Alpha  occ. eigenvalues --  -15.53595 -15.53101 -11.25581  -1.31424  -1.07202
 Alpha  occ. eigenvalues --   -0.89696  -0.74430  -0.70147  -0.67495  -0.56751
 Alpha  occ. eigenvalues --   -0.54388  -0.49255  -0.39884
 Alpha virt. eigenvalues --    0.03374   0.05218   0.05664   0.06053   0.06995
 Alpha virt. eigenvalues --    0.09924   0.14295   0.14488   0.15980   0.17170
 Alpha virt. eigenvalues --    0.18236   0.20167   0.21442   0.22009   0.22868

  Beta  occ. eigenvalues --  -15.52732 -15.50066 -11.25886  -1.26496  -1.03621
  Beta  occ. eigenvalues --   -0.86464  -0.73735  -0.66821  -0.58735  -0.56376
  Beta  occ. eigenvalues --   -0.48486  -0.45245
  Beta virt. eigenvalues --    0.03426   0.05208   0.05607   0.05988   0.07006
  Beta virt. eigenvalues --    0.09931   0.10678   0.14515   0.15040   0.16162
  Beta virt. eigenvalues --    0.17414   0.18401   0.20247   0.21487   0.22833

 Mulliken charges and spin densities:
               1          2
     1  N   -0.078006   0.109905
     2  N   -0.100864   0.966651
     3  H    0.130676   0.002320
     4  H    0.084503  -0.016695
     5  C   -0.447605  -0.141591
     6  H    0.173848   0.028416
     7  H    0.184158   0.041636
     8  H    0.053290   0.009359
 Sum of Mulliken charges =   0.00000   1.00000

 Dipole moment (field-independent basis, Debye):
    X=              0.0949    Y=              1.9140    Z=             -0.8597  Tot=              2.1003
                          Isotropic Fermi Contact Couplings
        Atom                 a.u.       MegaHertz       Gauss      10(-4) cm-1
     1  N(14)              0.05935      19.17585       6.84242       6.39638
     2  N(14)              0.32748     105.81037      37.75577      35.29454
     3  H(1)               0.00268      11.99173       4.27895       4.00001
     4  H(1)              -0.00133      -5.92413      -2.11388      -1.97608
     5  C(13)             -0.04818     -54.16725     -19.32822     -18.06825
     6  H(1)               0.01299      58.07696      20.72330      19.37239
     7  H(1)               0.01843      82.36545      29.39004      27.47416
     8  H(1)               0.00119       5.31561       1.89674       1.77310

 Normal termination of Gaussian 16 at Tue Apr  8 22:50:34 2025.
