 Gaussian 16, Revision C.01,

 ----------------------------------------------------------------------
 #t hf aug-cc-pvdz symm=none int=(grid=ultrafine) guess=(read,tcheck) s
 table=opt
 ----------------------------------------------------------------------
 -----
 title
 -----
 Symbolic Z-matrix:
 Charge =  0 Multiplicity = 2

 SCF Done:  E(UHF) =  -404.597406752     A.U. after   14 cycles
 Normal termination of Gaussian 16 at Wed Apr  9 00:07:28 2025.
 Gaussian 16:  ES64L-G16RevC.01  3-Jul-2019

 ----------------------------------------------------------------------
 #t hf aug-cc-pvdz iop(5/13=1,5/36=2,99/5=2) pseudo=read geom=check gue
 ss=(read,tcheck) scf=(maxcycle=1)
 ----------------------------------------------------------------------
 -----
 title
 -----
 Structure from the checkpoint file:  "BDE49_nonexpt_2273_mol2.chk"
 Charge =  0 Multiplicity = 2

                         Standard orientation:
 ---------------------------------------------------------------------
 Center     Atomic      Atomic             Coordinates (Angstroms)
 Number     Number       Type             X           Y           Z
 ---------------------------------------------------------------------
      1         14           0        0.118723    0.537278   -0.136499
      2          8           0        1.308652   -0.610912    0.053954
      3          1           0        2.222317   -0.315464    0.058629
      4          6           0       -1.510987   -0.373024    0.041801
      5          1           0       -1.656477   -1.089341   -0.769880
      6          1           0       -2.345308    0.333483    0.031376
      7          1           0       -1.530794   -0.920459    0.990228
      8          1           0        0.244856    1.595324    0.918190
 ---------------------------------------------------------------------

 SCF Done:  E(UHF) =  -404.747526076     A.U. after    2 cycles

 The electronic state is 2-A.
 Alpha  occ. eigenvalues --  -69.55820 -20.55095 -11.22160  -6.22495  -3.98330
 Alpha  occ. eigenvalues --   -3.97638  -3.97489  -1.43593  -0.95783  -0.74646
 Alpha  occ. eigenvalues --   -0.64342  -0.57711  -0.56079  -0.54259  -0.52534
 Alpha  occ. eigenvalues --   -0.46139  -0.32176
 Alpha virt. eigenvalues --    0.03582   0.04179   0.05046   0.05412   0.07366
 Alpha virt. eigenvalues --    0.08058   0.08624   0.09564   0.13672   0.15321
 Alpha virt. eigenvalues --    0.16012   0.16409   0.17177   0.18128   0.21398

  Beta  occ. eigenvalues --  -69.55307 -20.54706 -11.22029  -6.21692  -3.97334
  Beta  occ. eigenvalues --   -3.97177  -3.96374  -1.42550  -0.95062  -0.73083
  Beta  occ. eigenvalues --   -0.61908  -0.56352  -0.55796  -0.52290  -0.50639
  Beta  occ. eigenvalues --   -0.44745
  Beta virt. eigenvalues --    0.02983   0.04239   0.04702   0.05197   0.06709
  Beta virt. eigenvalues --    0.07449   0.08244   0.09395   0.10226   0.15045
  Beta virt. eigenvalues --    0.15927   0.16323   0.16833   0.17693   0.19552

 Mulliken charges and spin densities:
               1          2
     1  Si   1.584208   0.844521
     2  O   -1.342366   0.054779
     3  H    0.435198  -0.009368
     4  C   -0.652097   0.029841
     5  H    0.093550  -0.001958
     6  H    0.026842  -0.004709
     7  H    0.068942   0.009170
     8  H   -0.214276   0.077725
 Sum of Mulliken charges =  -0.00000   1.00000

 Dipole moment (field-independent basis, Debye):
    X=              0.2827    Y=              0.5307    Z=              0.0636  Tot=              0.6047
                          Isotropic Fermi Contact Couplings
        Atom                 a.u.       MegaHertz       Gauss      10(-4) cm-1
     1  Si(29)             0.63321    -562.74700    -200.80212    -187.71219
     2  O(17)              0.03868     -23.44814      -8.36688      -7.82146
     3  H(1)              -0.00161      -7.18868      -2.56510      -2.39789
     4  C(13)              0.02848      32.01369      11.42328      10.67862
     5  H(1)               0.00024       1.05372       0.37599       0.35148
     6  H(1)              -0.00095      -4.25783      -1.51930      -1.42026
     7  H(1)               0.00747      33.40593      11.92006      11.14302
     8  H(1)               0.02002      89.48998      31.93225      29.85064

 Normal termination of Gaussian 16 at Wed Apr  9 00:07:30 2025.
