 Gaussian 16, Revision C.01,

 ----------------------------------------------------------------------
 #t hf aug-cc-pvdz symm=none int=(grid=ultrafine) guess=(read,tcheck) s
 table=(opt,rrhf)
 ----------------------------------------------------------------------
 -----
 title
 -----
 Symbolic Z-matrix:
 Charge =  0 Multiplicity = 1

 SCF Done:  E(RHF) =  -1350.86032006     A.U. after   15 cycles
 Normal termination of Gaussian 16 at Tue Apr  8 23:53:59 2025.
 Gaussian 16:  ES64L-G16RevC.01  3-Jul-2019

 ----------------------------------------------------------------------
 #t hf aug-cc-pvdz iop(5/13=1,5/36=2,99/5=2) pseudo=read geom=check gue
 ss=(read,tcheck) scf=(maxcycle=1)
 ----------------------------------------------------------------------
 -----
 title
 -----
 Structure from the checkpoint file:  "BDE49_nonexpt_1941_mol1.chk"
 Charge =  0 Multiplicity = 1

                         Standard orientation:
 ---------------------------------------------------------------------
 Center     Atomic      Atomic             Coordinates (Angstroms)
 Number     Number       Type             X           Y           Z
 ---------------------------------------------------------------------
      1          6           0       -1.230257    1.073071    0.759788
      2         14           0        0.478377    1.468692    0.039229
      3          6           0        1.613681   -0.043997    0.431247
      4          1           0        1.062209    2.612439    0.772268
      5          1           0        0.433866    1.741908   -1.410977
      6          8           0        1.507585   -0.621277    1.484497
      7         16           0        2.847772   -0.494962   -0.819319
      8          1           0        3.404434   -1.474535   -0.081196
      9          6           0       -2.089544    0.250141   -0.168663
     10          8           0       -2.780493    0.712953   -1.034358
     11         16           0       -1.948338   -1.541900    0.112787
     12          1           0       -2.759490   -1.851500   -0.912729
     13          1           0       -1.746459    2.020235    0.936132
     14          1           0       -1.062809    0.570841    1.716446
 ---------------------------------------------------------------------

 SCF Done:  E(RHF) =  -1351.26947636     A.U. after    2 cycles

 The electronic state is 1-A.
 Alpha  occ. eigenvalues --  -93.98261 -93.97946 -69.57211 -20.57389 -20.56012
 Alpha  occ. eigenvalues --  -11.39377 -11.37979 -11.26636  -8.26471  -8.26130
 Alpha  occ. eigenvalues --   -6.24302  -6.24260  -6.24143  -6.23960  -6.23950
 Alpha  occ. eigenvalues --   -6.23809  -6.23605  -3.99631  -3.99605  -3.99589
 Alpha  occ. eigenvalues --   -1.50712  -1.50371  -1.08511  -1.06362  -1.01270
 Alpha  occ. eigenvalues --   -0.84629  -0.77514  -0.72423  -0.67923  -0.66289
 Alpha  occ. eigenvalues --   -0.65173  -0.63293  -0.59982  -0.57482  -0.57158
 Alpha  occ. eigenvalues --   -0.54377  -0.53175  -0.51329  -0.48871  -0.41836
 Alpha  occ. eigenvalues --   -0.40554  -0.40413  -0.39996
 Alpha virt. eigenvalues --    0.03160   0.04009   0.04379   0.04676   0.05754
 Alpha virt. eigenvalues --    0.06706   0.07285   0.07601   0.08000   0.08415
 Alpha virt. eigenvalues --    0.08912   0.10208   0.10482   0.11237   0.12148

 Mulliken charges:
               1
     1  C   -0.646489
     2  Si   1.253019
     3  C    0.287274
     4  H   -0.168280
     5  H   -0.093231
     6  O   -1.072861
     7  S   -0.080929
     8  H    0.384205
     9  C    0.921497
    10  O   -1.282375
    11  S   -0.108851
    12  H    0.374953
    13  H    0.084673
    14  H    0.147395
 Sum of Mulliken charges =  -0.00000

 Dipole moment (field-independent basis, Debye):
    X=              0.9050    Y=              0.6244    Z=              0.3487  Tot=              1.1535

 Test job not archived.
 1\1\GINC-SE402\SP\RHF\Aug-CC-pVDZ\C3H6O2S2Si1\OHZDE\08-Apr-2025\0\\#t
 hf aug-cc-pvdz iop(5/13=1,5/36=2,99/5=2) pseudo=read geom=check guess=
 (read,tcheck) scf=(maxcycle=1)\\title\\0,1\C,0,-1.230257,1.073071,0.75
 9788\Si,0,0.478377,1.468692,0.039229\C,0,1.613681,-0.043997,0.431247\H
 ,0,1.062209,2.612439,0.772268\H,0,0.433866,1.741908,-1.410977\O,0,1.50
 7585,-0.621277,1.484497\S,0,2.847772,-0.494962,-0.819319\H,0,3.404434,
 -1.474535,-0.081196\C,0,-2.089544,0.250141,-0.168663\O,0,-2.780493,0.7
 12953,-1.034358\S,0,-1.948338,-1.5419,0.112787\H,0,-2.75949,-1.8515,-0

 Normal termination of Gaussian 16 at Tue Apr  8 23:54:04 2025.
