 Gaussian 16, Revision C.01,

 ----------------------------------------------------------------------
 #t hf aug-cc-pvdz symm=none int=(grid=ultrafine) guess=(read,tcheck) s
 table=(opt,rrhf)
 ----------------------------------------------------------------------
 -----
 title
 -----
 Symbolic Z-matrix:
 Charge =  0 Multiplicity = 1

 SCF Done:  E(RHF) =  -551.599056769     A.U. after   13 cycles
 Normal termination of Gaussian 16 at Tue Apr  8 22:43:29 2025.
 Gaussian 16:  ES64L-G16RevC.01  3-Jul-2019

 ----------------------------------------------------------------------
 #t hf aug-cc-pvdz iop(5/13=1,5/36=2,99/5=2) pseudo=read geom=check gue
 ss=(read,tcheck) scf=(maxcycle=1)
 ----------------------------------------------------------------------
 -----
 title
 -----
 Structure from the checkpoint file:  "BDE49_expt_1495_mol1.chk"
 Charge =  0 Multiplicity = 1

                         Standard orientation:
 ---------------------------------------------------------------------
 Center     Atomic      Atomic             Coordinates (Angstroms)
 Number     Number       Type             X           Y           Z
 ---------------------------------------------------------------------
      1          6           0       -1.578884    0.808693    0.045409
      2         16           0       -0.568110   -0.681800   -0.158336
      3          1           0       -1.191757    1.651912   -0.528269
      4          1           0       -1.661116    1.067197    1.101469
      5          1           0       -2.568904    0.545560   -0.337941
      6          8           0        0.860049   -0.206802    0.604918
      7          6           0        1.814445    0.438395   -0.246150
      8          1           0        1.434545    1.392271   -0.627921
      9          1           0        2.094063   -0.201461   -1.088245
     10          1           0        2.689168    0.625219    0.379384
 ---------------------------------------------------------------------

 SCF Done:  E(RHF) =  -551.821406800     A.U. after    2 cycles

 The electronic state is 1-A.
 Alpha  occ. eigenvalues --  -93.99096 -20.57265 -11.29041 -11.26899  -8.26566
 Alpha  occ. eigenvalues --   -6.24414  -6.24173  -6.23928  -1.46165  -1.05372
 Alpha  occ. eigenvalues --   -0.94242  -0.84776  -0.64928  -0.64465  -0.62973
 Alpha  occ. eigenvalues --   -0.59286  -0.58086  -0.52330  -0.48704  -0.42502
 Alpha  occ. eigenvalues --   -0.35552
 Alpha virt. eigenvalues --    0.03568   0.04227   0.05114   0.05401   0.06735
 Alpha virt. eigenvalues --    0.07970   0.08946   0.10885   0.12864   0.13226
 Alpha virt. eigenvalues --    0.14914   0.15823   0.16299   0.16592   0.17208

 Mulliken charges:
               1
     1  C   -0.772467
     2  S    0.844847
     3  H    0.170751
     4  H    0.207244
     5  H    0.193339
     6  O   -1.243258
     7  C    0.296587
     8  H    0.141851
     9  H    0.146466
    10  H    0.014640
 Sum of Mulliken charges =  -0.00000

 Dipole moment (field-independent basis, Debye):
    X=             -0.1916    Y=              1.9172    Z=             -0.8686  Tot=              2.1135

 Test job not archived.
 1\1\GINC-SE361\SP\RHF\Aug-CC-pVDZ\C2H6O1S1\OHZDE\08-Apr-2025\0\\#t hf
 aug-cc-pvdz iop(5/13=1,5/36=2,99/5=2) pseudo=read geom=check guess=(re
 ad,tcheck) scf=(maxcycle=1)\\title\\0,1\C,0,-1.578884,0.808693,0.04540
 9\S,0,-0.56811,-0.6818,-0.158336\H,0,-1.191757,1.651912,-0.528269\H,0,
 -1.661116,1.067197,1.101469\H,0,-2.568904,0.54556,-0.337941\O,0,0.8600
 49,-0.206802,0.604918\C,0,1.814445,0.438395,-0.24615\H,0,1.434545,1.39
 2271,-0.627921\H,0,2.094063,-0.201461,-1.088245\H,0,2.689168,0.62522,0
 .379384\\Version=ES64L-G16RevC.01\State=1-A\HF=-551.8214068\RMSD=5.648

 Normal termination of Gaussian 16 at Tue Apr  8 22:43:31 2025.
