 Gaussian 16, Revision C.01,

 ----------------------------------------------------------------------
 #t hf aug-cc-pvdz symm=none int=(grid=ultrafine) guess=(read,tcheck) s
 table=(opt,rrhf)
 ----------------------------------------------------------------------
 -----
 title
 -----
 Symbolic Z-matrix:
 Charge =  0 Multiplicity = 1

 SCF Done:  E(RHF) =  -661.648843952     A.U. after   14 cycles
 Normal termination of Gaussian 16 at Wed Apr  9 00:41:05 2025.
 Gaussian 16:  ES64L-G16RevC.01  3-Jul-2019

 ----------------------------------------------------------------------
 #t hf aug-cc-pvdz iop(5/13=1,5/36=2,99/5=2) pseudo=read geom=check gue
 ss=(read,tcheck) scf=(maxcycle=1)
 ----------------------------------------------------------------------
 -----
 title
 -----
 Structure from the checkpoint file:  "BDE49_nonexpt_677_mol1.chk"
 Charge =  0 Multiplicity = 1

                         Standard orientation:
 ---------------------------------------------------------------------
 Center     Atomic      Atomic             Coordinates (Angstroms)
 Number     Number       Type             X           Y           Z
 ---------------------------------------------------------------------
      1          8           0       -0.709077   -0.653894   -0.446353
      2          5           0       -1.896650    0.006290   -0.068313
      3          8           0       -2.911681   -0.851689    0.182568
      4          8           0       -2.018754    1.351117    0.024762
      5          8           0        0.320069    0.330871   -0.714536
      6          6           0        1.419627   -0.017747    0.038598
      7          9           0        2.337984    0.902215   -0.250856
      8          9           0        1.885089   -1.224474   -0.265171
      9          9           0        1.160293    0.015333    1.350494
     10          1           0       -1.208512    1.819953   -0.200038
     11          1           0       -3.720750   -0.393827    0.428298
 ---------------------------------------------------------------------

 SCF Done:  E(RHF) =  -662.269460982     A.U. after    2 cycles

 The electronic state is 1-A.
 Alpha  occ. eigenvalues --  -26.53610 -26.53170 -26.53007 -20.68562 -20.65761
 Alpha  occ. eigenvalues --  -20.58630 -20.57973 -11.59509  -7.70464  -1.76361
 Alpha  occ. eigenvalues --   -1.64973  -1.64705  -1.64337  -1.50951  -1.47466
 Alpha  occ. eigenvalues --   -1.36333  -0.96880  -0.86149  -0.85491  -0.84964
 Alpha  occ. eigenvalues --   -0.80050  -0.77741  -0.73893  -0.72055  -0.70500
 Alpha  occ. eigenvalues --   -0.67831  -0.66202  -0.65965  -0.64498  -0.64101
 Alpha  occ. eigenvalues --   -0.60673  -0.59312  -0.58328  -0.55319  -0.52474
 Alpha  occ. eigenvalues --   -0.51124
 Alpha virt. eigenvalues --    0.03779   0.04806   0.05457   0.06052   0.07849
 Alpha virt. eigenvalues --    0.09225   0.09908   0.10952   0.11859   0.15679
 Alpha virt. eigenvalues --    0.16825   0.18830   0.19708   0.20330   0.20924

 Mulliken charges:
               1
     1  O   -0.716478
     2  B    1.909995
     3  O   -1.076948
     4  O   -1.113376
     5  O   -1.022968
     6  C    3.028760
     7  F   -0.666477
     8  F   -0.674725
     9  F   -0.690051
    10  H    0.610387
    11  H    0.411882
 Sum of Mulliken charges =  -0.00000

 Dipole moment (field-independent basis, Debye):
    X=             -1.1209    Y=              1.6326    Z=              0.1982  Tot=              1.9903

 Test job not archived.
 1\1\GINC-SE072\SP\RHF\Aug-CC-pVDZ\C1H2B1F3O4\OHZDE\09-Apr-2025\0\\#t h
 f aug-cc-pvdz iop(5/13=1,5/36=2,99/5=2) pseudo=read geom=check guess=(
 read,tcheck) scf=(maxcycle=1)\\title\\0,1\O,0,-0.709077,-0.653894,-0.4
 46353\B,0,-1.89665,0.00629,-0.068313\O,0,-2.911681,-0.851689,0.182568\
 O,0,-2.018754,1.351117,0.024762\O,0,0.320069,0.330871,-0.714536\C,0,1.
 419627,-0.017747,0.038598\F,0,2.337984,0.902215,-0.250856\F,0,1.885089
 ,-1.224474,-0.265171\F,0,1.160293,0.015333,1.350494\H,0,-1.208512,1.81
 9953,-0.200038\H,0,-3.72075,-0.393827,0.428298\\Version=ES64L-G16RevC.

 Normal termination of Gaussian 16 at Wed Apr  9 00:41:10 2025.
