 Gaussian 16, Revision C.01,

 ----------------------------------------------------------------------
 #t hf aug-cc-pvdz symm=none int=(grid=ultrafine) guess=(read,tcheck) s
 table=(opt,rrhf)
 ----------------------------------------------------------------------
 -----
 title
 -----
 Symbolic Z-matrix:
 Charge =  0 Multiplicity = 1

 SCF Done:  E(RHF) =  -611.236564002     A.U. after   15 cycles
 Normal termination of Gaussian 16 at Wed Apr  9 00:53:49 2025.
 Gaussian 16:  ES64L-G16RevC.01  3-Jul-2019

 ----------------------------------------------------------------------
 #t hf aug-cc-pvdz iop(5/13=1,5/36=2,99/5=2) pseudo=read geom=check gue
 ss=(read,tcheck) scf=(maxcycle=1)
 ----------------------------------------------------------------------
 -----
 title
 -----
 Structure from the checkpoint file:  "BDE49_nonexpt_975_mol1.chk"
 Charge =  0 Multiplicity = 1

                         Standard orientation:
 ---------------------------------------------------------------------
 Center     Atomic      Atomic             Coordinates (Angstroms)
 Number     Number       Type             X           Y           Z
 ---------------------------------------------------------------------
      1          9           0       -1.108142    2.133995   -0.322024
      2          9           0        2.320273   -0.937588    0.124668
      3          8           0        1.628568    1.826079    0.159161
      4          8           0       -0.087699   -2.445297   -0.169822
      5          7           0       -0.568765    0.977893    0.251035
      6          7           0        1.079792   -0.434381   -0.100109
      7          6           0        0.837116    0.940509    0.101594
      8          6           0       -0.039993   -1.250791   -0.180016
      9          6           0       -1.193261   -0.238577   -0.296643
     10          1           0       -1.382510   -0.083624   -1.366379
     11          6           0       -2.457231   -0.658497    0.432504
     12          1           0       -2.263385   -0.784706    1.498719
     13          1           0       -2.815902   -1.605199    0.025874
     14          1           0       -3.231309    0.099168    0.302167
 ---------------------------------------------------------------------

 SCF Done:  E(RHF) =  -611.818185631     A.U. after    2 cycles

 The electronic state is 1-A.
 Alpha  occ. eigenvalues --  -26.55621 -26.53008 -20.58585 -20.58312 -15.67992
 Alpha  occ. eigenvalues --  -15.66243 -11.45787 -11.43237 -11.35041 -11.27358
 Alpha  occ. eigenvalues --   -1.68204  -1.64715  -1.53924  -1.53243  -1.35634
 Alpha  occ. eigenvalues --   -1.21217  -1.10093  -0.99006  -0.92117  -0.89559
 Alpha  occ. eigenvalues --   -0.80829  -0.79221  -0.76713  -0.75266  -0.72259
 Alpha  occ. eigenvalues --   -0.71698  -0.68641  -0.67338  -0.65754  -0.64518
 Alpha  occ. eigenvalues --   -0.60678  -0.59843  -0.59016  -0.57921  -0.52101
 Alpha  occ. eigenvalues --   -0.50212  -0.48716  -0.47761
 Alpha virt. eigenvalues --    0.02832   0.03860   0.04726   0.05062   0.07925
 Alpha virt. eigenvalues --    0.08634   0.09305   0.09640   0.09813   0.10279
 Alpha virt. eigenvalues --    0.11972   0.12836   0.12915   0.13495   0.14203

 Mulliken charges:
               1
     1  F   -0.695987
     2  F   -0.727365
     3  O   -1.090570
     4  O   -1.185304
     5  N    1.335705
     6  N    1.461721
     7  C    0.538507
     8  C    0.542321
     9  C   -1.043476
    10  H    0.238870
    11  C   -0.010578
    12  H    0.249570
    13  H    0.208609
    14  H    0.177976
 Sum of Mulliken charges =  -0.00000

 Dipole moment (field-independent basis, Debye):
    X=             -3.2574    Y=             -0.6852    Z=             -0.6745  Tot=              3.3963

 Test job not archived.
 1\1\GINC-SE187\SP\RHF\Aug-CC-pVDZ\C4H4F2N2O2\OHZDE\09-Apr-2025\0\\#t h
 f aug-cc-pvdz iop(5/13=1,5/36=2,99/5=2) pseudo=read geom=check guess=(
 read,tcheck) scf=(maxcycle=1)\\title\\0,1\F,0,-1.108137,2.133998,-0.32
 2024\F,0,2.320271,-0.937594,0.124668\O,0,1.628573,1.826075,0.159161\O,
 0,-0.087705,-2.445297,-0.169822\N,0,-0.568763,0.977894,0.251035\N,0,1.
 079791,-0.434384,-0.100109\C,0,0.837118,0.940507,0.101594\C,0,-0.03999
 6,-1.250791,-0.180016\C,0,-1.193262,-0.238574,-0.296643\H,0,-1.38251,-
 0.083621,-1.366379\C,0,-2.457233,-0.658491,0.432504\H,0,-2.263387,-0.7

 Normal termination of Gaussian 16 at Wed Apr  9 00:53:56 2025.
