 Gaussian 16, Revision C.01,

 ----------------------------------------------------------------------
 #t hf aug-cc-pvdz symm=none int=(grid=ultrafine) guess=(read,tcheck) s
 table=(opt,rrhf)
 ----------------------------------------------------------------------
 -----
 title
 -----
 Symbolic Z-matrix:
 Charge =  0 Multiplicity = 1

 SCF Done:  E(RHF) =  -698.721371926     A.U. after   17 cycles
 Normal termination of Gaussian 16 at Wed Apr  9 00:49:25 2025.
 Gaussian 16:  ES64L-G16RevC.01  3-Jul-2019

 ----------------------------------------------------------------------
 #t hf aug-cc-pvdz iop(5/13=1,5/36=2,99/5=2) pseudo=read geom=check gue
 ss=(read,tcheck) scf=(maxcycle=1)
 ----------------------------------------------------------------------
 -----
 title
 -----
 Structure from the checkpoint file:  "BDE49_nonexpt_772_mol1.chk"
 Charge =  0 Multiplicity = 1

                         Standard orientation:
 ---------------------------------------------------------------------
 Center     Atomic      Atomic             Coordinates (Angstroms)
 Number     Number       Type             X           Y           Z
 ---------------------------------------------------------------------
      1          6           0       -0.481114   -1.554459   -0.246490
      2          6           0       -1.723411   -2.135949   -0.158560
      3          6           0       -2.872144   -1.340997    0.049559
      4          6           0       -2.750247    0.021740    0.163741
      5          6           0       -1.481800    0.652237    0.077946
      6          6           0       -0.311304   -0.148774   -0.131207
      7          1           0        0.387296   -2.181481   -0.412769
      8          1           0       -1.824321   -3.211425   -0.251265
      9          1           0       -3.847141   -1.810166    0.116837
     10          1           0       -3.627708    0.640360    0.321776
     11          6           0        0.972606    0.487672   -0.222320
     12          6           0        1.040657    1.865276   -0.097782
     13          6           0       -1.346317    2.059544    0.196634
     14          6           0       -0.113318    2.653736    0.110353
     15          1           0       -2.237314    2.658042    0.356386
     16          1           0       -0.016208    3.730108    0.198132
     17          1           0        2.001127    2.364934   -0.168802
     18          5           0        2.993746   -1.374572    1.298297
     19         14           0        2.593706   -0.464280   -0.457211
     20          1           0        2.480475   -1.439268   -1.573748
     21          1           0        3.620700    0.539176   -0.831518
     22          1           0        2.473142   -2.405841    1.593161
     23          1           0        3.707681   -0.871819    2.110026
 ---------------------------------------------------------------------

 SCF Done:  E(RHF) =  -699.171924740     A.U. after    2 cycles

 The electronic state is 1-A.
 Alpha  occ. eigenvalues --  -69.51526 -11.25642 -11.25262 -11.25062 -11.25010
 Alpha  occ. eigenvalues --  -11.24795 -11.24758 -11.24629 -11.24607 -11.24577
 Alpha  occ. eigenvalues --  -11.23772  -7.60611  -6.18750  -3.94113  -3.94101
 Alpha  occ. eigenvalues --   -3.94057  -1.18008  -1.11392  -1.05392  -1.01264
 Alpha  occ. eigenvalues --   -0.98601  -0.86444  -0.84950  -0.83041  -0.75772
 Alpha  occ. eigenvalues --   -0.71816  -0.70920  -0.69504  -0.66197  -0.63277
 Alpha  occ. eigenvalues --   -0.61661  -0.60243  -0.58042  -0.56332  -0.54566
 Alpha  occ. eigenvalues --   -0.52467  -0.51380  -0.50307  -0.46784  -0.46679
 Alpha  occ. eigenvalues --   -0.45517  -0.42671  -0.38818  -0.33198  -0.30067
 Alpha virt. eigenvalues --    0.02440   0.03132   0.03277   0.03730   0.03983
 Alpha virt. eigenvalues --    0.04226   0.04893   0.05956   0.06511   0.06806
 Alpha virt. eigenvalues --    0.07319   0.07587   0.08216   0.08806   0.09117

 Mulliken charges:
               1
     1  C    0.298127
     2  C   -0.272854
     3  C   -0.208080
     4  C    0.407117
     5  C    0.995427
     6  C    1.838050
     7  H   -0.460034
     8  H   -0.246266
     9  H   -0.239298
    10  H   -0.308851
    11  C   -1.158104
    12  C    0.207020
    13  C    0.275855
    14  C   -0.217197
    15  H   -0.315186
    16  H   -0.245835
    17  H   -0.367619
    18  B   -0.975750
    19  Si   0.321858
    20  H   -0.009735
    21  H   -0.189478
    22  H    0.431912
    23  H    0.438925
 Sum of Mulliken charges =   0.00000

 Dipole moment (field-independent basis, Debye):
    X=             -0.5539    Y=              0.1536    Z=              0.3121  Tot=              0.6541

 Test job not archived.
 1\1\GINC-SE058\SP\RHF\Aug-CC-pVDZ\C10H11B1Si1\OHZDE\09-Apr-2025\0\\#t
 hf aug-cc-pvdz iop(5/13=1,5/36=2,99/5=2) pseudo=read geom=check guess=
 (read,tcheck) scf=(maxcycle=1)\\title\\0,1\C,0,-0.481114,-1.554459,-0.
 24649\C,0,-1.723411,-2.135949,-0.15856\C,0,-2.872144,-1.340996,0.04955
 9\C,0,-2.750247,0.021741,0.163741\C,0,-1.4818,0.652237,0.077946\C,0,-0
 .311304,-0.148774,-0.131207\H,0,0.387296,-2.181481,-0.412769\H,0,-1.82
 4322,-3.211425,-0.251265\H,0,-3.847141,-1.810165,0.116837\H,0,-3.62770
 8,0.640361,0.321776\C,0,0.972606,0.487672,-0.22232\C,0,1.040657,1.8652

 Normal termination of Gaussian 16 at Wed Apr  9 00:49:45 2025.
