 Gaussian 16, Revision C.01,

 ----------------------------------------------------------------------
 #t hf aug-cc-pvdz symm=none int=(grid=ultrafine) guess=(read,tcheck) s
 table=(opt,rrhf)
 ----------------------------------------------------------------------
 -----
 title
 -----
 Symbolic Z-matrix:
 Charge =  0 Multiplicity = 1

 SCF Done:  E(RHF) =  -934.489266814     A.U. after   14 cycles
 Normal termination of Gaussian 16 at Wed Apr  9 00:17:34 2025.
 Gaussian 16:  ES64L-G16RevC.01  3-Jul-2019

 ----------------------------------------------------------------------
 #t hf aug-cc-pvdz iop(5/13=1,5/36=2,99/5=2) pseudo=read geom=check gue
 ss=(read,tcheck) scf=(maxcycle=1)
 ----------------------------------------------------------------------
 -----
 title
 -----
 Structure from the checkpoint file:  "BDE49_nonexpt_2560_mol1.chk"
 Charge =  0 Multiplicity = 1

                         Standard orientation:
 ---------------------------------------------------------------------
 Center     Atomic      Atomic             Coordinates (Angstroms)
 Number     Number       Type             X           Y           Z
 ---------------------------------------------------------------------
      1         17           0       -1.418403   -0.575638    0.000000
      2         16           0       -0.108507    1.025751    0.000000
      3          6           0        1.475323    0.262731    0.000000
      4          6           0        1.808685   -1.022810    0.000000
      5          1           0        2.222458    1.055094    0.000001
      6          1           0        1.069251   -1.812737   -0.000001
      7          1           0        2.853211   -1.308043    0.000000
 ---------------------------------------------------------------------

 SCF Done:  E(RHF) =  -934.707328150     A.U. after    2 cycles

 The electronic state is 1-A.
 Alpha  occ. eigenvalues -- -105.59238 -94.02274 -11.29717 -11.25618 -10.63948
 Alpha  occ. eigenvalues --   -8.30047  -7.80890  -7.80445  -7.80404  -6.27870
 Alpha  occ. eigenvalues --   -6.27600  -6.27324  -1.15308  -1.05942  -0.95239
 Alpha  occ. eigenvalues --   -0.78339  -0.66844  -0.63617  -0.53937  -0.53715
 Alpha  occ. eigenvalues --   -0.52838  -0.46593  -0.45184  -0.34692
 Alpha virt. eigenvalues --    0.03466   0.03811   0.05482   0.06109   0.08473
 Alpha virt. eigenvalues --    0.09517   0.11152   0.12165   0.14018   0.14426
 Alpha virt. eigenvalues --    0.14652   0.15640   0.16211   0.16534   0.17700

 Mulliken charges:
               1
     1  Cl  -0.281776
     2  S    0.375406
     3  C    0.095058
     4  C   -0.011737
     5  H   -0.132807
     6  H    0.003575
     7  H   -0.047719
 Sum of Mulliken charges =  -0.00000

 Dipole moment (field-independent basis, Debye):
    X=              1.8312    Y=              0.1069    Z=              0.0000  Tot=              1.8344

 Test job not archived.
 1\1\GINC-SE435\SP\RHF\Aug-CC-pVDZ\C2H3Cl1S1\OHZDE\09-Apr-2025\0\\#t hf
  aug-cc-pvdz iop(5/13=1,5/36=2,99/5=2) pseudo=read geom=check guess=(r
 ead,tcheck) scf=(maxcycle=1)\\title\\0,1\Cl,0,-1.418403,-0.575639,0.\S
 ,0,-0.108507,1.025751,0.\C,0,1.475323,0.262731,0.\C,0,1.808686,-1.0228
 1,0.\H,0,2.222458,1.055094,0.000001\H,0,1.069252,-1.812737,-0.000001\H
 ,0,2.853212,-1.308042,0.\\Version=ES64L-G16RevC.01\State=1-A\HF=-934.7
 073282\RMSD=1.031e-02\Dipole=0.7204663,0.0420715,0.\Quadrupole=2.01514
 41,1.4167833,-3.4319274,0.6896875,0.0000011,0.0000021\PG=C01 [X(C2H3Cl

 Normal termination of Gaussian 16 at Wed Apr  9 00:17:36 2025.
