 Gaussian 16, Revision C.01,

 ----------------------------------------------------------------------
 #t hf aug-cc-pvdz symm=none int=(grid=ultrafine) guess=(read,tcheck) s
 table=(opt,rrhf)
 ----------------------------------------------------------------------
 -----
 title
 -----
 Symbolic Z-matrix:
 Charge =  0 Multiplicity = 1

 SCF Done:  E(RHF) =  -609.376882617     A.U. after   16 cycles
 Normal termination of Gaussian 16 at Wed Apr  9 00:31:25 2025.
 Gaussian 16:  ES64L-G16RevC.01  3-Jul-2019

 ----------------------------------------------------------------------
 #t hf aug-cc-pvdz iop(5/13=1,5/36=2,99/5=2) pseudo=read geom=check gue
 ss=(read,tcheck) scf=(maxcycle=1)
 ----------------------------------------------------------------------
 -----
 title
 -----
 Structure from the checkpoint file:  "BDE49_nonexpt_319_mol1.chk"
 Charge =  0 Multiplicity = 1

                         Standard orientation:
 ---------------------------------------------------------------------
 Center     Atomic      Atomic             Coordinates (Angstroms)
 Number     Number       Type             X           Y           Z
 ---------------------------------------------------------------------
      1          6           0        0.180635    2.257059   -0.199103
      2          6           0       -1.053863    1.612284   -0.151744
      3          6           0        1.356365    1.518874   -0.116167
      4          6           0        1.258434    0.137503    0.003949
      5          6           0        0.034717   -0.518537    0.038508
      6          6           0       -1.156178    0.215821   -0.035009
      7          1           0        0.033833   -1.596387    0.142155
      8          1           0        0.229610    3.334689   -0.300735
      9          1           0       -1.957324    2.209941   -0.227925
     10          5           0       -2.561063   -0.508790    0.010416
     11          8           0       -2.755900   -1.747786   -0.520865
     12          8           0       -3.654520    0.070511    0.583270
     13          1           0        2.331733    1.984042   -0.143155
     14          7           0        2.503840   -0.662074    0.093902
     15          8           0        2.390806   -1.876915    0.182048
     16          8           0        3.566419   -0.057468    0.072264
     17          1           0       -3.457276    0.888131    1.045588
     18          1           0       -1.997240   -2.086707   -1.001669
 ---------------------------------------------------------------------

 SCF Done:  E(RHF) =  -609.975706096     A.U. after    2 cycles

 The electronic state is 1-A.
 Alpha  occ. eigenvalues --  -20.59882 -20.59843 -20.56985 -20.56868 -15.80159
 Alpha  occ. eigenvalues --  -11.32637 -11.29532 -11.29526 -11.29308 -11.28298
 Alpha  occ. eigenvalues --  -11.26412  -7.66274  -1.67871  -1.51576  -1.49246
 Alpha  occ. eigenvalues --   -1.45436  -1.21394  -1.11709  -1.06489  -0.99192
 Alpha  occ. eigenvalues --   -0.88766  -0.85902  -0.81607  -0.80413  -0.75784
 Alpha  occ. eigenvalues --   -0.75414  -0.73371  -0.69252  -0.68532  -0.67984
 Alpha  occ. eigenvalues --   -0.65440  -0.60313  -0.58692  -0.57601  -0.56586
 Alpha  occ. eigenvalues --   -0.55094  -0.51164  -0.50361  -0.49689  -0.49377
 Alpha  occ. eigenvalues --   -0.45955  -0.39741  -0.38797
 Alpha virt. eigenvalues --    0.01319   0.02159   0.03455   0.03751   0.04120
 Alpha virt. eigenvalues --    0.05506   0.05740   0.06006   0.07228   0.08330
 Alpha virt. eigenvalues --    0.08821   0.09666   0.10361   0.10570   0.11729

 Mulliken charges:
               1
     1  C    0.412678
     2  C    0.415147
     3  C    0.240763
     4  C   -0.198306
     5  C    0.196540
     6  C    0.474366
     7  H   -0.331806
     8  H   -0.218563
     9  H   -0.366069
    10  B    1.427215
    11  O   -1.513754
    12  O   -1.550345
    13  H   -0.186751
    14  N    3.040705
    15  O   -1.487474
    16  O   -1.505489
    17  H    0.572132
    18  H    0.579010
 Sum of Mulliken charges =  -0.00000

 Dipole moment (field-independent basis, Debye):
    X=             -1.3283    Y=              3.9694    Z=             -0.3684  Tot=              4.2020

 Test job not archived.
 1\1\GINC-SE099\SP\RHF\Aug-CC-pVDZ\C6H6B1N1O4\OHZDE\09-Apr-2025\0\\#t h
 f aug-cc-pvdz iop(5/13=1,5/36=2,99/5=2) pseudo=read geom=check guess=(
 read,tcheck) scf=(maxcycle=1)\\title\\0,1\C,0,0.180635,2.257059,-0.199
 103\C,0,-1.053863,1.612284,-0.151744\C,0,1.356365,1.518874,-0.116167\C
 ,0,1.258434,0.137503,0.003949\C,0,0.034717,-0.518537,0.038508\C,0,-1.1
 56178,0.215821,-0.035009\H,0,0.033833,-1.596387,0.142155\H,0,0.22961,3
 .334689,-0.300735\H,0,-1.957324,2.209941,-0.227925\B,0,-2.561063,-0.50
 879,0.010416\O,0,-2.7559,-1.747786,-0.520865\O,0,-3.65452,0.070511,0.5

 Normal termination of Gaussian 16 at Wed Apr  9 00:31:37 2025.
