 Gaussian 16, Revision C.01,

 ----------------------------------------------------------------------
 #t hf aug-cc-pvdz symm=none int=(grid=ultrafine) guess=(read,tcheck) s
 table=(opt,rrhf)
 ----------------------------------------------------------------------
 -----
 title
 -----
 Symbolic Z-matrix:
 Charge =  0 Multiplicity = 1

 SCF Done:  E(RHF) =  -1207.93150570     A.U. after   16 cycles
 Normal termination of Gaussian 16 at Tue Apr  8 23:30:06 2025.
 Gaussian 16:  ES64L-G16RevC.01  3-Jul-2019

 ----------------------------------------------------------------------
 #t hf aug-cc-pvdz iop(5/13=1,5/36=2,99/5=2) pseudo=read geom=check gue
 ss=(read,tcheck) scf=(maxcycle=1)
 ----------------------------------------------------------------------
 -----
 title
 -----
 Structure from the checkpoint file:  "BDE49_nonexpt_1314_mol1.chk"
 Charge =  0 Multiplicity = 1

                         Standard orientation:
 ---------------------------------------------------------------------
 Center     Atomic      Atomic             Coordinates (Angstroms)
 Number     Number       Type             X           Y           Z
 ---------------------------------------------------------------------
      1         15           0       -1.173598   -0.537749   -0.414368
      2          6           0       -0.014230    0.647237    0.438851
      3          7           0       -2.757475    0.476372   -0.139861
      4          8           0       -2.693542    1.698081   -0.109740
      5          8           0       -3.792511   -0.171097   -0.111806
      6          6           0       -1.511383   -1.780341    0.901475
      7          1           0       -0.653588   -2.453016    0.934515
      8          1           0       -2.400650   -2.342774    0.618659
      9          1           0       -1.664678   -1.325220    1.881576
     10         15           0        1.554575    0.903735   -0.498760
     11          1           0        0.164571    0.368718    1.480201
     12          1           0       -0.530848    1.614335    0.414191
     13          7           0        2.276169   -0.803972   -0.212778
     14          8           0        1.489993   -1.748715   -0.203490
     15          8           0        3.487385   -0.903648   -0.137525
     16          6           0        2.591684    1.794600    0.734444
     17          1           0        2.272003    2.839983    0.740669
     18          1           0        3.630483    1.753110    0.405940
     19          1           0        2.510173    1.382325    1.741517
 ---------------------------------------------------------------------

 SCF Done:  E(RHF) =  -1208.53322989     A.U. after    2 cycles

 The electronic state is 1-A.
 Alpha  occ. eigenvalues --  -84.36291 -84.35409 -20.61212 -20.60737 -20.59213
 Alpha  occ. eigenvalues --  -20.59201 -15.78598 -15.76796 -11.29357 -11.28320
 Alpha  occ. eigenvalues --  -11.26741  -6.83019  -6.82017  -4.35668  -4.35336
 Alpha  occ. eigenvalues --   -4.34692  -4.34577  -4.34296  -4.33591  -1.68083
 Alpha  occ. eigenvalues --   -1.66342  -1.52162  -1.50428  -1.10882  -1.06348
 Alpha  occ. eigenvalues --   -0.98937  -0.98160  -0.96960  -0.84560  -0.82263
 Alpha  occ. eigenvalues --   -0.76183  -0.74993  -0.74368  -0.73257  -0.73244
 Alpha  occ. eigenvalues --   -0.70201  -0.64189  -0.62385  -0.61520  -0.60579
 Alpha  occ. eigenvalues --   -0.59953  -0.56172  -0.50636  -0.49996  -0.48391
 Alpha  occ. eigenvalues --   -0.47567  -0.46954  -0.46324  -0.45204  -0.39361
 Alpha  occ. eigenvalues --   -0.37946
 Alpha virt. eigenvalues --    0.02620   0.03347   0.04195   0.04452   0.04714
 Alpha virt. eigenvalues --    0.05713   0.06116   0.06401   0.06844   0.07487
 Alpha virt. eigenvalues --    0.07864   0.08443   0.08976   0.10474   0.11367

 Mulliken charges:
               1
     1  P    1.276101
     2  C   -1.006405
     3  N    2.069637
     4  O   -1.277604
     5  O   -1.343993
     6  C   -0.928086
     7  H    0.216195
     8  H    0.158709
     9  H    0.108694
    10  P    1.422372
    11  H    0.027782
    12  H    0.258623
    13  N    1.992870
    14  O   -1.248765
    15  O   -1.306092
    16  C   -0.896508
    17  H    0.176796
    18  H    0.185616
    19  H    0.114058
 Sum of Mulliken charges =  -0.00000

 Dipole moment (field-independent basis, Debye):
    X=              2.8119    Y=              1.6674    Z=              1.9585  Tot=              3.8109

 Test job not archived.
 1\1\GINC-SE105\SP\RHF\Aug-CC-pVDZ\C3H8N2O4P2\OHZDE\08-Apr-2025\0\\#t h
 f aug-cc-pvdz iop(5/13=1,5/36=2,99/5=2) pseudo=read geom=check guess=(
 read,tcheck) scf=(maxcycle=1)\\title\\0,1\P,0,-1.173598,-0.537749,-0.4
 14368\C,0,-0.01423,0.647237,0.438851\N,0,-2.757475,0.476372,-0.139861\
 O,0,-2.693542,1.698081,-0.10974\O,0,-3.792511,-0.171097,-0.111806\C,0,
 -1.511383,-1.780341,0.901475\H,0,-0.653588,-2.453016,0.934515\H,0,-2.4
 0065,-2.342774,0.618659\H,0,-1.664678,-1.32522,1.881576\P,0,1.554575,0
 .903735,-0.49876\H,0,0.164571,0.368718,1.480201\H,0,-0.530848,1.614335

 Normal termination of Gaussian 16 at Tue Apr  8 23:30:18 2025.
