 Gaussian 16, Revision C.01,

 ----------------------------------------------------------------------
 #t hf aug-cc-pvdz symm=none int=(grid=ultrafine) guess=(read,tcheck) s
 table=opt
 ----------------------------------------------------------------------
 -----
 title
 -----
 Symbolic Z-matrix:
 Charge =  0 Multiplicity = 2

 SCF Done:  E(UHF) =  -231.550854962     A.U. after   16 cycles
 Normal termination of Gaussian 16 at Tue Apr  8 22:51:54 2025.
 Gaussian 16:  ES64L-G16RevC.01  3-Jul-2019

 ----------------------------------------------------------------------
 #t hf aug-cc-pvdz iop(5/13=1,5/36=2,99/5=2) pseudo=read geom=check gue
 ss=(read,tcheck) scf=(maxcycle=1)
 ----------------------------------------------------------------------
 -----
 title
 -----
 Structure from the checkpoint file:  "BDE49_expt_176_mol2.chk"
 Charge =  0 Multiplicity = 2

                         Standard orientation:
 ---------------------------------------------------------------------
 Center     Atomic      Atomic             Coordinates (Angstroms)
 Number     Number       Type             X           Y           Z
 ---------------------------------------------------------------------
      1          6           0        1.192820    0.484421   -0.060435
      2          8           0        0.031912   -0.232883   -0.026425
      3          6           0       -1.170763    0.538422   -0.038916
      4          6           0       -2.348529   -0.413876    0.037067
      5          1           0       -1.205951    1.139187   -0.956098
      6          1           0       -1.167876    1.228187    0.816412
      7          1           0       -2.344800   -1.096327   -0.815569
      8          1           0       -3.288541    0.144077    0.030660
      9          1           0       -2.303829   -1.007987    0.952514
     10          6           0        2.430339   -0.335594    0.014572
     11          1           0        1.152802    1.483501    0.373102
     12          1           0        2.557400   -0.819295    0.996894
     13          1           0        3.310810    0.285425   -0.166275
     14          1           0        2.411483   -1.133947   -0.733972
 ---------------------------------------------------------------------

 SCF Done:  E(UHF) =  -231.798466599     A.U. after    2 cycles

 The electronic state is 2-A.
 Alpha  occ. eigenvalues --  -20.55584 -11.28813 -11.27890 -11.22786 -11.22518
 Alpha  occ. eigenvalues --   -1.48229  -1.05198  -0.99075  -0.85220  -0.82543
 Alpha  occ. eigenvalues --   -0.68584  -0.67010  -0.62005  -0.59521  -0.55957
 Alpha  occ. eigenvalues --   -0.53991  -0.53113  -0.51960  -0.48713  -0.47202
 Alpha  occ. eigenvalues --   -0.31347
 Alpha virt. eigenvalues --    0.03860   0.04148   0.04284   0.04539   0.06185
 Alpha virt. eigenvalues --    0.06367   0.07038   0.07903   0.09053   0.11657
 Alpha virt. eigenvalues --    0.13274   0.14002   0.14836   0.15845   0.15966

  Beta  occ. eigenvalues --  -20.55066 -11.28836 -11.25429 -11.22794 -11.22786
  Beta  occ. eigenvalues --   -1.46602  -1.03838  -0.97900  -0.84957  -0.78705
  Beta  occ. eigenvalues --   -0.67263  -0.65074  -0.60952  -0.56082  -0.55765
  Beta  occ. eigenvalues --   -0.53086  -0.52698  -0.51493  -0.47859  -0.44164
  Beta virt. eigenvalues --    0.03885   0.04177   0.04301   0.04476   0.06198
  Beta virt. eigenvalues --    0.06374   0.06982   0.07748   0.09060   0.11599
  Beta virt. eigenvalues --    0.12084   0.13308   0.14476   0.15703   0.16047

 Mulliken charges and spin densities:
               1          2
     1  C    0.894368   1.175918
     2  O   -1.372615   0.043277
     3  C    0.448362  -0.015482
     4  C   -0.505862  -0.004301
     5  H    0.132836  -0.011357
     6  H    0.104658   0.003502
     7  H    0.179675  -0.000669
     8  H    0.159674  -0.000455
     9  H    0.174484   0.000265
    10  C   -0.684483  -0.184742
    11  H   -0.051183  -0.057530
    12  H    0.196583   0.043749
    13  H    0.161722  -0.000605
    14  H    0.161779   0.008430
 Sum of Mulliken charges =   0.00000   1.00000

 Dipole moment (field-independent basis, Debye):
    X=             -0.4931    Y=              0.9381    Z=              0.3415  Tot=              1.1135
                          Isotropic Fermi Contact Couplings
        Atom                 a.u.       MegaHertz       Gauss      10(-4) cm-1
     1  C(13)              0.26693     300.08393     107.07741     100.09722
     2  O(17)              0.04804     -29.12222     -10.39153      -9.71413
     3  C(13)             -0.00158      -1.77847      -0.63460      -0.59323
     4  C(13)             -0.00142      -1.60001      -0.57092      -0.53370
     5  H(1)               0.00025       1.12624       0.40187       0.37567
     6  H(1)               0.00054       2.39578       0.85487       0.79914
     7  H(1)              -0.00001      -0.04552      -0.01624      -0.01518
     8  H(1)              -0.00029      -1.29887      -0.46347      -0.43326

 Normal termination of Gaussian 16 at Tue Apr  8 22:51:58 2025.
