 Gaussian 16, Revision C.01,

 ----------------------------------------------------------------------
 #t hf aug-cc-pvdz symm=none int=(grid=ultrafine) guess=(read,tcheck) s
 table=(opt,rrhf)
 ----------------------------------------------------------------------
 -----
 title
 -----
 Symbolic Z-matrix:
 Charge =  0 Multiplicity = 1

 SCF Done:  E(RHF) =  -761.880047044     A.U. after   12 cycles
 Normal termination of Gaussian 16 at Tue Apr  8 23:39:12 2025.
 Gaussian 16:  ES64L-G16RevC.01  3-Jul-2019

 ----------------------------------------------------------------------
 #t hf aug-cc-pvdz iop(5/13=1,5/36=2,99/5=2) pseudo=read geom=check gue
 ss=(read,tcheck) scf=(maxcycle=1)
 ----------------------------------------------------------------------
 -----
 title
 -----
 Structure from the checkpoint file:  "BDE49_nonexpt_1616_mol1.chk"
 Charge =  0 Multiplicity = 1

                         Standard orientation:
 ---------------------------------------------------------------------
 Center     Atomic      Atomic             Coordinates (Angstroms)
 Number     Number       Type             X           Y           Z
 ---------------------------------------------------------------------
      1         15           0       -1.614792   -0.000000    0.253037
      2         15           0        0.454436    0.000000   -0.649440
      3          6           0        1.149845   -1.421014    0.335778
      4          6           0        1.149845    1.421014    0.335778
      5          1           0        0.722896    2.359584   -0.025243
      6          1           0        2.229471    1.462128    0.167140
      7          1           0        0.962073    1.333741    1.409237
      8          1           0        0.722897   -2.359584   -0.025243
      9          1           0        0.962074   -1.333741    1.409237
     10          1           0        2.229471   -1.462128    0.167140
     11          1           0       -2.110839   -1.028333   -0.592774
     12          1           0       -2.110839    1.028333   -0.592774
 ---------------------------------------------------------------------

 SCF Done:  E(RHF) =  -762.064843979     A.U. after    2 cycles

 The electronic state is 1-A.
 Alpha  occ. eigenvalues --  -84.27471 -84.27158 -11.24049 -11.24045  -6.74463
 Alpha  occ. eigenvalues --   -6.74301  -4.26806  -4.26756  -4.26605  -4.26460
 Alpha  occ. eigenvalues --   -4.26086  -4.25820  -1.01917  -0.94392  -0.86479
 Alpha  occ. eigenvalues --   -0.71451  -0.59754  -0.59059  -0.56927  -0.56419
 Alpha  occ. eigenvalues --   -0.50656  -0.45362  -0.41182  -0.39158  -0.29028
 Alpha virt. eigenvalues --    0.03855   0.04349   0.04577   0.05474   0.06384
 Alpha virt. eigenvalues --    0.06817   0.07459   0.07923   0.09486   0.11046
 Alpha virt. eigenvalues --    0.11732   0.11966   0.13328   0.13774   0.15912

 Mulliken charges:
               1
     1  P   -0.774883
     2  P    0.742515
     3  C   -0.755508
     4  C   -0.755510
     5  H    0.090610
     6  H    0.097524
     7  H    0.135550
     8  H    0.090609
     9  H    0.135549
    10  H    0.097524
    11  H    0.448010
    12  H    0.448010
 Sum of Mulliken charges =   0.00000

 Dipole moment (field-independent basis, Debye):
    X=              0.7154    Y=             -0.0000    Z=              0.4303  Tot=              0.8349

 Test job not archived.
 1\1\GINC-SE072\SP\RHF\Aug-CC-pVDZ\C2H8P2\OHZDE\08-Apr-2025\0\\#t hf au
 g-cc-pvdz iop(5/13=1,5/36=2,99/5=2) pseudo=read geom=check guess=(read
 ,tcheck) scf=(maxcycle=1)\\title\\0,1\P,0,-1.614792,0.,0.253037\P,0,0.
 454436,0.,-0.64944\C,0,1.149845,-1.421014,0.335778\C,0,1.149845,1.4210
 14,0.335778\H,0,0.722896,2.359584,-0.025243\H,0,2.229471,1.462128,0.16
 714\H,0,0.962073,1.333741,1.409237\H,0,0.722897,-2.359584,-0.025243\H,
 0,0.962074,-1.333741,1.409237\H,0,2.229471,-1.462128,0.16714\H,0,-2.11
 0839,-1.028333,-0.592774\H,0,-2.110839,1.028333,-0.592774\\Version=ES6

 Normal termination of Gaussian 16 at Tue Apr  8 23:39:15 2025.
