 Gaussian 16, Revision C.01,

 ----------------------------------------------------------------------
 #t hf aug-cc-pvdz symm=none int=(grid=ultrafine) guess=(read,tcheck) s
 table=opt
 ----------------------------------------------------------------------
 -----
 title
 -----
 Symbolic Z-matrix:
 Charge =  0 Multiplicity = 2

 SCF Done:  E(UHF) =  -458.455416128     A.U. after   18 cycles
 Normal termination of Gaussian 16 at Wed Apr  9 00:11:35 2025.
 Gaussian 16:  ES64L-G16RevC.01  3-Jul-2019

 ----------------------------------------------------------------------
 #t hf aug-cc-pvdz iop(5/13=1,5/36=2,99/5=2) pseudo=read geom=check gue
 ss=(read,tcheck) scf=(maxcycle=1)
 ----------------------------------------------------------------------
 -----
 title
 -----
 Structure from the checkpoint file:  "BDE49_nonexpt_2387_mol2.chk"
 Charge =  0 Multiplicity = 2

                         Standard orientation:
 ---------------------------------------------------------------------
 Center     Atomic      Atomic             Coordinates (Angstroms)
 Number     Number       Type             X           Y           Z
 ---------------------------------------------------------------------
      1         14           0       -1.361303   -0.266922   -0.090754
      2          7           0        0.022757    0.822570    0.039486
      3          1           0       -1.295072   -1.312230    0.957524
      4          1           0       -2.530626    0.627693    0.110510
      5          6           0        1.316614    0.361703    0.028637
      6          8           0        1.605176   -0.811846   -0.051036
      7          1           0        2.077578    1.160339    0.105104
      8          1           0       -0.094030    1.827661    0.057480
 ---------------------------------------------------------------------

 SCF Done:  E(UHF) =  -458.650537894     A.U. after    2 cycles

 The electronic state is 2-A.
 Alpha  occ. eigenvalues --  -69.56924 -20.53065 -15.52939 -11.37234  -6.23760
 Alpha  occ. eigenvalues --   -3.99619  -3.98853  -3.98753  -1.47613  -1.22372
 Alpha  occ. eigenvalues --   -0.87508  -0.79069  -0.73695  -0.64524  -0.60697
 Alpha  occ. eigenvalues --   -0.58602  -0.50755  -0.46459  -0.44203  -0.34615
 Alpha virt. eigenvalues --    0.02740   0.04405   0.04951   0.06132   0.07084
 Alpha virt. eigenvalues --    0.07594   0.08714   0.09777   0.11620   0.13344
 Alpha virt. eigenvalues --    0.14109   0.15356   0.15732   0.17543   0.18134

  Beta  occ. eigenvalues --  -69.56358 -20.53003 -15.52737 -11.37244  -6.22872
  Beta  occ. eigenvalues --   -3.98483  -3.98392  -3.97534  -1.47471  -1.21759
  Beta  occ. eigenvalues --   -0.86842  -0.78250  -0.71850  -0.63734  -0.59462
  Beta  occ. eigenvalues --   -0.57360  -0.49424  -0.44870  -0.44065
  Beta virt. eigenvalues --    0.02167   0.02866   0.04697   0.05009   0.06655
  Beta virt. eigenvalues --    0.07573   0.08145   0.09013   0.10531   0.12127
  Beta virt. eigenvalues --    0.13990   0.14893   0.15493   0.16633   0.17792

 Mulliken charges and spin densities:
               1          2
     1  Si   0.498134   0.886884
     2  N    0.291372  -0.000674
     3  H   -0.081619   0.061727
     4  H   -0.136278   0.032357
     5  C    0.402414   0.006144
     6  O   -1.039251   0.013995
     7  H    0.082270   0.001838
     8  H   -0.017040  -0.002270
 Sum of Mulliken charges =   0.00000   1.00000

 Dipole moment (field-independent basis, Debye):
    X=             -1.2745    Y=              3.2330    Z=              0.1770  Tot=              3.4797
                          Isotropic Fermi Contact Couplings
        Atom                 a.u.       MegaHertz       Gauss      10(-4) cm-1
     1  Si(29)             0.72004    -639.91719    -228.33837    -213.45340
     2  N(14)              0.03195      10.32366       3.68374       3.44360
     3  H(1)               0.01482      66.24173      23.63669      22.09586
     4  H(1)               0.00885      39.55708      14.11495      13.19482
     5  C(13)             -0.00214      -2.40714      -0.85893      -0.80294
     6  O(17)              0.00453      -2.74422      -0.97921      -0.91537
     7  H(1)              -0.00008      -0.37137      -0.13251      -0.12387
     8  H(1)              -0.00005      -0.21646      -0.07724      -0.07220

 1\1\GINC-SE328\SP\UHF\Aug-CC-pVDZ\C1H4N1O1Si1(2)\OHZDE\09-Apr-2025\0\\
 #t hf aug-cc-pvdz iop(5/13=1,5/36=2,99/5=2) pseudo=read geom=check gue
 ss=(read,tcheck) scf=(maxcycle=1)\\title\\0,2\Si,0,-1.361303,-0.266922
 ,-0.090754\N,0,0.022757,0.82257,0.039486\H,0,-1.295072,-1.31223,0.9575
 24\H,0,-2.530626,0.627692,0.11051\C,0,1.316614,0.361703,0.028637\O,0,1
 .605176,-0.811846,-0.051036\H,0,2.077578,1.160339,0.105104\H,0,-0.0940
 3,1.827661,0.05748\\Version=ES64L-G16RevC.01\State=2-A\HF=-458.6505379
 \S2=0.753778\S2-1=0.\S2A=0.750007\RMSD=1.094e-02\Dipole=-0.5014132,1.2

 Normal termination of Gaussian 16 at Wed Apr  9 00:11:37 2025.
