 Gaussian 16, Revision C.01,

 ----------------------------------------------------------------------
 #t hf aug-cc-pvdz symm=none int=(grid=ultrafine) guess=(read,tcheck) s
 table=(opt,rrhf)
 ----------------------------------------------------------------------
 -----
 title
 -----
 Symbolic Z-matrix:
 Charge =  0 Multiplicity = 1

 SCF Done:  E(RHF) =  -853.654955316     A.U. after   16 cycles
 Normal termination of Gaussian 16 at Tue Apr  8 22:39:28 2025.
 Gaussian 16:  ES64L-G16RevC.01  3-Jul-2019

 ----------------------------------------------------------------------
 #t hf aug-cc-pvdz iop(5/13=1,5/36=2,99/5=2) pseudo=read geom=check gue
 ss=(read,tcheck) scf=(maxcycle=1)
 ----------------------------------------------------------------------
 -----
 title
 -----
 Structure from the checkpoint file:  "BDE49_expt_1237_mol1.chk"
 Charge =  0 Multiplicity = 1

                         Standard orientation:
 ---------------------------------------------------------------------
 Center     Atomic      Atomic             Coordinates (Angstroms)
 Number     Number       Type             X           Y           Z
 ---------------------------------------------------------------------
      1          6           0        1.587329    0.336184    0.000000
      2          6           0        1.217745   -1.004485    0.000000
      3          6           0       -0.128851   -1.338246    0.000000
      4          6           0        0.618135    1.337523    0.000000
      5          6           0       -0.726660    0.999112    0.000000
      6          6           0       -1.124394   -0.349489    0.000000
      7          9           0        2.872824    0.666790    0.000000
      8          9           0        2.155592   -1.952089    0.000000
      9          9           0       -0.458940   -2.624915    0.000000
     10          9           0        0.996160    2.616543    0.000000
     11          9           0       -1.613582    1.986507    0.000000
     12          7           0       -2.484009   -0.854546    0.000000
     13          8           0       -3.355029   -0.017161   -0.000001
 ---------------------------------------------------------------------

 SCF Done:  E(RHF) =  -854.443276042     A.U. after    2 cycles

 The electronic state is 1-A.
 Alpha  occ. eigenvalues --  -26.54330 -26.53524 -26.53303 -26.53278 -26.53243
 Alpha  occ. eigenvalues --  -20.64556 -15.68102 -11.41836 -11.41548 -11.41406
 Alpha  occ. eigenvalues --  -11.39956 -11.39925 -11.34120  -1.68556  -1.67559
 Alpha  occ. eigenvalues --   -1.67215  -1.65839  -1.65435  -1.62093  -1.24556
 Alpha  occ. eigenvalues --   -1.14985  -1.09334  -1.03030  -0.94049  -0.92373
 Alpha  occ. eigenvalues --   -0.86260  -0.83384  -0.81323  -0.77593  -0.77286
 Alpha  occ. eigenvalues --   -0.77029  -0.76528  -0.75827  -0.73968  -0.73141
 Alpha  occ. eigenvalues --   -0.70899  -0.70603  -0.69802  -0.68747  -0.68023
 Alpha  occ. eigenvalues --   -0.65121  -0.64392  -0.63969  -0.60816  -0.54877
 Alpha  occ. eigenvalues --   -0.45433  -0.41140  -0.39927
 Alpha virt. eigenvalues --   -0.00304   0.05092   0.06738   0.06913   0.08309
 Alpha virt. eigenvalues --    0.08712   0.09069   0.09173   0.10902   0.10929
 Alpha virt. eigenvalues --    0.12174   0.12481   0.12706   0.14133   0.14443

 Mulliken charges:
               1
     1  C    1.403434
     2  C    0.871305
     3  C    1.785247
     4  C    0.694233
     5  C    1.772208
     6  C   -2.075068
     7  F   -0.970309
     8  F   -0.934220
     9  F   -1.003275
    10  F   -0.935118
    11  F   -0.968133
    12  N    1.467800
    13  O   -1.108105
 Sum of Mulliken charges =  -0.00000

 Dipole moment (field-independent basis, Debye):
    X=              1.3177    Y=              0.4884    Z=              0.0000  Tot=              1.4053

 Test job not archived.
 1\1\GINC-SE362\SP\RHF\Aug-CC-pVDZ\C6F5N1O1\OHZDE\08-Apr-2025\0\\#t hf
 aug-cc-pvdz iop(5/13=1,5/36=2,99/5=2) pseudo=read geom=check guess=(re
 ad,tcheck) scf=(maxcycle=1)\\title\\0,1\C,0,-1.587329,0.336184,0.\C,0,
 -1.217745,-1.004485,0.\C,0,0.128851,-1.338246,0.\C,0,-0.618135,1.33752
 3,0.\C,0,0.72666,0.999112,0.\C,0,1.124394,-0.349489,0.\F,0,-2.872824,0
 .66679,0.\F,0,-2.155592,-1.952089,0.\F,0,0.45894,-2.624915,0.\F,0,-0.9
 9616,2.616543,0.\F,0,1.613582,1.986507,0.\N,0,2.484009,-0.854546,0.\O,
 0,3.355029,-0.017161,0.000001\\Version=ES64L-G16RevC.01\State=1-A\HF=-

 Normal termination of Gaussian 16 at Tue Apr  8 22:39:35 2025.
