 Gaussian 16, Revision C.01,

 ----------------------------------------------------------------------
 #t hf aug-cc-pvdz symm=none int=(grid=ultrafine) guess=(read,tcheck) s
 table=(opt,rrhf)
 ----------------------------------------------------------------------
 -----
 title
 -----
 Symbolic Z-matrix:
 Charge =  0 Multiplicity = 1

 SCF Done:  E(RHF) =  -1355.35245627     A.U. after   16 cycles
 Normal termination of Gaussian 16 at Wed Apr  9 00:54:32 2025.
 Gaussian 16:  ES64L-G16RevC.01  3-Jul-2019

 ----------------------------------------------------------------------
 #t hf aug-cc-pvdz iop(5/13=1,5/36=2,99/5=2) pseudo=read geom=check gue
 ss=(read,tcheck) scf=(maxcycle=1)
 ----------------------------------------------------------------------
 -----
 title
 -----
 Structure from the checkpoint file:  "BDE49_nonexpt_946_mol1.chk"
 Charge =  0 Multiplicity = 1

                         Standard orientation:
 ---------------------------------------------------------------------
 Center     Atomic      Atomic             Coordinates (Angstroms)
 Number     Number       Type             X           Y           Z
 ---------------------------------------------------------------------
      1          6           0       -0.820506    0.342543    0.023032
      2          6           0       -1.688852    0.623430    1.080428
      3          1           0       -1.353396    1.264911    1.886780
      4          6           0       -2.970115    0.081793    1.079818
      5          1           0       -3.645578    0.294696    1.900048
      6          6           0       -3.383078   -0.731664    0.024703
      7          1           0       -4.381851   -1.152693    0.026071
      8          6           0       -2.516567   -1.001125   -1.032728
      9          1           0       -2.838485   -1.631219   -1.853391
     10          6           0       -1.233678   -0.460115   -1.040665
     11          1           0       -0.549641   -0.656171   -1.856486
     12          7           0        0.498025    0.900061    0.028049
     13         17           0        0.643178    2.510566   -0.625315
     14          6           0        1.677596    0.307490    0.445771
     15          8           0        2.753035    0.852560    0.407037
     16          6           0        1.520542   -1.112330    0.992702
     17         17           0        1.761305   -2.331715   -0.324119
     18          1           0        0.549644   -1.313235    1.435820
     19          1           0        2.320600   -1.267792    1.710532
 ---------------------------------------------------------------------

 SCF Done:  E(RHF) =  -1355.93951084     A.U. after    2 cycles

 The electronic state is 1-A.
 Alpha  occ. eigenvalues -- -105.61057-105.57645 -20.53763 -15.59759 -11.39295
 Alpha  occ. eigenvalues --  -11.33039 -11.30916 -11.27225 -11.27043 -11.27024
 Alpha  occ. eigenvalues --  -11.26818 -11.26695 -10.65449 -10.62399  -7.82431
 Alpha  occ. eigenvalues --   -7.81930  -7.81900  -7.79350  -7.78960  -7.78946
 Alpha  occ. eigenvalues --   -1.49088  -1.29740  -1.17566  -1.12594  -1.06146
 Alpha  occ. eigenvalues --   -1.04672  -1.03313  -0.94836  -0.89424  -0.86947
 Alpha  occ. eigenvalues --   -0.79905  -0.74189  -0.71832  -0.69934  -0.69623
 Alpha  occ. eigenvalues --   -0.65421  -0.63543  -0.63316  -0.62627  -0.61460
 Alpha  occ. eigenvalues --   -0.57369  -0.55436  -0.54028  -0.53391  -0.50728
 Alpha  occ. eigenvalues --   -0.49125  -0.47928  -0.46348  -0.44157  -0.42307
 Alpha  occ. eigenvalues --   -0.37289  -0.37166
 Alpha virt. eigenvalues --    0.02690   0.03067   0.03809   0.04274   0.05319
 Alpha virt. eigenvalues --    0.05640   0.06042   0.06822   0.07586   0.08543
 Alpha virt. eigenvalues --    0.08716   0.10498   0.10871   0.11489   0.12353

 Mulliken charges:
               1
     1  C   -2.313847
     2  C    0.556486
     3  H   -0.303940
     4  C    0.417770
     5  H   -0.224297
     6  C    0.257149
     7  H   -0.212511
     8  C    0.392045
     9  H   -0.232594
    10  C    0.681485
    11  H   -0.291931
    12  N    1.566498
    13  Cl   0.175035
    14  C    0.787589
    15  O   -1.218326
    16  C   -0.489211
    17  Cl   0.001178
    18  H    0.253612
    19  H    0.197810
 Sum of Mulliken charges =  -0.00000

 Dipole moment (field-independent basis, Debye):
    X=             -4.5561    Y=             -1.3704    Z=              1.4909  Tot=              4.9859

 Test job not archived.
 1\1\GINC-SE016\SP\RHF\Aug-CC-pVDZ\C8H7Cl2N1O1\OHZDE\09-Apr-2025\0\\#t
 hf aug-cc-pvdz iop(5/13=1,5/36=2,99/5=2) pseudo=read geom=check guess=
 (read,tcheck) scf=(maxcycle=1)\\title\\0,1\C,0,-0.820506,0.342543,0.02
 3032\C,0,-1.688852,0.62343,1.080428\H,0,-1.353396,1.264911,1.88678\C,0
 ,-2.970115,0.081793,1.079818\H,0,-3.645578,0.294696,1.900048\C,0,-3.38
 3078,-0.731664,0.024703\H,0,-4.381851,-1.152693,0.026071\C,0,-2.516567
 ,-1.001125,-1.032728\H,0,-2.838485,-1.631219,-1.853391\C,0,-1.233678,-
 0.460115,-1.040665\H,0,-0.549641,-0.656171,-1.856486\N,0,0.498025,0.90

 Normal termination of Gaussian 16 at Wed Apr  9 00:54:47 2025.
