 Gaussian 16, Revision C.01,

 ----------------------------------------------------------------------
 #t hf aug-cc-pvdz symm=none int=(grid=ultrafine) guess=(read,tcheck) s
 table=(opt,rrhf)
 ----------------------------------------------------------------------
 -----
 title
 -----
 Symbolic Z-matrix:
 Charge =  0 Multiplicity = 1

 SCF Done:  E(RHF) =  -774.640605217     A.U. after   15 cycles
 Normal termination of Gaussian 16 at Tue Apr  8 23:36:44 2025.
 Gaussian 16:  ES64L-G16RevC.01  3-Jul-2019

 ----------------------------------------------------------------------
 #t hf aug-cc-pvdz iop(5/13=1,5/36=2,99/5=2) pseudo=read geom=check gue
 ss=(read,tcheck) scf=(maxcycle=1)
 ----------------------------------------------------------------------
 -----
 title
 -----
 Structure from the checkpoint file:  "BDE49_nonexpt_1505_mol1.chk"
 Charge =  0 Multiplicity = 1

                         Standard orientation:
 ---------------------------------------------------------------------
 Center     Atomic      Atomic             Coordinates (Angstroms)
 Number     Number       Type             X           Y           Z
 ---------------------------------------------------------------------
      1          8           0       -1.613210   -1.013278    0.286516
      2          6           0       -2.713216   -0.261222    0.511444
      3          6           0       -0.690520   -0.212472   -0.362790
      4          6           0       -2.539441    1.004902    0.039739
      5          6           0       -1.230521    1.036781   -0.524470
      6          1           0       -3.254661    1.810656    0.086779
      7          1           0       -3.529981   -0.757683    1.008787
      8          1           0       -0.731495    1.873146   -0.985397
      9          7           0        2.085262   -0.019965    0.117342
     10          8           0        1.886719   -0.153427    1.511701
     11          8           0        1.926670    1.364215   -0.211985
     12          1           0        2.826143    1.705580   -0.126723
     13          1           0        1.004459    0.217517    1.691682
     14         15           0        0.893607   -1.021632   -0.746071
     15          1           0        1.125352   -0.372987   -1.978864
 ---------------------------------------------------------------------

 SCF Done:  E(RHF) =  -775.114163520     A.U. after    2 cycles

 The electronic state is 1-A.
 Alpha  occ. eigenvalues --  -84.31393 -20.62249 -20.59612 -20.59284 -15.61432
 Alpha  occ. eigenvalues --  -11.31476 -11.30128 -11.25938 -11.25044  -6.78140
 Alpha  occ. eigenvalues --   -4.31120  -4.30724  -4.30049  -1.55430  -1.54224
 Alpha  occ. eigenvalues --   -1.44480  -1.10740  -1.07515  -1.01819  -0.86853
 Alpha  occ. eigenvalues --   -0.82540  -0.78438  -0.75651  -0.73306  -0.67227
 Alpha  occ. eigenvalues --   -0.65728  -0.63999  -0.63293  -0.60717  -0.58834
 Alpha  occ. eigenvalues --   -0.56499  -0.53375  -0.50046  -0.48634  -0.44614
 Alpha  occ. eigenvalues --   -0.41324  -0.36671  -0.34438
 Alpha virt. eigenvalues --    0.03195   0.03840   0.04180   0.05744   0.06052
 Alpha virt. eigenvalues --    0.06448   0.07070   0.08481   0.09934   0.11203
 Alpha virt. eigenvalues --    0.11923   0.12405   0.12992   0.13804   0.14060

 Mulliken charges:
               1
     1  O   -1.437783
     2  C    0.740503
     3  C    0.501690
     4  C    0.294957
     5  C    0.058500
     6  H   -0.125320
     7  H   -0.127226
     8  H   -0.192671
     9  N    1.325795
    10  O   -1.207673
    11  O   -1.225457
    12  H    0.366627
    13  H    0.379860
    14  P    0.271685
    15  H    0.376513
 Sum of Mulliken charges =  -0.00000

 Dipole moment (field-independent basis, Debye):
    X=             -2.0927    Y=              2.0310    Z=             -0.6177  Tot=              2.9809

 Test job not archived.
 1\1\GINC-SE118\SP\RHF\Aug-CC-pVDZ\C4H6N1O3P1\OHZDE\08-Apr-2025\0\\#t h
 f aug-cc-pvdz iop(5/13=1,5/36=2,99/5=2) pseudo=read geom=check guess=(
 read,tcheck) scf=(maxcycle=1)\\title\\0,1\O,0,-1.61321,-1.013278,0.286
 516\C,0,-2.713216,-0.261222,0.511444\C,0,-0.69052,-0.212472,-0.36279\C
 ,0,-2.539441,1.004902,0.039739\C,0,-1.230521,1.036781,-0.52447\H,0,-3.
 254661,1.810656,0.086779\H,0,-3.529981,-0.757683,1.008787\H,0,-0.73149
 5,1.873146,-0.985397\N,0,2.085262,-0.019965,0.117342\O,0,1.886719,-0.1
 53427,1.511701\O,0,1.92667,1.364215,-0.211985\H,0,2.826143,1.70558,-0.

 Normal termination of Gaussian 16 at Tue Apr  8 23:36:51 2025.
