 Gaussian 16, Revision C.01,

 ----------------------------------------------------------------------
 #t hf aug-cc-pvdz symm=none int=(grid=ultrafine) guess=(read,tcheck) s
 table=opt
 ----------------------------------------------------------------------
 -----
 title
 -----
 Symbolic Z-matrix:
 Charge =  0 Multiplicity = 2

 SCF Done:  E(UHF) =  -522.274000129     A.U. after   16 cycles
 Normal termination of Gaussian 16 at Wed Apr  9 00:30:11 2025.
 Gaussian 16:  ES64L-G16RevC.01  3-Jul-2019

 ----------------------------------------------------------------------
 #t hf aug-cc-pvdz iop(5/13=1,5/36=2,99/5=2) pseudo=read geom=check gue
 ss=(read,tcheck) scf=(maxcycle=1)
 ----------------------------------------------------------------------
 -----
 title
 -----
 Structure from the checkpoint file:  "BDE49_nonexpt_348_mol2.chk"
 Charge =  0 Multiplicity = 2

                         Standard orientation:
 ---------------------------------------------------------------------
 Center     Atomic      Atomic             Coordinates (Angstroms)
 Number     Number       Type             X           Y           Z
 ---------------------------------------------------------------------
      1          9           0        1.681392    0.185192   -0.000003
      2         16           0       -1.086094   -0.004980   -0.000006
      3          5           0        0.614822   -0.582404    0.000020
      4          1           0       -0.829142    1.324968    0.000015
 ---------------------------------------------------------------------

 SCF Done:  E(UHF) =  -522.442239910     A.U. after    2 cycles

 The electronic state is 2-A.
 Alpha  occ. eigenvalues --  -93.97481 -26.49739  -8.25843  -7.72149  -6.23680
 Alpha  occ. eigenvalues --   -6.23500  -6.23274  -1.62998  -1.04959  -0.79309
 Alpha  occ. eigenvalues --   -0.70344  -0.68033  -0.64415  -0.51007  -0.42220
 Alpha  occ. eigenvalues --   -0.37539
 Alpha virt. eigenvalues --    0.04134   0.04965   0.05495   0.05818   0.09147
 Alpha virt. eigenvalues --    0.09799   0.10841   0.13859   0.14686   0.17844
 Alpha virt. eigenvalues --    0.22309   0.24524   0.25241   0.25435   0.29304

  Beta  occ. eigenvalues --  -93.97412 -26.49429  -8.25729  -7.70064  -6.23564
  Beta  occ. eigenvalues --   -6.23350  -6.23300  -1.62132  -1.03724  -0.77815
  Beta  occ. eigenvalues --   -0.67865  -0.67598  -0.61163  -0.50099  -0.42165
  Beta virt. eigenvalues --    0.03060   0.04745   0.05329   0.05586   0.08854
  Beta virt. eigenvalues --    0.10419   0.12194   0.12482   0.14229   0.15778
  Beta virt. eigenvalues --    0.18761   0.22526   0.25074   0.25687   0.26872

 Mulliken charges and spin densities:
               1          2
     1  F   -0.365850  -0.055704
     2  S   -0.497717  -0.025701
     3  B    0.585908   1.052059
     4  H    0.277659   0.029346
 Sum of Mulliken charges =  -0.00000   1.00000

 Dipole moment (field-independent basis, Debye):
    X=             -0.2630    Y=              0.9022    Z=              0.0000  Tot=              0.9398
                          Isotropic Fermi Contact Couplings
        Atom                 a.u.       MegaHertz       Gauss      10(-4) cm-1
     1  F(19)              0.07009     294.88565     105.22253      98.36326
     2  S(33)              0.18934      65.03376      23.20566      21.69293
     3  B(11)              0.37596     539.26541     192.42331     179.87958
     4  H(1)               0.01121      50.09522      17.87522      16.70997
 --------------------------------------------------------
       Center         ----  Spin Dipole Couplings  ----
                      3XX-RR        3YY-RR        3ZZ-RR
 --------------------------------------------------------

 Normal termination of Gaussian 16 at Wed Apr  9 00:30:13 2025.
