 Gaussian 16, Revision C.01,

 ----------------------------------------------------------------------
 #t hf aug-cc-pvdz symm=none int=(grid=ultrafine) guess=(read,tcheck) s
 table=(opt,rrhf)
 ----------------------------------------------------------------------
 -----
 title
 -----
 Symbolic Z-matrix:
 Charge =  0 Multiplicity = 1

 SCF Done:  E(RHF) =  -789.212813428     A.U. after   12 cycles
 Normal termination of Gaussian 16 at Tue Apr  8 23:56:19 2025.
 Gaussian 16:  ES64L-G16RevC.01  3-Jul-2019

 ----------------------------------------------------------------------
 #t hf aug-cc-pvdz iop(5/13=1,5/36=2,99/5=2) pseudo=read geom=check gue
 ss=(read,tcheck) scf=(maxcycle=1)
 ----------------------------------------------------------------------
 -----
 title
 -----
 Structure from the checkpoint file:  "BDE49_nonexpt_2024_mol1.chk"
 Charge =  0 Multiplicity = 1

                         Standard orientation:
 ---------------------------------------------------------------------
 Center     Atomic      Atomic             Coordinates (Angstroms)
 Number     Number       Type             X           Y           Z
 ---------------------------------------------------------------------
      1         14           0       -1.512094   -0.192233   -0.000000
      2          6           0        0.073050    0.841675   -0.000000
      3         17           0        1.541632   -0.233783   -0.000000
      4          1           0        0.149179    1.473907    0.884542
      5          1           0        0.149179    1.473907   -0.884541
      6          1           0       -1.554769   -1.036409    1.212117
      7          1           0       -1.554769   -1.036409   -1.212117
      8          1           0       -2.665555    0.740530   -0.000000
 ---------------------------------------------------------------------

 SCF Done:  E(RHF) =  -789.369218575     A.U. after    2 cycles

 The electronic state is 1-A.
 Alpha  occ. eigenvalues -- -105.56124 -69.54304 -11.29716 -10.60872  -7.77811
 Alpha  occ. eigenvalues --   -7.77441  -7.77434  -6.21391  -3.96767  -3.96758
 Alpha  occ. eigenvalues --   -3.96743  -1.09300  -0.90840  -0.74255  -0.63256
 Alpha  occ. eigenvalues --   -0.57671  -0.52702  -0.49601  -0.49496  -0.44843
 Alpha  occ. eigenvalues --   -0.42852
 Alpha virt. eigenvalues --    0.03405   0.04107   0.04455   0.05985   0.07573
 Alpha virt. eigenvalues --    0.08077   0.08768   0.09498   0.09499   0.14443
 Alpha virt. eigenvalues --    0.15075   0.15506   0.16585   0.16731   0.17727

 Mulliken charges:
               1
     1  Si   1.222978
     2  C   -0.776119
     3  Cl  -0.163136
     4  H    0.169769
     5  H    0.169768
     6  H   -0.199127
     7  H   -0.199127
     8  H   -0.225006
 Sum of Mulliken charges =  -0.00000

 Dipole moment (field-independent basis, Debye):
    X=             -1.5682    Y=              1.3550    Z=              0.0000  Tot=              2.0725

 Test job not archived.
 1\1\GINC-SE070\SP\RHF\Aug-CC-pVDZ\C1H5Cl1Si1\OHZDE\08-Apr-2025\0\\#t h
 f aug-cc-pvdz iop(5/13=1,5/36=2,99/5=2) pseudo=read geom=check guess=(
 read,tcheck) scf=(maxcycle=1)\\title\\0,1\Si,0,1.512094,-0.192233,0.\C
 ,0,-0.07305,0.841675,0.\Cl,0,-1.541632,-0.233783,0.\H,0,-0.149179,1.47
 3907,-0.884542\H,0,-0.149179,1.473907,0.884541\H,0,1.554769,-1.036409,
 -1.212117\H,0,1.554769,-1.036409,1.212117\H,0,2.665555,0.74053,0.\\Ver
 sion=ES64L-G16RevC.01\State=1-A\HF=-789.3692186\RMSD=4.375e-03\Dipole=
 0.616965,0.5330978,0.\Quadrupole=-1.6723631,1.2780532,0.3943099,-0.265

 Normal termination of Gaussian 16 at Tue Apr  8 23:56:21 2025.
