 Gaussian 16, Revision C.01,

 ----------------------------------------------------------------------
 #t hf aug-cc-pvdz symm=none int=(grid=ultrafine) guess=(read,tcheck) s
 table=(opt,rrhf)
 ----------------------------------------------------------------------
 -----
 title
 -----
 Symbolic Z-matrix:
 Charge =  0 Multiplicity = 1

 SCF Done:  E(RHF) =  -535.482962042     A.U. after   16 cycles
 Normal termination of Gaussian 16 at Tue Apr  8 23:05:17 2025.
 Gaussian 16:  ES64L-G16RevC.01  3-Jul-2019

 ----------------------------------------------------------------------
 #t hf aug-cc-pvdz iop(5/13=1,5/36=2,99/5=2) pseudo=read geom=check gue
 ss=(read,tcheck) scf=(maxcycle=1)
 ----------------------------------------------------------------------
 -----
 title
 -----
 Structure from the checkpoint file:  "BDE49_expt_266_mol1.chk"
 Charge =  0 Multiplicity = 1

                         Standard orientation:
 ---------------------------------------------------------------------
 Center     Atomic      Atomic             Coordinates (Angstroms)
 Number     Number       Type             X           Y           Z
 ---------------------------------------------------------------------
      1          6           0        1.062814   -0.569097   -0.468574
      2          6           0        1.593592    0.504664   -1.187256
      3          6           0        1.659122   -0.931574    0.743807
      4          6           0        2.705065    1.197384   -0.711052
      5          6           0        3.296083    0.826550    0.494150
      6          6           0        2.768493   -0.239488    1.221186
      7          1           0        1.135401    0.798218   -2.125750
      8          1           0        3.109094    2.025281   -1.283105
      9          1           0        4.162405    1.363030    0.864394
     10          1           0        3.222609   -0.533938    2.160808
     11          1           0        1.244977   -1.754964    1.315451
     12          6           0       -0.156239   -1.318861   -0.977350
     13          6           0       -1.397423   -0.919041   -0.195983
     14          1           0       -0.312452   -1.109810   -2.036064
     15          1           0       -0.023904   -2.393731   -0.841848
     16          8           0       -1.760017   -1.441569    0.828623
     17          8           0       -2.026142    0.119368   -0.784560
     18          6           0       -3.188022    0.656543   -0.099479
     19          6           0       -2.785313    1.692214    0.936747
     20          1           0       -3.735779   -0.168726    0.356735
     21          1           0       -3.787768    1.097285   -0.895991
     22          1           0       -2.202452    1.231625    1.735944
     23          1           0       -3.679704    2.139852    1.379561
     24          1           0       -2.192174    2.487723    0.480188
 ---------------------------------------------------------------------

 SCF Done:  E(RHF) =  -536.031846386     A.U. after    2 cycles

 The electronic state is 1-A.
 Alpha  occ. eigenvalues --  -20.58601 -20.53113 -11.38756 -11.29650 -11.25755
 Alpha  occ. eigenvalues --  -11.25705 -11.24610 -11.24550 -11.24493 -11.24417
 Alpha  occ. eigenvalues --  -11.24278 -11.23082  -1.53724  -1.44726  -1.16321
 Alpha  occ. eigenvalues --   -1.07587  -1.03437  -1.01906  -0.97123  -0.88027
 Alpha  occ. eigenvalues --   -0.84003  -0.82055  -0.77134  -0.71969  -0.70059
 Alpha  occ. eigenvalues --   -0.68482  -0.65953  -0.65315  -0.63959  -0.61205
 Alpha  occ. eigenvalues --   -0.60132  -0.59273  -0.56841  -0.56389  -0.53983
 Alpha  occ. eigenvalues --   -0.53061  -0.50957  -0.50378  -0.50119  -0.49809
 Alpha  occ. eigenvalues --   -0.45024  -0.43871  -0.34829  -0.34237
 Alpha virt. eigenvalues --    0.03277   0.03389   0.03927   0.03970   0.04913
 Alpha virt. eigenvalues --    0.05089   0.05690   0.06129   0.07020   0.07896
 Alpha virt. eigenvalues --    0.08004   0.09012   0.09752   0.10133   0.10556

 Mulliken charges:
               1
     1  C    1.187998
     2  C    0.172532
     3  C   -0.030186
     4  C    0.132272
     5  C    0.129437
     6  C    0.105712
     7  H   -0.315318
     8  H   -0.235702
     9  H   -0.219512
    10  H   -0.232572
    11  H   -0.335414
    12  C   -0.837796
    13  C    2.403460
    14  H    0.068440
    15  H    0.179363
    16  O   -1.373509
    17  O   -1.432236
    18  C    0.448913
    19  C   -0.495704
    20  H    0.230279
    21  H   -0.030877
    22  H    0.163774
    23  H    0.128306
    24  H    0.188340
 Sum of Mulliken charges =   0.00000

 Dipole moment (field-independent basis, Debye):
    X=              0.1241    Y=              1.4075    Z=             -1.1870  Tot=              1.8454

 Test job not archived.
 1\1\GINC-SE069\SP\RHF\Aug-CC-pVDZ\C10H12O2\OHZDE\08-Apr-2025\0\\#t hf
 aug-cc-pvdz iop(5/13=1,5/36=2,99/5=2) pseudo=read geom=check guess=(re
 ad,tcheck) scf=(maxcycle=1)\\title\\0,1\C,0,1.062814,-0.569097,-0.4685
 74\C,0,1.593592,0.504664,-1.187256\C,0,1.659122,-0.931574,0.743807\C,0
 ,2.705065,1.197384,-0.711052\C,0,3.296083,0.82655,0.49415\C,0,2.768493
 ,-0.239488,1.221186\H,0,1.135401,0.798218,-2.12575\H,0,3.109094,2.0252
 81,-1.283105\H,0,4.162405,1.36303,0.864394\H,0,3.222609,-0.533938,2.16
 0808\H,0,1.244977,-1.754964,1.315451\C,0,-0.156239,-1.318861,-0.97735\

 Normal termination of Gaussian 16 at Tue Apr  8 23:05:35 2025.
