 Gaussian 16, Revision C.01,

 ----------------------------------------------------------------------
 #t hf aug-cc-pvdz symm=none int=(grid=ultrafine) guess=(read,tcheck) s
 table=(opt,rrhf)
 ----------------------------------------------------------------------
 -----
 title
 -----
 Symbolic Z-matrix:
 Charge =  0 Multiplicity = 1

 SCF Done:  E(RHF) =  -577.207380868     A.U. after   12 cycles

 1\1\GINC-SE435\Stability\RHF\Aug-CC-pVDZ\C3H7Cl1\OHZDE\08-Apr-2025\0\\
 #t hf aug-cc-pvdz symm=none int=(grid=ultrafine) guess=(read,tcheck) s
 table=(opt,rrhf)\\title\\0,1\C,0,-0.57656,-0.906656,1.274179\H,0,0.293
 487,-1.566345,1.308265\H,0,-1.48,-1.52483,1.304179\H,0,-0.564656,-0.27
 1581,2.161066\C,0,-0.57656,-0.076762,0.\C,0,-0.57656,-0.906656,-1.2741
 79\Cl,0,0.89966,1.026152,0.\H,0,-0.564656,-0.271581,-2.161066\H,0,0.29
 3487,-1.566345,-1.308265\H,0,-1.413807,0.621382,0.\H,0,-1.48,-1.52483,
 -1.304179\\Version=ES64L-G16RevC.01\HF=-577.2073809\RMSD=3.024e-09\Dip

 Normal termination of Gaussian 16 at Tue Apr  8 22:30:20 2025.
 Gaussian 16:  ES64L-G16RevC.01  3-Jul-2019

 ----------------------------------------------------------------------
 #t hf aug-cc-pvdz iop(5/13=1,5/36=2,99/5=2) pseudo=read geom=check gue
 ss=(read,tcheck) scf=(maxcycle=1)
 ----------------------------------------------------------------------
 -----
 title
 -----
 Structure from the checkpoint file:  "BDE49_expt_1027_mol1.chk"
 Charge =  0 Multiplicity = 1

                         Standard orientation:
 ---------------------------------------------------------------------
 Center     Atomic      Atomic             Coordinates (Angstroms)
 Number     Number       Type             X           Y           Z
 ---------------------------------------------------------------------
      1          6           0       -0.576560   -0.906656    1.274179
      2          1           0        0.293487   -1.566345    1.308265
      3          1           0       -1.480000   -1.524830    1.304179
      4          1           0       -0.564656   -0.271581    2.161066
      5          6           0       -0.576560   -0.076762    0.000000
      6          6           0       -0.576560   -0.906656   -1.274179
      7         17           0        0.899660    1.026152   -0.000000
      8          1           0       -0.564656   -0.271581   -2.161066
      9          1           0        0.293487   -1.566345   -1.308265
     10          1           0       -1.413807    0.621382    0.000000
     11          1           0       -1.480000   -1.524830   -1.304179
 ---------------------------------------------------------------------

 SCF Done:  E(RHF) =  -577.417503479     A.U. after    2 cycles

 The electronic state is 1-A'.
 Alpha  occ. eigenvalues -- -105.54381 -11.31149 -11.24324 -11.24311 -10.59189
 Alpha  occ. eigenvalues --   -7.76112  -7.75767  -7.75762  -1.12454  -0.99133
 Alpha  occ. eigenvalues --   -0.95629  -0.80284  -0.65670  -0.62162  -0.59966
 Alpha  occ. eigenvalues --   -0.56327  -0.52623  -0.52257  -0.49468  -0.43675
 Alpha  occ. eigenvalues --   -0.43590
 Alpha virt. eigenvalues --    0.03487   0.04264   0.04277   0.05218   0.07026
 Alpha virt. eigenvalues --    0.07238   0.07556   0.09859   0.12755   0.13395
 Alpha virt. eigenvalues --    0.14956   0.15236   0.16116   0.16581   0.17342

 Mulliken charges:
               1
     1  C   -0.121864
     2  H    0.212474
     3  H    0.202688
     4  H    0.137237
     5  C   -0.912575
     6  C   -0.121864
     7  Cl  -0.126690
     8  H    0.137237
     9  H    0.212474
    10  H    0.178195
    11  H    0.202688
 Sum of Mulliken charges =  -0.00000

 Dipole moment (field-independent basis, Debye):
    X=             -2.0061    Y=             -1.6611    Z=             -0.0000  Tot=              2.6046

 Test job not archived.
 1\1\GINC-SE435\SP\RHF\Aug-CC-pVDZ\C3H7Cl1\OHZDE\08-Apr-2025\0\\#t hf a
 ug-cc-pvdz iop(5/13=1,5/36=2,99/5=2) pseudo=read geom=check guess=(rea
 d,tcheck) scf=(maxcycle=1)\\title\\0,1\C,0,-0.57656,-0.906656,1.274179
 \H,0,0.293487,-1.566345,1.308265\H,0,-1.48,-1.52483,1.304179\H,0,-0.56
 4656,-0.271581,2.161066\C,0,-0.57656,-0.076762,0.\C,0,-0.57656,-0.9066
 56,-1.274179\Cl,0,0.89966,1.026152,0.\H,0,-0.564656,-0.271581,-2.16106
 6\H,0,0.293487,-1.566345,-1.308265\H,0,-1.413807,0.621382,0.\H,0,-1.48
 ,-1.52483,-1.304179\\Version=ES64L-G16RevC.01\State=1-A'\HF=-577.41750

 Normal termination of Gaussian 16 at Tue Apr  8 22:30:23 2025.
