 Gaussian 16, Revision C.01,

 ----------------------------------------------------------------------
 #t hf aug-cc-pvdz symm=none int=(grid=ultrafine) guess=(read,tcheck) s
 table=(opt,rrhf)
 ----------------------------------------------------------------------
 -----
 title
 -----
 Symbolic Z-matrix:
 Charge =  0 Multiplicity = 1

 SCF Done:  E(RHF) =  -198.615451885     A.U. after   12 cycles
 Normal termination of Gaussian 16 at Wed Apr  9 00:38:35 2025.
 Gaussian 16:  ES64L-G16RevC.01  3-Jul-2019

 ----------------------------------------------------------------------
 #t hf aug-cc-pvdz iop(5/13=1,5/36=2,99/5=2) pseudo=read geom=check gue
 ss=(read,tcheck) scf=(maxcycle=1)
 ----------------------------------------------------------------------
 -----
 title
 -----
 Structure from the checkpoint file:  "BDE49_nonexpt_586_mol1.chk"
 Charge =  0 Multiplicity = 1

                         Standard orientation:
 ---------------------------------------------------------------------
 Center     Atomic      Atomic             Coordinates (Angstroms)
 Number     Number       Type             X           Y           Z
 ---------------------------------------------------------------------
      1          5           0        2.210128   -0.000000   -0.189395
      2          7           0        0.945355   -0.000002    0.380833
      3          6           0       -0.349266   -0.000000   -0.308273
      4          6           0       -1.143024   -1.268965    0.024806
      5          1           0       -1.366412   -1.319027    1.096414
      6          1           0       -0.575818   -2.162512   -0.244847
      7          6           0       -1.143022    1.268967    0.024807
      8          1           0       -2.094334   -1.286831   -0.514057
      9          1           0       -0.119089    0.000000   -1.377362
     10          1           0       -2.094332    1.286833   -0.514056
     11          1           0       -1.366409    1.319028    1.096415
     12          1           0       -0.575815    2.162513   -0.244846
     13          1           0        3.166181    0.000001    0.524516
     14          1           0        2.312077    0.000004   -1.379270
     15          1           0        0.857700   -0.000003    1.390197
 ---------------------------------------------------------------------

 SCF Done:  E(RHF) =  -198.835302797     A.U. after    2 cycles

 The electronic state is 1-A.
 Alpha  occ. eigenvalues --  -15.49200 -11.27146 -11.22851 -11.22827  -7.57138
 Alpha  occ. eigenvalues --   -1.20017  -1.03238  -0.94041  -0.82299  -0.76164
 Alpha  occ. eigenvalues --   -0.65578  -0.61880  -0.59657  -0.57942  -0.54976
 Alpha  occ. eigenvalues --   -0.53372  -0.51061  -0.49117  -0.46247  -0.43018
 Alpha virt. eigenvalues --    0.03502   0.03915   0.04302   0.04469   0.05618
 Alpha virt. eigenvalues --    0.05706   0.05987   0.06380   0.07079   0.09407
 Alpha virt. eigenvalues --    0.09732   0.11239   0.12231   0.13416   0.13569

 Mulliken charges:
               1
     1  B   -0.613478
     2  N    0.732316
     3  C   -1.731133
     4  C   -0.003367
     5  H    0.185995
     6  H    0.129676
     7  C   -0.003371
     8  H    0.181104
     9  H    0.049928
    10  H    0.181104
    11  H    0.185995
    12  H    0.129678
    13  H    0.306104
    14  H    0.127571
    15  H    0.141877
 Sum of Mulliken charges =  -0.00000

 Dipole moment (field-independent basis, Debye):
    X=             -1.6321    Y=             -0.0000    Z=              0.4643  Tot=              1.6968

 Test job not archived.
 1\1\GINC-SE059\SP\RHF\Aug-CC-pVDZ\C3H10B1N1\OHZDE\09-Apr-2025\0\\#t hf
  aug-cc-pvdz iop(5/13=1,5/36=2,99/5=2) pseudo=read geom=check guess=(r
 ead,tcheck) scf=(maxcycle=1)\\title\\0,1\B,0,2.210128,-0.000001,-0.189
 395\N,0,0.945355,-0.000002,0.380833\C,0,-0.349266,0.,-0.308273\C,0,-1.
 143024,-1.268965,0.024806\H,0,-1.366412,-1.319027,1.096414\H,0,-0.5758
 19,-2.162512,-0.244847\C,0,-1.143022,1.268967,0.024807\H,0,-2.094334,-
 1.28683,-0.514057\H,0,-0.119089,0.,-1.377362\H,0,-2.094332,1.286834,-0
 .514056\H,0,-1.366409,1.319028,1.096415\H,0,-0.575814,2.162513,-0.2448

 Normal termination of Gaussian 16 at Wed Apr  9 00:38:40 2025.
