 Gaussian 16, Revision C.01,

 ----------------------------------------------------------------------
 #t hf aug-cc-pvdz symm=none int=(grid=ultrafine) guess=(read,tcheck) s
 table=(opt,rrhf)
 ----------------------------------------------------------------------
 -----
 title
 -----
 Symbolic Z-matrix:
 Charge =  0 Multiplicity = 1

 SCF Done:  E(RHF) =  -706.334669784     A.U. after   15 cycles

 1\1\GINC-SE106\Stability\RHF\Aug-CC-pVDZ\C8H10S1\OHZDE\08-Apr-2025\0\\
 #t hf aug-cc-pvdz symm=none int=(grid=ultrafine) guess=(read,tcheck) s
 table=(opt,rrhf)\\title\\0,1\S,0,-2.421748,-0.477804,-0.10005\C,0,-1.0
 82915,-0.262352,1.146037\C,0,0.307303,-0.142676,0.574635\C,0,0.929849,
 -1.236878,-0.038633\C,0,2.215186,-1.124696,-0.556492\C,0,1.003636,1.06
 6869,0.647807\C,0,2.291973,1.183653,0.12619\C,0,2.901523,0.08778,-0.47
 6565\H,0,3.903568,0.174517,-0.881202\H,0,2.684454,-1.983612,-1.023361\
 H,0,0.396298,-2.178378,-0.11471\H,0,0.537062,1.923473,1.124079\H,0,2.8

 Normal termination of Gaussian 16 at Tue Apr  8 22:47:54 2025.
 Gaussian 16:  ES64L-G16RevC.01  3-Jul-2019

 ----------------------------------------------------------------------
 #t hf aug-cc-pvdz iop(5/13=1,5/36=2,99/5=2) pseudo=read geom=check gue
 ss=(read,tcheck) scf=(maxcycle=1)
 ----------------------------------------------------------------------
 -----
 title
 -----
 Structure from the checkpoint file:  "BDE49_expt_1582_mol1.chk"
 Charge =  0 Multiplicity = 1

                         Standard orientation:
 ---------------------------------------------------------------------
 Center     Atomic      Atomic             Coordinates (Angstroms)
 Number     Number       Type             X           Y           Z
 ---------------------------------------------------------------------
      1         16           0       -2.421748   -0.477804   -0.100050
      2          6           0       -1.082915   -0.262352    1.146037
      3          6           0        0.307303   -0.142676    0.574635
      4          6           0        0.929849   -1.236878   -0.038633
      5          6           0        2.215186   -1.124696   -0.556492
      6          6           0        1.003636    1.066869    0.647807
      7          6           0        2.291973    1.183653    0.126190
      8          6           0        2.901523    0.087780   -0.476565
      9          1           0        3.903568    0.174517   -0.881202
     10          1           0        2.684454   -1.983612   -1.023361
     11          1           0        0.396298   -2.178378   -0.114710
     12          1           0        0.537062    1.923473    1.124079
     13          1           0        2.816863    2.130129    0.193650
     14          6           0       -2.280528    1.086618   -1.020002
     15          1           0       -2.491466    1.942826   -0.376325
     16          1           0       -3.029126    1.047134   -1.812193
     17          1           0       -1.292033    1.189032   -1.468847
     18          1           0       -1.171849   -1.152807    1.773176
     19          1           0       -1.321962    0.602644    1.768681
 ---------------------------------------------------------------------

 SCF Done:  E(RHF) =  -706.720159555     A.U. after    2 cycles

 The electronic state is 1-A.
 Alpha  occ. eigenvalues --  -93.93992 -11.27302 -11.26002 -11.25332 -11.24634
 Alpha  occ. eigenvalues --  -11.24567 -11.24475 -11.24383 -11.24242  -8.22023
 Alpha  occ. eigenvalues --   -6.19851  -6.19689  -6.19471  -1.16337  -1.09027
 Alpha  occ. eigenvalues --   -1.02643  -1.01888  -0.94745  -0.84987  -0.83768
 Alpha  occ. eigenvalues --   -0.79703  -0.71069  -0.66035  -0.64767  -0.60838
 Alpha  occ. eigenvalues --   -0.60343  -0.59787  -0.58739  -0.57138  -0.52893
 Alpha  occ. eigenvalues --   -0.51420  -0.50462  -0.49100  -0.44183  -0.35497
 Alpha  occ. eigenvalues --   -0.34655  -0.33261
 Alpha virt. eigenvalues --    0.03230   0.03451   0.03867   0.04114   0.05123
 Alpha virt. eigenvalues --    0.05154   0.06818   0.07133   0.07854   0.08103
 Alpha virt. eigenvalues --    0.09429   0.10066   0.10456   0.11786   0.13427

 Mulliken charges:
               1
     1  S    0.394109
     2  C   -0.802213
     3  C    1.511787
     4  C   -0.048836
     5  C    0.116532
     6  C    0.146779
     7  C    0.092028
     8  C    0.077574
     9  H   -0.215852
    10  H   -0.229128
    11  H   -0.292485
    12  H   -0.336118
    13  H   -0.232105
    14  C   -0.727994
    15  H    0.164201
    16  H    0.138823
    17  H    0.191954
    18  H    0.070427
    19  H   -0.019483
 Sum of Mulliken charges =  -0.00000

 Dipole moment (field-independent basis, Debye):
    X=              1.0808    Y=              1.2510    Z=              0.0947  Tot=              1.6559

 Test job not archived.
 1\1\GINC-SE106\SP\RHF\Aug-CC-pVDZ\C8H10S1\OHZDE\08-Apr-2025\0\\#t hf a
 ug-cc-pvdz iop(5/13=1,5/36=2,99/5=2) pseudo=read geom=check guess=(rea
 d,tcheck) scf=(maxcycle=1)\\title\\0,1\S,0,-2.421748,-0.477804,-0.1000
 5\C,0,-1.082915,-0.262352,1.146037\C,0,0.307303,-0.142676,0.574635\C,0
 ,0.929849,-1.236878,-0.038633\C,0,2.215186,-1.124696,-0.556492\C,0,1.0
 03636,1.066869,0.647807\C,0,2.291973,1.183653,0.12619\C,0,2.901523,0.0
 8778,-0.476565\H,0,3.903568,0.174517,-0.881202\H,0,2.684454,-1.983612,
 -1.023361\H,0,0.396298,-2.178378,-0.11471\H,0,0.537062,1.923473,1.1240

 Normal termination of Gaussian 16 at Tue Apr  8 22:48:05 2025.
