 Gaussian 16, Revision C.01,

 ----------------------------------------------------------------------
 #t hf aug-cc-pvdz symm=none int=(grid=ultrafine) guess=(read,tcheck) s
 table=opt
 ----------------------------------------------------------------------
 -----
 title
 -----
 Symbolic Z-matrix:
 Charge =  0 Multiplicity = 2

 SCF Done:  E(UHF) =  -862.300247186     A.U. after   21 cycles
 Normal termination of Gaussian 16 at Tue Apr  8 23:50:19 2025.
 Gaussian 16:  ES64L-G16RevC.01  3-Jul-2019

 ----------------------------------------------------------------------
 #t hf aug-cc-pvdz iop(5/13=1,5/36=2,99/5=2) pseudo=read geom=check gue
 ss=(read,tcheck) scf=(maxcycle=1)
 ----------------------------------------------------------------------
 -----
 title
 -----
 Structure from the checkpoint file:  "BDE49_nonexpt_1875_mol2.chk"
 Charge =  0 Multiplicity = 2

                         Standard orientation:
 ---------------------------------------------------------------------
 Center     Atomic      Atomic             Coordinates (Angstroms)
 Number     Number       Type             X           Y           Z
 ---------------------------------------------------------------------
      1         14           0        1.592955   -0.477621   -0.083903
      2          6           0        0.010376    0.560530    0.018789
      3          8           0       -0.105175    1.734913    0.019876
      4          1           0        2.752930    0.324186    0.359647
      5          1           0        1.444164   -1.784313    0.581158
      6         17           0       -1.512901   -0.535039   -0.002230
 ---------------------------------------------------------------------

 SCF Done:  E(UHF) =  -862.510719220     A.U. after    2 cycles

 The electronic state is 2-A.
 Alpha  occ. eigenvalues -- -105.56964 -69.58917 -20.61142 -11.41677 -10.61805
 Alpha  occ. eigenvalues --   -7.78701  -7.78358  -7.78350  -6.26097  -4.02079
 Alpha  occ. eigenvalues --   -4.01183  -4.01099  -1.55649  -1.07085  -0.87158
 Alpha  occ. eigenvalues --   -0.75550  -0.66778  -0.64453  -0.62272  -0.54188
 Alpha  occ. eigenvalues --   -0.47485  -0.46915  -0.44149  -0.37530
 Alpha virt. eigenvalues --    0.03251   0.04914   0.05159   0.05434   0.07292
 Alpha virt. eigenvalues --    0.08130   0.09389   0.11065   0.12157   0.13333
 Alpha virt. eigenvalues --    0.13928   0.15235   0.16274   0.16914   0.17644

  Beta  occ. eigenvalues -- -105.56969 -69.58323 -20.60427 -11.42009 -10.61811
  Beta  occ. eigenvalues --   -7.78705  -7.78368  -7.78358  -6.25205  -4.00752
  Beta  occ. eigenvalues --   -4.00678  -3.99813  -1.54141  -1.07061  -0.85147
  Beta  occ. eigenvalues --   -0.73531  -0.66527  -0.63259  -0.59297  -0.53515
  Beta  occ. eigenvalues --   -0.46910  -0.46576  -0.43172
  Beta virt. eigenvalues --   -0.01130   0.03526   0.05105   0.05567   0.06146
  Beta virt. eigenvalues --    0.08454   0.09483   0.10336   0.12213   0.13142
  Beta virt. eigenvalues --    0.13706   0.14415   0.16089   0.17353   0.17950

 Mulliken charges and spin densities:
               1          2
     1  Si   0.873109   0.987910
     2  C    0.393257  -0.153168
     3  O   -0.835345   0.172337
     4  H   -0.139425   0.002131
     5  H   -0.128550  -0.007364
     6  Cl  -0.163047  -0.001847
 Sum of Mulliken charges =  -0.00000   1.00000

 Dipole moment (field-independent basis, Debye):
    X=              2.8520    Y=             -1.3384    Z=              0.1076  Tot=              3.1522
                          Isotropic Fermi Contact Couplings
        Atom                 a.u.       MegaHertz       Gauss      10(-4) cm-1
     1  Si(29)             0.59431    -528.17971    -188.46765    -176.18179
     2  C(13)             -0.02941     -33.05833     -11.79603     -11.02707
     3  O(17)              0.05214     -31.60562     -11.27767     -10.54250
     4  H(1)               0.00020       0.88321       0.31515       0.29461
     5  H(1)              -0.00150      -6.70103      -2.39109      -2.23522
     6  Cl(35)            -0.00816      -3.57777      -1.27664      -1.19342
 --------------------------------------------------------
       Center         ----  Spin Dipole Couplings  ----

 Normal termination of Gaussian 16 at Tue Apr  8 23:50:21 2025.
