 Gaussian 16, Revision C.01,

 ----------------------------------------------------------------------
 #t hf aug-cc-pvdz symm=none int=(grid=ultrafine) guess=(read,tcheck) s
 table=(opt,rrhf)
 ----------------------------------------------------------------------
 -----
 title
 -----
 Symbolic Z-matrix:
 Charge =  0 Multiplicity = 1

 SCF Done:  E(RHF) =  -734.067067836     A.U. after   16 cycles
 Normal termination of Gaussian 16 at Wed Apr  9 00:55:05 2025.
 Gaussian 16:  ES64L-G16RevC.01  3-Jul-2019

 ----------------------------------------------------------------------
 #t hf aug-cc-pvdz iop(5/13=1,5/36=2,99/5=2) pseudo=read geom=check gue
 ss=(read,tcheck) scf=(maxcycle=1)
 ----------------------------------------------------------------------
 -----
 title
 -----
 Structure from the checkpoint file:  "BDE49_nonexpt_978_mol1.chk"
 Charge =  0 Multiplicity = 1

                         Standard orientation:
 ---------------------------------------------------------------------
 Center     Atomic      Atomic             Coordinates (Angstroms)
 Number     Number       Type             X           Y           Z
 ---------------------------------------------------------------------
      1          6           0        1.052696   -0.087706    0.000015
      2          6           0        1.694315    1.158315    0.000039
      3          1           0        1.112964    2.066030    0.000080
      4          6           0        3.085130    1.196985    0.000008
      5          1           0        3.578279    2.162156    0.000026
      6          6           0        3.839284    0.026773   -0.000045
      7          1           0        4.921696    0.072572   -0.000068
      8          6           0        3.187113   -1.203018   -0.000067
      9          1           0        3.758194   -2.124117   -0.000108
     10          6           0        1.798363   -1.271502   -0.000039
     11          1           0        1.298216   -2.228167   -0.000057
     12          7           0       -0.363346   -0.171147    0.000045
     13          9           0       -0.842086   -1.471790    0.000012
     14          6           0       -1.339726    0.788276    0.000055
     15          8           0       -1.102129    1.979198   -0.000051
     16          6           0       -2.802979    0.302861   -0.000029
     17          9           0       -3.076430   -0.444253   -1.104214
     18          9           0       -3.076647   -0.443975    1.104290
     19          1           0       -3.437603    1.190236   -0.000198
 ---------------------------------------------------------------------

 SCF Done:  E(RHF) =  -734.769295816     A.U. after    2 cycles

 The electronic state is 1-A.
 Alpha  occ. eigenvalues --  -26.53242 -26.50277 -26.50276 -20.56859 -15.65947
 Alpha  occ. eigenvalues --  -11.45484 -11.41859 -11.32124 -11.26155 -11.26081
 Alpha  occ. eigenvalues --  -11.26016 -11.25764 -11.25393  -1.67070  -1.65284
 Alpha  occ. eigenvalues --   -1.60138  -1.51547  -1.26504  -1.16815  -1.06970
 Alpha  occ. eigenvalues --   -1.03883  -1.00767  -0.92708  -0.86416  -0.82733
 Alpha  occ. eigenvalues --   -0.80403  -0.79316  -0.77293  -0.76960  -0.75252
 Alpha  occ. eigenvalues --   -0.71246  -0.69799  -0.67667  -0.66124  -0.65510
 Alpha  occ. eigenvalues --   -0.63847  -0.62957  -0.62955  -0.61464  -0.61388
 Alpha  occ. eigenvalues --   -0.56913  -0.55112  -0.54341  -0.52855  -0.48126
 Alpha  occ. eigenvalues --   -0.47141  -0.36477  -0.34680
 Alpha virt. eigenvalues --    0.03217   0.03691   0.04157   0.04467   0.06027
 Alpha virt. eigenvalues --    0.06868   0.07514   0.09088   0.09117   0.09517
 Alpha virt. eigenvalues --    0.10121   0.10421   0.11955   0.12643   0.13308

 Mulliken charges:
               1
     1  C   -1.226647
     2  C    0.178024
     3  H   -0.272622
     4  C    0.588484
     5  H   -0.231053
     6  C   -0.027546
     7  H   -0.218408
     8  C    0.492508
     9  H   -0.214629
    10  C    0.503436
    11  H   -0.242376
    12  N    1.809514
    13  F   -0.755775
    14  C    0.517134
    15  O   -1.341478
    16  C    1.829728
    17  F   -0.721730
    18  F   -0.721718
    19  H    0.055156
 Sum of Mulliken charges =   0.00000

 Dipole moment (field-independent basis, Debye):
    X=              1.6336    Y=             -0.1793    Z=             -0.0001  Tot=              1.6435

 Test job not archived.
 1\1\GINC-SE332\SP\RHF\Aug-CC-pVDZ\C8H6F3N1O1\OHZDE\09-Apr-2025\0\\#t h
 f aug-cc-pvdz iop(5/13=1,5/36=2,99/5=2) pseudo=read geom=check guess=(
 read,tcheck) scf=(maxcycle=1)\\title\\0,1\C,0,-1.052696,-0.087706,-0.0
 00015\C,0,-1.694315,1.158315,-0.000039\H,0,-1.112964,2.06603,-0.00008\
 C,0,-3.08513,1.196985,-0.000008\H,0,-3.578279,2.162156,-0.000026\C,0,-
 3.839284,0.026773,0.000045\H,0,-4.921696,0.072572,0.000068\C,0,-3.1871
 13,-1.203018,0.000067\H,0,-3.758194,-2.124117,0.000108\C,0,-1.798363,-
 1.271502,0.000039\H,0,-1.298216,-2.228167,0.000057\N,0,0.363346,-0.171

 Normal termination of Gaussian 16 at Wed Apr  9 00:55:16 2025.
