 Gaussian 16, Revision C.01,

 ----------------------------------------------------------------------
 #t hf aug-cc-pvdz symm=none int=(grid=ultrafine) guess=(read,tcheck) s
 table=(opt,rrhf)
 ----------------------------------------------------------------------
 -----
 title
 -----
 Symbolic Z-matrix:
 Charge =  0 Multiplicity = 1

 SCF Done:  E(RHF) =  -605.419649698     A.U. after   17 cycles
 Normal termination of Gaussian 16 at Wed Apr  9 00:53:02 2025.
 Gaussian 16:  ES64L-G16RevC.01  3-Jul-2019

 ----------------------------------------------------------------------
 #t hf aug-cc-pvdz iop(5/13=1,5/36=2,99/5=2) pseudo=read geom=check gue
 ss=(read,tcheck) scf=(maxcycle=1)
 ----------------------------------------------------------------------
 -----
 title
 -----
 Structure from the checkpoint file:  "BDE49_nonexpt_986_mol1.chk"
 Charge =  0 Multiplicity = 1

                         Standard orientation:
 ---------------------------------------------------------------------
 Center     Atomic      Atomic             Coordinates (Angstroms)
 Number     Number       Type             X           Y           Z
 ---------------------------------------------------------------------
      1         16           0        0.203385   -1.048612   -0.062003
      2          7           0        1.682879    0.074065   -0.250988
      3          8           0        1.548696    1.192846    0.092803
      4          6           0       -1.034718    0.085427    0.631434
      5          6           0       -2.051989    0.591524   -0.391468
      6          1           0       -0.455214    0.917718    1.047599
      7          1           0       -1.513897   -0.438220    1.460742
      8          1           0       -1.556018    1.135610   -1.197644
      9          1           0       -2.761401    1.270450    0.091352
     10          1           0       -2.617117   -0.230694   -0.835298
 ---------------------------------------------------------------------

 SCF Done:  E(RHF) =  -605.684031451     A.U. after    2 cycles

 The electronic state is 1-A.
 Alpha  occ. eigenvalues --  -93.98204 -20.64857 -15.69541 -11.28190 -11.24534
 Alpha  occ. eigenvalues --   -8.26187  -6.23952  -6.23761  -6.23563  -1.64826
 Alpha  occ. eigenvalues --   -1.11632  -1.03149  -0.92491  -0.82712  -0.72790
 Alpha  occ. eigenvalues --   -0.71587  -0.65891  -0.63376  -0.59528  -0.55833
 Alpha  occ. eigenvalues --   -0.52490  -0.47579  -0.40437  -0.38472
 Alpha virt. eigenvalues --    0.03517   0.04201   0.04717   0.05495   0.06039
 Alpha virt. eigenvalues --    0.07162   0.08070   0.08595   0.12210   0.12431
 Alpha virt. eigenvalues --    0.13686   0.14429   0.15604   0.16626   0.16729

 Mulliken charges:
               1
     1  S    0.424711
     2  N    0.608941
     3  O   -0.935030
     4  C   -0.727703
     5  C   -0.355141
     6  H    0.303885
     7  H    0.198355
     8  H    0.167787
     9  H    0.139326
    10  H    0.174870
 Sum of Mulliken charges =  -0.00000

 Dipole moment (field-independent basis, Debye):
    X=             -2.4557    Y=              0.5874    Z=              0.8112  Tot=              2.6521

 Test job not archived.
 1\1\GINC-SE073\SP\RHF\Aug-CC-pVDZ\C2H5N1O1S1\OHZDE\09-Apr-2025\0\\#t h
 f aug-cc-pvdz iop(5/13=1,5/36=2,99/5=2) pseudo=read geom=check guess=(
 read,tcheck) scf=(maxcycle=1)\\title\\0,1\S,0,0.203385,-1.048612,-0.06
 2003\N,0,1.682879,0.074065,-0.250988\O,0,1.548696,1.192846,0.092803\C,
 0,-1.034718,0.085427,0.631434\C,0,-2.051989,0.591523,-0.391468\H,0,-0.
 455214,0.917718,1.047599\H,0,-1.513897,-0.43822,1.460742\H,0,-1.556018
 ,1.13561,-1.197644\H,0,-2.761401,1.270449,0.091352\H,0,-2.617117,-0.23
 0695,-0.835298\\Version=ES64L-G16RevC.01\State=1-A\HF=-605.6840315\RMS

 Normal termination of Gaussian 16 at Wed Apr  9 00:53:05 2025.
