 Gaussian 16, Revision C.01,

 ----------------------------------------------------------------------
 #t hf aug-cc-pvdz symm=none int=(grid=ultrafine) guess=(read,tcheck) s
 table=(opt,rrhf)
 ----------------------------------------------------------------------
 -----
 title
 -----
 Symbolic Z-matrix:
 Charge =  0 Multiplicity = 1

 SCF Done:  E(RHF) =  -1189.94082594     A.U. after   15 cycles
 Normal termination of Gaussian 16 at Wed Apr  9 00:11:30 2025.
 Gaussian 16:  ES64L-G16RevC.01  3-Jul-2019

 ----------------------------------------------------------------------
 #t hf aug-cc-pvdz iop(5/13=1,5/36=2,99/5=2) pseudo=read geom=check gue
 ss=(read,tcheck) scf=(maxcycle=1)
 ----------------------------------------------------------------------
 -----
 title
 -----
 Structure from the checkpoint file:  "BDE49_nonexpt_236_mol1.chk"
 Charge =  0 Multiplicity = 1

                         Standard orientation:
 ---------------------------------------------------------------------
 Center     Atomic      Atomic             Coordinates (Angstroms)
 Number     Number       Type             X           Y           Z
 ---------------------------------------------------------------------
      1         17           0        2.076764    1.506411   -0.000280
      2          5           0        1.155519    0.000000    0.000620
      3         17           0        2.076764   -1.506411   -0.000286
      4          6           0       -0.396831    0.000000    0.000378
      5          6           0       -1.136202   -1.194186    0.000263
      6          6           0       -1.136202    1.194186    0.000268
      7          6           0       -2.526602    1.140894    0.000064
      8          6           0       -2.526602   -1.140894    0.000059
      9          7           0       -3.222793    0.000000   -0.000042
     10          1           0       -0.636208   -2.154768    0.000336
     11          1           0       -3.110486   -2.056815   -0.000029
     12          1           0       -0.636208    2.154768    0.000344
     13          1           0       -3.110486    2.056815   -0.000021
 ---------------------------------------------------------------------

 SCF Done:  E(RHF) =  -1190.36414343     A.U. after    2 cycles

 The electronic state is 1-A.
 Alpha  occ. eigenvalues -- -105.58368-105.58368 -15.52709 -11.29263 -11.29262
 Alpha  occ. eigenvalues --  -11.27075 -11.27074 -11.26748 -10.63399 -10.63368
 Alpha  occ. eigenvalues --   -7.80291  -7.80267  -7.79998  -7.79994  -7.79963
 Alpha  occ. eigenvalues --   -7.79955  -7.72841  -1.27506  -1.13144  -1.09360
 Alpha  occ. eigenvalues --   -1.06833  -1.05034  -0.89145  -0.89058  -0.76282
 Alpha  occ. eigenvalues --   -0.70933  -0.69122  -0.66919  -0.62586  -0.60142
 Alpha  occ. eigenvalues --   -0.58802  -0.57856  -0.54225  -0.53696  -0.49446
 Alpha  occ. eigenvalues --   -0.48520  -0.47096  -0.46637  -0.41997  -0.37056
 Alpha virt. eigenvalues --    0.01312   0.03158   0.03930   0.04551   0.04817
 Alpha virt. eigenvalues --    0.05428   0.06616   0.06847   0.08361   0.09019
 Alpha virt. eigenvalues --    0.10641   0.11234   0.11994   0.13406   0.13702

 Mulliken charges:
               1
     1  Cl  -0.325732
     2  B    0.608233
     3  Cl  -0.325732
     4  C    0.224616
     5  C    0.879315
     6  C    0.879315
     7  C   -1.026407
     8  C   -1.026407
     9  N    1.069325
    10  H   -0.304850
    11  H   -0.173414
    12  H   -0.304850
    13  H   -0.173414
 Sum of Mulliken charges =  -0.00000

 Dipole moment (field-independent basis, Debye):
    X=              0.5525    Y=              0.0000    Z=              0.0016  Tot=              0.5525

 Test job not archived.
 1\1\GINC-SE070\SP\RHF\Aug-CC-pVDZ\C5H4B1Cl2N1\OHZDE\09-Apr-2025\0\\#t
 hf aug-cc-pvdz iop(5/13=1,5/36=2,99/5=2) pseudo=read geom=check guess=
 (read,tcheck) scf=(maxcycle=1)\\title\\0,1\Cl,0,-2.076764,1.506411,0.0
 0028\B,0,-1.155519,0.,-0.00062\Cl,0,-2.076764,-1.506411,0.000286\C,0,0
 .396831,0.,-0.000378\C,0,1.136202,-1.194186,-0.000263\C,0,1.136202,1.1
 94186,-0.000268\C,0,2.526602,1.140894,-0.000064\C,0,2.526602,-1.140894
 ,-0.000059\N,0,3.222793,0.,0.000042\H,0,0.636208,-2.154768,-0.000336\H
 ,0,3.110486,-2.056815,0.000029\H,0,0.636208,2.154768,-0.000344\H,0,3.1

 Normal termination of Gaussian 16 at Wed Apr  9 00:11:36 2025.
