 Gaussian 16, Revision C.01,

 ----------------------------------------------------------------------
 #t hf aug-cc-pvdz symm=none int=(grid=ultrafine) guess=(read,tcheck) s
 table=(opt,rrhf)
 ----------------------------------------------------------------------
 -----
 title
 -----
 Symbolic Z-matrix:
 Charge =  0 Multiplicity = 1

 SCF Done:  E(RHF) =  -158.340152531     A.U. after   14 cycles
 Normal termination of Gaussian 16 at Wed Apr  9 00:35:49 2025.
 Gaussian 16:  ES64L-G16RevC.01  3-Jul-2019

 ----------------------------------------------------------------------
 #t hf aug-cc-pvdz iop(5/13=1,5/36=2,99/5=2) pseudo=read geom=check gue
 ss=(read,tcheck) scf=(maxcycle=1)
 ----------------------------------------------------------------------
 -----
 title
 -----
 Structure from the checkpoint file:  "BDE49_nonexpt_505_mol1.chk"
 Charge =  0 Multiplicity = 1

                         Standard orientation:
 ---------------------------------------------------------------------
 Center     Atomic      Atomic             Coordinates (Angstroms)
 Number     Number       Type             X           Y           Z
 ---------------------------------------------------------------------
      1          1           0        2.197456   -0.788311    0.661717
      2          1           0        1.178099   -1.907439   -0.739046
      3          5           0        1.217486   -0.980933    0.011357
      4          6           0        0.053343    0.054934    0.050441
      5          6           0       -1.403405   -0.324217    0.032620
      6          7           0        0.366617    1.296832   -0.081571
      7          1           0       -1.617160   -0.992532   -0.807859
      8          1           0       -2.023306    0.570717   -0.043408
      9          1           0       -1.669784   -0.868890    0.945078
     10          1           0        1.381316    1.428991   -0.000635
 ---------------------------------------------------------------------

 SCF Done:  E(RHF) =  -158.506771899     A.U. after    2 cycles

 The electronic state is 1-A.
 Alpha  occ. eigenvalues --  -15.50418 -11.27473 -11.23716  -7.61655  -1.21339
 Alpha  occ. eigenvalues --   -0.99442  -0.81089  -0.74991  -0.62145  -0.59723
 Alpha  occ. eigenvalues --   -0.58867  -0.54792  -0.51333  -0.45424  -0.43211
 Alpha virt. eigenvalues --    0.02350   0.03583   0.03986   0.04805   0.05920
 Alpha virt. eigenvalues --    0.06502   0.06906   0.08122   0.08603   0.10674
 Alpha virt. eigenvalues --    0.11724   0.14153   0.15001   0.16052   0.16454

 Mulliken charges:
               1
     1  H    0.236737
     2  H    0.214484
     3  B   -0.413753
     4  C   -0.636114
     5  C   -0.574738
     6  N    0.467853
     7  H    0.199082
     8  H    0.181947
     9  H    0.206284
    10  H    0.118219
 Sum of Mulliken charges =  -0.00000

 Dipole moment (field-independent basis, Debye):
    X=              0.3123    Y=             -2.2936    Z=              0.4073  Tot=              2.3504

 Test job not archived.
 1\1\GINC-SE070\SP\RHF\Aug-CC-pVDZ\C2H6B1N1\OHZDE\09-Apr-2025\0\\#t hf
 aug-cc-pvdz iop(5/13=1,5/36=2,99/5=2) pseudo=read geom=check guess=(re
 ad,tcheck) scf=(maxcycle=1)\\title\\0,1\H,0,2.197456,-0.788312,0.66171
 7\H,0,1.178098,-1.90744,-0.739046\B,0,1.217486,-0.980934,0.011357\C,0,
 0.053343,0.054934,0.050441\C,0,-1.403405,-0.324216,0.03262\N,0,0.36661
 7,1.296832,-0.081571\H,0,-1.61716,-0.992531,-0.807859\H,0,-2.023306,0.
 570718,-0.043408\H,0,-1.669784,-0.868889,0.945078\H,0,1.381317,1.42899
 ,-0.000635\\Version=ES64L-G16RevC.01\State=1-A\HF=-158.5067719\RMSD=1.

 Normal termination of Gaussian 16 at Wed Apr  9 00:35:51 2025.
