 Gaussian 16, Revision C.01,

 ----------------------------------------------------------------------
 #t hf aug-cc-pvdz symm=none int=(grid=ultrafine) guess=(read,tcheck) s
 table=(opt,rrhf)
 ----------------------------------------------------------------------
 -----
 title
 -----
 Symbolic Z-matrix:
 Charge =  0 Multiplicity = 1

 SCF Done:  E(RHF) =  -423.202615787     A.U. after   12 cycles
 Normal termination of Gaussian 16 at Tue Apr  8 23:59:25 2025.
 Gaussian 16:  ES64L-G16RevC.01  3-Jul-2019

 ----------------------------------------------------------------------
 #t hf aug-cc-pvdz iop(5/13=1,5/36=2,99/5=2) pseudo=read geom=check gue
 ss=(read,tcheck) scf=(maxcycle=1)
 ----------------------------------------------------------------------
 -----
 title
 -----
 Structure from the checkpoint file:  "BDE49_nonexpt_2089_mol1.chk"
 Charge =  0 Multiplicity = 1

                         Standard orientation:
 ---------------------------------------------------------------------
 Center     Atomic      Atomic             Coordinates (Angstroms)
 Number     Number       Type             X           Y           Z
 ---------------------------------------------------------------------
      1         14           0       -1.668031    0.020100   -0.000003
      2          7           0        0.011914   -0.440206    0.000002
      3          6           0        0.994439    0.358333   -0.000001
      4          6           0        2.424062   -0.099759    0.000006
      5          1           0        2.946359    0.295169   -0.878748
      6          1           0        2.475685   -1.188259    0.000012
      7          1           0        2.946354    0.295180    0.878757
      8          1           0        0.865951    1.457171   -0.000007
      9          1           0       -2.305020   -0.554022    1.205299
     10          1           0       -2.305016   -0.554036   -1.205301
     11          1           0       -1.866290    1.497390   -0.000012
 ---------------------------------------------------------------------

 SCF Done:  E(RHF) =  -423.378194111     A.U. after    2 cycles

 The electronic state is 1-A.
 Alpha  occ. eigenvalues --  -69.53870 -15.47881 -11.30861 -11.24202  -6.20731
 Alpha  occ. eigenvalues --   -3.96148  -3.96082  -3.96078  -1.20994  -1.00062
 Alpha  occ. eigenvalues --   -0.81793  -0.74890  -0.63626  -0.60951  -0.59471
 Alpha  occ. eigenvalues --   -0.55335  -0.51544  -0.48554  -0.44278  -0.41984
 Alpha virt. eigenvalues --    0.03557   0.04454   0.04864   0.04929   0.05907
 Alpha virt. eigenvalues --    0.06692   0.06732   0.07490   0.09630   0.10476
 Alpha virt. eigenvalues --    0.10809   0.12774   0.14656   0.15255   0.15644

 Mulliken charges:
               1
     1  Si   0.733854
     2  N    0.436571
     3  C   -0.729107
     4  C   -0.482097
     5  H    0.223949
     6  H    0.170986
     7  H    0.223948
     8  H   -0.085219
     9  H   -0.153227
    10  H   -0.153227
    11  H   -0.186430
 Sum of Mulliken charges =  -0.00000

 Dipole moment (field-independent basis, Debye):
    X=              1.5737    Y=              1.7262    Z=             -0.0000  Tot=              2.3359

 Test job not archived.
 1\1\GINC-SE334\SP\RHF\Aug-CC-pVDZ\C2H7N1Si1\OHZDE\08-Apr-2025\0\\#t hf
  aug-cc-pvdz iop(5/13=1,5/36=2,99/5=2) pseudo=read geom=check guess=(r
 ead,tcheck) scf=(maxcycle=1)\\title\\0,1\Si,0,-1.668031,0.0201,-0.0000
 03\N,0,0.011914,-0.440206,0.000002\C,0,0.994439,0.358333,-0.000001\C,0
 ,2.424062,-0.099759,0.000006\H,0,2.946359,0.295169,-0.878748\H,0,2.475
 685,-1.188259,0.000012\H,0,2.946354,0.29518,0.878757\H,0,0.865951,1.45
 7171,-0.000007\H,0,-2.30502,-0.554022,1.205299\H,0,-2.305016,-0.554036
 ,-1.205301\H,0,-1.86629,1.49739,-0.000012\\Version=ES64L-G16RevC.01\St

 Normal termination of Gaussian 16 at Tue Apr  8 23:59:27 2025.
