 Gaussian 16, Revision C.01,

 ----------------------------------------------------------------------
 #t hf aug-cc-pvdz symm=none int=(grid=ultrafine) guess=(read,tcheck) s
 table=(opt,rrhf)
 ----------------------------------------------------------------------
 -----
 title
 -----
 Symbolic Z-matrix:
 Charge =  0 Multiplicity = 1

 SCF Done:  E(RHF) =  -556.965540828     A.U. after   13 cycles
 Normal termination of Gaussian 16 at Tue Apr  8 23:50:36 2025.
 Gaussian 16:  ES64L-G16RevC.01  3-Jul-2019

 ----------------------------------------------------------------------
 #t hf aug-cc-pvdz iop(5/13=1,5/36=2,99/5=2) pseudo=read geom=check gue
 ss=(read,tcheck) scf=(maxcycle=1)
 ----------------------------------------------------------------------
 -----
 title
 -----
 Structure from the checkpoint file:  "BDE49_nonexpt_1881_mol1.chk"
 Charge =  0 Multiplicity = 1

                         Standard orientation:
 ---------------------------------------------------------------------
 Center     Atomic      Atomic             Coordinates (Angstroms)
 Number     Number       Type             X           Y           Z
 ---------------------------------------------------------------------
      1          6           0        0.817435    0.333255    0.867996
      2         14           0        2.154034   -0.332709   -0.307445
      3          6           0       -0.524924    0.467954    0.203964
      4          8           0       -0.900435    1.423867   -0.428176
      5          8           0       -1.268243   -0.650436    0.374791
      6          1           0        3.420197   -0.458611    0.450457
      7          1           0        2.350605    0.597613   -1.439870
      8          1           0        1.762366   -1.663037   -0.824014
      9          6           0       -2.558412   -0.640823   -0.262821
     10          1           0       -3.005164   -1.604545   -0.028823
     11          1           0       -2.452179   -0.517988   -1.341766
     12          1           0       -3.172050    0.172372    0.127680
     13          1           0        1.133019    1.322002    1.207386
     14          1           0        0.751556   -0.339644    1.725422
 ---------------------------------------------------------------------

 SCF Done:  E(RHF) =  -557.270789519     A.U. after    2 cycles

 The electronic state is 1-A.
 Alpha  occ. eigenvalues --  -69.54081 -20.59097 -20.53255 -11.39250 -11.29714
 Alpha  occ. eigenvalues --  -11.24658  -6.21132  -3.96514  -3.96501  -3.96490
 Alpha  occ. eigenvalues --   -1.54184  -1.44927  -1.04201  -0.95079  -0.79023
 Alpha  occ. eigenvalues --   -0.74378  -0.69856  -0.68301  -0.66742  -0.60278
 Alpha  occ. eigenvalues --   -0.57905  -0.56187  -0.53120  -0.49577  -0.48968
 Alpha  occ. eigenvalues --   -0.47402  -0.45442  -0.43829
 Alpha virt. eigenvalues --    0.03477   0.03898   0.04154   0.04710   0.06060
 Alpha virt. eigenvalues --    0.06075   0.07035   0.08275   0.08679   0.09788
 Alpha virt. eigenvalues --    0.10068   0.11006   0.14003   0.14142   0.14756

 Mulliken charges:
               1
     1  C   -1.032847
     2  Si   0.970619
     3  C    2.245879
     4  O   -1.288537
     5  O   -1.291452
     6  H   -0.191609
     7  H   -0.150209
     8  H   -0.160768
     9  C    0.285987
    10  H    0.002639
    11  H    0.162422
    12  H    0.166275
    13  H    0.172555
    14  H    0.109047
 Sum of Mulliken charges =  -0.00000

 Dipole moment (field-independent basis, Debye):
    X=              0.0412    Y=             -1.6415    Z=              1.0261  Tot=              1.9362

 Test job not archived.
 1\1\GINC-SE457\SP\RHF\Aug-CC-pVDZ\C3H8O2Si1\OHZDE\08-Apr-2025\0\\#t hf
  aug-cc-pvdz iop(5/13=1,5/36=2,99/5=2) pseudo=read geom=check guess=(r
 ead,tcheck) scf=(maxcycle=1)\\title\\0,1\C,0,0.817435,0.333255,0.86799
 6\Si,0,2.154034,-0.332709,-0.307445\C,0,-0.524924,0.467954,0.203964\O,
 0,-0.900435,1.423867,-0.428176\O,0,-1.268243,-0.650436,0.374791\H,0,3.
 420197,-0.458611,0.450457\H,0,2.350605,0.597613,-1.43987\H,0,1.762366,
 -1.663037,-0.824014\C,0,-2.558412,-0.640823,-0.262821\H,0,-3.005164,-1
 .604545,-0.028823\H,0,-2.452179,-0.517988,-1.341766\H,0,-3.17205,0.172

 Normal termination of Gaussian 16 at Tue Apr  8 23:50:41 2025.
