 Gaussian 16, Revision C.01,

 ----------------------------------------------------------------------
 #t hf aug-cc-pvdz symm=none int=(grid=ultrafine) guess=(read,tcheck) s
 table=(opt,rrhf)
 ----------------------------------------------------------------------
 -----
 title
 -----
 Symbolic Z-matrix:
 Charge =  0 Multiplicity = 1

 SCF Done:  E(RHF) =  -792.942804627     A.U. after   16 cycles
 Normal termination of Gaussian 16 at Wed Apr  9 00:53:31 2025.
 Gaussian 16:  ES64L-G16RevC.01  3-Jul-2019

 ----------------------------------------------------------------------
 #t hf aug-cc-pvdz iop(5/13=1,5/36=2,99/5=2) pseudo=read geom=check gue
 ss=(read,tcheck) scf=(maxcycle=1)
 ----------------------------------------------------------------------
 -----
 title
 -----
 Structure from the checkpoint file:  "BDE49_nonexpt_979_mol1.chk"
 Charge =  0 Multiplicity = 1

                         Standard orientation:
 ---------------------------------------------------------------------
 Center     Atomic      Atomic             Coordinates (Angstroms)
 Number     Number       Type             X           Y           Z
 ---------------------------------------------------------------------
      1         16           0        0.693114   -1.095114   -0.215349
      2          7           0        1.711235    0.440263   -0.021057
      3          8           0        1.193924    1.506196   -0.228164
      4          8           0        2.850556    0.190552    0.310028
      5          8           0       -0.732223   -0.457464   -0.715489
      6          6           0       -1.712028   -0.009765    0.204839
      7          6           0       -1.593742   -0.068221    1.523045
      8          6           0       -2.861561    0.528020   -0.582118
      9          1           0       -3.651163    0.874715    0.084047
     10          1           0       -3.266055   -0.241662   -1.245445
     11          1           0       -2.530220    1.361321   -1.207765
     12          1           0       -0.715541   -0.465441    2.012602
     13          1           0       -2.399567    0.296566    2.143943
 ---------------------------------------------------------------------

 SCF Done:  E(RHF) =  -793.386608845     A.U. after    2 cycles

 The electronic state is 1-A.
 Alpha  occ. eigenvalues --  -94.08951 -20.63892 -20.61768 -20.61162 -15.81470
 Alpha  occ. eigenvalues --  -11.33577 -11.25702 -11.24618  -8.36012  -6.33773
 Alpha  occ. eigenvalues --   -6.33565  -6.33218  -1.69842  -1.54623  -1.53797
 Alpha  occ. eigenvalues --   -1.12688  -1.06741  -0.97744  -0.91600  -0.82634
 Alpha  occ. eigenvalues --   -0.76934  -0.76759  -0.74981  -0.69302  -0.67195
 Alpha  occ. eigenvalues --   -0.63823  -0.58768  -0.57767  -0.56434  -0.55099
 Alpha  occ. eigenvalues --   -0.51086  -0.47595  -0.47412  -0.42769  -0.38256
 Alpha virt. eigenvalues --    0.03259   0.03909   0.04016   0.05287   0.05663
 Alpha virt. eigenvalues --    0.05956   0.06965   0.08205   0.09616   0.10687
 Alpha virt. eigenvalues --    0.11105   0.11922   0.13547   0.15086   0.15575

 Mulliken charges:
               1
     1  S    1.011759
     2  N    1.862261
     3  O   -1.146416
     4  O   -1.211364
     5  O   -1.562910
     6  C    1.351852
     7  C    0.035372
     8  C   -0.710022
     9  H    0.152889
    10  H    0.209898
    11  H    0.227095
    12  H   -0.102591
    13  H   -0.117823
 Sum of Mulliken charges =   0.00000

 Dipole moment (field-independent basis, Debye):
    X=             -3.4974    Y=             -1.4255    Z=              0.2550  Tot=              3.7853

 Test job not archived.
 1\1\GINC-SE404\SP\RHF\Aug-CC-pVDZ\C3H5N1O3S1\OHZDE\09-Apr-2025\0\\#t h
 f aug-cc-pvdz iop(5/13=1,5/36=2,99/5=2) pseudo=read geom=check guess=(
 read,tcheck) scf=(maxcycle=1)\\title\\0,1\S,0,0.693114,-1.095114,-0.21
 5349\N,0,1.711235,0.440263,-0.021057\O,0,1.193924,1.506196,-0.228164\O
 ,0,2.850556,0.190552,0.310028\O,0,-0.732223,-0.457464,-0.715489\C,0,-1
 .712028,-0.009765,0.204839\C,0,-1.593742,-0.068221,1.523045\C,0,-2.861
 561,0.52802,-0.582118\H,0,-3.651163,0.874715,0.084047\H,0,-3.266055,-0
 .241662,-1.245445\H,0,-2.53022,1.361321,-1.207765\H,0,-0.715541,-0.465

 Normal termination of Gaussian 16 at Wed Apr  9 00:53:39 2025.
