 Gaussian 16, Revision C.01,

 ----------------------------------------------------------------------
 #t hf aug-cc-pvdz symm=none int=(grid=ultrafine) guess=(read,tcheck) s
 table=(opt,rrhf)
 ----------------------------------------------------------------------
 -----
 title
 -----
 Symbolic Z-matrix:
 Charge =  0 Multiplicity = 1

 SCF Done:  E(RHF) =  -496.405812163     A.U. after   16 cycles

 1\1\GINC-SE099\Stability\RHF\Aug-CC-pVDZ\C9H10O2\OHZDE\08-Apr-2025\0\\
 #t hf aug-cc-pvdz symm=none int=(grid=ultrafine) guess=(read,tcheck) s
 table=(opt,rrhf)\\title\\0,1\C,0,1.990945,-1.495268,-0.372313\C,0,0.70
 8082,-0.969198,-0.502282\C,0,3.027045,-0.704281,0.118708\C,0,2.782221,
 0.621773,0.480383\C,0,1.506523,1.151495,0.346746\C,0,0.455434,0.362855
 ,-0.144527\H,0,-0.098359,-1.595264,-0.858672\H,0,2.180392,-2.525355,-0
 .652071\H,0,4.023913,-1.118887,0.220635\H,0,3.588015,1.238438,0.862136
 \H,0,1.294351,2.180317,0.610407\C,0,-0.884704,1.010944,-0.298848\O,0,-

 Normal termination of Gaussian 16 at Tue Apr  8 23:04:04 2025.
 Gaussian 16:  ES64L-G16RevC.01  3-Jul-2019

 ----------------------------------------------------------------------
 #t hf aug-cc-pvdz iop(5/13=1,5/36=2,99/5=2) pseudo=read geom=check gue
 ss=(read,tcheck) scf=(maxcycle=1)
 ----------------------------------------------------------------------
 -----
 title
 -----
 Structure from the checkpoint file:  "BDE49_expt_240_mol1.chk"
 Charge =  0 Multiplicity = 1

                         Standard orientation:
 ---------------------------------------------------------------------
 Center     Atomic      Atomic             Coordinates (Angstroms)
 Number     Number       Type             X           Y           Z
 ---------------------------------------------------------------------
      1          6           0        1.990945   -1.495268   -0.372313
      2          6           0        0.708082   -0.969198   -0.502282
      3          6           0        3.027045   -0.704281    0.118708
      4          6           0        2.782221    0.621773    0.480383
      5          6           0        1.506523    1.151495    0.346746
      6          6           0        0.455434    0.362855   -0.144527
      7          1           0       -0.098359   -1.595264   -0.858672
      8          1           0        2.180392   -2.525355   -0.652071
      9          1           0        4.023913   -1.118888    0.220635
     10          1           0        3.588015    1.238438    0.862136
     11          1           0        1.294351    2.180317    0.610407
     12          6           0       -0.884704    1.010944   -0.298848
     13          8           0       -1.039146    2.199066   -0.090482
     14          6           0       -2.093737    0.192085   -0.789640
     15          8           0       -2.270209   -1.076547   -0.191064
     16          1           0       -1.969120    0.010161   -1.862270
     17          1           0       -2.973720    0.831594   -0.648765
     18          6           0       -2.686838   -1.003457    1.164603
     19          1           0       -3.629758   -0.448496    1.258476
     20          1           0       -1.931610   -0.526281    1.802262
     21          1           0       -2.839093   -2.028055    1.503247
 ---------------------------------------------------------------------

 SCF Done:  E(RHF) =  -496.910702553     A.U. after    2 cycles

 The electronic state is 1-A.
 Alpha  occ. eigenvalues --  -20.56251 -20.54057 -11.34530 -11.30222 -11.29172
 Alpha  occ. eigenvalues --  -11.25997 -11.25800 -11.25473 -11.25391 -11.25092
 Alpha  occ. eigenvalues --  -11.25024  -1.48158  -1.46887  -1.16730  -1.05102
 Alpha  occ. eigenvalues --   -1.02841  -1.00226  -0.92368  -0.86991  -0.84490
 Alpha  occ. eigenvalues --   -0.77819  -0.72255  -0.68527  -0.67896  -0.67707
 Alpha  occ. eigenvalues --   -0.65403  -0.63413  -0.61993  -0.60784  -0.58772
 Alpha  occ. eigenvalues --   -0.57193  -0.53680  -0.53430  -0.51324  -0.50412
 Alpha  occ. eigenvalues --   -0.49755  -0.45816  -0.40336  -0.35708  -0.35425
 Alpha virt. eigenvalues --    0.03091   0.03531   0.03917   0.04240   0.04823
 Alpha virt. eigenvalues --    0.05445   0.06239   0.06367   0.07241   0.07770
 Alpha virt. eigenvalues --    0.08585   0.09508   0.10091   0.10907   0.12263

 Mulliken charges:
               1
     1  C    0.202372
     2  C    0.278575
     3  C   -0.021320
     4  C    0.357367
     5  C   -0.482874
     6  C    2.056405
     7  H   -0.351746
     8  H   -0.231653
     9  H   -0.220279
    10  H   -0.220121
    11  H   -0.321816
    12  C    0.450914
    13  O   -1.528744
    14  C    0.443149
    15  O   -1.231642
    16  H    0.204500
    17  H    0.100197
    18  C    0.143343
    19  H    0.151713
    20  H    0.218512
    21  H    0.003148
 Sum of Mulliken charges =  -0.00000

 Dipole moment (field-independent basis, Debye):
    X=              0.7347    Y=             -2.1015    Z=              0.4290  Tot=              2.2672

 Test job not archived.
 1\1\GINC-SE099\SP\RHF\Aug-CC-pVDZ\C9H10O2\OHZDE\08-Apr-2025\0\\#t hf a
 ug-cc-pvdz iop(5/13=1,5/36=2,99/5=2) pseudo=read geom=check guess=(rea
 d,tcheck) scf=(maxcycle=1)\\title\\0,1\C,0,1.990945,-1.495268,-0.37231
 3\C,0,0.708082,-0.969198,-0.502282\C,0,3.027045,-0.704281,0.118708\C,0
 ,2.782221,0.621773,0.480383\C,0,1.506523,1.151495,0.346746\C,0,0.45543
 4,0.362855,-0.144527\H,0,-0.098359,-1.595264,-0.858672\H,0,2.180392,-2
 .525355,-0.652071\H,0,4.023913,-1.118887,0.220635\H,0,3.588015,1.23843
 8,0.862136\H,0,1.294351,2.180317,0.610407\C,0,-0.884704,1.010944,-0.29

 Normal termination of Gaussian 16 at Tue Apr  8 23:04:18 2025.
