 Gaussian 16, Revision C.01,

 ----------------------------------------------------------------------
 #t hf aug-cc-pvdz symm=none int=(grid=ultrafine) guess=(read,tcheck) s
 table=(opt,rrhf)
 ----------------------------------------------------------------------
 -----
 title
 -----
 Symbolic Z-matrix:
 Charge =  0 Multiplicity = 1

 SCF Done:  E(RHF) =  -629.452061798     A.U. after   14 cycles
 Normal termination of Gaussian 16 at Wed Apr  9 00:22:40 2025.
 Gaussian 16:  ES64L-G16RevC.01  3-Jul-2019

 ----------------------------------------------------------------------
 #t hf aug-cc-pvdz iop(5/13=1,5/36=2,99/5=2) pseudo=read geom=check gue
 ss=(read,tcheck) scf=(maxcycle=1)
 ----------------------------------------------------------------------
 -----
 title
 -----
 Structure from the checkpoint file:  "BDE49_nonexpt_2673_mol1.chk"
 Charge =  0 Multiplicity = 1

                         Standard orientation:
 ---------------------------------------------------------------------
 Center     Atomic      Atomic             Coordinates (Angstroms)
 Number     Number       Type             X           Y           Z
 ---------------------------------------------------------------------
      1          9           0        2.154351    0.762480    0.000014
      2         16           0        1.172887   -0.585516    0.000012
      3          6           0       -0.384499    0.248221   -0.000032
      4          7           0       -1.437212   -0.437117   -0.000005
      5          1           0       -0.288223    1.343083   -0.000045
      6          6           0       -2.716512    0.250470   -0.000004
      7          1           0       -3.288532   -0.057811    0.879533
      8          1           0       -3.288551   -0.057848   -0.879516
      9          1           0       -2.623503    1.346181   -0.000028
 ---------------------------------------------------------------------

 SCF Done:  E(RHF) =  -629.737042343     A.U. after    2 cycles

 The electronic state is 1-A.
 Alpha  occ. eigenvalues --  -94.04939 -26.48217 -15.52309 -11.33706 -11.27726
 Alpha  occ. eigenvalues --   -8.32324  -6.30098  -6.29809  -6.29511  -1.58334
 Alpha  occ. eigenvalues --   -1.26697  -1.05746  -0.95937  -0.81105  -0.71041
 Alpha  occ. eigenvalues --   -0.69285  -0.66598  -0.64135  -0.62417  -0.60424
 Alpha  occ. eigenvalues --   -0.52584  -0.50571  -0.45882  -0.38196
 Alpha virt. eigenvalues --    0.03440   0.04834   0.05514   0.06217   0.06554
 Alpha virt. eigenvalues --    0.07493   0.08415   0.11497   0.11498   0.13208
 Alpha virt. eigenvalues --    0.15174   0.15369   0.15555   0.16243   0.17949

 Mulliken charges:
               1
     1  F   -0.681375
     2  S    1.115274
     3  C   -0.956990
     4  N    0.598059
     5  H    0.004051
     6  C   -0.434789
     7  H    0.127160
     8  H    0.127162
     9  H    0.101448
 Sum of Mulliken charges =  -0.00000

 Dipole moment (field-independent basis, Debye):
    X=             -1.5667    Y=              1.4833    Z=             -0.0000  Tot=              2.1575

 Test job not archived.
 1\1\GINC-SE073\SP\RHF\Aug-CC-pVDZ\C2H4F1N1S1\OHZDE\09-Apr-2025\0\\#t h
 f aug-cc-pvdz iop(5/13=1,5/36=2,99/5=2) pseudo=read geom=check guess=(
 read,tcheck) scf=(maxcycle=1)\\title\\0,1\F,0,-2.154351,0.76248,-0.000
 014\S,0,-1.172887,-0.585516,-0.000012\C,0,0.384499,0.248221,0.000032\N
 ,0,1.437212,-0.437117,0.000005\H,0,0.288223,1.343083,0.000045\C,0,2.71
 6512,0.25047,0.000004\H,0,3.288532,-0.057811,-0.879533\H,0,3.288551,-0
 .057848,0.879516\H,0,2.623503,1.346181,0.000028\\Version=ES64L-G16RevC
 .01\State=1-A\HF=-629.7370423\RMSD=1.032e-02\Dipole=0.6163774,0.583580

 Normal termination of Gaussian 16 at Wed Apr  9 00:22:43 2025.
