 Gaussian 16, Revision C.01,

 ----------------------------------------------------------------------
 #t hf aug-cc-pvdz symm=none int=(grid=ultrafine) guess=(read,tcheck) s
 table=(opt,rrhf)
 ----------------------------------------------------------------------
 -----
 title
 -----
 Symbolic Z-matrix:
 Charge =  0 Multiplicity = 1

 SCF Done:  E(RHF) =  -1290.67396913     A.U. after   18 cycles
 Normal termination of Gaussian 16 at Wed Apr  9 00:20:54 2025.
 Gaussian 16:  ES64L-G16RevC.01  3-Jul-2019

 ----------------------------------------------------------------------
 #t hf aug-cc-pvdz iop(5/13=1,5/36=2,99/5=2) pseudo=read geom=check gue
 ss=(read,tcheck) scf=(maxcycle=1)
 ----------------------------------------------------------------------
 -----
 title
 -----
 Structure from the checkpoint file:  "BDE49_nonexpt_2604_mol1.chk"
 Charge =  0 Multiplicity = 1

                         Standard orientation:
 ---------------------------------------------------------------------
 Center     Atomic      Atomic             Coordinates (Angstroms)
 Number     Number       Type             X           Y           Z
 ---------------------------------------------------------------------
      1         17           0       -3.210541   -0.676946    0.923374
      2         16           0       -2.315620   -0.250680   -0.927529
      3          6           0       -0.740424    0.399322   -0.420403
      4          6           0        0.364724   -0.451927   -0.342962
      5          6           0        1.596621    0.094300   -0.009587
      6          6           0        1.762381    1.449725    0.253374
      7          6           0       -0.593572    1.768708   -0.161216
      8          1           0       -1.459899    2.414996   -0.226162
      9          6           0        0.653412    2.287374    0.175790
     10          1           0        0.764170    3.346116    0.375370
     11          1           0        2.744367    1.822290    0.509612
     12          7           0        2.777573   -0.801095    0.068583
     13          8           0        2.604656   -1.983718   -0.183768
     14          8           0        3.845720   -0.295081    0.380037
     15          1           0        0.275591   -1.511411   -0.535908
 ---------------------------------------------------------------------

 SCF Done:  E(RHF) =  -1291.23308527     A.U. after    2 cycles

 The electronic state is 1-A.
 Alpha  occ. eigenvalues -- -105.59227 -94.03126 -20.60273 -20.60239 -15.80606
 Alpha  occ. eigenvalues --  -11.33351 -11.31681 -11.30733 -11.30566 -11.30418
 Alpha  occ. eigenvalues --  -11.29007 -10.63892  -8.30736  -7.80831  -7.80387
 Alpha  occ. eigenvalues --   -7.80355  -6.28537  -6.28316  -6.28031  -1.68336
 Alpha  occ. eigenvalues --   -1.52084  -1.22974  -1.15229  -1.11377  -1.06957
 Alpha  occ. eigenvalues --   -1.00279  -0.96048  -0.88079  -0.85472  -0.80092
 Alpha  occ. eigenvalues --   -0.76250  -0.75881  -0.73980  -0.70186  -0.66826
 Alpha  occ. eigenvalues --   -0.63443  -0.58899  -0.58538  -0.56240  -0.53360
 Alpha  occ. eigenvalues --   -0.52357  -0.51038  -0.50058  -0.46731  -0.46308
 Alpha  occ. eigenvalues --   -0.40627  -0.39709  -0.39180
 Alpha virt. eigenvalues --    0.00644   0.02231   0.02503   0.03777   0.04480
 Alpha virt. eigenvalues --    0.06062   0.06294   0.07476   0.09267   0.09382
 Alpha virt. eigenvalues --    0.10438   0.11337   0.11818   0.12179   0.12700

 Mulliken charges:
               1
     1  Cl  -0.259869
     2  S    0.076974
     3  C    1.249501
     4  C   -0.269078
     5  C   -0.160596
     6  C   -0.072443
     7  C   -0.512891
     8  H   -0.194265
     9  C    0.610206
    10  H   -0.203353
    11  H   -0.185683
    12  N    3.043795
    13  O   -1.477344
    14  O   -1.505159
    15  H   -0.139794
 Sum of Mulliken charges =  -0.00000

 Dipole moment (field-independent basis, Debye):
    X=             -1.1814    Y=              3.9349    Z=             -0.5260  Tot=              4.1419

 Test job not archived.
 1\1\GINC-SE459\SP\RHF\Aug-CC-pVDZ\C6H4Cl1N1O2S1\OHZDE\09-Apr-2025\0\\#
 t hf aug-cc-pvdz iop(5/13=1,5/36=2,99/5=2) pseudo=read geom=check gues
 s=(read,tcheck) scf=(maxcycle=1)\\title\\0,1\Cl,0,-3.210541,-0.676946,
 0.923374\S,0,-2.31562,-0.25068,-0.927529\C,0,-0.740424,0.399322,-0.420
 403\C,0,0.364724,-0.451927,-0.342962\C,0,1.596621,0.0943,-0.009587\C,0
 ,1.762381,1.449725,0.253374\C,0,-0.593572,1.768708,-0.161216\H,0,-1.45
 9899,2.414996,-0.226162\C,0,0.653412,2.287374,0.17579\H,0,0.76417,3.34
 6116,0.37537\H,0,2.744367,1.82229,0.509612\N,0,2.777573,-0.801095,0.06

 Normal termination of Gaussian 16 at Wed Apr  9 00:21:01 2025.
