 Gaussian 16, Revision C.01,

 ----------------------------------------------------------------------
 #t hf aug-cc-pvdz symm=none int=(grid=ultrafine) guess=(read,tcheck) s
 table=(opt,rrhf)
 ----------------------------------------------------------------------
 -----
 title
 -----
 Symbolic Z-matrix:
 Charge =  0 Multiplicity = 1

 SCF Done:  E(RHF) =  -704.516260033     A.U. after   13 cycles
 Normal termination of Gaussian 16 at Tue Apr  8 22:47:05 2025.
 Gaussian 16:  ES64L-G16RevC.01  3-Jul-2019

 ----------------------------------------------------------------------
 #t hf aug-cc-pvdz iop(5/13=1,5/36=2,99/5=2) pseudo=read geom=check gue
 ss=(read,tcheck) scf=(maxcycle=1)
 ----------------------------------------------------------------------
 -----
 title
 -----
 Structure from the checkpoint file:  "BDE49_expt_1599_mol1.chk"
 Charge =  0 Multiplicity = 1

                         Standard orientation:
 ---------------------------------------------------------------------
 Center     Atomic      Atomic             Coordinates (Angstroms)
 Number     Number       Type             X           Y           Z
 ---------------------------------------------------------------------
      1         16           0       -0.648900   -0.200748    0.104380
      2          6           0        1.053377    0.128118   -0.492276
      3          6           0       -1.649568    1.122188   -0.595991
      4          8           0       -0.664948   -0.050372    1.549181
      5          8           0       -1.094272   -1.438480   -0.510975
      6          1           0       -1.359845    2.078799   -0.165472
      7          1           0       -2.675355    0.879562   -0.317013
      8          1           0       -1.547070    1.117737   -1.680642
      9          6           0        1.594718    1.443974    0.065737
     10          1           0        1.018319    2.308786   -0.269887
     11          1           0        2.625160    1.585607   -0.271320
     12          1           0        1.588601    1.427026    1.157114
     13          6           0        1.912067   -1.081393   -0.110601
     14          1           0        0.945733    0.176957   -1.580312
     15          1           0        2.916166   -0.955574   -0.523251
     16          1           0        1.486148   -2.005609   -0.501223
     17          1           0        1.994744   -1.167843    0.975058
 ---------------------------------------------------------------------

 SCF Done:  E(RHF) =  -704.903602507     A.U. after    2 cycles

 The electronic state is 1-A.
 Alpha  occ. eigenvalues --  -94.17747 -20.52604 -20.52523 -11.29243 -11.28505
 Alpha  occ. eigenvalues --  -11.25470 -11.24587  -8.43184  -6.41292  -6.41060
 Alpha  occ. eigenvalues --   -6.40993  -1.54320  -1.42513  -1.12026  -1.04832
 Alpha  occ. eigenvalues --   -0.96157  -0.90050  -0.79239  -0.70603  -0.67003
 Alpha  occ. eigenvalues --   -0.66229  -0.64681  -0.61290  -0.60109  -0.59211
 Alpha  occ. eigenvalues --   -0.56827  -0.56182  -0.52394  -0.52103  -0.48136
 Alpha  occ. eigenvalues --   -0.47622  -0.45074  -0.42026
 Alpha virt. eigenvalues --    0.02689   0.03356   0.03856   0.04612   0.05902
 Alpha virt. eigenvalues --    0.06249   0.06774   0.07467   0.08286   0.09292
 Alpha virt. eigenvalues --    0.11730   0.12417   0.13498   0.14154   0.14332

 Mulliken charges:
               1
     1  S    3.551037
     2  C   -1.704322
     3  C   -0.693702
     4  O   -1.615665
     5  O   -1.598586
     6  H    0.262558
     7  H    0.243354
     8  H    0.229870
     9  C    0.014221
    10  H    0.117955
    11  H    0.176595
    12  H    0.263664
    13  C   -0.026575
    14  H    0.168708
    15  H    0.177771
    16  H    0.176454
    17  H    0.256663
 Sum of Mulliken charges =   0.00000

 Dipole moment (field-independent basis, Debye):
    X=              2.0139    Y=              3.6774    Z=             -2.7424  Tot=              5.0100

 Test job not archived.
 1\1\GINC-SE365\SP\RHF\Aug-CC-pVDZ\C4H10O2S1\OHZDE\08-Apr-2025\0\\#t hf
  aug-cc-pvdz iop(5/13=1,5/36=2,99/5=2) pseudo=read geom=check guess=(r
 ead,tcheck) scf=(maxcycle=1)\\title\\0,1\S,0,-0.6489,-0.200748,0.10438
 \C,0,1.053377,0.128118,-0.492276\C,0,-1.649568,1.122188,-0.595991\O,0,
 -0.664948,-0.050372,1.549181\O,0,-1.094272,-1.43848,-0.510975\H,0,-1.3
 59845,2.078799,-0.165472\H,0,-2.675355,0.879562,-0.317013\H,0,-1.54707
 ,1.117737,-1.680642\C,0,1.594718,1.443974,0.065737\H,0,1.018319,2.3087
 86,-0.269887\H,0,2.62516,1.585607,-0.27132\H,0,1.588601,1.427026,1.157

 Normal termination of Gaussian 16 at Tue Apr  8 22:47:11 2025.
