 Gaussian 16, Revision C.01,

 ----------------------------------------------------------------------
 #t hf aug-cc-pvdz symm=none int=(grid=ultrafine) guess=(read,tcheck) s
 table=opt
 ----------------------------------------------------------------------
 -----
 title
 -----
 Symbolic Z-matrix:
 Charge =  0 Multiplicity = 2

 SCF Done:  E(UHF) =  -267.385104627     A.U. after   16 cycles
 Normal termination of Gaussian 16 at Tue Apr  8 22:40:38 2025.
 Gaussian 16:  ES64L-G16RevC.01  3-Jul-2019

 ----------------------------------------------------------------------
 #t hf aug-cc-pvdz iop(5/13=1,5/36=2,99/5=2) pseudo=read geom=check gue
 ss=(read,tcheck) scf=(maxcycle=1)
 ----------------------------------------------------------------------
 -----
 title
 -----
 Structure from the checkpoint file:  "BDE49_expt_1353_mol2.chk"
 Charge =  0 Multiplicity = 2

                         Standard orientation:
 ---------------------------------------------------------------------
 Center     Atomic      Atomic             Coordinates (Angstroms)
 Number     Number       Type             X           Y           Z
 ---------------------------------------------------------------------
      1          6           0        0.893176   -0.067474    0.697107
      2          6           0       -0.610138    0.046063    0.469891
      3          6           0       -1.183966   -1.146703   -0.219036
      4          1           0       -2.259018   -1.270394   -0.255904
      5          1           0       -0.567860   -1.742877   -0.880401
      6          8           0       -0.891156    1.249954   -0.273405
      7          1           0       -1.098444    0.198400    1.437511
      8          1           0       -0.349146    1.186383   -1.070270
      9          8           0        1.500663   -0.149744   -0.595745
     10          1           0        1.119770   -0.957143    1.300413
     11          1           0        1.235111    0.826714    1.231812
     12          1           0        2.449094   -0.034081   -0.497730
 ---------------------------------------------------------------------

 SCF Done:  E(UHF) =  -267.661375072     A.U. after    2 cycles

 The electronic state is 2-A.
 Alpha  occ. eigenvalues --  -20.56204 -20.54069 -11.29322 -11.28985 -11.24120
 Alpha  occ. eigenvalues --   -1.46540  -1.43484  -1.05006  -0.93784  -0.81005
 Alpha  occ. eigenvalues --   -0.72799  -0.66419  -0.65130  -0.61374  -0.60920
 Alpha  occ. eigenvalues --   -0.55526  -0.53328  -0.49605  -0.45883  -0.44752
 Alpha  occ. eigenvalues --   -0.37360
 Alpha virt. eigenvalues --    0.03222   0.04051   0.04456   0.05047   0.06830
 Alpha virt. eigenvalues --    0.06975   0.07315   0.11773   0.12155   0.13339
 Alpha virt. eigenvalues --    0.14692   0.15550   0.15902   0.16469   0.17634

  Beta  occ. eigenvalues --  -20.56205 -20.53707 -11.29308 -11.29285 -11.21701
  Beta  occ. eigenvalues --   -1.46408  -1.42645  -1.02825  -0.89581  -0.78886
  Beta  occ. eigenvalues --   -0.72385  -0.65841  -0.64975  -0.60292  -0.59333
  Beta  occ. eigenvalues --   -0.54293  -0.52948  -0.48917  -0.45642  -0.43682
  Beta virt. eigenvalues --    0.03231   0.03930   0.04503   0.04904   0.06822
  Beta virt. eigenvalues --    0.06979   0.07257   0.09025   0.11927   0.13348
  Beta virt. eigenvalues --    0.13922   0.14772   0.15622   0.16684   0.16982

 Mulliken charges and spin densities:
               1          2
     1  C    0.672627   0.007660
     2  C    0.748486  -0.192971
     3  C    0.037758   1.335596
     4  H    0.007599  -0.091545
     5  H    0.017734  -0.090394
     6  O   -1.299756   0.040536
     7  H    0.063990   0.008807
     8  H    0.325960  -0.015397
     9  O   -1.140308   0.001718
    10  H    0.141914  -0.004629
    11  H    0.106142  -0.000460
    12  H    0.317853   0.001079
 Sum of Mulliken charges =  -0.00000   1.00000

 Dipole moment (field-independent basis, Debye):
    X=              2.0727    Y=             -0.9704    Z=              0.9001  Tot=              2.4593
                          Isotropic Fermi Contact Couplings
        Atom                 a.u.       MegaHertz       Gauss      10(-4) cm-1
     1  C(13)              0.00470       5.28629       1.88628       1.76332
     2  C(13)             -0.04842     -54.42975     -19.42189     -18.15581
     3  C(13)              0.21014     236.23388      84.29412      78.79914
     4  H(1)              -0.02297    -102.68525     -36.64065     -34.25211
     5  H(1)              -0.02354    -105.23377     -37.55003     -35.10221
     6  O(17)              0.05283     -32.02555     -11.42751     -10.68257
     7  H(1)               0.00676      30.22346      10.78448      10.08146
     8  H(1)              -0.00163      -7.29239      -2.60211      -2.43248

 Normal termination of Gaussian 16 at Tue Apr  8 22:40:42 2025.
