 Gaussian 16, Revision C.01,

 ----------------------------------------------------------------------
 #t hf aug-cc-pvdz symm=none int=(grid=ultrafine) guess=(read,tcheck) s
 table=(opt,rrhf)
 ----------------------------------------------------------------------
 -----
 title
 -----
 Symbolic Z-matrix:
 Charge =  0 Multiplicity = 1

 SCF Done:  E(RHF) =  -1290.66269549     A.U. after   17 cycles
 Normal termination of Gaussian 16 at Wed Apr  9 00:20:56 2025.
 Gaussian 16:  ES64L-G16RevC.01  3-Jul-2019

 ----------------------------------------------------------------------
 #t hf aug-cc-pvdz iop(5/13=1,5/36=2,99/5=2) pseudo=read geom=check gue
 ss=(read,tcheck) scf=(maxcycle=1)
 ----------------------------------------------------------------------
 -----
 title
 -----
 Structure from the checkpoint file:  "BDE49_nonexpt_2603_mol1.chk"
 Charge =  0 Multiplicity = 1

                         Standard orientation:
 ---------------------------------------------------------------------
 Center     Atomic      Atomic             Coordinates (Angstroms)
 Number     Number       Type             X           Y           Z
 ---------------------------------------------------------------------
      1         17           0        3.151561    0.099617    0.000810
      2         16           0        1.334976   -1.007827   -0.000593
      3          6           0        0.143207    0.304712   -0.000282
      4          6           0       -1.227381   -0.022439   -0.000080
      5          6           0       -2.237253    0.940938    0.000043
      6          6           0       -1.891781    2.278486    0.000036
      7          6           0        0.463313    1.671156   -0.000234
      8          1           0        1.499635    1.973416   -0.000360
      9          6           0       -0.537240    2.631455   -0.000083
     10          1           0       -0.254116    3.677775   -0.000075
     11          1           0       -2.660083    3.041006    0.000151
     12          7           0       -1.599012   -1.414489    0.000075
     13          8           0       -0.647663   -2.223692    0.000067
     14          8           0       -2.769853   -1.750152   -0.000206
     15          1           0       -3.265567    0.605878    0.000184
 ---------------------------------------------------------------------

 SCF Done:  E(RHF) =  -1291.22390278     A.U. after    2 cycles

 The electronic state is 1-A.
 Alpha  occ. eigenvalues -- -105.57749 -94.04456 -20.61718 -20.61332 -15.81466
 Alpha  occ. eigenvalues --  -11.34251 -11.33442 -11.30041 -11.29690 -11.28361
 Alpha  occ. eigenvalues --  -11.28281 -10.62470  -8.31846  -7.79393  -7.79012
 Alpha  occ. eigenvalues --   -7.78959  -6.29590  -6.29318  -6.29013  -1.68922
 Alpha  occ. eigenvalues --   -1.52639  -1.23490  -1.14202  -1.13435  -1.06005
 Alpha  occ. eigenvalues --   -1.01459  -0.95355  -0.87690  -0.87318  -0.80615
 Alpha  occ. eigenvalues --   -0.76977  -0.76854  -0.72349  -0.70026  -0.66604
 Alpha  occ. eigenvalues --   -0.63627  -0.58425  -0.57652  -0.56112  -0.55226
 Alpha  occ. eigenvalues --   -0.51938  -0.51912  -0.48679  -0.48047  -0.45371
 Alpha  occ. eigenvalues --   -0.43294  -0.40244  -0.35208
 Alpha virt. eigenvalues --   -0.00130   0.02403   0.03249   0.04485   0.05821
 Alpha virt. eigenvalues --    0.06893   0.07247   0.08446   0.09365   0.09790
 Alpha virt. eigenvalues --    0.10070   0.12057   0.12168   0.12377   0.12668

 Mulliken charges:
               1
     1  Cl  -0.382627
     2  S    0.467408
     3  C    0.218812
     4  C   -0.513232
     5  C    0.188352
     6  C    0.334261
     7  C    0.500784
     8  H   -0.130500
     9  C   -0.048214
    10  H   -0.230770
    11  H   -0.201429
    12  N    2.986286
    13  O   -1.435388
    14  O   -1.527253
    15  H   -0.226488
 Sum of Mulliken charges =  -0.00000

 Dipole moment (field-independent basis, Debye):
    X=             -1.7383    Y=              4.6332    Z=             -0.0006  Tot=              4.9486

 Test job not archived.
 1\1\GINC-SE457\SP\RHF\Aug-CC-pVDZ\C6H4Cl1N1O2S1\OHZDE\09-Apr-2025\0\\#
 t hf aug-cc-pvdz iop(5/13=1,5/36=2,99/5=2) pseudo=read geom=check gues
 s=(read,tcheck) scf=(maxcycle=1)\\title\\0,1\Cl,0,3.151561,0.099617,0.
 00081\S,0,1.334976,-1.007827,-0.000593\C,0,0.143207,0.304712,-0.000282
 \C,0,-1.227381,-0.022439,-0.00008\C,0,-2.237253,0.940938,0.000043\C,0,
 -1.891781,2.278486,0.000036\C,0,0.463313,1.671156,-0.000234\H,0,1.4996
 35,1.973416,-0.00036\C,0,-0.53724,2.631455,-0.000083\H,0,-0.254116,3.6
 77775,-0.000075\H,0,-2.660083,3.041006,0.000151\N,0,-1.599012,-1.41448

 Normal termination of Gaussian 16 at Wed Apr  9 00:21:05 2025.
