 Gaussian 16, Revision C.01,

 ----------------------------------------------------------------------
 #t hf aug-cc-pvdz symm=none int=(grid=ultrafine) guess=(read,tcheck) s
 table=opt
 ----------------------------------------------------------------------
 -----
 title
 -----
 Symbolic Z-matrix:
 Charge =  0 Multiplicity = 2

 SCF Done:  E(UHF) =  -421.266582523     A.U. after   20 cycles

 1\1\GINC-SE218\Stability\UHF\Aug-CC-pVDZ\C7H11O2\OHZDE\08-Apr-2025\0\\
 #t hf aug-cc-pvdz symm=none int=(grid=ultrafine) guess=(read,tcheck) s
 table=opt\\title\\0,2\C,0,-1.787405,0.12425,-0.040652\O,0,-2.408667,-1
 .088888,-0.15339\O,0,-2.405048,1.16524,-0.191942\H,0,-3.332471,-0.8883
 82,-0.358439\C,0,-0.373522,0.030687,0.26632\C,0,0.412137,1.289431,0.44
 0846\C,0,0.342501,-1.269953,0.445089\C,0,1.745183,1.240923,-0.338886\H
 ,0,0.645692,1.409593,1.511443\H,0,-0.192535,2.148957,0.150513\C,0,2.52
 5461,-0.04563,-0.041735\H,0,2.344357,2.121633,-0.089473\H,0,1.531749,1

 Normal termination of Gaussian 16 at Tue Apr  8 23:04:06 2025.
 Gaussian 16:  ES64L-G16RevC.01  3-Jul-2019

 ----------------------------------------------------------------------
 #t hf aug-cc-pvdz iop(5/13=1,5/36=2,99/5=2) pseudo=read geom=check gue
 ss=(read,tcheck) scf=(maxcycle=1)
 ----------------------------------------------------------------------
 -----
 title
 -----
 Structure from the checkpoint file:  "BDE49_expt_251_mol2.chk"
 Charge =  0 Multiplicity = 2

                         Standard orientation:
 ---------------------------------------------------------------------
 Center     Atomic      Atomic             Coordinates (Angstroms)
 Number     Number       Type             X           Y           Z
 ---------------------------------------------------------------------
      1          6           0       -1.787405    0.124250   -0.040652
      2          8           0       -2.408667   -1.088888   -0.153390
      3          8           0       -2.405048    1.165240   -0.191942
      4          1           0       -3.332471   -0.888382   -0.358439
      5          6           0       -0.373522    0.030687    0.266320
      6          6           0        0.412137    1.289431    0.440846
      7          6           0        0.342501   -1.269953    0.445089
      8          6           0        1.745183    1.240923   -0.338886
      9          1           0        0.645692    1.409593    1.511443
     10          1           0       -0.192535    2.148957    0.150513
     11          6           0        2.525461   -0.045630   -0.041735
     12          1           0        2.344357    2.121633   -0.089473
     13          1           0        1.531749    1.297690   -1.412619
     14          6           0        1.679531   -1.291305   -0.332355
     15          1           0        2.831231   -0.050913    1.012724
     16          1           0        3.446299   -0.072116   -0.632936
     17          1           0        1.464331   -1.342158   -1.406056
     18          1           0        2.231605   -2.200933   -0.077783
     19          1           0       -0.292163   -2.107184    0.156866
     20          1           0        0.568305   -1.397429    1.516660
 ---------------------------------------------------------------------

 SCF Done:  E(UHF) =  -421.701539419     A.U. after    2 cycles

 The electronic state is 2-A.
 Alpha  occ. eigenvalues --  -20.58995 -20.54279 -11.37950 -11.26983 -11.24056
 Alpha  occ. eigenvalues --  -11.23845 -11.23623 -11.23564 -11.23367  -1.53802
 Alpha  occ. eigenvalues --   -1.44989  -1.14580  -1.04631  -1.01888  -0.90815
 Alpha  occ. eigenvalues --   -0.85691  -0.80626  -0.75201  -0.70810  -0.69926
 Alpha  occ. eigenvalues --   -0.64726  -0.63238  -0.61896  -0.61479  -0.58778
 Alpha  occ. eigenvalues --   -0.56603  -0.55658  -0.54434  -0.50603  -0.49911
 Alpha  occ. eigenvalues --   -0.48699  -0.47359  -0.46216  -0.44871  -0.35840
 Alpha virt. eigenvalues --    0.03415   0.03456   0.03549   0.03996   0.05397
 Alpha virt. eigenvalues --    0.06000   0.06290   0.06771   0.06968   0.08930
 Alpha virt. eigenvalues --    0.09455   0.11314   0.11850   0.12475   0.13987

  Beta  occ. eigenvalues --  -20.59028 -20.53001 -11.38534 -11.24821 -11.24335
  Beta  occ. eigenvalues --  -11.23841 -11.23722 -11.23501 -11.23389  -1.53244
  Beta  occ. eigenvalues --   -1.42843  -1.12538  -1.01835  -1.01655  -0.90034
  Beta  occ. eigenvalues --   -0.85479  -0.79962  -0.73924  -0.70159  -0.68989
  Beta  occ. eigenvalues --   -0.63211  -0.61492  -0.61376  -0.60651  -0.57651
  Beta  occ. eigenvalues --   -0.55644  -0.55197  -0.53930  -0.49794  -0.47979
  Beta  occ. eigenvalues --   -0.46935  -0.45906  -0.44183  -0.43571
  Beta virt. eigenvalues --    0.03270   0.03445   0.03569   0.03956   0.05280
  Beta virt. eigenvalues --    0.05919   0.06220   0.06421   0.06805   0.07131
  Beta virt. eigenvalues --    0.08958   0.09460   0.11336   0.11852   0.12543

 Mulliken charges and spin densities:
               1          2
     1  C    2.487915  -0.483866
     2  O   -1.508849  -0.000979
     3  O   -1.381891   0.296514
     4  H    0.465573  -0.002258
     5  C    0.313870   1.503382
     6  C   -0.382734  -0.212553
     7  C   -0.494813  -0.211415
     8  C   -0.313847   0.026357
     9  H    0.206762   0.033877
    10  H    0.007735   0.000660
    11  C   -0.160724  -0.010191
    12  H    0.119650   0.002119
    13  H    0.135761  -0.004039
    14  C   -0.310790   0.031193
    15  H    0.148770  -0.001616
    16  H    0.117878   0.001171
    17  H    0.137003  -0.004645
    18  H    0.117686   0.002721
    19  H    0.063463   0.000749
    20  H    0.231583   0.032819
 Sum of Mulliken charges =  -0.00000   1.00000

 Dipole moment (field-independent basis, Debye):
    X=              1.7537    Y=             -1.3828    Z=              0.2569  Tot=              2.2480
                          Isotropic Fermi Contact Couplings
        Atom                 a.u.       MegaHertz       Gauss      10(-4) cm-1
     1  C(13)             -0.09092    -102.20845     -36.47052     -34.09307
     2  O(17)             -0.01150       6.97041       2.48722       2.32508
     3  O(17)              0.09891     -59.95923     -21.39494     -20.00025
     4  H(1)              -0.00060      -2.66963      -0.95259      -0.89049
     5  C(13)              0.19081     214.50400      76.54036      71.55083
     6  C(13)             -0.05104     -57.38151     -20.47515     -19.14041
     7  C(13)             -0.05169     -58.10753     -20.73421     -19.38259
     8  C(13)              0.02472      27.79510       9.91798       9.27145

 Normal termination of Gaussian 16 at Tue Apr  8 23:04:17 2025.
