 Gaussian 16, Revision C.01,

 ----------------------------------------------------------------------
 #t hf aug-cc-pvdz symm=none int=(grid=ultrafine) guess=(read,tcheck) s
 table=(opt,rrhf)
 ----------------------------------------------------------------------
 -----
 title
 -----
 Symbolic Z-matrix:
 Charge =  0 Multiplicity = 1

 SCF Done:  E(RHF) =  -621.430754490     A.U. after   15 cycles
 Normal termination of Gaussian 16 at Tue Apr  8 23:09:13 2025.
 Gaussian 16:  ES64L-G16RevC.01  3-Jul-2019

 ----------------------------------------------------------------------
 #t hf aug-cc-pvdz iop(5/13=1,5/36=2,99/5=2) pseudo=read geom=check gue
 ss=(read,tcheck) scf=(maxcycle=1)
 ----------------------------------------------------------------------
 -----
 title
 -----
 Structure from the checkpoint file:  "BDE49_expt_463_mol1.chk"
 Charge =  0 Multiplicity = 1

                         Standard orientation:
 ---------------------------------------------------------------------
 Center     Atomic      Atomic             Coordinates (Angstroms)
 Number     Number       Type             X           Y           Z
 ---------------------------------------------------------------------
      1          6           0        1.427493    1.866655   -0.001432
      2          6           0        2.402226    0.877248    0.015502
      3          6           0        2.043323   -0.480312    0.004957
      4          6           0        0.074549    1.538903   -0.026052
      5          6           0       -0.284361    0.191427   -0.034769
      6          6           0        0.680641   -0.810507   -0.018493
      7          1           0        1.727855    2.908221    0.000984
      8          1           0        3.452176    1.150742    0.037952
      9          7           0        3.012434   -1.475175    0.074364
     10          1           0        3.933155   -1.216241   -0.246294
     11          1           0        2.731413   -2.387901   -0.250753
     12          1           0       -0.685238    2.308308   -0.048527
     13          6           0       -1.739181   -0.188745   -0.003063
     14          9           0       -2.514132    0.704283   -0.656992
     15          9           0       -1.967324   -1.398782   -0.563293
     16          9           0       -2.213126   -0.255995    1.264396
     17          1           0        0.376700   -1.850476   -0.030816
 ---------------------------------------------------------------------

 SCF Done:  E(RHF) =  -622.031138483     A.U. after    2 cycles

 The electronic state is 1-A.
 Alpha  occ. eigenvalues --  -26.49900 -26.49817 -26.49411 -15.52399 -11.51682
 Alpha  occ. eigenvalues --  -11.30399 -11.27511 -11.26159 -11.25592 -11.25289
 Alpha  occ. eigenvalues --  -11.25128  -1.70344  -1.60431  -1.59943  -1.24272
 Alpha  occ. eigenvalues --   -1.16032  -1.06243  -1.01789  -0.95349  -0.86857
 Alpha  occ. eigenvalues --   -0.85988  -0.79827  -0.79716  -0.79492  -0.73786
 Alpha  occ. eigenvalues --   -0.70838  -0.69654  -0.67854  -0.67452  -0.64060
 Alpha  occ. eigenvalues --   -0.62998  -0.62552  -0.61609  -0.61002  -0.58661
 Alpha  occ. eigenvalues --   -0.57475  -0.54588  -0.52335  -0.49232  -0.37076
 Alpha  occ. eigenvalues --   -0.32963
 Alpha virt. eigenvalues --    0.02478   0.03504   0.04343   0.05209   0.06047
 Alpha virt. eigenvalues --    0.07921   0.08552   0.08962   0.09427   0.10384
 Alpha virt. eigenvalues --    0.10739   0.12062   0.12767   0.13454   0.13767

 Mulliken charges:
               1
     1  C    0.290732
     2  C    0.388447
     3  C   -1.294293
     4  C   -0.370608
     5  C    0.934118
     6  C    0.268344
     7  H   -0.223606
     8  H   -0.273634
     9  N    0.753618
    10  H    0.017918
    11  H    0.023890
    12  H   -0.270084
    13  C    2.458156
    14  F   -0.828030
    15  F   -0.839647
    16  F   -0.756398
    17  H   -0.278924
 Sum of Mulliken charges =  -0.00000

 Dipole moment (field-independent basis, Debye):
    X=              3.6783    Y=              0.0226    Z=             -1.0207  Tot=              3.8173

 Test job not archived.
 1\1\GINC-SE222\SP\RHF\Aug-CC-pVDZ\C7H6F3N1\OHZDE\08-Apr-2025\0\\#t hf
 aug-cc-pvdz iop(5/13=1,5/36=2,99/5=2) pseudo=read geom=check guess=(re
 ad,tcheck) scf=(maxcycle=1)\\title\\0,1\C,0,1.427493,1.866655,-0.00143
 2\C,0,2.402226,0.877248,0.015502\C,0,2.043323,-0.480312,0.004957\C,0,0
 .074549,1.538903,-0.026052\C,0,-0.284361,0.191427,-0.034769\C,0,0.6806
 41,-0.810507,-0.018493\H,0,1.727855,2.908221,0.000984\H,0,3.452176,1.1
 50742,0.037952\N,0,3.012434,-1.475175,0.074364\H,0,3.933155,-1.216241,
 -0.246294\H,0,2.731413,-2.387901,-0.250753\H,0,-0.685238,2.308308,-0.0

 Normal termination of Gaussian 16 at Tue Apr  8 23:09:22 2025.
