 Gaussian 16, Revision C.01,

 ----------------------------------------------------------------------
 #t hf aug-cc-pvdz symm=none int=(grid=ultrafine) guess=(read,tcheck) s
 table=(opt,rrhf)
 ----------------------------------------------------------------------
 -----
 title
 -----
 Symbolic Z-matrix:
 Charge =  0 Multiplicity = 1

 SCF Done:  E(RHF) =  -215.949053873     A.U. after   12 cycles
 Normal termination of Gaussian 16 at Tue Apr  8 22:43:27 2025.
 Gaussian 16:  ES64L-G16RevC.01  3-Jul-2019

 ----------------------------------------------------------------------
 #t hf aug-cc-pvdz iop(5/13=1,5/36=2,99/5=2) pseudo=read geom=check gue
 ss=(read,tcheck) scf=(maxcycle=1)
 ----------------------------------------------------------------------
 -----
 title
 -----
 Structure from the checkpoint file:  "BDE49_expt_147_mol1.chk"
 Charge =  0 Multiplicity = 1

                         Standard orientation:
 ---------------------------------------------------------------------
 Center     Atomic      Atomic             Coordinates (Angstroms)
 Number     Number       Type             X           Y           Z
 ---------------------------------------------------------------------
      1          6           0       -1.492249   -0.497688   -0.000002
      2          6           0       -0.744745    0.598724   -0.000001
      3          1           0       -1.039599   -1.481776   -0.000002
      4          1           0       -2.574135   -0.442373   -0.000004
      5          6           0        0.751041    0.606643    0.000001
      6          1           0       -1.202987    1.585741   -0.000001
      7          1           0        1.135609    1.122898   -0.887902
      8          9           0        1.273470   -0.683718    0.000001
      9          1           0        1.135606    1.122897    0.887906
 ---------------------------------------------------------------------

 SCF Done:  E(RHF) =  -216.166877635     A.U. after    2 cycles

 The electronic state is 1-A.
 Alpha  occ. eigenvalues --  -26.44699 -11.32830 -11.25256 -11.23992  -1.56779
 Alpha  occ. eigenvalues --   -1.07564  -0.94622  -0.77777  -0.70507  -0.69231
 Alpha  occ. eigenvalues --   -0.66421  -0.61087  -0.55751  -0.53557  -0.50857
 Alpha  occ. eigenvalues --   -0.38196
 Alpha virt. eigenvalues --    0.03417   0.04358   0.05119   0.05203   0.06654
 Alpha virt. eigenvalues --    0.10465   0.10870   0.12182   0.13804   0.14222
 Alpha virt. eigenvalues --    0.15678   0.16030   0.17054   0.17716   0.19452

 Mulliken charges:
               1
     1  C   -0.047597
     2  C    0.163152
     3  H   -0.032737
     4  H   -0.081849
     5  C    0.523505
     6  H   -0.116844
     7  H    0.157939
     8  F   -0.723508
     9  H    0.157939
 Sum of Mulliken charges =  -0.00000

 Dipole moment (field-independent basis, Debye):
    X=             -0.6831    Y=              1.6979    Z=             -0.0000  Tot=              1.8302

 Test job not archived.
 1\1\GINC-SE398\SP\RHF\Aug-CC-pVDZ\C3H5F1\OHZDE\08-Apr-2025\0\\#t hf au
 g-cc-pvdz iop(5/13=1,5/36=2,99/5=2) pseudo=read geom=check guess=(read
 ,tcheck) scf=(maxcycle=1)\\title\\0,1\C,0,-1.492249,-0.497688,-0.00000
 2\C,0,-0.744745,0.598724,-0.000001\H,0,-1.039599,-1.481776,-0.000002\H
 ,0,-2.574135,-0.442373,-0.000004\C,0,0.751041,0.606643,0.000001\H,0,-1
 .202987,1.585741,-0.000001\H,0,1.135609,1.122898,-0.887902\F,0,1.27347
 ,-0.683718,0.000001\H,0,1.135606,1.122897,0.887906\\Version=ES64L-G16R
 evC.01\State=1-A\HF=-216.1668776\RMSD=1.075e-02\Dipole=-0.2687715,0.66

 Normal termination of Gaussian 16 at Tue Apr  8 22:43:29 2025.
