 Gaussian 16, Revision C.01,

 ----------------------------------------------------------------------
 #t hf aug-cc-pvdz symm=none int=(grid=ultrafine) guess=(read,tcheck) s
 table=opt
 ----------------------------------------------------------------------
 -----
 title
 -----
 Symbolic Z-matrix:
 Charge =  0 Multiplicity = 2

 SCF Done:  E(UHF) =  -1125.72474982     A.U. after   18 cycles
 Normal termination of Gaussian 16 at Tue Apr  8 23:52:33 2025.
 Gaussian 16:  ES64L-G16RevC.01  3-Jul-2019

 ----------------------------------------------------------------------
 #t hf aug-cc-pvdz iop(5/13=1,5/36=2,99/5=2) pseudo=read geom=check gue
 ss=(read,tcheck) scf=(maxcycle=1)
 ----------------------------------------------------------------------
 -----
 title
 -----
 Structure from the checkpoint file:  "BDE49_nonexpt_191_mol2.chk"
 Charge =  0 Multiplicity = 2

                         Standard orientation:
 ---------------------------------------------------------------------
 Center     Atomic      Atomic             Coordinates (Angstroms)
 Number     Number       Type             X           Y           Z
 ---------------------------------------------------------------------
      1         17           0        3.053682    0.066380    0.000079
      2          5           0        1.401377   -0.515072   -0.048414
      3         15           0       -1.230198   -0.045278   -0.113925
      4          8           0       -1.666957   -0.855097   -1.237738
      5          8           0       -1.450431   -0.679094    1.335273
      6          1           0       -1.985248   -1.481386    1.296594
      7          8           0       -1.861127    1.403703   -0.054003
      8          1           0       -1.476722    1.988561    0.610447
      9          8           0        0.352947    0.332851   -0.038212
 ---------------------------------------------------------------------

 SCF Done:  E(UHF) =  -1126.15565526     A.U. after    2 cycles

 The electronic state is 2-A.
 Alpha  occ. eigenvalues -- -105.58533 -84.49035 -20.62096 -20.61977 -20.61816
 Alpha  occ. eigenvalues --  -20.52928 -10.63547  -7.80563  -7.80114  -7.80090
 Alpha  occ. eigenvalues --   -7.73549  -6.93814  -4.48057  -4.47306  -4.47100
 Alpha  occ. eigenvalues --   -1.59295  -1.51628  -1.50561  -1.41704  -1.09532
 Alpha  occ. eigenvalues --   -0.91044  -0.79963  -0.78584  -0.70642  -0.66997
 Alpha  occ. eigenvalues --   -0.64918  -0.63181  -0.61967  -0.59528  -0.57276
 Alpha  occ. eigenvalues --   -0.54867  -0.51279  -0.50171  -0.48947  -0.48233
 Alpha  occ. eigenvalues --   -0.38136
 Alpha virt. eigenvalues --    0.02855   0.03963   0.05306   0.05514   0.06755
 Alpha virt. eigenvalues --    0.08939   0.09296   0.09737   0.11234   0.11750
 Alpha virt. eigenvalues --    0.14074   0.14848   0.17096   0.17729   0.18186

  Beta  occ. eigenvalues -- -105.58413 -84.49030 -20.61981 -20.61856 -20.61818
  Beta  occ. eigenvalues --  -20.52936 -10.63407  -7.80233  -7.80064  -7.79897
  Beta  occ. eigenvalues --   -7.71360  -6.93807  -4.48053  -4.47301  -4.47087
  Beta  occ. eigenvalues --   -1.59023  -1.51090  -1.50559  -1.41712  -1.08330
  Beta  occ. eigenvalues --   -0.90717  -0.79523  -0.78221  -0.69212  -0.66425
  Beta  occ. eigenvalues --   -0.63252  -0.62261  -0.60973  -0.58659  -0.57183
  Beta  occ. eigenvalues --   -0.54575  -0.50442  -0.49633  -0.48902  -0.48163
  Beta virt. eigenvalues --    0.02493   0.03906   0.04440   0.05879   0.06713
  Beta virt. eigenvalues --    0.07229   0.09615   0.10316   0.11470   0.12644
  Beta virt. eigenvalues --    0.13187   0.14162   0.15048   0.17229   0.18001

 Mulliken charges and spin densities:
               1          2
     1  Cl  -0.297136   0.040449
     2  B    0.376457   1.006502
     3  P    4.260279   0.015570
     4  O   -1.314256   0.000009
     5  O   -1.240242  -0.005173
     6  H    0.373217   0.000097
     7  O   -1.226346  -0.003822
     8  H    0.355087  -0.000355
     9  O   -1.287059  -0.053276
 Sum of Mulliken charges =  -0.00000   1.00000

 Dipole moment (field-independent basis, Debye):
    X=             -0.3708    Y=              1.0071    Z=              3.2993  Tot=              3.4695
                          Isotropic Fermi Contact Couplings
        Atom                 a.u.       MegaHertz       Gauss      10(-4) cm-1
     1  Cl(35)             0.12005      52.63603      18.78185      17.55749
     2  B(11)              0.42940     615.91243     219.77287     205.44627
     3  P(31)              0.00917      16.60562       5.92530       5.53904
     4  O(17)             -0.00048       0.28895       0.10310       0.09638
     5  O(17)             -0.00107       0.65112       0.23234       0.21719
     6  H(1)              -0.00001      -0.05059      -0.01805      -0.01688
     7  O(17)              0.00002      -0.01440      -0.00514      -0.00480
     8  H(1)              -0.00001      -0.04240      -0.01513      -0.01414

 1\1\GINC-SE367\SP\UHF\Aug-CC-pVDZ\B1Cl1H2O4P1(2)\OHZDE\08-Apr-2025\0\\
 #t hf aug-cc-pvdz iop(5/13=1,5/36=2,99/5=2) pseudo=read geom=check gue
 ss=(read,tcheck) scf=(maxcycle=1)\\title\\0,2\Cl,0,3.053682,0.06638,0.
 000079\B,0,1.401377,-0.515072,-0.048414\P,0,-1.230198,-0.045278,-0.113
 925\O,0,-1.666957,-0.855097,-1.237738\O,0,-1.450431,-0.679094,1.335273
 \H,0,-1.985248,-1.481386,1.296594\O,0,-1.861127,1.403703,-0.054003\H,0
 ,-1.476722,1.988561,0.610447\O,0,0.352947,0.332851,-0.038212\\Version=
 ES64L-G16RevC.01\State=2-A\HF=-1126.1556553\S2=0.754079\S2-1=0.\S2A=0.

 Normal termination of Gaussian 16 at Tue Apr  8 23:52:37 2025.
