 Gaussian 16, Revision C.01,

 ----------------------------------------------------------------------
 #t hf aug-cc-pvdz symm=none int=(grid=ultrafine) guess=(read,tcheck) s
 table=(opt,rrhf)
 ----------------------------------------------------------------------
 -----
 title
 -----
 Symbolic Z-matrix:
 Charge =  0 Multiplicity = 1

 SCF Done:  E(RHF) =  -709.630664718     A.U. after   15 cycles
 Normal termination of Gaussian 16 at Wed Apr  9 00:05:44 2025.
 Gaussian 16:  ES64L-G16RevC.01  3-Jul-2019

 ----------------------------------------------------------------------
 #t hf aug-cc-pvdz iop(5/13=1,5/36=2,99/5=2) pseudo=read geom=check gue
 ss=(read,tcheck) scf=(maxcycle=1)
 ----------------------------------------------------------------------
 -----
 title
 -----
 Structure from the checkpoint file:  "BDE49_nonexpt_2198_mol1.chk"
 Charge =  0 Multiplicity = 1

                         Standard orientation:
 ---------------------------------------------------------------------
 Center     Atomic      Atomic             Coordinates (Angstroms)
 Number     Number       Type             X           Y           Z
 ---------------------------------------------------------------------
      1          6           0       -2.642687   -1.095064   -0.012492
      2          6           0       -2.312311    0.247172    0.173140
      3          6           0       -0.986774    0.676352    0.195522
      4          6           0       -1.630264   -2.031150   -0.189019
      5          6           0       -0.295437   -1.627958   -0.179313
      6          6           0        0.018944   -0.285022    0.011833
      7          1           0       -1.870107   -3.077430   -0.339505
      8          1           0        0.491994   -2.358707   -0.329117
      9          8           0        1.321738    0.170363    0.025263
     10         14           0        2.752467   -0.682683    0.103304
     11          1           0       -3.099915    0.981914    0.305313
     12          1           0       -3.681386   -1.403381   -0.024749
     13          6           0       -0.616166    2.127283    0.415641
     14          8           0        0.122440    2.695321   -0.659911
     15          1           0       -0.059433    2.220967    1.359349
     16          1           0       -1.525706    2.722946    0.509761
     17          1           0        0.938797    2.187254   -0.720146
     18          1           0        3.794673    0.355309    0.183648
     19          1           0        2.941545   -1.514699   -1.105662
     20          1           0        2.769750   -1.551763    1.300152
 ---------------------------------------------------------------------

 SCF Done:  E(RHF) =  -710.090424146     A.U. after    2 cycles

 The electronic state is 1-A.
 Alpha  occ. eigenvalues --  -69.57786 -20.57437 -20.53820 -11.31886 -11.28838
 Alpha  occ. eigenvalues --  -11.25379 -11.25128 -11.24994 -11.24675 -11.24310
 Alpha  occ. eigenvalues --   -6.24383  -3.99884  -3.99736  -3.99709  -1.48730
 Alpha  occ. eigenvalues --   -1.43753  -1.16087  -1.04819  -1.01898  -0.92608
 Alpha  occ. eigenvalues --   -0.86774  -0.82504  -0.77325  -0.71135  -0.69837
 Alpha  occ. eigenvalues --   -0.66842  -0.65524  -0.62917  -0.62098  -0.60790
 Alpha  occ. eigenvalues --   -0.58815  -0.56523  -0.54074  -0.52829  -0.51328
 Alpha  occ. eigenvalues --   -0.50126  -0.48121  -0.47512  -0.43669  -0.35360
 Alpha  occ. eigenvalues --   -0.33144
 Alpha virt. eigenvalues --    0.02968   0.03368   0.03882   0.04599   0.05036
 Alpha virt. eigenvalues --    0.05253   0.06366   0.07451   0.07862   0.08506
 Alpha virt. eigenvalues --    0.08960   0.09907   0.10220   0.10957   0.11219

 Mulliken charges:
               1
     1  C   -0.028862
     2  C    1.029723
     3  C    0.451796
     4  C    0.056072
     5  C    0.050258
     6  C    1.659896
     7  H   -0.219233
     8  H   -0.361922
     9  O   -2.469543
    10  Si   1.109986
    11  H   -0.268181
    12  H   -0.239596
    13  C    0.145192
    14  O   -1.134658
    15  H    0.212575
    16  H   -0.069101
    17  H    0.376191
    18  H   -0.136544
    19  H   -0.091086
    20  H   -0.072963
 Sum of Mulliken charges =  -0.00000

 Dipole moment (field-independent basis, Debye):
    X=              0.6148    Y=             -2.3153    Z=              1.0352  Tot=              2.6097

 Test job not archived.
 1\1\GINC-SE212\SP\RHF\Aug-CC-pVDZ\C7H10O2Si1\OHZDE\09-Apr-2025\0\\#t h
 f aug-cc-pvdz iop(5/13=1,5/36=2,99/5=2) pseudo=read geom=check guess=(
 read,tcheck) scf=(maxcycle=1)\\title\\0,1\C,0,-2.642687,-1.095064,-0.0
 12492\C,0,-2.312311,0.247172,0.17314\C,0,-0.986774,0.676352,0.195522\C
 ,0,-1.630264,-2.03115,-0.189019\C,0,-0.295437,-1.627958,-0.179313\C,0,
 0.018944,-0.285022,0.011833\H,0,-1.870107,-3.07743,-0.339505\H,0,0.491
 994,-2.358707,-0.329117\O,0,1.321738,0.170363,0.025263\Si,0,2.752467,-
 0.682683,0.103304\H,0,-3.099915,0.981914,0.305313\H,0,-3.681386,-1.403

 Normal termination of Gaussian 16 at Wed Apr  9 00:05:56 2025.
