 Gaussian 16, Revision C.01,

 ----------------------------------------------------------------------
 #t hf aug-cc-pvdz symm=none int=(grid=ultrafine) guess=(read,tcheck) s
 table=(opt,rrhf)
 ----------------------------------------------------------------------
 -----
 title
 -----
 Symbolic Z-matrix:
 Charge =  0 Multiplicity = 1

 SCF Done:  E(RHF) =  -815.564955800     A.U. after   17 cycles
 Normal termination of Gaussian 16 at Tue Apr  8 23:36:28 2025.
 Gaussian 16:  ES64L-G16RevC.01  3-Jul-2019

 ----------------------------------------------------------------------
 #t hf aug-cc-pvdz iop(5/13=1,5/36=2,99/5=2) pseudo=read geom=check gue
 ss=(read,tcheck) scf=(maxcycle=1)
 ----------------------------------------------------------------------
 -----
 title
 -----
 Structure from the checkpoint file:  "BDE49_nonexpt_1478_mol1.chk"
 Charge =  0 Multiplicity = 1

                         Standard orientation:
 ---------------------------------------------------------------------
 Center     Atomic      Atomic             Coordinates (Angstroms)
 Number     Number       Type             X           Y           Z
 ---------------------------------------------------------------------
      1          6           0       -1.984406    1.203134    0.401227
      2          6           0       -0.635369    1.446830    0.185368
      3          6           0       -2.533268   -0.042062    0.064013
      4          6           0       -1.712744   -1.031517   -0.494761
      5          6           0       -0.366831   -0.776608   -0.720243
      6          6           0        0.191643    0.462277   -0.373878
      7          1           0       -0.224481    2.411347    0.461222
      8          1           0       -2.616003    1.967712    0.836335
      9          1           0       -2.135544   -1.994359   -0.753443
     10          1           0        0.256649   -1.551892   -1.145205
     11         15           0        1.949486    0.813455   -0.760547
     12          6           0        2.835795   -0.528975    0.246419
     13          8           0        2.437415   -1.666534    0.234069
     14          6           0        4.109867   -0.108227    0.949932
     15          1           0        3.851739    0.424177    1.870854
     16          1           0        4.697623    0.573520    0.329130
     17          1           0        4.696253   -0.993309    1.198832
     18          6           0       -3.922101   -0.299232    0.289164
     19          7           0       -5.044148   -0.505165    0.471651
     20          1           0        2.145670    1.875700    0.152930
 ---------------------------------------------------------------------

 SCF Done:  E(RHF) =  -816.080998278     A.U. after    2 cycles

 The electronic state is 1-A.
 Alpha  occ. eigenvalues --  -84.30594 -20.56362 -15.51766 -11.36824 -11.29833
 Alpha  occ. eigenvalues --  -11.28727 -11.28585 -11.28200 -11.27998 -11.27612
 Alpha  occ. eigenvalues --  -11.27031 -11.26690  -6.77773  -4.30815  -4.30416
 Alpha  occ. eigenvalues --   -4.29590  -1.49912  -1.23804  -1.19061  -1.07813
 Alpha  occ. eigenvalues --   -1.05193  -1.04255  -0.94001  -0.87274  -0.86222
 Alpha  occ. eigenvalues --   -0.78294  -0.75663  -0.69078  -0.68076  -0.65187
 Alpha  occ. eigenvalues --   -0.64960  -0.63241  -0.62867  -0.62661  -0.59851
 Alpha  occ. eigenvalues --   -0.57360  -0.56620  -0.54609  -0.53212  -0.51746
 Alpha  occ. eigenvalues --   -0.50406  -0.50173  -0.42015  -0.40181  -0.37671
 Alpha  occ. eigenvalues --   -0.33595
 Alpha virt. eigenvalues --    0.02361   0.03164   0.03811   0.04008   0.04872
 Alpha virt. eigenvalues --    0.04913   0.05416   0.06388   0.07447   0.07949
 Alpha virt. eigenvalues --    0.08143   0.08815   0.09290   0.10137   0.10566

 Mulliken charges:
               1
     1  C    0.299522
     2  C    0.176403
     3  C    2.556477
     4  C    0.235234
     5  C    0.048024
     6  C   -0.174553
     7  H   -0.280471
     8  H   -0.314298
     9  H   -0.312237
    10  H   -0.232570
    11  P    0.256781
    12  C    0.756259
    13  O   -1.280499
    14  C   -0.639644
    15  H    0.250809
    16  H    0.265495
    17  H    0.139512
    18  C   -3.207931
    19  N    1.101460
    20  H    0.356226
 Sum of Mulliken charges =   0.00000

 Dipole moment (field-independent basis, Debye):
    X=              6.3176    Y=              3.1733    Z=             -0.0917  Tot=              7.0704

 Test job not archived.
 1\1\GINC-SE343\SP\RHF\Aug-CC-pVDZ\C9H8N1O1P1\OHZDE\08-Apr-2025\0\\#t h
 f aug-cc-pvdz iop(5/13=1,5/36=2,99/5=2) pseudo=read geom=check guess=(
 read,tcheck) scf=(maxcycle=1)\\title\\0,1\C,0,-1.984406,1.203134,0.401
 227\C,0,-0.635369,1.44683,0.185368\C,0,-2.533268,-0.042062,0.064013\C,
 0,-1.712744,-1.031517,-0.494761\C,0,-0.366831,-0.776608,-0.720243\C,0,
 0.191643,0.462277,-0.373878\H,0,-0.224481,2.411347,0.461222\H,0,-2.616
 003,1.967712,0.836335\H,0,-2.135544,-1.994359,-0.753443\H,0,0.256649,-
 1.551892,-1.145205\P,0,1.949486,0.813455,-0.760547\C,0,2.835795,-0.528

 Normal termination of Gaussian 16 at Tue Apr  8 23:36:41 2025.
