 Gaussian 16, Revision C.01,

 ----------------------------------------------------------------------
 #t hf aug-cc-pvdz symm=none int=(grid=ultrafine) guess=(read,tcheck) s
 table=(opt,rrhf)
 ----------------------------------------------------------------------
 -----
 title
 -----
 Symbolic Z-matrix:
 Charge =  0 Multiplicity = 1

 SCF Done:  E(RHF) =  -772.397627926     A.U. after   12 cycles
 Normal termination of Gaussian 16 at Tue Apr  8 22:50:31 2025.
 Gaussian 16:  ES64L-G16RevC.01  3-Jul-2019

 ----------------------------------------------------------------------
 #t hf aug-cc-pvdz iop(5/13=1,5/36=2,99/5=2) pseudo=read geom=check gue
 ss=(read,tcheck) scf=(maxcycle=1)
 ----------------------------------------------------------------------
 -----
 title
 -----
 Structure from the checkpoint file:  "BDE49_expt_1663_mol1.chk"
 Charge =  0 Multiplicity = 1

                         Standard orientation:
 ---------------------------------------------------------------------
 Center     Atomic      Atomic             Coordinates (Angstroms)
 Number     Number       Type             X           Y           Z
 ---------------------------------------------------------------------
      1          6           0       -3.493385    0.694189    0.344913
      2          6           0       -2.122164    1.069005   -0.195412
      3          1           0       -4.264086    1.381706    0.001256
      4          1           0       -3.506874    0.652797    1.433843
      5         17           0       -4.038960   -0.955889   -0.214161
      6          6           0       -0.964981    0.220502    0.340533
      7          1           0       -1.958300    2.121470    0.073849
      8          1           0       -2.144993    1.028734   -1.289398
      9          6           0        0.399315    0.654452   -0.207250
     10          1           0       -1.141170   -0.830489    0.089948
     11          1           0       -0.952766    0.279146    1.436585
     12          6           0        1.564978   -0.186853    0.324960
     13          1           0        0.573114    1.710061    0.039106
     14          1           0        0.382877    0.596607   -1.303051
     15          6           0        2.930653    0.240731   -0.224032
     16          1           0        1.390035   -1.241890    0.079005
     17          1           0        1.581696   -0.129435    1.420954
     18          6           0        4.097421   -0.599778    0.307328
     19          1           0        3.105989    1.296395    0.021199
     20          1           0        2.914738    0.182876   -1.320155
     21          6           0        5.457723   -0.166309   -0.246553
     22          1           0        3.922606   -1.654301    0.062073
     23          1           0        4.113861   -0.541832    1.402435
     24          1           0        5.484301   -0.246980   -1.337765
     25          1           0        6.266938   -0.784659    0.151388
     26          1           0        5.676985    0.874284    0.012536
 ---------------------------------------------------------------------

 SCF Done:  E(RHF) =  -772.825727282     A.U. after    2 cycles

 The electronic state is 1-A.
 Alpha  occ. eigenvalues -- -105.54766 -11.30369 -11.24540 -11.23089 -11.22878
 Alpha  occ. eigenvalues --  -11.22605 -11.22574 -11.22452 -11.22188 -10.59565
 Alpha  occ. eigenvalues --   -7.76498  -7.76146  -7.76135  -1.12084  -1.08820
 Alpha  occ. eigenvalues --   -1.04813  -0.99889  -0.94255  -0.87904  -0.81997
 Alpha  occ. eigenvalues --   -0.79674  -0.79060  -0.66948  -0.64782  -0.63686
 Alpha  occ. eigenvalues --   -0.60921  -0.59491  -0.59268  -0.56542  -0.55200
 Alpha  occ. eigenvalues --   -0.52845  -0.52310  -0.51414  -0.49134  -0.48567
 Alpha  occ. eigenvalues --   -0.47432  -0.46942  -0.46646  -0.45592  -0.43670
 Alpha  occ. eigenvalues --   -0.43356
 Alpha virt. eigenvalues --    0.02962   0.03197   0.03521   0.04102   0.04546
 Alpha virt. eigenvalues --    0.04931   0.05611   0.06303   0.06833   0.07401
 Alpha virt. eigenvalues --    0.08051   0.08574   0.09358   0.10294   0.10489

 Mulliken charges:
               1
     1  C   -0.386685
     2  C   -0.234050
     3  H    0.191457
     4  H    0.224651
     5  Cl  -0.091727
     6  C   -0.221388
     7  H    0.169768
     8  H    0.107357
     9  C   -0.258128
    10  H    0.146350
    11  H    0.113034
    12  C   -0.198684
    13  H    0.104976
    14  H    0.111989
    15  C   -0.288383
    16  H    0.111966
    17  H    0.113347
    18  C   -0.199966
    19  H    0.110682
    20  H    0.110635
    21  C   -0.408920
    22  H    0.117751
    23  H    0.116541
    24  H    0.162203
    25  H    0.113707
    26  H    0.161516
 Sum of Mulliken charges =  -0.00000

 Dipole moment (field-independent basis, Debye):
    X=              1.1285    Y=              2.0430    Z=              0.6424  Tot=              2.4207

 Test job not archived.
 1\1\GINC-SE460\SP\RHF\Aug-CC-pVDZ\C8H17Cl1\OHZDE\08-Apr-2025\0\\#t hf
 aug-cc-pvdz iop(5/13=1,5/36=2,99/5=2) pseudo=read geom=check guess=(re
 ad,tcheck) scf=(maxcycle=1)\\title\\0,1\C,0,-3.493385,0.694189,0.34491
 3\C,0,-2.122164,1.069005,-0.195412\H,0,-4.264086,1.381706,0.001256\H,0
 ,-3.506874,0.652797,1.433843\Cl,0,-4.03896,-0.955889,-0.214161\C,0,-0.
 964981,0.220502,0.340533\H,0,-1.9583,2.12147,0.073849\H,0,-2.144993,1.
 028734,-1.289398\C,0,0.399315,0.654452,-0.20725\H,0,-1.14117,-0.830489
 ,0.089948\H,0,-0.952766,0.279146,1.436585\C,0,1.564978,-0.186853,0.324

 Normal termination of Gaussian 16 at Tue Apr  8 22:50:45 2025.
