 Gaussian 16, Revision C.01,

 ----------------------------------------------------------------------
 #t hf aug-cc-pvdz symm=none int=(grid=ultrafine) guess=(read,tcheck) s
 table=(opt,rrhf)
 ----------------------------------------------------------------------
 -----
 title
 -----
 Symbolic Z-matrix:
 Charge =  0 Multiplicity = 1

 SCF Done:  E(RHF) =  -671.613814630     A.U. after   12 cycles
 Normal termination of Gaussian 16 at Tue Apr  8 23:41:10 2025.
 Gaussian 16:  ES64L-G16RevC.01  3-Jul-2019

 ----------------------------------------------------------------------
 #t hf aug-cc-pvdz iop(5/13=1,5/36=2,99/5=2) pseudo=read geom=check gue
 ss=(read,tcheck) scf=(maxcycle=1)
 ----------------------------------------------------------------------
 -----
 title
 -----
 Structure from the checkpoint file:  "BDE49_nonexpt_1660_mol1.chk"
 Charge =  0 Multiplicity = 1

                         Standard orientation:
 ---------------------------------------------------------------------
 Center     Atomic      Atomic             Coordinates (Angstroms)
 Number     Number       Type             X           Y           Z
 ---------------------------------------------------------------------
      1         15           0       -0.615019   -0.745330   -0.107410
      2         14           0        1.440311    0.222470    0.006632
      3          6           0       -1.702826    0.777498    0.023695
      4          1           0       -0.623836   -1.113348    1.264494
      5          1           0       -1.669060    1.313770   -0.927059
      6          1           0       -1.415108    1.459286    0.824878
      7          1           0       -2.733308    0.454737    0.185864
      8          1           0        1.712645    0.900415   -1.283378
      9          1           0        2.451909   -0.839698    0.215806
     10          1           0        1.554639    1.225226    1.095527
 ---------------------------------------------------------------------

 SCF Done:  E(RHF) =  -671.742711623     A.U. after    2 cycles

 The electronic state is 1-A.
 Alpha  occ. eigenvalues --  -84.26333 -69.53613 -11.24708  -6.73556  -6.20690
 Alpha  occ. eigenvalues --   -4.25836  -4.25716  -4.25178  -3.96043  -3.96020
 Alpha  occ. eigenvalues --   -3.96006  -0.98870  -0.81786  -0.71097  -0.58789
 Alpha  occ. eigenvalues --   -0.58207  -0.50477  -0.49721  -0.46761  -0.41810
 Alpha  occ. eigenvalues --   -0.32942
 Alpha virt. eigenvalues --    0.03680   0.04268   0.04695   0.05494   0.06182
 Alpha virt. eigenvalues --    0.07193   0.07806   0.09049   0.09518   0.10115
 Alpha virt. eigenvalues --    0.11062   0.11948   0.13666   0.15020   0.16186

 Mulliken charges:
               1
     1  P   -0.363227
     2  Si   0.963733
     3  C   -0.739197
     4  H    0.384658
     5  H    0.114217
     6  H    0.086201
     7  H    0.091771
     8  H   -0.190711
     9  H   -0.186195
    10  H   -0.161251
 Sum of Mulliken charges =  -0.00000

 Dipole moment (field-independent basis, Debye):
    X=             -0.6255    Y=              0.6630    Z=              0.3846  Tot=              0.9893

 Test job not archived.
 1\1\GINC-SE080\SP\RHF\Aug-CC-pVDZ\C1H7P1Si1\OHZDE\08-Apr-2025\0\\#t hf
  aug-cc-pvdz iop(5/13=1,5/36=2,99/5=2) pseudo=read geom=check guess=(r
 ead,tcheck) scf=(maxcycle=1)\\title\\0,1\P,0,-0.615019,-0.74533,-0.107
 41\Si,0,1.440311,0.22247,0.006632\C,0,-1.702826,0.777498,0.023695\H,0,
 -0.623836,-1.113348,1.264494\H,0,-1.66906,1.31377,-0.927059\H,0,-1.415
 108,1.459286,0.824878\H,0,-2.733308,0.454737,0.185864\H,0,1.712645,0.9
 00415,-1.283378\H,0,2.451909,-0.839698,0.215806\H,0,1.554639,1.225226,
 1.095527\\Version=ES64L-G16RevC.01\State=1-A\HF=-671.7427116\RMSD=2.04

 Normal termination of Gaussian 16 at Tue Apr  8 23:41:13 2025.
