 Gaussian 16, Revision C.01,

 ----------------------------------------------------------------------
 #t hf aug-cc-pvdz symm=none int=(grid=ultrafine) guess=(read,tcheck) s
 table=opt
 ----------------------------------------------------------------------
 -----
 title
 -----
 Symbolic Z-matrix:
 Charge =  0 Multiplicity = 2

 SCF Done:  E(UHF) =  -576.574941744     A.U. after   17 cycles

 1\1\GINC-SE038\Stability\UHF\Aug-CC-pVDZ\C3H6Cl1\OHZDE\08-Apr-2025\0\\
 #t hf aug-cc-pvdz symm=none int=(grid=ultrafine) guess=(read,tcheck) s
 table=opt\\title\\0,2\C,0,1.922682,-0.634212,0.164845\C,0,1.116385,0.5
 69904,-0.370723\H,0,1.365504,-1.563954,0.030515\H,0,2.139963,-0.51901,
 1.22973\H,0,2.872234,-0.724866,-0.369527\C,0,-0.19346,0.77913,0.301102
 \H,0,0.957084,0.443845,-1.447437\H,0,1.704123,1.48575,-0.241238\H,0,-0
 .319977,1.336513,1.218994\Cl,0,-1.51721,-0.279248,-0.058375\\Version=E
 S64L-G16RevC.01\HF=-576.5749417\S2=0.76672\S2-1=0.\S2A=0.750216\RMSD=3

 Normal termination of Gaussian 16 at Tue Apr  8 22:42:46 2025.
 Gaussian 16:  ES64L-G16RevC.01  3-Jul-2019

 ----------------------------------------------------------------------
 #t hf aug-cc-pvdz iop(5/13=1,5/36=2,99/5=2) pseudo=read geom=check gue
 ss=(read,tcheck) scf=(maxcycle=1)
 ----------------------------------------------------------------------
 -----
 title
 -----
 Structure from the checkpoint file:  "BDE49_expt_145_mol2.chk"
 Charge =  0 Multiplicity = 2

                         Standard orientation:
 ---------------------------------------------------------------------
 Center     Atomic      Atomic             Coordinates (Angstroms)
 Number     Number       Type             X           Y           Z
 ---------------------------------------------------------------------
      1          6           0        1.922682   -0.634212    0.164845
      2          6           0        1.116385    0.569904   -0.370723
      3          1           0        1.365504   -1.563954    0.030515
      4          1           0        2.139963   -0.519010    1.229730
      5          1           0        2.872234   -0.724867   -0.369527
      6          6           0       -0.193460    0.779130    0.301102
      7          1           0        0.957084    0.443845   -1.447437
      8          1           0        1.704123    1.485750   -0.241238
      9          1           0       -0.319977    1.336513    1.218994
     10         17           0       -1.517210   -0.279247   -0.058375
 ---------------------------------------------------------------------

 SCF Done:  E(UHF) =  -576.779481672     A.U. after    2 cycles

 The electronic state is 2-A.
 Alpha  occ. eigenvalues -- -105.56805 -11.30368 -11.25075 -11.23635 -10.61621
 Alpha  occ. eigenvalues --   -7.78447  -7.78339  -7.78177  -1.13815  -1.03691
 Alpha  occ. eigenvalues --   -0.91583  -0.80613  -0.66036  -0.62794  -0.58614
 Alpha  occ. eigenvalues --   -0.56976  -0.53100  -0.50574  -0.50073  -0.45264
 Alpha  occ. eigenvalues --   -0.35277
 Alpha virt. eigenvalues --    0.03599   0.04085   0.04489   0.05358   0.07142
 Alpha virt. eigenvalues --    0.07487   0.09456   0.11659   0.12490   0.14373
 Alpha virt. eigenvalues --    0.15407   0.15817   0.16425   0.16823   0.17091

  Beta  occ. eigenvalues -- -105.56776 -11.27660 -11.25393 -11.23392 -10.61589
  Beta  occ. eigenvalues --   -7.78683  -7.78158  -7.77978  -1.10711  -1.03303
  Beta  occ. eigenvalues --   -0.89052  -0.77006  -0.65276  -0.61458  -0.56698
  Beta  occ. eigenvalues --   -0.54447  -0.52039  -0.50007  -0.47215  -0.45096
  Beta virt. eigenvalues --    0.03592   0.04049   0.04415   0.05370   0.07146
  Beta virt. eigenvalues --    0.07334   0.09241   0.09653   0.12518   0.13006
  Beta virt. eigenvalues --    0.14768   0.15510   0.16408   0.16817   0.17057

 Mulliken charges and spin densities:
               1          2
     1  C   -0.373464   0.067898
     2  C   -0.406878  -0.222625
     3  H    0.165856  -0.005095
     4  H    0.164666  -0.010564
     5  H    0.135404   0.002108
     6  C    0.079399   1.276482
     7  H    0.194387   0.010967
     8  H    0.215287   0.002628
     9  H   -0.011081  -0.096704
    10  Cl  -0.163575  -0.025095
 Sum of Mulliken charges =  -0.00000   1.00000

 Dipole moment (field-independent basis, Debye):
    X=              1.7333    Y=              0.7646    Z=              0.3514  Tot=              1.9268
                          Isotropic Fermi Contact Couplings
        Atom                 a.u.       MegaHertz       Gauss      10(-4) cm-1
     1  C(13)              0.05505      61.88258      22.08124      20.64181
     2  C(13)             -0.05453     -61.29976     -21.87328     -20.44740
     3  H(1)              -0.00148      -6.61468      -2.36028      -2.20642
     4  H(1)              -0.00136      -6.07262      -2.16686      -2.02561
     5  H(1)               0.00101       4.50304       1.60680       1.50205
     6  C(13)              0.27029     303.85491     108.42299     101.35509
     7  H(1)               0.00906      40.49742      14.45049      13.50848
     8  H(1)               0.00447      19.98458       7.13100       6.66614

 Normal termination of Gaussian 16 at Tue Apr  8 22:42:49 2025.
