 Gaussian 16, Revision C.01,

 ----------------------------------------------------------------------
 #t hf aug-cc-pvdz symm=none int=(grid=ultrafine) guess=(read,tcheck) s
 table=(opt,rrhf)
 ----------------------------------------------------------------------
 -----
 title
 -----
 Symbolic Z-matrix:
 Charge =  0 Multiplicity = 1

 SCF Done:  E(RHF) =  -1342.38670307     A.U. after   17 cycles
 Normal termination of Gaussian 16 at Tue Apr  8 23:45:32 2025.
 Gaussian 16:  ES64L-G16RevC.01  3-Jul-2019

 ----------------------------------------------------------------------
 #t hf aug-cc-pvdz iop(5/13=1,5/36=2,99/5=2) pseudo=read geom=check gue
 ss=(read,tcheck) scf=(maxcycle=1)
 ----------------------------------------------------------------------
 -----
 title
 -----
 Structure from the checkpoint file:  "BDE49_nonexpt_1650_mol1.chk"
 Charge =  0 Multiplicity = 1

                         Standard orientation:
 ---------------------------------------------------------------------
 Center     Atomic      Atomic             Coordinates (Angstroms)
 Number     Number       Type             X           Y           Z
 ---------------------------------------------------------------------
      1         14           0        0.473925   -0.035640   -0.299544
      2          7           0        1.324633   -0.251277    1.369127
      3          7           0        0.687957    1.813580   -0.579087
      4         15           0       -1.727890   -0.414987    0.087033
      5          6           0        1.409111   -0.951995   -1.606308
      6          8           0       -2.062934    0.454258    1.384997
      7          8           0       -0.316556    2.432199   -0.943549
      8          8           0        2.498873   -0.576106    1.390224
      9          8           0        1.796306    2.303692   -0.440350
     10          8           0        0.633400   -0.051651    2.374574
     11          8           0       -1.971170   -1.859229    0.105884
     12          6           0        1.395152   -2.482730   -1.403082
     13          1           0        2.430252   -0.557628   -1.607612
     14          1           0        0.960677   -0.682595   -2.569916
     15          1           0        1.909119   -2.758537   -0.480386
     16          1           0        1.912850   -2.971053   -2.230940
     17          1           0        0.377250   -2.874165   -1.357650
     18          1           0       -1.456691    0.257919    2.120109
     19          8           0       -2.510812    0.378730   -1.047477
     20          1           0       -2.300631    1.326903   -1.053849
 ---------------------------------------------------------------------

 SCF Done:  E(RHF) =  -1343.15161848     A.U. after    2 cycles

 The electronic state is 1-A.
 Alpha  occ. eigenvalues --  -84.46398 -69.67345 -20.64009 -20.63908 -20.63278
 Alpha  occ. eigenvalues --  -20.63063 -20.62066 -20.61838 -20.53583 -15.80247
 Alpha  occ. eigenvalues --  -15.80162 -11.29349 -11.27293  -6.91647  -6.34038
 Alpha  occ. eigenvalues --   -4.45831  -4.45140  -4.44111  -4.09314  -4.09236
 Alpha  occ. eigenvalues --   -4.09103  -1.70078  -1.69785  -1.56410  -1.54137
 Alpha  occ. eigenvalues --   -1.54044  -1.49891  -1.41970  -1.09779  -1.05377
 Alpha  occ. eigenvalues --   -1.01401  -0.91066  -0.88301  -0.86395  -0.83791
 Alpha  occ. eigenvalues --   -0.78413  -0.78333  -0.77336  -0.76803  -0.76092
 Alpha  occ. eigenvalues --   -0.73853  -0.67163  -0.66433  -0.65322  -0.60553
 Alpha  occ. eigenvalues --   -0.60292  -0.58458  -0.57756  -0.56753  -0.55645
 Alpha  occ. eigenvalues --   -0.53792  -0.53471  -0.52176  -0.50440  -0.50228
 Alpha  occ. eigenvalues --   -0.48980  -0.48736  -0.48563  -0.44819
 Alpha virt. eigenvalues --    0.00109   0.01195   0.02685   0.03769   0.04525
 Alpha virt. eigenvalues --    0.04705   0.05914   0.06479   0.07053   0.07613
 Alpha virt. eigenvalues --    0.08050   0.08771   0.09540   0.10180   0.10433

 Mulliken charges:
               1
     1  Si   1.260054
     2  N    2.082831
     3  N    1.821571
     4  P    3.546383
     5  C   -0.556837
     6  O   -1.469815
     7  O   -1.199818
     8  O   -1.244532
     9  O   -1.176431
    10  O   -1.285303
    11  O   -1.608553
    12  C   -0.374210
    13  H    0.149083
    14  H    0.033650
    15  H    0.157529
    16  H    0.121200
    17  H    0.159170
    18  H    0.540624
    19  O   -1.430886
    20  H    0.474289
 Sum of Mulliken charges =  -0.00000

 Dipole moment (field-independent basis, Debye):
    X=              1.3435    Y=             -0.2866    Z=             -2.6595  Tot=              2.9933

 Test job not archived.
 1\1\GINC-SE128\SP\RHF\Aug-CC-pVDZ\C2H7N2O7P1Si1\OHZDE\08-Apr-2025\0\\#
 t hf aug-cc-pvdz iop(5/13=1,5/36=2,99/5=2) pseudo=read geom=check gues
 s=(read,tcheck) scf=(maxcycle=1)\\title\\0,1\Si,0,0.473925,-0.03564,-0
 .299544\N,0,1.324633,-0.251277,1.369127\N,0,0.687957,1.81358,-0.579087
 \P,0,-1.72789,-0.414987,0.087033\C,0,1.409111,-0.951995,-1.606308\O,0,
 -2.062934,0.454258,1.384997\O,0,-0.316556,2.432199,-0.943549\O,0,2.498
 873,-0.576106,1.390224\O,0,1.796306,2.303692,-0.44035\O,0,0.6334,-0.05
 1651,2.374574\O,0,-1.97117,-1.859229,0.105884\C,0,1.395152,-2.48273,-1

 Normal termination of Gaussian 16 at Tue Apr  8 23:45:49 2025.
