 Gaussian 16, Revision C.01,

 ----------------------------------------------------------------------
 #t hf aug-cc-pvdz symm=none int=(grid=ultrafine) guess=(read,tcheck) s
 table=(opt,rrhf)
 ----------------------------------------------------------------------
 -----
 title
 -----
 Symbolic Z-matrix:
 Charge =  0 Multiplicity = 1

 SCF Done:  E(RHF) =  -710.071590299     A.U. after   14 cycles
 Normal termination of Gaussian 16 at Wed Apr  9 00:39:51 2025.
 Gaussian 16:  ES64L-G16RevC.01  3-Jul-2019

 ----------------------------------------------------------------------
 #t hf aug-cc-pvdz iop(5/13=1,5/36=2,99/5=2) pseudo=read geom=check gue
 ss=(read,tcheck) scf=(maxcycle=1)
 ----------------------------------------------------------------------
 -----
 title
 -----
 Structure from the checkpoint file:  "BDE49_nonexpt_628_mol1.chk"
 Charge =  0 Multiplicity = 1

                         Standard orientation:
 ---------------------------------------------------------------------
 Center     Atomic      Atomic             Coordinates (Angstroms)
 Number     Number       Type             X           Y           Z
 ---------------------------------------------------------------------
      1         17           0        1.731980   -0.050842   -0.000005
      2          8           0        0.178145   -0.799127    0.000004
      3          5           0       -0.934193    0.063645    0.000006
      4          8           0       -0.886938    1.412412   -0.000002
      5          8           0       -2.132347   -0.574635    0.000006
      6          1           0       -2.049693   -1.532688    0.000008
      7          1           0        0.006108    1.769579   -0.000006
 ---------------------------------------------------------------------

 SCF Done:  E(RHF) =  -710.390706796     A.U. after    2 cycles

 The electronic state is 1-A.
 Alpha  occ. eigenvalues -- -105.64645 -20.63464 -20.57432 -20.56893 -10.68850
 Alpha  occ. eigenvalues --   -7.85834  -7.85302  -7.85265  -7.69417  -1.52270
 Alpha  occ. eigenvalues --   -1.47046  -1.46084  -1.05143  -0.81114  -0.73744
 Alpha  occ. eigenvalues --   -0.70040  -0.65153  -0.64816  -0.56450  -0.56293
 Alpha  occ. eigenvalues --   -0.56068  -0.51112  -0.49238  -0.46633
 Alpha virt. eigenvalues --    0.04015   0.04227   0.05552   0.05890   0.06748
 Alpha virt. eigenvalues --    0.09230   0.10264   0.14069   0.14600   0.15195
 Alpha virt. eigenvalues --    0.19288   0.20085   0.20652   0.21522   0.21856

 Mulliken charges:
               1
     1  Cl   0.330032
     2  O   -1.005416
     3  B    1.899526
     4  O   -1.028013
     5  O   -1.087543
     6  H    0.437193
     7  H    0.454221
 Sum of Mulliken charges =  -0.00000

 Dipole moment (field-independent basis, Debye):
    X=              1.4327    Y=             -0.6129    Z=              0.0000  Tot=              1.5583

 Test job not archived.
 1\1\GINC-SE083\SP\RHF\Aug-CC-pVDZ\B1Cl1H2O3\OHZDE\09-Apr-2025\0\\#t hf
  aug-cc-pvdz iop(5/13=1,5/36=2,99/5=2) pseudo=read geom=check guess=(r
 ead,tcheck) scf=(maxcycle=1)\\title\\0,1\Cl,0,1.73198,-0.050842,-0.000
 005\O,0,0.178145,-0.799127,0.000004\B,0,-0.934193,0.063645,0.000006\O,
 0,-0.886938,1.412412,-0.000002\O,0,-2.132347,-0.574635,0.000006\H,0,-2
 .049693,-1.532688,0.000008\H,0,0.006108,1.769579,-0.000006\\Version=ES
 64L-G16RevC.01\State=1-A\HF=-710.3907068\RMSD=8.627e-03\Dipole=0.56367
 96,-0.2411505,0.0000031\Quadrupole=-2.0994895,2.2407525,-0.141263,4.65

 Normal termination of Gaussian 16 at Wed Apr  9 00:39:55 2025.
