 Gaussian 16, Revision C.01,

 ----------------------------------------------------------------------
 #t hf aug-cc-pvdz symm=none int=(grid=ultrafine) guess=(read,tcheck) s
 table=(opt,rrhf)
 ----------------------------------------------------------------------
 -----
 title
 -----
 Symbolic Z-matrix:
 Charge =  0 Multiplicity = 1

 SCF Done:  E(RHF) =  -117.086638521     A.U. after   12 cycles
 Normal termination of Gaussian 16 at Tue Apr  8 23:03:39 2025.
 Gaussian 16:  ES64L-G16RevC.01  3-Jul-2019

 ----------------------------------------------------------------------
 #t hf aug-cc-pvdz iop(5/13=1,5/36=2,99/5=2) pseudo=read geom=check gue
 ss=(read,tcheck) scf=(maxcycle=1)
 ----------------------------------------------------------------------
 -----
 title
 -----
 Structure from the checkpoint file:  "BDE49_expt_35_mol1.chk"
 Charge =  0 Multiplicity = 1

                         Standard orientation:
 ---------------------------------------------------------------------
 Center     Atomic      Atomic             Coordinates (Angstroms)
 Number     Number       Type             X           Y           Z
 ---------------------------------------------------------------------
      1          6           0       -1.233484    0.162304    0.000004
      2          6           0        0.134602   -0.453561    0.000004
      3          6           0        1.280494    0.220394   -0.000008
      4          1           0        2.238917   -0.286355   -0.000007
      5          1           0        1.301823    1.306420   -0.000021
      6          1           0       -1.807315   -0.153290    0.878502
      7          1           0       -1.807326   -0.153314   -0.878478
      8          1           0       -1.182468    1.253708   -0.000011
      9          1           0        0.166696   -1.541990    0.000016
 ---------------------------------------------------------------------

 SCF Done:  E(RHF) =  -117.217667809     A.U. after    2 cycles

 The electronic state is 1-A.
 Alpha  occ. eigenvalues --  -11.24271 -11.23303 -11.22786  -1.06655  -0.93575
 Alpha  occ. eigenvalues --   -0.76178  -0.64851  -0.59498  -0.57259  -0.53210
 Alpha  occ. eigenvalues --   -0.49807  -0.36741
 Alpha virt. eigenvalues --    0.03902   0.04423   0.04550   0.05636   0.06625
 Alpha virt. eigenvalues --    0.07464   0.10820   0.12436   0.14116   0.14715
 Alpha virt. eigenvalues --    0.15812   0.16667   0.17158   0.17199   0.18496

 Mulliken charges:
               1
     1  C   -0.613860
     2  C    0.437098
     3  C   -0.060055
     4  H   -0.079230
     5  H   -0.063024
     6  H    0.203536
     7  H    0.203535
     8  H    0.101198
     9  H   -0.129200
 Sum of Mulliken charges =  -0.00000

 Dipole moment (field-independent basis, Debye):
    X=             -0.4017    Y=             -0.0689    Z=              0.0000  Tot=              0.4076

 Test job not archived.
 1\1\GINC-SE366\SP\RHF\Aug-CC-pVDZ\C3H6\OHZDE\08-Apr-2025\0\\#t hf aug-
 cc-pvdz iop(5/13=1,5/36=2,99/5=2) pseudo=read geom=check guess=(read,t
 check) scf=(maxcycle=1)\\title\\0,1\C,0,-1.233484,0.162304,0.000004\C,
 0,0.134602,-0.453561,0.000004\C,0,1.280494,0.220394,-0.000008\H,0,2.23
 8917,-0.286355,-0.000007\H,0,1.301823,1.30642,-0.000021\H,0,-1.807315,
 -0.15329,0.878502\H,0,-1.807326,-0.153314,-0.878478\H,0,-1.182468,1.25
 3708,-0.000011\H,0,0.166696,-1.54199,0.000016\\Version=ES64L-G16RevC.0
 1\State=1-A\HF=-117.2176678\RMSD=1.148e-02\Dipole=-0.1580602,-0.027092

 Normal termination of Gaussian 16 at Tue Apr  8 23:03:41 2025.
