 Gaussian 16, Revision C.01,

 ----------------------------------------------------------------------
 #t hf aug-cc-pvdz symm=none int=(grid=ultrafine) guess=(read,tcheck) s
 table=(opt,rrhf)
 ----------------------------------------------------------------------
 -----
 title
 -----
 Symbolic Z-matrix:
 Charge =  0 Multiplicity = 1

 SCF Done:  E(RHF) =  -1036.12709002     A.U. after   12 cycles

 1\1\GINC-SE072\Stability\RHF\Aug-CC-pVDZ\C3H6Cl2\OHZDE\08-Apr-2025\0\\
 #t hf aug-cc-pvdz symm=none int=(grid=ultrafine) guess=(read,tcheck) s
 table=(opt,rrhf)\\title\\0,1\C,0,0.,1.275143,1.179331\H,0,0.889645,1.2
 98653,1.812619\H,0,-0.889645,1.298653,1.812619\H,0,0.,2.154653,0.53681
 6\C,0,0.,0.,0.353318\C,0,0.,-1.275143,1.179331\Cl,0,1.475915,0.,-0.723
 411\H,0,0.,-2.154653,0.536816\H,0,0.889645,-1.298653,1.812619\Cl,0,-1.
 475915,0.,-0.723411\H,0,-0.889645,-1.298653,1.812619\\Version=ES64L-G1
 6RevC.01\HF=-1036.12709\RMSD=5.314e-09\Dipole=0.,0.,1.0458297\Quadrupo

 Normal termination of Gaussian 16 at Tue Apr  8 22:30:24 2025.
 Gaussian 16:  ES64L-G16RevC.01  3-Jul-2019

 ----------------------------------------------------------------------
 #t hf aug-cc-pvdz iop(5/13=1,5/36=2,99/5=2) pseudo=read geom=check gue
 ss=(read,tcheck) scf=(maxcycle=1)
 ----------------------------------------------------------------------
 -----
 title
 -----
 Structure from the checkpoint file:  "BDE49_expt_1030_mol1.chk"
 Charge =  0 Multiplicity = 1

                         Standard orientation:
 ---------------------------------------------------------------------
 Center     Atomic      Atomic             Coordinates (Angstroms)
 Number     Number       Type             X           Y           Z
 ---------------------------------------------------------------------
      1          6           0       -0.000000    1.275143    1.179331
      2          1           0        0.889645    1.298653    1.812619
      3          1           0       -0.889645    1.298653    1.812619
      4          1           0        0.000000    2.154653    0.536816
      5          6           0       -0.000000    0.000000    0.353318
      6          6           0       -0.000000   -1.275143    1.179331
      7         17           0        1.475915   -0.000000   -0.723411
      8          1           0       -0.000000   -2.154653    0.536816
      9          1           0        0.889645   -1.298653    1.812619
     10         17           0       -1.475915    0.000000   -0.723411
     11          1           0       -0.889645   -1.298653    1.812619
 ---------------------------------------------------------------------

 SCF Done:  E(RHF) =  -1036.40841581     A.U. after    2 cycles

 The electronic state is 1-A1.
 Alpha  occ. eigenvalues -- -105.56746-105.56746 -11.38714 -11.25926 -11.25903
 Alpha  occ. eigenvalues --  -10.61561 -10.61557  -7.78496  -7.78489  -7.78113
 Alpha  occ. eigenvalues --   -7.78112  -7.78110  -7.78109  -1.17807  -1.03709
 Alpha  occ. eigenvalues --   -1.00545  -0.97934  -0.77972  -0.65445  -0.64777
 Alpha  occ. eigenvalues --   -0.63482  -0.58508  -0.55021  -0.54493  -0.52202
 Alpha  occ. eigenvalues --   -0.47299  -0.46475  -0.45194  -0.44208
 Alpha virt. eigenvalues --    0.03513   0.04430   0.04925   0.05577   0.07105
 Alpha virt. eigenvalues --    0.07258   0.08647   0.09853   0.11276   0.13840
 Alpha virt. eigenvalues --    0.14321   0.15405   0.15898   0.16798   0.17113

 Mulliken charges:
               1
     1  C    0.156904
     2  H    0.230685
     3  H    0.230685
     4  H    0.171259
     5  C   -1.494473
     6  C    0.156904
     7  Cl  -0.042297
     8  H    0.171259
     9  H    0.230685
    10  Cl  -0.042297
    11  H    0.230685
 Sum of Mulliken charges =   0.00000

 Dipole moment (field-independent basis, Debye):
    X=             -0.0000    Y=             -0.0000    Z=              2.6364  Tot=              2.6364

 Test job not archived.
 1\1\GINC-SE072\SP\RHF\Aug-CC-pVDZ\C3H6Cl2\OHZDE\08-Apr-2025\0\\#t hf a
 ug-cc-pvdz iop(5/13=1,5/36=2,99/5=2) pseudo=read geom=check guess=(rea
 d,tcheck) scf=(maxcycle=1)\\title\\0,1\C,0,0.,1.275143,1.179331\H,0,0.
 889645,1.298653,1.812619\H,0,-0.889645,1.298653,1.812619\H,0,0.,2.1546
 53,0.536816\C,0,0.,0.,0.353318\C,0,0.,-1.275143,1.179331\Cl,0,1.475915
 ,0.,-0.723411\H,0,0.,-2.154653,0.536816\H,0,0.889645,-1.298653,1.81261
 9\Cl,0,-1.475915,0.,-0.723411\H,0,-0.889645,-1.298653,1.812619\\Versio
 n=ES64L-G16RevC.01\State=1-A1\HF=-1036.4084158\RMSD=7.684e-03\Dipole=0

 Normal termination of Gaussian 16 at Tue Apr  8 22:30:27 2025.
