 Gaussian 16, Revision C.01,

 ----------------------------------------------------------------------
 #t hf aug-cc-pvdz symm=none int=(grid=ultrafine) guess=(read,tcheck) s
 table=(opt,rrhf)
 ----------------------------------------------------------------------
 -----
 title
 -----
 Symbolic Z-matrix:
 Charge =  0 Multiplicity = 1

 SCF Done:  E(RHF) =  -984.411943690     A.U. after   14 cycles
 Normal termination of Gaussian 16 at Tue Apr  8 23:09:58 2025.
 Gaussian 16:  ES64L-G16RevC.01  3-Jul-2019

 ----------------------------------------------------------------------
 #t hf aug-cc-pvdz iop(5/13=1,5/36=2,99/5=2) pseudo=read geom=check gue
 ss=(read,tcheck) scf=(maxcycle=1)
 ----------------------------------------------------------------------
 -----
 title
 -----
 Structure from the checkpoint file:  "BDE49_expt_625_mol1.chk"
 Charge =  0 Multiplicity = 1

                         Standard orientation:
 ---------------------------------------------------------------------
 Center     Atomic      Atomic             Coordinates (Angstroms)
 Number     Number       Type             X           Y           Z
 ---------------------------------------------------------------------
      1          6           0        0.381296   -0.076901   -0.352263
      2          8           0        1.009544   -1.052579    0.391264
      3          8           0        2.276440   -1.341813   -0.239109
      4          1           0        2.882299   -0.864728    0.349403
      5          6           0       -1.118640   -0.162129   -0.020178
      6         17           0        1.021748    1.591131    0.021771
      7          1           0        0.531271   -0.223215   -1.420272
      8          9           0       -1.796379    0.781787   -0.687328
      9          9           0       -1.585823   -1.359908   -0.408145
     10          9           0       -1.356364   -0.018762    1.286380
 ---------------------------------------------------------------------

 SCF Done:  E(RHF) =  -984.976695735     A.U. after    2 cycles

 The electronic state is 1-A.
 Alpha  occ. eigenvalues -- -105.59116 -26.52552 -26.52439 -26.52435 -20.66978
 Alpha  occ. eigenvalues --  -20.66329 -11.54760 -11.41426 -10.63938  -7.80871
 Alpha  occ. eigenvalues --   -7.80487  -7.80468  -1.73609  -1.64737  -1.63483
 Alpha  occ. eigenvalues --   -1.63270  -1.36048  -1.12338  -1.01810  -0.91352
 Alpha  occ. eigenvalues --   -0.83848  -0.83060  -0.81387  -0.77650  -0.71564
 Alpha  occ. eigenvalues --   -0.70533  -0.69194  -0.66946  -0.65865  -0.65230
 Alpha  occ. eigenvalues --   -0.63737  -0.63098  -0.57331  -0.53716  -0.50681
 Alpha  occ. eigenvalues --   -0.48633  -0.48282
 Alpha virt. eigenvalues --    0.03549   0.04807   0.07633   0.08189   0.10310
 Alpha virt. eigenvalues --    0.11199   0.12149   0.12911   0.14725   0.15012
 Alpha virt. eigenvalues --    0.15970   0.16812   0.17597   0.18761   0.19718

 Mulliken charges:
               1
     1  C    0.165699
     2  O   -0.794799
     3  O   -0.477471
     4  H    0.432390
     5  C    2.619805
     6  Cl  -0.063146
     7  H    0.286786
     8  F   -0.706459
     9  F   -0.737488
    10  F   -0.725317
 Sum of Mulliken charges =  -0.00000

 Dipole moment (field-independent basis, Debye):
    X=              1.8777    Y=              0.0653    Z=             -0.5385  Tot=              1.9545

 Test job not archived.
 1\1\GINC-SE094\SP\RHF\Aug-CC-pVDZ\C2H2Cl1F3O2\OHZDE\08-Apr-2025\0\\#t
 hf aug-cc-pvdz iop(5/13=1,5/36=2,99/5=2) pseudo=read geom=check guess=
 (read,tcheck) scf=(maxcycle=1)\\title\\0,1\C,0,0.381296,-0.076901,-0.3
 52263\O,0,1.009545,-1.052579,0.391264\O,0,2.276441,-1.341812,-0.239109
 \H,0,2.882299,-0.864727,0.349403\C,0,-1.11864,-0.162129,-0.020178\Cl,0
 ,1.021747,1.591131,0.021771\H,0,0.531271,-0.223215,-1.420272\F,0,-1.79
 6379,0.781786,-0.687328\F,0,-1.585822,-1.359909,-0.408145\F,0,-1.35636
 4,-0.018763,1.28638\\Version=ES64L-G16RevC.01\State=1-A\HF=-984.976695

 Normal termination of Gaussian 16 at Tue Apr  8 23:10:03 2025.
