 Gaussian 16, Revision C.01,

 ----------------------------------------------------------------------
 #t hf aug-cc-pvdz symm=none int=(grid=ultrafine) guess=(read,tcheck) s
 table=(opt,rrhf)
 ----------------------------------------------------------------------
 -----
 title
 -----
 Symbolic Z-matrix:
 Charge =  0 Multiplicity = 1

 SCF Done:  E(RHF) =  -1913.76214491     A.U. after   14 cycles
 Normal termination of Gaussian 16 at Tue Apr  8 23:48:17 2025.
 Gaussian 16:  ES64L-G16RevC.01  3-Jul-2019

 ----------------------------------------------------------------------
 #t hf aug-cc-pvdz iop(5/13=1,5/36=2,99/5=2) pseudo=read geom=check gue
 ss=(read,tcheck) scf=(maxcycle=1)
 ----------------------------------------------------------------------
 -----
 title
 -----
 Structure from the checkpoint file:  "BDE49_nonexpt_1793_mol1.chk"
 Charge =  0 Multiplicity = 1

                         Standard orientation:
 ---------------------------------------------------------------------
 Center     Atomic      Atomic             Coordinates (Angstroms)
 Number     Number       Type             X           Y           Z
 ---------------------------------------------------------------------
      1          6           0       -3.044733    1.140257   -0.001743
      2          6           0       -1.652916    1.196322   -0.024524
      3          7           0       -3.739990   -0.000000    0.009725
      4          6           0       -3.044732   -1.140257   -0.001743
      5          6           0       -1.652915   -1.196321   -0.024524
      6          6           0       -0.925559    0.000001   -0.035956
      7          1           0       -3.627424    2.057018    0.004777
      8          1           0       -1.156618    2.159399   -0.040251
      9          1           0       -3.627423   -2.057018    0.004777
     10          1           0       -1.156617   -2.159398   -0.040251
     11         14           0        0.934440    0.000000   -0.007054
     12         17           0        1.674092   -1.674336   -0.947154
     13         17           0        1.627755   -0.000013    1.931496
     14         17           0        1.674093    1.674348   -0.947132
 ---------------------------------------------------------------------

 SCF Done:  E(RHF) =  -1914.27197704     A.U. after    2 cycles

 The electronic state is 1-A.
 Alpha  occ. eigenvalues -- -105.58823-105.58823-105.58479 -69.68096 -15.52749
 Alpha  occ. eigenvalues --  -11.29829 -11.29829 -11.28230 -11.27524 -11.27523
 Alpha  occ. eigenvalues --  -10.63845 -10.63835 -10.63484  -7.80734  -7.80731
 Alpha  occ. eigenvalues --   -7.80407  -7.80405  -7.80399  -7.80398  -7.80380
 Alpha  occ. eigenvalues --   -7.80049  -7.80046  -6.33883  -4.09266  -4.09243
 Alpha  occ. eigenvalues --   -4.09095  -1.27857  -1.13275  -1.10152  -1.07012
 Alpha  occ. eigenvalues --   -1.06535  -1.05659  -0.89766  -0.89037  -0.76892
 Alpha  occ. eigenvalues --   -0.71370  -0.70725  -0.67666  -0.63074  -0.59880
 Alpha  occ. eigenvalues --   -0.59273  -0.59060  -0.57640  -0.55414  -0.51856
 Alpha  occ. eigenvalues --   -0.51770  -0.50404  -0.49198  -0.49189  -0.47696
 Alpha  occ. eigenvalues --   -0.46123  -0.42513  -0.37540
 Alpha virt. eigenvalues --    0.03068   0.03979   0.04025   0.04657   0.05519
 Alpha virt. eigenvalues --    0.05594   0.06717   0.07771   0.08277   0.08480
 Alpha virt. eigenvalues --    0.10537   0.10736   0.11020   0.11407   0.12636

 Mulliken charges:
               1
     1  C   -1.076290
     2  C    1.222479
     3  N    1.056446
     4  C   -1.076287
     5  C    1.222477
     6  C   -0.691998
     7  H   -0.171361
     8  H   -0.322390
     9  H   -0.171362
    10  H   -0.322392
    11  Si   1.911081
    12  Cl  -0.515223
    13  Cl  -0.549959
    14  Cl  -0.515223
 Sum of Mulliken charges =  -0.00000

 Dipole moment (field-independent basis, Debye):
    X=              0.1726    Y=              0.0000    Z=             -0.1099  Tot=              0.2046

 Test job not archived.
 1\1\GINC-SE250\SP\RHF\Aug-CC-pVDZ\C5H4Cl3N1Si1\OHZDE\08-Apr-2025\0\\#t
  hf aug-cc-pvdz iop(5/13=1,5/36=2,99/5=2) pseudo=read geom=check guess
 =(read,tcheck) scf=(maxcycle=1)\\title\\0,1\C,0,-3.044733,1.140257,-0.
 001743\C,0,-1.652916,1.196322,-0.024524\N,0,-3.73999,0.,0.009725\C,0,-
 3.044732,-1.140257,-0.001743\C,0,-1.652915,-1.196321,-0.024524\C,0,-0.
 925559,0.000001,-0.035956\H,0,-3.627424,2.057018,0.004777\H,0,-1.15661
 8,2.159399,-0.040251\H,0,-3.627423,-2.057018,0.004777\H,0,-1.156617,-2
 .159398,-0.040251\Si,0,0.93444,0.,-0.007054\Cl,0,1.674092,-1.674336,-0

 Normal termination of Gaussian 16 at Tue Apr  8 23:48:25 2025.
