 Gaussian 16, Revision C.01,

 ----------------------------------------------------------------------
 #t hf aug-cc-pvdz symm=none int=(grid=ultrafine) guess=(read,tcheck) s
 table=opt
 ----------------------------------------------------------------------
 -----
 title
 -----
 Symbolic Z-matrix:
 Charge =  0 Multiplicity = 2

 SCF Done:  E(UHF) =  -1491.31857197     A.U. after   19 cycles
 Normal termination of Gaussian 16 at Wed Apr  9 00:48:02 2025.
 Gaussian 16:  ES64L-G16RevC.01  3-Jul-2019

 ----------------------------------------------------------------------
 #t hf aug-cc-pvdz iop(5/13=1,5/36=2,99/5=2) pseudo=read geom=check gue
 ss=(read,tcheck) scf=(maxcycle=1)
 ----------------------------------------------------------------------
 -----
 title
 -----
 Structure from the checkpoint file:  "BDE49_nonexpt_867_mol2.chk"
 Charge =  0 Multiplicity = 2

                         Standard orientation:
 ---------------------------------------------------------------------
 Center     Atomic      Atomic             Coordinates (Angstroms)
 Number     Number       Type             X           Y           Z
 ---------------------------------------------------------------------
      1         16           0       -2.417694    0.098459   -0.000006
      2         16           0       -0.735457   -0.940013    0.000011
      3          6           0        0.617555    0.349836    0.000002
      4         17           0        2.175170   -0.530254   -0.000007
      5          9           0        0.542627    1.132233    1.080904
      6          9           0        0.542615    1.132230   -1.080901
 ---------------------------------------------------------------------

 SCF Done:  E(UHF) =  -1491.72212621     A.U. after    2 cycles

 The electronic state is 2-A.
 Alpha  occ. eigenvalues -- -105.61144 -94.03749 -94.01503 -26.52969 -26.52968
 Alpha  occ. eigenvalues --  -11.53716 -10.66015  -8.31741  -8.29594  -7.82954
 Alpha  occ. eigenvalues --   -7.82528  -7.82527  -6.29410  -6.29408  -6.29181
 Alpha  occ. eigenvalues --   -6.28489  -6.27055  -6.26632  -1.71075  -1.63510
 Alpha  occ. eigenvalues --   -1.17722  -1.12763  -0.97462  -0.89758  -0.80771
 Alpha  occ. eigenvalues --   -0.77686  -0.76596  -0.69070  -0.65290  -0.64292
 Alpha  occ. eigenvalues --   -0.55627  -0.55023  -0.53450  -0.50993  -0.50248
 Alpha  occ. eigenvalues --   -0.41776  -0.40196
 Alpha virt. eigenvalues --    0.05595   0.06687   0.08170   0.09613   0.10092
 Alpha virt. eigenvalues --    0.10141   0.12086   0.12674   0.12906   0.13204
 Alpha virt. eigenvalues --    0.13392   0.14759   0.16648   0.19228   0.20458

  Beta  occ. eigenvalues -- -105.61146 -94.03555 -94.00666 -26.52958 -26.52956
  Beta  occ. eigenvalues --  -11.53765 -10.66018  -8.31516  -8.28634  -7.82964
  Beta  occ. eigenvalues --   -7.82537  -7.82519  -6.29340  -6.29119  -6.28501
  Beta  occ. eigenvalues --   -6.26593  -6.26113  -6.24792  -1.71052  -1.63476
  Beta  occ. eigenvalues --   -1.16280  -1.11194  -0.94602  -0.86838  -0.80627
  Beta  occ. eigenvalues --   -0.77673  -0.75304  -0.69012  -0.65246  -0.63835
  Beta  occ. eigenvalues --   -0.55096  -0.52699  -0.51094  -0.49694  -0.45042
  Beta  occ. eigenvalues --   -0.39963
  Beta virt. eigenvalues --   -0.02014   0.05959   0.06812   0.08192   0.09715
  Beta virt. eigenvalues --    0.10105   0.10622   0.12202   0.12982   0.13116
  Beta virt. eigenvalues --    0.13859   0.14210   0.15065   0.17074   0.19320

 Mulliken charges and spin densities:
               1          2
     1  S    0.028500   0.919496
     2  S    0.252976   0.103418
     3  C    0.844998  -0.016344
     4  Cl   0.000672  -0.002988
     5  F   -0.563574  -0.001790
     6  F   -0.563573  -0.001791
 Sum of Mulliken charges =   0.00000   1.00000

 Dipole moment (field-independent basis, Debye):
    X=             -0.2861    Y=             -0.4014    Z=             -0.0000  Tot=              0.4929
                          Isotropic Fermi Contact Couplings
        Atom                 a.u.       MegaHertz       Gauss      10(-4) cm-1
     1  S(33)              0.19286      66.24097      23.63643      22.09561
     2  S(33)              0.08460      29.05707      10.36829       9.69240
     3  C(13)             -0.01002     -11.26706      -4.02037      -3.75829
     4  Cl(35)            -0.00174      -0.76196      -0.27189      -0.25416
     5  F(19)              0.00071       2.98663       1.06570       0.99623
     6  F(19)              0.00071       2.98593       1.06546       0.99600
 --------------------------------------------------------
       Center         ----  Spin Dipole Couplings  ----

 Normal termination of Gaussian 16 at Wed Apr  9 00:48:05 2025.
