 Gaussian 16, Revision C.01,

 ----------------------------------------------------------------------
 #t hf aug-cc-pvdz symm=none int=(grid=ultrafine) guess=(read,tcheck) s
 table=(opt,rrhf)
 ----------------------------------------------------------------------
 -----
 title
 -----
 Symbolic Z-matrix:
 Charge =  0 Multiplicity = 1

 SCF Done:  E(RHF) =  -1054.64335509     A.U. after   16 cycles
 Normal termination of Gaussian 16 at Wed Apr  9 00:04:31 2025.
 Gaussian 16:  ES64L-G16RevC.01  3-Jul-2019

 ----------------------------------------------------------------------
 #t hf aug-cc-pvdz iop(5/13=1,5/36=2,99/5=2) pseudo=read geom=check gue
 ss=(read,tcheck) scf=(maxcycle=1)
 ----------------------------------------------------------------------
 -----
 title
 -----
 Structure from the checkpoint file:  "BDE49_nonexpt_2187_mol1.chk"
 Charge =  0 Multiplicity = 1

                         Standard orientation:
 ---------------------------------------------------------------------
 Center     Atomic      Atomic             Coordinates (Angstroms)
 Number     Number       Type             X           Y           Z
 ---------------------------------------------------------------------
      1          6           0        2.736433   -0.585069    0.275451
      2          6           0        2.082412    0.643119    0.247758
      3          6           0        0.722004    0.698743   -0.038339
      4          6           0        2.026982   -1.754265    0.010945
      5          6           0        0.667503   -1.696226   -0.277889
      6          6           0       -0.002162   -0.471147   -0.304244
      7          1           0        3.795888   -0.623124    0.498227
      8          1           0        2.616943    1.563122    0.446852
      9         17           0       -0.092108    2.248119   -0.075772
     10          1           0        2.530469   -2.713709    0.025268
     11          1           0        0.104002   -2.594726   -0.499924
     12          8           0       -1.323564   -0.409897   -0.634330
     13         14           0       -2.654682   -0.667709    0.331330
     14          1           0       -3.813471   -0.357015   -0.522814
     15          1           0       -2.614598    0.205091    1.523783
     16          1           0       -2.698363   -2.081488    0.770667
 ---------------------------------------------------------------------

 SCF Done:  E(RHF) =  -1055.06032074     A.U. after    2 cycles

 The electronic state is 1-A.
 Alpha  occ. eigenvalues -- -105.57306 -69.57129 -20.56624 -11.32855 -11.31017
 Alpha  occ. eigenvalues --  -11.26378 -11.26005 -11.25547 -11.25410 -10.62091
 Alpha  occ. eigenvalues --   -7.79061  -7.78661  -7.78644  -6.23695  -3.99205
 Alpha  occ. eigenvalues --   -3.99044  -3.99019  -1.48613  -1.18169  -1.10048
 Alpha  occ. eigenvalues --   -1.03044  -0.99104  -0.86693  -0.84203  -0.77926
 Alpha  occ. eigenvalues --   -0.70884  -0.69280  -0.66409  -0.63107  -0.61680
 Alpha  occ. eigenvalues --   -0.60694  -0.56271  -0.54981  -0.53648  -0.52137
 Alpha  occ. eigenvalues --   -0.49218  -0.47788  -0.46494  -0.45914  -0.35729
 Alpha  occ. eigenvalues --   -0.34015
 Alpha virt. eigenvalues --    0.03213   0.03596   0.03971   0.04906   0.05457
 Alpha virt. eigenvalues --    0.06016   0.06874   0.08094   0.08850   0.09038
 Alpha virt. eigenvalues --    0.09709   0.10557   0.11133   0.12058   0.13289

 Mulliken charges:
               1
     1  C    0.393075
     2  C    0.484275
     3  C   -0.199719
     4  C    0.227971
     5  C    0.336119
     6  C    1.397856
     7  H   -0.210897
     8  H   -0.155517
     9  Cl  -0.297614
    10  H   -0.201630
    11  H   -0.305124
    12  O   -2.166607
    13  Si   1.104510
    14  H   -0.117917
    15  H   -0.116732
    16  H   -0.172050
 Sum of Mulliken charges =  -0.00000

 Dipole moment (field-independent basis, Debye):
    X=              0.7282    Y=             -1.8200    Z=              0.7883  Tot=              2.1128

 Test job not archived.
 1\1\GINC-SE333\SP\RHF\Aug-CC-pVDZ\C6H7Cl1O1Si1\OHZDE\09-Apr-2025\0\\#t
  hf aug-cc-pvdz iop(5/13=1,5/36=2,99/5=2) pseudo=read geom=check guess
 =(read,tcheck) scf=(maxcycle=1)\\title\\0,1\C,0,2.736433,-0.585068,0.2
 75451\C,0,2.082412,0.643119,0.247758\C,0,0.722004,0.698743,-0.038339\C
 ,0,2.026983,-1.754265,0.010945\C,0,0.667504,-1.696226,-0.277889\C,0,-0
 .002162,-0.471147,-0.304244\H,0,3.795888,-0.623123,0.498227\H,0,2.6169
 43,1.563123,0.446852\Cl,0,-0.092109,2.248119,-0.075772\H,0,2.53047,-2.
 713708,0.025268\H,0,0.104003,-2.594726,-0.499924\O,0,-1.323564,-0.4098

 Normal termination of Gaussian 16 at Wed Apr  9 00:04:38 2025.
