 Gaussian 16, Revision C.01,

 ----------------------------------------------------------------------
 #t hf aug-cc-pvdz symm=none int=(grid=ultrafine) guess=(read,tcheck) s
 table=(opt,rrhf)
 ----------------------------------------------------------------------
 -----
 title
 -----
 Symbolic Z-matrix:
 Charge =  0 Multiplicity = 1

 SCF Done:  E(RHF) =  -593.884164169     A.U. after   13 cycles

 1\1\GINC-SE328\Stability\RHF\Aug-CC-pVDZ\C5H12S1\OHZDE\08-Apr-2025\0\\
 #t hf aug-cc-pvdz symm=none int=(grid=ultrafine) guess=(read,tcheck) s
 table=(opt,rrhf)\\title\\0,1\C,0,0.261079,-0.399544,-0.000498\C,0,-1.1
 26682,-0.440625,-0.682376\C,0,-2.260725,0.336481,-0.005799\H,0,-1.4090
 65,-1.498388,-0.752295\H,0,-1.010296,-0.08811,-1.712661\H,0,-2.028984,
 1.400388,0.082677\H,0,-2.47576,-0.042524,0.995998\S,0,0.81714,1.390675
 ,-0.032891\H,0,2.038299,1.174683,0.48475\C,0,1.245266,-1.247163,-0.817
 949\H,0,2.248561,-1.220116,-0.384893\H,0,1.310754,-0.891516,-1.84791\H

 Normal termination of Gaussian 16 at Tue Apr  8 22:46:06 2025.
 Gaussian 16:  ES64L-G16RevC.01  3-Jul-2019

 ----------------------------------------------------------------------
 #t hf aug-cc-pvdz iop(5/13=1,5/36=2,99/5=2) pseudo=read geom=check gue
 ss=(read,tcheck) scf=(maxcycle=1)
 ----------------------------------------------------------------------
 -----
 title
 -----
 Structure from the checkpoint file:  "BDE49_expt_1554_mol1.chk"
 Charge =  0 Multiplicity = 1

                         Standard orientation:
 ---------------------------------------------------------------------
 Center     Atomic      Atomic             Coordinates (Angstroms)
 Number     Number       Type             X           Y           Z
 ---------------------------------------------------------------------
      1          6           0        0.261079   -0.399544   -0.000498
      2          6           0       -1.126682   -0.440625   -0.682376
      3          6           0       -2.260725    0.336481   -0.005799
      4          1           0       -1.409065   -1.498388   -0.752295
      5          1           0       -1.010296   -0.088110   -1.712661
      6          1           0       -2.028984    1.400388    0.082677
      7          1           0       -2.475760   -0.042524    0.995998
      8         16           0        0.817140    1.390675   -0.032891
      9          1           0        2.038299    1.174683    0.484750
     10          6           0        1.245266   -1.247163   -0.817949
     11          1           0        2.248561   -1.220116   -0.384893
     12          1           0        1.310754   -0.891516   -1.847910
     13          1           0        0.915986   -2.292524   -0.832773
     14          6           0        0.203280   -0.902680    1.447777
     15          1           0       -0.184511   -1.927800    1.473529
     16          1           0       -0.434999   -0.275897    2.070706
     17          1           0        1.200032   -0.912771    1.896213
     18          1           0       -3.177559    0.244959   -0.594022
 ---------------------------------------------------------------------

 SCF Done:  E(RHF) =  -594.164750348     A.U. after    2 cycles

 The electronic state is 1-A.
 Alpha  occ. eigenvalues --  -93.93740 -11.28246 -11.23845 -11.23239 -11.23171
 Alpha  occ. eigenvalues --  -11.22550  -8.21817  -6.19665  -6.19516  -6.19304
 Alpha  occ. eigenvalues --   -1.12656  -1.00991  -0.96512  -0.94450  -0.86581
 Alpha  occ. eigenvalues --   -0.74177  -0.64527  -0.63220  -0.60410  -0.58779
 Alpha  occ. eigenvalues --   -0.55815  -0.54738  -0.52990  -0.52156  -0.50167
 Alpha  occ. eigenvalues --   -0.48175  -0.46931  -0.43079  -0.35809
 Alpha virt. eigenvalues --    0.03569   0.03658   0.04019   0.04503   0.06006
 Alpha virt. eigenvalues --    0.06134   0.06383   0.06806   0.07353   0.09217
 Alpha virt. eigenvalues --    0.09566   0.09936   0.11586   0.13308   0.13807

 Mulliken charges:
               1
     1  C   -1.645082
     2  C    0.028771
     3  C   -0.362910
     4  H    0.159150
     5  H    0.111407
     6  H    0.195001
     7  H    0.166172
     8  S   -0.097619
     9  H    0.280953
    10  C    0.060103
    11  H    0.099561
    12  H    0.213637
    13  H    0.231802
    14  C   -0.070094
    15  H    0.218289
    16  H    0.177373
    17  H    0.121312
    18  H    0.112176
 Sum of Mulliken charges =  -0.00000

 Dipole moment (field-independent basis, Debye):
    X=              0.0033    Y=             -1.8393    Z=              0.2983  Tot=              1.8633

 Test job not archived.
 1\1\GINC-SE328\SP\RHF\Aug-CC-pVDZ\C5H12S1\OHZDE\08-Apr-2025\0\\#t hf a
 ug-cc-pvdz iop(5/13=1,5/36=2,99/5=2) pseudo=read geom=check guess=(rea
 d,tcheck) scf=(maxcycle=1)\\title\\0,1\C,0,0.261079,-0.399544,-0.00049
 8\C,0,-1.126682,-0.440625,-0.682376\C,0,-2.260725,0.336481,-0.005799\H
 ,0,-1.409065,-1.498388,-0.752295\H,0,-1.010296,-0.08811,-1.712661\H,0,
 -2.028984,1.400388,0.082677\H,0,-2.47576,-0.042524,0.995998\S,0,0.8171
 4,1.390675,-0.032891\H,0,2.038299,1.174683,0.48475\C,0,1.245266,-1.247
 163,-0.817949\H,0,2.248561,-1.220116,-0.384893\H,0,1.310754,-0.891516,

 Normal termination of Gaussian 16 at Tue Apr  8 22:46:13 2025.
