 Gaussian 16, Revision C.01,

 ----------------------------------------------------------------------
 #t hf aug-cc-pvdz symm=none int=(grid=ultrafine) guess=(read,tcheck) s
 table=(opt,rrhf)
 ----------------------------------------------------------------------
 -----
 title
 -----
 Symbolic Z-matrix:
 Charge =  0 Multiplicity = 1

 SCF Done:  E(RHF) =  -646.036303240     A.U. after   16 cycles
 Normal termination of Gaussian 16 at Tue Apr  8 23:33:31 2025.
 Gaussian 16:  ES64L-G16RevC.01  3-Jul-2019

 ----------------------------------------------------------------------
 #t hf aug-cc-pvdz iop(5/13=1,5/36=2,99/5=2) pseudo=read geom=check gue
 ss=(read,tcheck) scf=(maxcycle=1)
 ----------------------------------------------------------------------
 -----
 title
 -----
 Structure from the checkpoint file:  "BDE49_nonexpt_1447_mol1.chk"
 Charge =  0 Multiplicity = 1

                         Standard orientation:
 ---------------------------------------------------------------------
 Center     Atomic      Atomic             Coordinates (Angstroms)
 Number     Number       Type             X           Y           Z
 ---------------------------------------------------------------------
      1         15           0        0.041209   -0.790723   -0.740831
      2          6           0        1.386236    0.298671    0.007933
      3          6           0        2.632778   -0.411379    0.498609
      4          1           0        2.414460   -0.914831    1.445431
      5          1           0        3.425899    0.321230    0.651261
      6          1           0        2.956135   -1.176158   -0.212541
      7          6           0       -1.523270   -0.156257    0.139795
      8          6           0       -1.879637    1.293097   -0.074025
      9          1           0       -2.728244    1.555001    0.558533
     10          1           0       -2.149102    1.437271   -1.125897
     11          1           0       -1.017803    1.933788    0.124767
     12          8           0       -2.205564   -0.941725    0.745908
     13          8           0        1.276573    1.502257    0.023538
     14          1           0        0.215805   -1.924505    0.081473
 ---------------------------------------------------------------------

 SCF Done:  E(RHF) =  -646.386642142     A.U. after    2 cycles

 The electronic state is 1-A.
 Alpha  occ. eigenvalues --  -84.29778 -20.56293 -20.55748 -11.36970 -11.36328
 Alpha  occ. eigenvalues --  -11.26480 -11.24815  -6.77076  -4.29675  -4.29601
 Alpha  occ. eigenvalues --   -4.28777  -1.49786  -1.49256  -1.04455  -1.02986
 Alpha  occ. eigenvalues --   -0.92237  -0.78121  -0.73770  -0.66598  -0.65537
 Alpha  occ. eigenvalues --   -0.63695  -0.63031  -0.61505  -0.60915  -0.56893
 Alpha  occ. eigenvalues --   -0.53922  -0.52634  -0.51842  -0.44742  -0.38877
 Alpha  occ. eigenvalues --   -0.35082
 Alpha virt. eigenvalues --    0.03173   0.04343   0.04767   0.05011   0.05806
 Alpha virt. eigenvalues --    0.06854   0.07041   0.08413   0.09036   0.09470
 Alpha virt. eigenvalues --    0.10936   0.11652   0.12287   0.13243   0.13922

 Mulliken charges:
               1
     1  P    0.536265
     2  C    0.716399
     3  C   -0.574396
     4  H    0.256403
     5  H    0.140074
     6  H    0.268077
     7  C    0.557288
     8  C   -0.492171
     9  H    0.140838
    10  H    0.295415
    11  H    0.197833
    12  O   -1.222555
    13  O   -1.266029
    14  H    0.446559
 Sum of Mulliken charges =   0.00000

 Dipole moment (field-independent basis, Debye):
    X=              2.0089    Y=             -0.6110    Z=             -0.7049  Tot=              2.2150

 Test job not archived.
 1\1\GINC-SE328\SP\RHF\Aug-CC-pVDZ\C4H7O2P1\OHZDE\08-Apr-2025\0\\#t hf
 aug-cc-pvdz iop(5/13=1,5/36=2,99/5=2) pseudo=read geom=check guess=(re
 ad,tcheck) scf=(maxcycle=1)\\title\\0,1\P,0,-0.041209,-0.790723,0.7408
 31\C,0,-1.386236,0.298671,-0.007933\C,0,-2.632778,-0.411378,-0.498609\
 H,0,-2.41446,-0.91483,-1.445431\H,0,-3.425899,0.321231,-0.651261\H,0,-
 2.956135,-1.176157,0.212541\C,0,1.52327,-0.156257,-0.139795\C,0,1.8796
 37,1.293097,0.074025\H,0,2.728244,1.555001,-0.558533\H,0,2.149102,1.43
 7271,1.125897\H,0,1.017803,1.933788,-0.124767\O,0,2.205564,-0.941725,-

 Normal termination of Gaussian 16 at Tue Apr  8 23:33:36 2025.
