 Gaussian 16, Revision C.01,

 ----------------------------------------------------------------------
 #t hf aug-cc-pvdz symm=none int=(grid=ultrafine) guess=(read,tcheck) s
 table=(opt,rrhf)
 ----------------------------------------------------------------------
 -----
 title
 -----
 Symbolic Z-matrix:
 Charge =  0 Multiplicity = 1

 SCF Done:  E(RHF) =  -1329.90949357     A.U. after   17 cycles
 Normal termination of Gaussian 16 at Tue Apr  8 23:17:48 2025.
 Gaussian 16:  ES64L-G16RevC.01  3-Jul-2019

 ----------------------------------------------------------------------
 #t hf aug-cc-pvdz iop(5/13=1,5/36=2,99/5=2) pseudo=read geom=check gue
 ss=(read,tcheck) scf=(maxcycle=1)
 ----------------------------------------------------------------------
 -----
 title
 -----
 Structure from the checkpoint file:  "BDE49_nonexpt_1056_mol1.chk"
 Charge =  0 Multiplicity = 1

                         Standard orientation:
 ---------------------------------------------------------------------
 Center     Atomic      Atomic             Coordinates (Angstroms)
 Number     Number       Type             X           Y           Z
 ---------------------------------------------------------------------
      1         17           0       -2.085362   -0.478878   -0.103856
      2          8           0       -0.729345    0.631793    0.626309
      3         16           0        0.562110    0.901844   -0.276165
      4         16           0        1.912172   -0.625062    0.135043
      5          1           0        1.697405   -1.341926   -0.986962
 ---------------------------------------------------------------------

 SCF Done:  E(RHF) =  -1330.17286593     A.U. after    2 cycles

 The electronic state is 1-A.
 Alpha  occ. eigenvalues -- -105.62627 -94.06082 -94.00492 -20.67908 -10.66794
 Alpha  occ. eigenvalues --   -8.33453  -8.28524  -7.83720  -7.83219  -7.83203
 Alpha  occ. eigenvalues --   -6.31262  -6.30981  -6.30708  -6.26327  -6.26155
 Alpha  occ. eigenvalues --   -6.25921  -1.51342  -1.10528  -1.03628  -0.90384
 Alpha  occ. eigenvalues --   -0.67019  -0.64538  -0.62707  -0.57251  -0.49925
 Alpha  occ. eigenvalues --   -0.48873  -0.45690  -0.42327  -0.39177
 Alpha virt. eigenvalues --    0.00042   0.03753   0.05572   0.08288   0.09808
 Alpha virt. eigenvalues --    0.10687   0.12155   0.12836   0.13211   0.14490
 Alpha virt. eigenvalues --    0.14628   0.16821   0.17904   0.19190   0.21085

 Mulliken charges:
               1
     1  Cl   0.152829
     2  O   -0.911648
     3  S    0.693641
     4  S   -0.366490
     5  H    0.431669
 Sum of Mulliken charges =  -0.00000

 Dipole moment (field-independent basis, Debye):
    X=              1.0940    Y=             -0.6786    Z=             -1.1687  Tot=              1.7388

 Test job not archived.
 1\1\GINC-SE402\SP\RHF\Aug-CC-pVDZ\Cl1H1O1S2\OHZDE\08-Apr-2025\0\\#t hf
  aug-cc-pvdz iop(5/13=1,5/36=2,99/5=2) pseudo=read geom=check guess=(r
 ead,tcheck) scf=(maxcycle=1)\\title\\0,1\Cl,0,-2.085362,-0.478878,-0.1
 03856\O,0,-0.729345,0.631793,0.626309\S,0,0.56211,0.901844,-0.276165\S
 ,0,1.912172,-0.625062,0.135043\H,0,1.697405,-1.341926,-0.986962\\Versi
 on=ES64L-G16RevC.01\State=1-A\HF=-1330.1728659\RMSD=3.774e-03\Dipole=0
 .4304287,-0.266973,-0.4598131\Quadrupole=-0.4895306,0.9602188,-0.47068
 82,-0.9577649,-0.3972728,1.0425012\PG=C01 [X(Cl1H1O1S2)]\\@

 Normal termination of Gaussian 16 at Tue Apr  8 23:17:50 2025.
