 Gaussian 16, Revision C.01,

 ----------------------------------------------------------------------
 #t hf aug-cc-pvdz symm=none int=(grid=ultrafine) guess=(read,tcheck) s
 table=(opt,rrhf)
 ----------------------------------------------------------------------
 -----
 title
 -----
 Symbolic Z-matrix:
 Charge =  0 Multiplicity = 1

 SCF Done:  E(RHF) =  -805.923775124     A.U. after   12 cycles
 Normal termination of Gaussian 16 at Wed Apr  9 00:15:54 2025.
 Gaussian 16:  ES64L-G16RevC.01  3-Jul-2019

 ----------------------------------------------------------------------
 #t hf aug-cc-pvdz iop(5/13=1,5/36=2,99/5=2) pseudo=read geom=check gue
 ss=(read,tcheck) scf=(maxcycle=1)
 ----------------------------------------------------------------------
 -----
 title
 -----
 Structure from the checkpoint file:  "BDE49_nonexpt_2512_mol1.chk"
 Charge =  0 Multiplicity = 1

                         Standard orientation:
 ---------------------------------------------------------------------
 Center     Atomic      Atomic             Coordinates (Angstroms)
 Number     Number       Type             X           Y           Z
 ---------------------------------------------------------------------
      1         16           0       -0.525774   -0.987887   -0.190170
      2         14           0       -2.017242    0.560403   -0.125222
      3          6           0        0.753491   -0.323598    0.981412
      4          6           0        1.702897    0.721183    0.390030
      5          1           0        1.308869   -1.210246    1.297292
      6          1           0        0.238104    0.064447    1.862028
      7          6           0        2.594922    0.194337   -0.735716
      8          1           0        2.330716    1.089919    1.211182
      9          1           0        1.126744    1.582238    0.036246
     10          1           0        3.215000   -0.638486   -0.388948
     11          1           0        3.263778    0.977404   -1.101506
     12          1           0        1.998501   -0.160671   -1.579037
     13          1           0       -3.148272    0.049592   -0.927858
     14          1           0       -1.543357    1.841774   -0.699603
     15          1           0       -2.444169    0.813046    1.271685
 ---------------------------------------------------------------------

 SCF Done:  E(RHF) =  -806.153675110     A.U. after    2 cycles

 The electronic state is 1-A.
 Alpha  occ. eigenvalues --  -93.93230 -69.55320 -11.27632 -11.24235 -11.22620
 Alpha  occ. eigenvalues --   -8.21519  -6.22176  -6.19310  -6.19177  -6.18986
 Alpha  occ. eigenvalues --   -3.97586  -3.97510  -3.97477  -1.09278  -1.00062
 Alpha  occ. eigenvalues --   -0.90242  -0.80755  -0.72563  -0.63875  -0.62827
 Alpha  occ. eigenvalues --   -0.58184  -0.53309  -0.51858  -0.50740  -0.49829
 Alpha  occ. eigenvalues --   -0.49573  -0.46379  -0.42395  -0.36077
 Alpha virt. eigenvalues --    0.03442   0.03772   0.04053   0.04358   0.05926
 Alpha virt. eigenvalues --    0.06492   0.06672   0.07172   0.07849   0.09091
 Alpha virt. eigenvalues --    0.09788   0.10142   0.11215   0.11975   0.13812

 Mulliken charges:
               1
     1  S   -0.283598
     2  Si   0.965781
     3  C   -0.446502
     4  C   -0.370622
     5  H    0.240390
     6  H    0.062879
     7  C   -0.421443
     8  H    0.167734
     9  H    0.121618
    10  H    0.157059
    11  H    0.120006
    12  H    0.198401
    13  H   -0.198369
    14  H   -0.152094
    15  H   -0.161241
 Sum of Mulliken charges =   0.00000

 Dipole moment (field-independent basis, Debye):
    X=              0.8194    Y=              1.2626    Z=              0.9873  Tot=              1.8001

 Test job not archived.
 1\1\GINC-SE253\SP\RHF\Aug-CC-pVDZ\C3H10S1Si1\OHZDE\09-Apr-2025\0\\#t h
 f aug-cc-pvdz iop(5/13=1,5/36=2,99/5=2) pseudo=read geom=check guess=(
 read,tcheck) scf=(maxcycle=1)\\title\\0,1\S,0,0.525774,0.987887,-0.190
 17\Si,0,2.017242,-0.560403,-0.125222\C,0,-0.753491,0.323598,0.981412\C
 ,0,-1.702897,-0.721183,0.39003\H,0,-1.308869,1.210246,1.297292\H,0,-0.
 238104,-0.064447,1.862028\C,0,-2.594922,-0.194337,-0.735716\H,0,-2.330
 716,-1.089919,1.211182\H,0,-1.126744,-1.582238,0.036246\H,0,-3.215,0.6
 38487,-0.388948\H,0,-3.263778,-0.977403,-1.101506\H,0,-1.998501,0.1606

 Normal termination of Gaussian 16 at Wed Apr  9 00:15:59 2025.
