 Gaussian 16, Revision C.01,

 ----------------------------------------------------------------------
 #t hf aug-cc-pvdz symm=none int=(grid=ultrafine) guess=(read,tcheck) s
 table=(opt,rrhf)
 ----------------------------------------------------------------------
 -----
 title
 -----
 Symbolic Z-matrix:
 Charge =  0 Multiplicity = 1

 SCF Done:  E(RHF) =  -748.509357718     A.U. after   12 cycles
 Normal termination of Gaussian 16 at Tue Apr  8 23:41:27 2025.
 Gaussian 16:  ES64L-G16RevC.01  3-Jul-2019

 ----------------------------------------------------------------------
 #t hf aug-cc-pvdz iop(5/13=1,5/36=2,99/5=2) pseudo=read geom=check gue
 ss=(read,tcheck) scf=(maxcycle=1)
 ----------------------------------------------------------------------
 -----
 title
 -----
 Structure from the checkpoint file:  "BDE49_nonexpt_1656_mol1.chk"
 Charge =  0 Multiplicity = 1

                         Standard orientation:
 ---------------------------------------------------------------------
 Center     Atomic      Atomic             Coordinates (Angstroms)
 Number     Number       Type             X           Y           Z
 ---------------------------------------------------------------------
      1         15           0       -1.988844   -0.000000   -0.455462
      2         14           0       -0.042701   -0.000000    0.739758
      3          6           0        1.240948   -1.207166    0.036148
      4          6           0        1.240948    1.207166    0.036148
      5          6           0        1.821617    0.000000   -0.775965
      6          1           0        1.937661    1.539547    0.811239
      7          1           0        0.941118    2.075908   -0.550284
      8          1           0        1.411863    0.000000   -1.788979
      9          1           0        2.911462    0.000000   -0.864461
     10          1           0        0.941118   -2.075908   -0.550284
     11          1           0        1.937661   -1.539547    0.811239
     12          1           0       -2.587178    1.035596    0.311679
     13          1           0       -2.587178   -1.035595    0.311679
     14          1           0       -0.297129   -0.000000    2.205505
 ---------------------------------------------------------------------

 SCF Done:  E(RHF) =  -748.720795199     A.U. after    2 cycles

 The electronic state is 1-A.
 Alpha  occ. eigenvalues --  -84.26168 -69.53259 -11.24078 -11.21734 -11.21731
 Alpha  occ. eigenvalues --   -6.73421  -6.20254  -4.25744  -4.25740  -4.25086
 Alpha  occ. eigenvalues --   -3.95598  -3.95538  -3.95463  -1.07363  -0.90011
 Alpha  occ. eigenvalues --   -0.86521  -0.80691  -0.67659  -0.63495  -0.59576
 Alpha  occ. eigenvalues --   -0.55082  -0.50948  -0.49327  -0.48481  -0.45190
 Alpha  occ. eigenvalues --   -0.42248  -0.39090  -0.34116
 Alpha virt. eigenvalues --    0.03458   0.04049   0.04213   0.04440   0.06324
 Alpha virt. eigenvalues --    0.06420   0.06579   0.07245   0.07462   0.09716
 Alpha virt. eigenvalues --    0.10664   0.10859   0.11350   0.12508   0.12575

 Mulliken charges:
               1
     1  P   -1.201767
     2  Si   1.328689
     3  C   -0.255790
     4  C   -0.255790
     5  C   -0.302007
     6  H   -0.016761
     7  H    0.021541
     8  H    0.069008
     9  H    0.071839
    10  H    0.021541
    11  H   -0.016761
    12  H    0.348788
    13  H    0.348789
    14  H   -0.161319
 Sum of Mulliken charges =  -0.00000

 Dipole moment (field-independent basis, Debye):
    X=              0.4468    Y=             -0.0000    Z=              0.3006  Tot=              0.5385

 Test job not archived.
 1\1\GINC-SE398\SP\RHF\Aug-CC-pVDZ\C3H9P1Si1\OHZDE\08-Apr-2025\0\\#t hf
  aug-cc-pvdz iop(5/13=1,5/36=2,99/5=2) pseudo=read geom=check guess=(r
 ead,tcheck) scf=(maxcycle=1)\\title\\0,1\P,0,1.988844,0.,-0.455462\Si,
 0,0.042701,0.,0.739758\C,0,-1.240948,1.207166,0.036148\C,0,-1.240948,-
 1.207166,0.036148\C,0,-1.821617,0.,-0.775965\H,0,-1.937661,-1.539547,0
 .811239\H,0,-0.941118,-2.075908,-0.550284\H,0,-1.411863,0.,-1.788979\H
 ,0,-2.911462,0.,-0.864461\H,0,-0.941118,2.075908,-0.550284\H,0,-1.9376
 61,1.539547,0.811239\H,0,2.587178,-1.035596,0.311679\H,0,2.587178,1.03

 Normal termination of Gaussian 16 at Tue Apr  8 23:41:31 2025.
