 Gaussian 16, Revision C.01,

 ----------------------------------------------------------------------
 #t hf aug-cc-pvdz symm=none int=(grid=ultrafine) guess=(read,tcheck) s
 table=opt
 ----------------------------------------------------------------------
 -----
 title
 -----
 Symbolic Z-matrix:
 Charge =  0 Multiplicity = 2

 SCF Done:  E(UHF) =  -158.922072635     A.U. after   16 cycles
 Normal termination of Gaussian 16 at Wed Apr  9 00:34:52 2025.
 Gaussian 16:  ES64L-G16RevC.01  3-Jul-2019

 ----------------------------------------------------------------------
 #t hf aug-cc-pvdz iop(5/13=1,5/36=2,99/5=2) pseudo=read geom=check gue
 ss=(read,tcheck) scf=(maxcycle=1)
 ----------------------------------------------------------------------
 -----
 title
 -----
 Structure from the checkpoint file:  "BDE49_nonexpt_453_mol2.chk"
 Charge =  0 Multiplicity = 2

                         Standard orientation:
 ---------------------------------------------------------------------
 Center     Atomic      Atomic             Coordinates (Angstroms)
 Number     Number       Type             X           Y           Z
 ---------------------------------------------------------------------
      1          1           0       -1.606671    1.878160    0.000000
      2          7           0       -0.039643    0.216974    0.000000
      3          5           0       -0.467370    1.526072    0.000000
      4          6           0       -0.948457   -0.933992   -0.000001
      5          1           0       -0.784030   -1.557203   -0.887003
      6          1           0       -1.980598   -0.587354   -0.000001
      7          1           0       -0.784031   -1.557203    0.887002
      8          6           0        1.373436   -0.158548    0.000000
      9          1           0        1.987692    0.740590    0.000001
     10          1           0        1.616057   -0.755463   -0.887254
     11          1           0        1.616056   -0.755464    0.887255
 ---------------------------------------------------------------------

 SCF Done:  E(UHF) =  -159.091115127     A.U. after    2 cycles

 The electronic state is 2-A.
 Alpha  occ. eigenvalues --  -15.50288 -11.26909 -11.26629  -7.59306  -1.21848
 Alpha  occ. eigenvalues --   -0.97405  -0.90653  -0.72923  -0.65285  -0.64384
 Alpha  occ. eigenvalues --   -0.58713  -0.56235  -0.54182  -0.53917  -0.41556
 Alpha  occ. eigenvalues --   -0.32350
 Alpha virt. eigenvalues --    0.03469   0.04421   0.04742   0.05212   0.06184
 Alpha virt. eigenvalues --    0.06373   0.06541   0.07334   0.09278   0.10058
 Alpha virt. eigenvalues --    0.12868   0.14098   0.14655   0.14950   0.15399

  Beta  occ. eigenvalues --  -15.50643 -11.26753 -11.26528  -7.57403  -1.22063
  Beta  occ. eigenvalues --   -0.97008  -0.89896  -0.71692  -0.65006  -0.64625
  Beta  occ. eigenvalues --   -0.56765  -0.56213  -0.54045  -0.52289  -0.42671
  Beta virt. eigenvalues --    0.03466   0.04462   0.04581   0.05151   0.05867
  Beta virt. eigenvalues --    0.06528   0.06562   0.07343   0.08744   0.09998
  Beta virt. eigenvalues --    0.11775   0.13882   0.14756   0.15163   0.15653

 Mulliken charges and spin densities:
               1          2
     1  H    0.385319   0.037196
     2  N    0.498166  -0.203680
     3  B   -0.702974   1.094002
     4  C   -0.491797   0.018873
     5  H    0.182256  -0.002557
     6  H   -0.025782  -0.001150
     7  H    0.182257  -0.002557
     8  C   -0.402642   0.072885
     9  H    0.002412  -0.015256
    10  H    0.186391   0.001123
    11  H    0.186394   0.001123
 Sum of Mulliken charges =  -0.00000   1.00000

 Dipole moment (field-independent basis, Debye):
    X=              0.2500    Y=             -2.0458    Z=             -0.0000  Tot=              2.0610
                          Isotropic Fermi Contact Couplings
        Atom                 a.u.       MegaHertz       Gauss      10(-4) cm-1
     1  H(1)               0.01326      59.29282      21.15715      19.77796
     2  N(14)             -0.02820      -9.11224      -3.25147      -3.03952
     3  B(11)              0.31133     446.55841     159.34314     148.95585
     4  C(13)              0.03099      34.84302      12.43286      11.62238
     5  H(1)              -0.00068      -3.01859      -1.07711      -1.00689
     6  H(1)              -0.00031      -1.40509      -0.50137      -0.46869
     7  H(1)              -0.00068      -3.01860      -1.07711      -1.00690
     8  C(13)              0.02483      27.91917       9.96226       9.31283

 Normal termination of Gaussian 16 at Wed Apr  9 00:34:56 2025.
