 Gaussian 16, Revision C.01,

 ----------------------------------------------------------------------
 #t hf aug-cc-pvdz symm=none int=(grid=ultrafine) guess=(read,tcheck) s
 table=(opt,rrhf)
 ----------------------------------------------------------------------
 -----
 title
 -----
 Symbolic Z-matrix:
 Charge =  0 Multiplicity = 1

 SCF Done:  E(RHF) =  -439.584242118     A.U. after   15 cycles
 Normal termination of Gaussian 16 at Tue Apr  8 22:39:48 2025.
 Gaussian 16:  ES64L-G16RevC.01  3-Jul-2019

 ----------------------------------------------------------------------
 #t hf aug-cc-pvdz iop(5/13=1,5/36=2,99/5=2) pseudo=read geom=check gue
 ss=(read,tcheck) scf=(maxcycle=1)
 ----------------------------------------------------------------------
 -----
 title
 -----
 Structure from the checkpoint file:  "BDE49_expt_1173_mol1.chk"
 Charge =  0 Multiplicity = 1

                         Standard orientation:
 ---------------------------------------------------------------------
 Center     Atomic      Atomic             Coordinates (Angstroms)
 Number     Number       Type             X           Y           Z
 ---------------------------------------------------------------------
      1          6           0        0.238300   -0.089332    0.000000
      2          6           0       -2.019893    0.930655    0.000000
      3          7           0       -2.629290    1.909589   -0.000006
      4          6           0        1.114213   -1.182580    0.000002
      5          6           0        0.781977    1.197047   -0.000003
      6          6           0        2.163749    1.387021   -0.000004
      7          6           0        3.024111    0.294540   -0.000003
      8          6           0        2.492365   -0.993811    0.000000
      9          1           0        0.725008   -2.194447    0.000004
     10          1           0        3.151202   -1.854939    0.000001
     11          1           0        2.562729    2.395076   -0.000007
     12          1           0        4.097947    0.442467   -0.000004
     13          1           0        0.127099    2.060150   -0.000004
     14          6           0       -1.281244   -0.344003    0.000002
     15          6           0       -1.706697   -1.124612   -1.271909
     16          1           0       -1.426166   -0.578092   -2.173618
     17          1           0       -2.787541   -1.281247   -1.280329
     18          1           0       -1.216336   -2.099344   -1.292455
     19          6           0       -1.706694   -1.124606    1.271918
     20          1           0       -1.216333   -2.099338    1.292467
     21          1           0       -2.787539   -1.281241    1.280341
     22          1           0       -1.426161   -0.578082    2.173624
 ---------------------------------------------------------------------

 SCF Done:  E(RHF) =  -440.036957491     A.U. after    2 cycles

 The electronic state is 1-A.
 Alpha  occ. eigenvalues --  -15.51070 -11.30645 -11.27698 -11.26712 -11.25454
 Alpha  occ. eigenvalues --  -11.25380 -11.25362 -11.25353 -11.25203 -11.25068
 Alpha  occ. eigenvalues --  -11.24976  -1.23538  -1.17597  -1.11928  -1.02770
 Alpha  occ. eigenvalues --   -1.01618  -0.96309  -0.89547  -0.84861  -0.82549
 Alpha  occ. eigenvalues --   -0.73970  -0.69257  -0.65969  -0.63820  -0.63380
 Alpha  occ. eigenvalues --   -0.61927  -0.61171  -0.60629  -0.57801  -0.56206
 Alpha  occ. eigenvalues --   -0.55116  -0.53571  -0.51796  -0.51458  -0.51126
 Alpha  occ. eigenvalues --   -0.48466  -0.48230  -0.35603  -0.35203
 Alpha virt. eigenvalues --    0.02751   0.03112   0.03753   0.04008   0.04869
 Alpha virt. eigenvalues --    0.05040   0.06122   0.06919   0.07252   0.08131
 Alpha virt. eigenvalues --    0.08608   0.09427   0.10027   0.10415   0.11878

 Mulliken charges:
               1
     1  C    2.129150
     2  C   -2.512321
     3  N    1.391074
     4  C    0.181734
     5  C    0.612833
     6  C   -0.120724
     7  C    0.146384
     8  C    0.049150
     9  H   -0.384265
    10  H   -0.237235
    11  H   -0.255904
    12  H   -0.225322
    13  H   -0.247898
    14  C   -2.130062
    15  C    0.211468
    16  H    0.215449
    17  H    0.192976
    18  H    0.181812
    19  C    0.211463
    20  H    0.181812
    21  H    0.192978
    22  H    0.215448
 Sum of Mulliken charges =  -0.00000

 Dipole moment (field-independent basis, Debye):
    X=              2.5607    Y=             -3.9918    Z=              0.0000  Tot=              4.7425

 Test job not archived.
 1\1\GINC-SE059\SP\RHF\Aug-CC-pVDZ\C10H11N1\OHZDE\08-Apr-2025\0\\#t hf
 aug-cc-pvdz iop(5/13=1,5/36=2,99/5=2) pseudo=read geom=check guess=(re
 ad,tcheck) scf=(maxcycle=1)\\title\\0,1\C,0,0.2383,-0.089332,0.\C,0,-2
 .019893,0.930655,0.\N,0,-2.62929,1.909589,-0.000006\C,0,1.114213,-1.18
 258,0.000002\C,0,0.781977,1.197047,-0.000003\C,0,2.163749,1.387021,-0.
 000004\C,0,3.024111,0.29454,-0.000003\C,0,2.492365,-0.993811,0.\H,0,0.
 725008,-2.194447,0.000004\H,0,3.151202,-1.854939,0.000001\H,0,2.562729
 ,2.395076,-0.000007\H,0,4.097947,0.442467,-0.000004\H,0,0.127099,2.060

 Normal termination of Gaussian 16 at Tue Apr  8 22:40:03 2025.
