 Gaussian 16, Revision C.01,

 ----------------------------------------------------------------------
 #t hf aug-cc-pvdz symm=none int=(grid=ultrafine) guess=(read,tcheck) s
 table=(opt,rrhf)
 ----------------------------------------------------------------------
 -----
 title
 -----
 Symbolic Z-matrix:
 Charge =  0 Multiplicity = 1

 SCF Done:  E(RHF) =  -1053.23747508     A.U. after   13 cycles
 Normal termination of Gaussian 16 at Wed Apr  9 00:09:29 2025.
 Gaussian 16:  ES64L-G16RevC.01  3-Jul-2019

 ----------------------------------------------------------------------
 #t hf aug-cc-pvdz iop(5/13=1,5/36=2,99/5=2) pseudo=read geom=check gue
 ss=(read,tcheck) scf=(maxcycle=1)
 ----------------------------------------------------------------------
 -----
 title
 -----
 Structure from the checkpoint file:  "BDE49_nonexpt_233_mol1.chk"
 Charge =  0 Multiplicity = 1

                         Standard orientation:
 ---------------------------------------------------------------------
 Center     Atomic      Atomic             Coordinates (Angstroms)
 Number     Number       Type             X           Y           Z
 ---------------------------------------------------------------------
      1         17           0        0.874498   -1.543703   -0.018843
      2          5           0        0.018900   -0.000016    0.029063
      3         17           0        0.873479    1.544220   -0.018813
      4          7           0       -1.354355   -0.000463    0.275289
      5          7           0       -2.449379   -0.000544   -0.270983
      6          1           0       -3.183973   -0.001668    0.464693
 ---------------------------------------------------------------------

 SCF Done:  E(RHF) =  -1053.51824139     A.U. after    2 cycles

 The electronic state is 1-A.
 Alpha  occ. eigenvalues -- -105.58305-105.58305 -15.61850 -15.58989 -10.63320
 Alpha  occ. eigenvalues --  -10.63282  -7.80213  -7.80191  -7.79891  -7.79888
 Alpha  occ. eigenvalues --   -7.79869  -7.79859  -7.73909  -1.40146  -1.12471
 Alpha  occ. eigenvalues --   -1.06725  -1.02240  -0.82218  -0.71808  -0.65447
 Alpha  occ. eigenvalues --   -0.64718  -0.56048  -0.54080  -0.50745  -0.48621
 Alpha  occ. eigenvalues --   -0.47266  -0.43895
 Alpha virt. eigenvalues --    0.02759   0.03120   0.05890   0.06070   0.06411
 Alpha virt. eigenvalues --    0.07034   0.09644   0.12493   0.13176   0.13670
 Alpha virt. eigenvalues --    0.14496   0.16770   0.18275   0.18789   0.19665

 Mulliken charges:
               1
     1  Cl  -0.311204
     2  B    0.333163
     3  Cl  -0.311222
     4  N   -0.030839
     5  N    0.158842
     6  H    0.161260
 Sum of Mulliken charges =   0.00000

 Dipole moment (field-independent basis, Debye):
    X=             -1.4888    Y=             -0.0016    Z=              0.8239  Tot=              1.7015

 Test job not archived.
 1\1\GINC-SE455\SP\RHF\Aug-CC-pVDZ\B1Cl2H1N2\OHZDE\09-Apr-2025\0\\#t hf
  aug-cc-pvdz iop(5/13=1,5/36=2,99/5=2) pseudo=read geom=check guess=(r
 ead,tcheck) scf=(maxcycle=1)\\title\\0,1\Cl,0,0.874495,-1.543704,-0.01
 8843\B,0,0.0189,-0.000016,0.029063\Cl,0,0.873482,1.544219,-0.018813\N,
 0,-1.354355,-0.000461,0.275289\N,0,-2.449379,-0.00054,-0.270983\H,0,-3
 .183973,-0.001662,0.464693\\Version=ES64L-G16RevC.01\State=1-A\HF=-105
 3.5182414\RMSD=3.208e-02\Dipole=-0.5857281,-0.0006445,0.3241436\Quadru
 pole=2.9725962,-1.5933442,-1.379252,0.0042909,-2.4635506,-0.0004468\PG

 Normal termination of Gaussian 16 at Wed Apr  9 00:09:31 2025.
