 Gaussian 16, Revision C.01,

 ----------------------------------------------------------------------
 #t hf aug-cc-pvdz symm=none int=(grid=ultrafine) guess=(read,tcheck) s
 table=(opt,rrhf)
 ----------------------------------------------------------------------
 -----
 title
 -----
 Symbolic Z-matrix:
 Charge =  0 Multiplicity = 1

 SCF Done:  E(RHF) =  -558.571258620     A.U. after   15 cycles
 Normal termination of Gaussian 16 at Wed Apr  9 00:43:44 2025.
 Gaussian 16:  ES64L-G16RevC.01  3-Jul-2019

 ----------------------------------------------------------------------
 #t hf aug-cc-pvdz iop(5/13=1,5/36=2,99/5=2) pseudo=read geom=check gue
 ss=(read,tcheck) scf=(maxcycle=1)
 ----------------------------------------------------------------------
 -----
 title
 -----
 Structure from the checkpoint file:  "BDE49_nonexpt_735_mol1.chk"
 Charge =  0 Multiplicity = 1

                         Standard orientation:
 ---------------------------------------------------------------------
 Center     Atomic      Atomic             Coordinates (Angstroms)
 Number     Number       Type             X           Y           Z
 ---------------------------------------------------------------------
      1          6           0       -1.859606   -0.263721    0.357428
      2          5           0        1.102763    0.166380   -0.028486
      3          6           0        0.923081    1.709189   -0.212436
      4          1           0        1.131730    1.941860   -1.268050
      5          1           0        1.642051    2.287925    0.376234
      6          1           0       -0.091448    2.066228   -0.020201
      7          6           0        2.475449   -0.475507    0.383020
      8          1           0        3.323135    0.049050   -0.071902
      9          1           0        2.579493   -1.546605    0.194940
     10          1           0        2.584184   -0.329201    1.468417
     11          8           0       -2.232008    0.872065    0.202066
     12         15           0       -0.362923   -0.999965   -0.446200
     13          1           0       -2.446317   -0.987857    0.965594
     14          1           0       -0.170277   -2.110111    0.405792
 ---------------------------------------------------------------------

 SCF Done:  E(RHF) =  -558.842104506     A.U. after    2 cycles

 The electronic state is 1-A.
 Alpha  occ. eigenvalues --  -84.26762 -20.55551 -11.35609 -11.22003 -11.20773
 Alpha  occ. eigenvalues --   -7.61331  -6.74341  -4.26995  -4.26937  -4.26085
 Alpha  occ. eigenvalues --   -1.48585  -0.99389  -0.93851  -0.93017  -0.78920
 Alpha  occ. eigenvalues --   -0.66956  -0.64122  -0.60137  -0.58327  -0.57500
 Alpha  occ. eigenvalues --   -0.55193  -0.54585  -0.53313  -0.48701  -0.45785
 Alpha  occ. eigenvalues --   -0.38935  -0.33747
 Alpha virt. eigenvalues --    0.03142   0.03676   0.04165   0.04552   0.05851
 Alpha virt. eigenvalues --    0.06621   0.07292   0.07561   0.08054   0.08195
 Alpha virt. eigenvalues --    0.09383   0.10205   0.10516   0.11266   0.12561

 Mulliken charges:
               1
     1  C    0.412961
     2  B    0.982417
     3  C   -0.317100
     4  H    0.155527
     5  H    0.006033
     6  H    0.039736
     7  C   -0.374547
     8  H    0.011083
     9  H   -0.058815
    10  H    0.153114
    11  O   -1.050816
    12  P   -0.444303
    13  H    0.070868
    14  H    0.413841
 Sum of Mulliken charges =  -0.00000

 Dipole moment (field-independent basis, Debye):
    X=              1.9412    Y=             -1.7944    Z=              0.6881  Tot=              2.7317

 Test job not archived.
 1\1\GINC-SE095\SP\RHF\Aug-CC-pVDZ\C3H8B1O1P1\OHZDE\09-Apr-2025\0\\#t h
 f aug-cc-pvdz iop(5/13=1,5/36=2,99/5=2) pseudo=read geom=check guess=(
 read,tcheck) scf=(maxcycle=1)\\title\\0,1\C,0,-1.859606,-0.263721,0.35
 7428\B,0,1.102763,0.16638,-0.028486\C,0,0.923081,1.709189,-0.212436\H,
 0,1.13173,1.94186,-1.26805\H,0,1.642051,2.287925,0.376234\H,0,-0.09144
 8,2.066228,-0.020201\C,0,2.475449,-0.475507,0.38302\H,0,3.323135,0.049
 05,-0.071902\H,0,2.579493,-1.546605,0.19494\H,0,2.584184,-0.329201,1.4
 68417\O,0,-2.232008,0.872065,0.202066\P,0,-0.362923,-0.999965,-0.4462\

 Normal termination of Gaussian 16 at Wed Apr  9 00:43:48 2025.
