 Gaussian 16, Revision C.01,

 ----------------------------------------------------------------------
 #t hf aug-cc-pvdz symm=none int=(grid=ultrafine) guess=(read,tcheck) s
 table=(opt,rrhf)
 ----------------------------------------------------------------------
 -----
 title
 -----
 Symbolic Z-matrix:
 Charge =  0 Multiplicity = 1

 SCF Done:  E(RHF) =  -189.307758646     A.U. after   11 cycles
 Normal termination of Gaussian 16 at Tue Apr  8 23:05:45 2025.
 Gaussian 16:  ES64L-G16RevC.01  3-Jul-2019

 ----------------------------------------------------------------------
 #t hf aug-cc-pvdz iop(5/13=1,5/36=2,99/5=2) pseudo=read geom=check gue
 ss=(read,tcheck) scf=(maxcycle=1)
 ----------------------------------------------------------------------
 -----
 title
 -----
 Structure from the checkpoint file:  "BDE49_expt_414_mol1.chk"
 Charge =  0 Multiplicity = 1

                         Standard orientation:
 ---------------------------------------------------------------------
 Center     Atomic      Atomic             Coordinates (Angstroms)
 Number     Number       Type             X           Y           Z
 ---------------------------------------------------------------------
      1          7           0        1.410501   -0.591125    0.206700
      2          6           0        0.722412    0.626799   -0.247660
      3          6           0       -0.722412    0.626799    0.247660
      4          1           0        1.239977    1.494072    0.174342
      5          1           0        1.133081   -1.365622   -0.389133
      6          1           0        2.413502   -0.491433    0.092484
      7          7           0       -1.410501   -0.591126   -0.206700
      8          1           0       -0.719453    0.740069    1.342482
      9          1           0       -1.239977    1.494072   -0.174342
     10          1           0       -2.413502   -0.491432   -0.092484
     11          1           0       -1.133080   -1.365622    0.389132
     12          1           0        0.719452    0.740069   -1.342482
 ---------------------------------------------------------------------

 SCF Done:  E(RHF) =  -189.516284739     A.U. after    2 cycles

 The electronic state is 1-A.
 Alpha  occ. eigenvalues --  -15.48105 -15.48079 -11.25072 -11.25059  -1.19310
 Alpha  occ. eigenvalues --   -1.14939  -0.96419  -0.81458  -0.71191  -0.68062
 Alpha  occ. eigenvalues --   -0.63885  -0.63055  -0.55700  -0.53142  -0.50591
 Alpha  occ. eigenvalues --   -0.44472  -0.41174
 Alpha virt. eigenvalues --    0.03698   0.04473   0.04887   0.05283   0.06567
 Alpha virt. eigenvalues --    0.06788   0.07133   0.08571   0.11910   0.13411
 Alpha virt. eigenvalues --    0.14370   0.14828   0.16713   0.17442   0.17763

 Mulliken charges:
               1
     1  N    0.109623
     2  C   -0.580993
     3  C   -0.580992
     4  H    0.079776
     5  H    0.178805
     6  H    0.121158
     7  N    0.109622
     8  H    0.091630
     9  H    0.079776
    10  H    0.121159
    11  H    0.178804
    12  H    0.091631
 Sum of Mulliken charges =  -0.00000

 Dipole moment (field-independent basis, Debye):
    X=              0.0000    Y=              0.5866    Z=             -0.0000  Tot=              0.5866

 Test job not archived.
 1\1\GINC-SE460\SP\RHF\Aug-CC-pVDZ\C2H8N2\OHZDE\08-Apr-2025\0\\#t hf au
 g-cc-pvdz iop(5/13=1,5/36=2,99/5=2) pseudo=read geom=check guess=(read
 ,tcheck) scf=(maxcycle=1)\\title\\0,1\N,0,1.410501,-0.591125,0.2067\C,
 0,0.722412,0.626799,-0.24766\C,0,-0.722412,0.626799,0.24766\H,0,1.2399
 77,1.494072,0.174342\H,0,1.133081,-1.365622,-0.389133\H,0,2.413502,-0.
 491432,0.092484\N,0,-1.410501,-0.591126,-0.2067\H,0,-0.719453,0.740069
 ,1.342482\H,0,-1.239977,1.494072,-0.174342\H,0,-2.413502,-0.491432,-0.
 092484\H,0,-1.13308,-1.365622,0.389132\H,0,0.719452,0.740069,-1.342482

 Normal termination of Gaussian 16 at Tue Apr  8 23:05:48 2025.
