 Gaussian 16, Revision C.01,

 ----------------------------------------------------------------------
 #t hf aug-cc-pvdz symm=none int=(grid=ultrafine) guess=(read,tcheck) s
 table=(opt,rrhf)
 ----------------------------------------------------------------------
 -----
 title
 -----
 Symbolic Z-matrix:
 Charge =  0 Multiplicity = 1

 SCF Done:  E(RHF) =  -980.216595919     A.U. after   16 cycles
 Normal termination of Gaussian 16 at Tue Apr  8 23:41:38 2025.
 Gaussian 16:  ES64L-G16RevC.01  3-Jul-2019

 ----------------------------------------------------------------------
 #t hf aug-cc-pvdz iop(5/13=1,5/36=2,99/5=2) pseudo=read geom=check gue
 ss=(read,tcheck) scf=(maxcycle=1)
 ----------------------------------------------------------------------
 -----
 title
 -----
 Structure from the checkpoint file:  "BDE49_nonexpt_1558_mol1.chk"
 Charge =  0 Multiplicity = 1

                         Standard orientation:
 ---------------------------------------------------------------------
 Center     Atomic      Atomic             Coordinates (Angstroms)
 Number     Number       Type             X           Y           Z
 ---------------------------------------------------------------------
      1          6           0       -1.581272   -1.268206   -0.258801
      2          6           0       -0.219232   -1.438663   -0.032956
      3          6           0       -2.148104   -0.032649    0.025526
      4          6           0       -1.400032    1.030350    0.520713
      5          6           0       -0.038859    0.846885    0.731464
      6          6           0        0.567479   -0.387970    0.457932
      7          1           0        0.561527    1.669657    1.096347
      8          1           0       -2.202985   -2.066264   -0.639486
      9          1           0        0.236195   -2.401326   -0.236158
     10          7           0        3.030774    0.108044   -0.667237
     11          8           0        2.726787    1.499436   -0.604364
     12          8           0        4.450295   -0.014304   -0.501608
     13          7           0       -3.600231    0.159029   -0.204621
     14          8           0       -4.073092    1.256945    0.053506
     15          8           0       -4.233887   -0.792356   -0.639432
     16          1           0       -1.887694    1.972721    0.727712
     17          1           0        4.751638   -0.265590   -1.382743
     18          1           0        2.572240    1.735412   -1.527659
     19         15           0        2.356349   -0.727550    0.748831
     20          1           0        2.569331    0.302872    1.704451
 ---------------------------------------------------------------------

 SCF Done:  E(RHF) =  -980.885707661     A.U. after    2 cycles

 The electronic state is 1-A.
 Alpha  occ. eigenvalues --  -84.32060 -20.60601 -20.60521 -20.59539 -20.59525
 Alpha  occ. eigenvalues --  -15.79790 -15.62873 -11.32455 -11.28604 -11.28521
 Alpha  occ. eigenvalues --  -11.28462 -11.28116 -11.27917  -6.78845  -4.31912
 Alpha  occ. eigenvalues --   -4.31434  -4.30924  -1.67519  -1.55005  -1.51228
 Alpha  occ. eigenvalues --   -1.45836  -1.21047  -1.12069  -1.08067  -1.05988
 Alpha  occ. eigenvalues --   -0.99043  -0.88255  -0.87196  -0.82390  -0.80643
 Alpha  occ. eigenvalues --   -0.75503  -0.75051  -0.74758  -0.73416  -0.69270
 Alpha  occ. eigenvalues --   -0.68218  -0.66398  -0.64129  -0.64092  -0.62435
 Alpha  occ. eigenvalues --   -0.55244  -0.54599  -0.52530  -0.50908  -0.50185
 Alpha  occ. eigenvalues --   -0.49756  -0.49247  -0.45772  -0.45582  -0.39698
 Alpha  occ. eigenvalues --   -0.38163  -0.37044
 Alpha virt. eigenvalues --    0.01207   0.02855   0.03804   0.03925   0.04727
 Alpha virt. eigenvalues --    0.05453   0.06016   0.06678   0.07572   0.08049
 Alpha virt. eigenvalues --    0.08797   0.10058   0.10151   0.11761   0.11966

 Mulliken charges:
               1
     1  C    0.137601
     2  C   -0.606724
     3  C   -0.193374
     4  C    0.352346
     5  C    0.494492
     6  C    0.669411
     7  H   -0.322272
     8  H   -0.204584
     9  H   -0.242375
    10  N    0.971254
    11  O   -1.043584
    12  O   -1.005304
    13  N    2.970426
    14  O   -1.466168
    15  O   -1.470250
    16  H   -0.213689
    17  H    0.320101
    18  H    0.306891
    19  P    0.253583
    20  H    0.292221
 Sum of Mulliken charges =   0.00000

 Dipole moment (field-independent basis, Debye):
    X=              3.8187    Y=             -0.4211    Z=             -0.9789  Tot=              3.9646

 Test job not archived.
 1\1\GINC-SE143\SP\RHF\Aug-CC-pVDZ\C6H7N2O4P1\OHZDE\08-Apr-2025\0\\#t h
 f aug-cc-pvdz iop(5/13=1,5/36=2,99/5=2) pseudo=read geom=check guess=(
 read,tcheck) scf=(maxcycle=1)\\title\\0,1\C,0,-1.581272,-1.268206,-0.2
 58801\C,0,-0.219232,-1.438663,-0.032956\C,0,-2.148104,-0.032649,0.0255
 26\C,0,-1.400032,1.03035,0.520713\C,0,-0.038859,0.846885,0.731464\C,0,
 0.567479,-0.38797,0.457932\H,0,0.561527,1.669657,1.096347\H,0,-2.20298
 5,-2.066264,-0.639486\H,0,0.236195,-2.401326,-0.236158\N,0,3.030774,0.
 108044,-0.667237\O,0,2.726787,1.499436,-0.604364\O,0,4.450295,-0.01430

 Normal termination of Gaussian 16 at Tue Apr  8 23:41:54 2025.
