 Gaussian 16, Revision C.01,

 ----------------------------------------------------------------------
 #t hf aug-cc-pvdz symm=none int=(grid=ultrafine) guess=(read,tcheck) s
 table=(opt,rrhf)
 ----------------------------------------------------------------------
 -----
 title
 -----
 Symbolic Z-matrix:
 Charge =  0 Multiplicity = 1

 SCF Done:  E(RHF) =  -446.872849395     A.U. after   15 cycles
 Normal termination of Gaussian 16 at Tue Apr  8 23:23:50 2025.
 Gaussian 16:  ES64L-G16RevC.01  3-Jul-2019

 ----------------------------------------------------------------------
 #t hf aug-cc-pvdz iop(5/13=1,5/36=2,99/5=2) pseudo=read geom=check gue
 ss=(read,tcheck) scf=(maxcycle=1)
 ----------------------------------------------------------------------
 -----
 title
 -----
 Structure from the checkpoint file:  "BDE49_nonexpt_1183_mol1.chk"
 Charge =  0 Multiplicity = 1

                         Standard orientation:
 ---------------------------------------------------------------------
 Center     Atomic      Atomic             Coordinates (Angstroms)
 Number     Number       Type             X           Y           Z
 ---------------------------------------------------------------------
      1          6           0       -0.278486   -1.062195   -0.488063
      2          6           0       -1.622807   -1.450593    0.143175
      3          6           0       -2.673851   -0.347020   -0.042195
      4          6           0       -2.168508    1.002706    0.486933
      5          6           0       -0.821197    1.389425   -0.140901
      6          6           0        1.554017    0.698213   -0.589649
      7          6           0        0.232330    0.283631    0.051409
      8          8           0        2.600610   -0.256238   -0.460183
      9          9           0        2.929593   -0.282174    0.955255
     10          1           0       -0.398804   -0.986866   -1.578136
     11          1           0        0.469201   -1.838892   -0.308710
     12          1           0       -1.477254   -1.635647    1.215129
     13          1           0       -1.980036   -2.391079   -0.287944
     14          1           0       -3.606815   -0.622593    0.459713
     15          1           0       -2.910939   -0.250062   -1.109752
     16          1           0       -2.051484    0.942920    1.576411
     17          1           0       -2.907778    1.787039    0.295910
     18          1           0       -0.462559    2.331181    0.289423
     19          1           0       -0.962932    1.570098   -1.215624
     20          1           0        1.903915    1.668318   -0.219911
     21          1           0        1.467177    0.754914   -1.683527
     22          1           0        0.418112    0.175135    1.126931
 ---------------------------------------------------------------------

 SCF Done:  E(RHF) =  -447.335253975     A.U. after    2 cycles

 The electronic state is 1-A.
 Alpha  occ. eigenvalues --  -26.48812 -20.66736 -11.30659 -11.24099 -11.23707
 Alpha  occ. eigenvalues --  -11.23238 -11.22927 -11.22907 -11.22881  -1.63912
 Alpha  occ. eigenvalues --   -1.35911  -1.13050  -1.03633  -1.01015  -0.92281
 Alpha  occ. eigenvalues --   -0.84397  -0.82047  -0.76921  -0.70356  -0.70033
 Alpha  occ. eigenvalues --   -0.68230  -0.64664  -0.62419  -0.61643  -0.60982
 Alpha  occ. eigenvalues --   -0.57203  -0.55811  -0.55106  -0.54177  -0.52264
 Alpha  occ. eigenvalues --   -0.49744  -0.49125  -0.48427  -0.46319  -0.44388
 Alpha  occ. eigenvalues --   -0.44152
 Alpha virt. eigenvalues --    0.03129   0.03241   0.03427   0.04360   0.05485
 Alpha virt. eigenvalues --    0.05673   0.06128   0.06203   0.06941   0.08996
 Alpha virt. eigenvalues --    0.09167   0.09299   0.09463   0.12494   0.13097

 Mulliken charges:
               1
     1  C   -0.033995
     2  C   -0.266016
     3  C   -0.216665
     4  C   -0.249671
     5  C   -0.083340
     6  C    0.971383
     7  C   -0.954024
     8  O   -0.505533
     9  F   -0.467012
    10  H    0.182188
    11  H    0.098722
    12  H    0.166534
    13  H    0.108058
    14  H    0.103287
    15  H    0.148611
    16  H    0.165067
    17  H    0.105836
    18  H    0.081503
    19  H    0.178021
    20  H    0.182964
    21  H    0.127552
    22  H    0.156532
 Sum of Mulliken charges =  -0.00000

 Dipole moment (field-independent basis, Debye):
    X=             -2.2829    Y=              1.2143    Z=             -0.8997  Tot=              2.7378

 Test job not archived.
 1\1\GINC-SE120\SP\RHF\Aug-CC-pVDZ\C7H13F1O1\OHZDE\08-Apr-2025\0\\#t hf
  aug-cc-pvdz iop(5/13=1,5/36=2,99/5=2) pseudo=read geom=check guess=(r
 ead,tcheck) scf=(maxcycle=1)\\title\\0,1\C,0,-0.278486,-1.062195,-0.48
 8063\C,0,-1.622807,-1.450593,0.143175\C,0,-2.673851,-0.34702,-0.042195
 \C,0,-2.168508,1.002706,0.486933\C,0,-0.821197,1.389425,-0.140901\C,0,
 1.554017,0.698213,-0.589649\C,0,0.23233,0.283631,0.051409\O,0,2.60061,
 -0.256238,-0.460183\F,0,2.929593,-0.282174,0.955255\H,0,-0.398804,-0.9
 86866,-1.578136\H,0,0.469201,-1.838892,-0.30871\H,0,-1.477254,-1.63564

 Normal termination of Gaussian 16 at Tue Apr  8 23:24:04 2025.
