 Gaussian 16, Revision C.01,

 ----------------------------------------------------------------------
 #t hf aug-cc-pvdz symm=none int=(grid=ultrafine) guess=(read,tcheck) s
 table=(opt,rrhf)
 ----------------------------------------------------------------------
 -----
 title
 -----
 Symbolic Z-matrix:
 Charge =  0 Multiplicity = 1

 SCF Done:  E(RHF) =  -435.693215126     A.U. after    9 cycles
 Normal termination of Gaussian 16 at Tue Apr  8 22:43:27 2025.
 Gaussian 16:  ES64L-G16RevC.01  3-Jul-2019

 ----------------------------------------------------------------------
 #t hf aug-cc-pvdz iop(5/13=1,5/36=2,99/5=2) pseudo=read geom=check gue
 ss=(read,tcheck) scf=(maxcycle=1)
 ----------------------------------------------------------------------
 -----
 title
 -----
 Structure from the checkpoint file:  "BDE49_expt_1497_mol1.chk"
 Charge =  0 Multiplicity = 1

                         Standard orientation:
 ---------------------------------------------------------------------
 Center     Atomic      Atomic             Coordinates (Angstroms)
 Number     Number       Type             X           Y           Z
 ---------------------------------------------------------------------
      1          6           0        0.000001    0.000001   -0.000000
      2          9           0       -0.731799    0.948546    0.570000
      3          9           0       -0.759616   -0.708754   -0.825118
      4          9           0        0.498524   -0.796678    0.936453
      5          9           0        0.992891    0.556885   -0.681335
 ---------------------------------------------------------------------

 SCF Done:  E(RHF) =  -436.088468368     A.U. after    2 cycles

 The electronic state is 1-A.
 Alpha  occ. eigenvalues --  -26.54343 -26.54343 -26.54343 -26.54336 -11.62708
 Alpha  occ. eigenvalues --   -1.78921  -1.66017  -1.66017  -1.66017  -0.99330
 Alpha  occ. eigenvalues --   -0.87654  -0.87654  -0.87654  -0.74181  -0.74181
 Alpha  occ. eigenvalues --   -0.68568  -0.68568  -0.68568  -0.65586  -0.65586
 Alpha  occ. eigenvalues --   -0.65586
 Alpha virt. eigenvalues --    0.08735   0.08991   0.08991   0.08991   0.23201
 Alpha virt. eigenvalues --    0.23201   0.23201   0.24303   0.24303   0.29987
 Alpha virt. eigenvalues --    0.34336   0.34336   0.34336   0.34358   0.34358

 Mulliken charges:
               1
     1  C    2.489086
     2  F   -0.622271
     3  F   -0.622272
     4  F   -0.622271
     5  F   -0.622271
 Sum of Mulliken charges =  -0.00000

 Dipole moment (field-independent basis, Debye):
    X=              0.0000    Y=              0.0000    Z=              0.0000  Tot=              0.0000

 Test job not archived.
 1\1\GINC-SE455\SP\RHF\Aug-CC-pVDZ\C1F4\OHZDE\08-Apr-2025\0\\#t hf aug-
 cc-pvdz iop(5/13=1,5/36=2,99/5=2) pseudo=read geom=check guess=(read,t
 check) scf=(maxcycle=1)\\title\\0,1\C,0,0.000001,0.000001,0.\F,0,-0.67
 3343,0.842989,0.772106\F,0,-0.803771,-0.47439,-0.942908\F,0,0.458794,-
 1.003836,0.736198\F,0,1.018319,0.635236,-0.565396\\Version=ES64L-G16Re
 vC.01\State=1-A\HF=-436.0884684\RMSD=2.964e-03\Dipole=0.0000043,0.0000
 032,0.0000011\Quadrupole=-0.0000035,0.0000023,0.0000012,0.0000007,-0.0
 000047,-0.000003\PG=C01 [X(C1F4)]\\@

 Normal termination of Gaussian 16 at Tue Apr  8 22:43:29 2025.
