 Gaussian 16, Revision C.01,

 ----------------------------------------------------------------------
 #t hf aug-cc-pvdz symm=none int=(grid=ultrafine) guess=(read,tcheck) s
 table=(opt,rrhf)
 ----------------------------------------------------------------------
 -----
 title
 -----
 Symbolic Z-matrix:
 Charge =  0 Multiplicity = 1

 SCF Done:  E(RHF) =  -266.209425965     A.U. after   11 cycles

 1\1\GINC-SE073\Stability\RHF\Aug-CC-pVDZ\C4H10N2\OHZDE\08-Apr-2025\0\\
 #t hf aug-cc-pvdz symm=none int=(grid=ultrafine) guess=(read,tcheck) s
 table=(opt,rrhf)\\title\\0,1\N,0,1.372639,0.001689,0.317124\C,0,0.7372
 8,-1.210578,-0.205461\C,0,-0.734307,-1.212389,0.205467\H,0,1.242053,-2
 .084473,0.216407\H,0,0.789215,-1.279538,-1.306422\N,0,-1.372639,-0.001
 689,-0.317124\H,0,-0.78607,-1.281472,1.306427\H,0,-1.236926,-2.087525,
 -0.216401\C,0,-0.73728,1.210578,0.205461\C,0,0.734307,1.212389,-0.2054
 67\H,0,-0.789215,1.279538,1.306422\H,0,-1.242053,2.084473,-0.216407\H,

 Normal termination of Gaussian 16 at Tue Apr  8 23:03:02 2025.
 Gaussian 16:  ES64L-G16RevC.01  3-Jul-2019

 ----------------------------------------------------------------------
 #t hf aug-cc-pvdz iop(5/13=1,5/36=2,99/5=2) pseudo=read geom=check gue
 ss=(read,tcheck) scf=(maxcycle=1)
 ----------------------------------------------------------------------
 -----
 title
 -----
 Structure from the checkpoint file:  "BDE49_expt_347_mol1.chk"
 Charge =  0 Multiplicity = 1

                         Standard orientation:
 ---------------------------------------------------------------------
 Center     Atomic      Atomic             Coordinates (Angstroms)
 Number     Number       Type             X           Y           Z
 ---------------------------------------------------------------------
      1          7           0        1.372639    0.001689    0.317124
      2          6           0        0.737280   -1.210578   -0.205461
      3          6           0       -0.734307   -1.212389    0.205467
      4          1           0        1.242053   -2.084473    0.216407
      5          1           0        0.789215   -1.279538   -1.306422
      6          7           0       -1.372639   -0.001689   -0.317124
      7          1           0       -0.786070   -1.281472    1.306427
      8          1           0       -1.236926   -2.087525   -0.216401
      9          6           0       -0.737280    1.210578    0.205461
     10          6           0        0.734307    1.212389   -0.205467
     11          1           0       -0.789215    1.279538    1.306422
     12          1           0       -1.242053    2.084473   -0.216407
     13          1           0        0.786070    1.281472   -1.306427
     14          1           0        1.236926    2.087525    0.216401
     15          1           0        2.361156    0.002901    0.091812
     16          1           0       -2.361156   -0.002901   -0.091812
 ---------------------------------------------------------------------

 SCF Done:  E(RHF) =  -266.497626568     A.U. after    2 cycles

 The electronic state is 1-AG.
 Alpha  occ. eigenvalues --  -15.47996 -15.47933 -11.24953 -11.24933 -11.24926
 Alpha  occ. eigenvalues --  -11.24910  -1.23012  -1.16445  -1.02322  -0.92064
 Alpha  occ. eigenvalues --   -0.86547  -0.76903  -0.72604  -0.66682  -0.63444
 Alpha  occ. eigenvalues --   -0.61880  -0.60836  -0.58942  -0.54540  -0.49631
 Alpha  occ. eigenvalues --   -0.49167  -0.47994  -0.41039  -0.39300
 Alpha virt. eigenvalues --    0.03917   0.04214   0.04742   0.05038   0.05269
 Alpha virt. eigenvalues --    0.05577   0.05739   0.06239   0.09423   0.10187
 Alpha virt. eigenvalues --    0.11231   0.12963   0.13413   0.14990   0.15267

 Mulliken charges:
               1
     1  N    0.293474
     2  C   -0.401858
     3  C   -0.401849
     4  H    0.028225
     5  H    0.120554
     6  N    0.293474
     7  H    0.120551
     8  H    0.028229
     9  C   -0.401858
    10  C   -0.401849
    11  H    0.120554
    12  H    0.028225
    13  H    0.120551
    14  H    0.028229
    15  H    0.212674
    16  H    0.212674
 Sum of Mulliken charges =  -0.00000

 Dipole moment (field-independent basis, Debye):
    X=             -0.0000    Y=              0.0000    Z=              0.0000  Tot=              0.0000

 Test job not archived.
 1\1\GINC-SE073\SP\RHF\Aug-CC-pVDZ\C4H10N2\OHZDE\08-Apr-2025\0\\#t hf a
 ug-cc-pvdz iop(5/13=1,5/36=2,99/5=2) pseudo=read geom=check guess=(rea
 d,tcheck) scf=(maxcycle=1)\\title\\0,1\N,0,1.372639,0.001689,0.317124\
 C,0,0.73728,-1.210578,-0.205461\C,0,-0.734307,-1.212389,0.205467\H,0,1
 .242053,-2.084473,0.216407\H,0,0.789215,-1.279538,-1.306422\N,0,-1.372
 639,-0.001689,-0.317124\H,0,-0.78607,-1.281472,1.306427\H,0,-1.236926,
 -2.087525,-0.216401\C,0,-0.73728,1.210578,0.205461\C,0,0.734307,1.2123
 89,-0.205467\H,0,-0.789215,1.279538,1.306422\H,0,-1.242053,2.084473,-0

 Normal termination of Gaussian 16 at Tue Apr  8 23:03:05 2025.
