 Gaussian 16, Revision C.01,

 ----------------------------------------------------------------------
 #t hf aug-cc-pvdz symm=none int=(grid=ultrafine) guess=(read,tcheck) s
 table=opt
 ----------------------------------------------------------------------
 -----
 title
 -----
 Symbolic Z-matrix:
 Charge =  0 Multiplicity = 2

 SCF Done:  E(UHF) =  -621.366343402     A.U. after   19 cycles
 Normal termination of Gaussian 16 at Tue Apr  8 23:41:37 2025.
 Gaussian 16:  ES64L-G16RevC.01  3-Jul-2019

 ----------------------------------------------------------------------
 #t hf aug-cc-pvdz iop(5/13=1,5/36=2,99/5=2) pseudo=read geom=check gue
 ss=(read,tcheck) scf=(maxcycle=1)
 ----------------------------------------------------------------------
 -----
 title
 -----
 Structure from the checkpoint file:  "BDE49_nonexpt_1646_mol2.chk"
 Charge =  0 Multiplicity = 2

                         Standard orientation:
 ---------------------------------------------------------------------
 Center     Atomic      Atomic             Coordinates (Angstroms)
 Number     Number       Type             X           Y           Z
 ---------------------------------------------------------------------
      1          7           0        0.954173   -0.000000    0.434948
      2          9           0        1.687162   -1.111245   -0.044244
      3          9           0        1.687162    1.111245   -0.044244
      4         14           0       -0.664017    0.000000   -0.440263
      5          6           0       -1.484824    1.573374    0.175162
      6          1           0       -1.517706    1.580914    1.269953
      7          1           0       -2.508511    1.634687   -0.203536
      8          1           0       -0.940787    2.458391   -0.159671
      9          6           0       -1.484824   -1.573374    0.175162
     10          1           0       -1.517706   -1.580914    1.269953
     11          1           0       -0.940788   -2.458391   -0.159671
     12          1           0       -2.508511   -1.634687   -0.203536
 ---------------------------------------------------------------------

 SCF Done:  E(UHF) =  -621.716510407     A.U. after    2 cycles

 The electronic state is 2-A.
 Alpha  occ. eigenvalues --  -69.57455 -26.48976 -26.48972 -15.66910 -11.24119
 Alpha  occ. eigenvalues --  -11.24118  -6.24408  -4.00212  -3.99432  -3.99316
 Alpha  occ. eigenvalues --   -1.63865  -1.56110  -1.08544  -0.98661  -0.96015
 Alpha  occ. eigenvalues --   -0.78774  -0.73913  -0.72910  -0.65029  -0.64110
 Alpha  occ. eigenvalues --   -0.60602  -0.59978  -0.59201  -0.57797  -0.57351
 Alpha  occ. eigenvalues --   -0.55830  -0.48396  -0.48318  -0.35808
 Alpha virt. eigenvalues --    0.03020   0.04229   0.04459   0.05152   0.06585
 Alpha virt. eigenvalues --    0.06847   0.07228   0.08475   0.09919   0.11053
 Alpha virt. eigenvalues --    0.14042   0.14385   0.15203   0.15327   0.15898

  Beta  occ. eigenvalues --  -69.56894 -26.48966 -26.48962 -15.66734 -11.23962
  Beta  occ. eigenvalues --  -11.23962  -6.23534  -3.99079  -3.98968  -3.98089
  Beta  occ. eigenvalues --   -1.63744  -1.56058  -1.08040  -0.97782  -0.95485
  Beta  occ. eigenvalues --   -0.77303  -0.73833  -0.72769  -0.64096  -0.63184
  Beta  occ. eigenvalues --   -0.59958  -0.59419  -0.58503  -0.57370  -0.57026
  Beta  occ. eigenvalues --   -0.54948  -0.47166  -0.47145
  Beta virt. eigenvalues --    0.01472   0.04002   0.04319   0.04533   0.05729
  Beta virt. eigenvalues --    0.06628   0.07236   0.07313   0.08743   0.10132
  Beta virt. eigenvalues --    0.11860   0.14282   0.14880   0.15652   0.16430

 Mulliken charges and spin densities:
               1          2
     1  N    0.925982   0.020225
     2  F   -0.656751  -0.000881
     3  F   -0.656751  -0.000881
     4  Si   1.366076   0.851591
     5  C   -0.671922   0.068115
     6  H    0.104454   0.011002
     7  H    0.021487  -0.006615
     8  H    0.056703  -0.007528
     9  C   -0.671921   0.068115
    10  H    0.104454   0.011002
    11  H    0.056702  -0.007528
    12  H    0.021487  -0.006615
 Sum of Mulliken charges =  -0.00000   1.00000

 Dipole moment (field-independent basis, Debye):
    X=             -3.5859    Y=             -0.0000    Z=             -0.4401  Tot=              3.6128
                          Isotropic Fermi Contact Couplings
        Atom                 a.u.       MegaHertz       Gauss      10(-4) cm-1
     1  N(14)              0.02529       8.17178       2.91589       2.72581
     2  F(19)              0.00690      29.04394      10.36360       9.68802
     3  F(19)              0.00690      29.04395      10.36360       9.68802
     4  Si(29)             0.69811    -620.42790    -221.38410    -206.95247
     5  C(13)              0.03345      37.59930      13.41636      12.54178
     6  H(1)               0.00790      35.29029      12.59245      11.77157
     7  H(1)              -0.00108      -4.81018      -1.71639      -1.60450
     8  H(1)              -0.00028      -1.26432      -0.45114      -0.42173

 1\1\GINC-SE173\SP\UHF\Aug-CC-pVDZ\C2H6F2N1Si1(2)\OHZDE\08-Apr-2025\0\\
 #t hf aug-cc-pvdz iop(5/13=1,5/36=2,99/5=2) pseudo=read geom=check gue
 ss=(read,tcheck) scf=(maxcycle=1)\\title\\0,2\N,0,-0.954173,0.,0.43494
 8\F,0,-1.687162,1.111245,-0.044244\F,0,-1.687162,-1.111245,-0.044244\S
 i,0,0.664017,0.,-0.440263\C,0,1.484824,-1.573374,0.175162\H,0,1.517706
 ,-1.580914,1.269953\H,0,2.508511,-1.634687,-0.203536\H,0,0.940787,-2.4
 58391,-0.159671\C,0,1.484824,1.573374,0.175162\H,0,1.517706,1.580914,1
 .269953\H,0,0.940788,2.458391,-0.159671\H,0,2.508511,1.634687,-0.20353

 Normal termination of Gaussian 16 at Tue Apr  8 23:41:42 2025.
