 Gaussian 16, Revision C.01,

 ----------------------------------------------------------------------
 #t hf aug-cc-pvdz symm=none int=(grid=ultrafine) guess=(read,tcheck) s
 table=(opt,rrhf)
 ----------------------------------------------------------------------
 -----
 title
 -----
 Symbolic Z-matrix:
 Charge =  0 Multiplicity = 1

 SCF Done:  E(RHF) =  -1510.06412459     A.U. after   16 cycles
 Normal termination of Gaussian 16 at Wed Apr  9 00:50:54 2025.
 Gaussian 16:  ES64L-G16RevC.01  3-Jul-2019

 ----------------------------------------------------------------------
 #t hf aug-cc-pvdz iop(5/13=1,5/36=2,99/5=2) pseudo=read geom=check gue
 ss=(read,tcheck) scf=(maxcycle=1)
 ----------------------------------------------------------------------
 -----
 title
 -----
 Structure from the checkpoint file:  "BDE49_nonexpt_896_mol1.chk"
 Charge =  0 Multiplicity = 1

                         Standard orientation:
 ---------------------------------------------------------------------
 Center     Atomic      Atomic             Coordinates (Angstroms)
 Number     Number       Type             X           Y           Z
 ---------------------------------------------------------------------
      1         17           0        4.127381   -0.002058    0.000643
      2         16           0       -3.015271    1.473630    0.327028
      3         16           0       -2.836440   -1.561999   -0.368774
      4          5           0       -1.992472    0.006023    0.004346
      5          6           0       -0.432939    0.013530    0.006097
      6          6           0        0.296287   -1.104828    0.450654
      7          1           0       -0.231071   -1.980034    0.813075
      8          6           0        1.686718   -1.116140    0.460679
      9          1           0        2.232988   -1.979631    0.817659
     10          6           0        2.374056    0.002481    0.001069
     11          6           0        1.693264    1.125227   -0.459950
     12          1           0        2.245173    1.982645   -0.822902
     13          6           0        0.303269    1.123539   -0.446175
     14          1           0       -0.215357    1.999487   -0.819889
     15          1           0       -2.029839    2.309638    0.697503
     16          1           0       -4.101552   -1.176176   -0.124400
 ---------------------------------------------------------------------

 SCF Done:  E(RHF) =  -1510.51675057     A.U. after    2 cycles

 The electronic state is 1-A.
 Alpha  occ. eigenvalues -- -105.58135 -93.96258 -93.96014 -11.32600 -11.27204
 Alpha  occ. eigenvalues --  -11.27061 -11.26675 -11.26599 -11.25016 -10.62933
 Alpha  occ. eigenvalues --   -8.24561  -8.24310  -7.79898  -7.79497  -7.79483
 Alpha  occ. eigenvalues --   -7.66426  -6.22394  -6.22246  -6.22150  -6.22089
 Alpha  occ. eigenvalues --   -6.21997  -6.21843  -1.19448  -1.10928  -1.05824
 Alpha  occ. eigenvalues --   -1.04527  -1.00703  -0.99553  -0.86465  -0.84112
 Alpha  occ. eigenvalues --   -0.74300  -0.67993  -0.67203  -0.64923  -0.62535
 Alpha  occ. eigenvalues --   -0.60915  -0.57429  -0.56152  -0.53664  -0.53129
 Alpha  occ. eigenvalues --   -0.49144  -0.47762  -0.47324  -0.46510  -0.44232
 Alpha  occ. eigenvalues --   -0.38291  -0.37067  -0.35341
 Alpha virt. eigenvalues --    0.03106   0.03598   0.04116   0.04308   0.05102
 Alpha virt. eigenvalues --    0.05613   0.06019   0.06844   0.07594   0.08139
 Alpha virt. eigenvalues --    0.08426   0.09313   0.09825   0.10683   0.11606

 Mulliken charges:
               1
     1  Cl  -0.298318
     2  S   -0.748030
     3  S   -0.733514
     4  B    0.858127
     5  C    0.045718
     6  C    0.363138
     7  H   -0.365669
     8  C    0.346758
     9  H   -0.169970
    10  C   -0.058281
    11  C    0.314288
    12  H   -0.181259
    13  C    0.484621
    14  H   -0.370807
    15  H    0.262086
    16  H    0.251110
 Sum of Mulliken charges =  -0.00000

 Dipole moment (field-independent basis, Debye):
    X=             -0.5390    Y=              0.7563    Z=              0.4154  Tot=              1.0174

 Test job not archived.
 1\1\GINC-SE179\SP\RHF\Aug-CC-pVDZ\C6H6B1Cl1S2\OHZDE\09-Apr-2025\0\\#t
 hf aug-cc-pvdz iop(5/13=1,5/36=2,99/5=2) pseudo=read geom=check guess=
 (read,tcheck) scf=(maxcycle=1)\\title\\0,1\Cl,0,4.127381,-0.002058,0.0
 00643\S,0,-3.015271,1.47363,0.327028\S,0,-2.83644,-1.561999,-0.368774\
 B,0,-1.992472,0.006023,0.004346\C,0,-0.432939,0.01353,0.006097\C,0,0.2
 96287,-1.104828,0.450654\H,0,-0.231071,-1.980034,0.813075\C,0,1.686718
 ,-1.11614,0.460679\H,0,2.232988,-1.979631,0.817659\C,0,2.374056,0.0024
 81,0.001069\C,0,1.693264,1.125227,-0.45995\H,0,2.245173,1.982645,-0.82

 Normal termination of Gaussian 16 at Wed Apr  9 00:51:04 2025.
