 Gaussian 16, Revision C.01,

 ----------------------------------------------------------------------
 #t hf aug-cc-pvdz symm=none int=(grid=ultrafine) guess=(read,tcheck) s
 table=(opt,rrhf)
 ----------------------------------------------------------------------
 -----
 title
 -----
 Symbolic Z-matrix:
 Charge =  0 Multiplicity = 1

 SCF Done:  E(RHF) =  -945.431788305     A.U. after   12 cycles
 Normal termination of Gaussian 16 at Tue Apr  8 23:45:11 2025.
 Gaussian 16:  ES64L-G16RevC.01  3-Jul-2019

 ----------------------------------------------------------------------
 #t hf aug-cc-pvdz iop(5/13=1,5/36=2,99/5=2) pseudo=read geom=check gue
 ss=(read,tcheck) scf=(maxcycle=1)
 ----------------------------------------------------------------------
 -----
 title
 -----
 Structure from the checkpoint file:  "BDE49_nonexpt_1732_mol1.chk"
 Charge =  0 Multiplicity = 1

                         Standard orientation:
 ---------------------------------------------------------------------
 Center     Atomic      Atomic             Coordinates (Angstroms)
 Number     Number       Type             X           Y           Z
 ---------------------------------------------------------------------
      1         14           0       -2.179007    0.811406    0.227036
      2          6           0       -0.427271    1.017505   -0.399098
      3         17           0       -2.864700   -1.129985   -0.151217
      4          6           0        0.629956    0.120117    0.269414
      5          1           0       -0.170451    2.076423   -0.253022
      6          1           0       -0.432522    0.856238   -1.483873
      7          6           0        2.047650    0.353147   -0.268472
      8          1           0        0.359288   -0.931823    0.125873
      9          1           0        0.624562    0.290478    1.352987
     10          6           0        3.105824   -0.538060    0.391648
     11          1           0        2.320401    1.406918   -0.125888
     12          1           0        2.053816    0.181416   -1.352529
     13          6           0        4.518151   -0.301526   -0.150904
     14          1           0        2.830830   -1.589926    0.248783
     15          1           0        3.097223   -0.366444    1.474837
     16          1           0        4.567173   -0.499485   -1.226184
     17          1           0        5.247919   -0.951392    0.339385
     18          1           0        4.835453    0.733717    0.008930
     19          1           0       -3.108503    1.730132   -0.462179
     20          1           0       -2.265063    1.006711    1.689540
 ---------------------------------------------------------------------

 SCF Done:  E(RHF) =  -945.765064201     A.U. after    2 cycles

 The electronic state is 1-A.
 Alpha  occ. eigenvalues -- -105.54967 -69.57069 -11.23978 -11.23356 -11.23040
 Alpha  occ. eigenvalues --  -11.22982 -11.22487 -10.59959  -7.76845  -7.76549
 Alpha  occ. eigenvalues --   -7.76543  -6.23775  -3.99210  -3.99047  -3.99033
 Alpha  occ. eigenvalues --   -1.09177  -1.04728  -1.02115  -0.93109  -0.83781
 Alpha  occ. eigenvalues --   -0.79821  -0.71757  -0.66217  -0.61273  -0.60205
 Alpha  occ. eigenvalues --   -0.58037  -0.55271  -0.53604  -0.53081  -0.51890
 Alpha  occ. eigenvalues --   -0.50345  -0.49317  -0.47645  -0.47546  -0.47203
 Alpha  occ. eigenvalues --   -0.44717  -0.42970
 Alpha virt. eigenvalues --    0.03186   0.03509   0.03706   0.04157   0.05101
 Alpha virt. eigenvalues --    0.05564   0.05733   0.06571   0.07820   0.07948
 Alpha virt. eigenvalues --    0.08534   0.09346   0.09532   0.10890   0.11476

 Mulliken charges:
               1
     1  Si   1.185524
     2  C   -0.703425
     3  Cl  -0.597510
     4  C   -0.160691
     5  H    0.120859
     6  H    0.155061
     7  C   -0.226010
     8  H    0.122856
     9  H    0.092304
    10  C   -0.201569
    11  H    0.101662
    12  H    0.101006
    13  C   -0.418225
    14  H    0.120689
    15  H    0.120280
    16  H    0.163737
    17  H    0.120191
    18  H    0.162861
    19  H   -0.137783
    20  H   -0.121815
 Sum of Mulliken charges =  -0.00000

 Dipole moment (field-independent basis, Debye):
    X=              1.6168    Y=              1.6576    Z=              0.0871  Tot=              2.3171

 Test job not archived.
 1\1\GINC-SE344\SP\RHF\Aug-CC-pVDZ\C5H13Cl1Si1\OHZDE\08-Apr-2025\0\\#t
 hf aug-cc-pvdz iop(5/13=1,5/36=2,99/5=2) pseudo=read geom=check guess=
 (read,tcheck) scf=(maxcycle=1)\\title\\0,1\Si,0,-2.179007,0.811406,0.2
 27036\C,0,-0.427271,1.017505,-0.399098\Cl,0,-2.8647,-1.129985,-0.15121
 7\C,0,0.629956,0.120117,0.269414\H,0,-0.170451,2.076423,-0.253022\H,0,
 -0.432522,0.856238,-1.483873\C,0,2.04765,0.353147,-0.268472\H,0,0.3592
 88,-0.931823,0.125873\H,0,0.624562,0.290478,1.352987\C,0,3.105824,-0.5
 3806,0.391648\H,0,2.320401,1.406918,-0.125888\H,0,2.053816,0.181416,-1

 Normal termination of Gaussian 16 at Tue Apr  8 23:45:21 2025.
