 Gaussian 16, Revision C.01,

 ----------------------------------------------------------------------
 #t hf aug-cc-pvdz symm=none int=(grid=ultrafine) guess=(read,tcheck) s
 table=(opt,rrhf)
 ----------------------------------------------------------------------
 -----
 title
 -----
 Symbolic Z-matrix:
 Charge =  0 Multiplicity = 1

 SCF Done:  E(RHF) =  -924.875171660     A.U. after   13 cycles
 Normal termination of Gaussian 16 at Tue Apr  8 23:16:12 2025.
 Gaussian 16:  ES64L-G16RevC.01  3-Jul-2019

 ----------------------------------------------------------------------
 #t hf aug-cc-pvdz iop(5/13=1,5/36=2,99/5=2) pseudo=read geom=check gue
 ss=(read,tcheck) scf=(maxcycle=1)
 ----------------------------------------------------------------------
 -----
 title
 -----
 Structure from the checkpoint file:  "BDE49_nonexpt_100_mol1.chk"
 Charge =  0 Multiplicity = 1

                         Standard orientation:
 ---------------------------------------------------------------------
 Center     Atomic      Atomic             Coordinates (Angstroms)
 Number     Number       Type             X           Y           Z
 ---------------------------------------------------------------------
      1          5           0       -0.597065   -0.581303    1.049281
      2          5           0        0.597088    0.581115    1.049376
      3         16           0        2.090659    0.544959    0.090853
      4         16           0       -2.090694   -0.544940    0.090856
      5          6           0        2.058801   -1.020527   -0.871261
      6          1           0        2.946135   -1.028163   -1.503697
      7          1           0        1.169075   -1.070052   -1.497129
      8          1           0        2.088843   -1.876300   -0.198114
      9          6           0       -2.058737    1.020600   -0.871167
     10          1           0       -2.946112    1.028366   -1.503544
     11          1           0       -1.169048    1.070069   -1.497091
     12          1           0       -2.088646    1.876338   -0.197970
     13          1           0        0.538083    1.564501    1.725691
     14          1           0       -0.538272   -1.564573    1.725784
 ---------------------------------------------------------------------

 SCF Done:  E(RHF) =  -925.135870921     A.U. after    2 cycles

 The electronic state is 1-A.
 Alpha  occ. eigenvalues --  -93.94944 -93.94943 -11.27292 -11.27292  -8.23218
 Alpha  occ. eigenvalues --   -8.23217  -7.60164  -7.60124  -6.21021  -6.21021
 Alpha  occ. eigenvalues --   -6.20838  -6.20838  -6.20742  -6.20742  -1.07100
 Alpha  occ. eigenvalues --   -1.06423  -0.90643  -0.90130  -0.72127  -0.63562
 Alpha  occ. eigenvalues --   -0.60840  -0.60640  -0.59893  -0.59882  -0.53702
 Alpha  occ. eigenvalues --   -0.49035  -0.48149  -0.45855  -0.39979  -0.38637
 Alpha  occ. eigenvalues --   -0.38610
 Alpha virt. eigenvalues --    0.03205   0.03574   0.03852   0.03923   0.05737
 Alpha virt. eigenvalues --    0.05972   0.06331   0.06406   0.06687   0.08525
 Alpha virt. eigenvalues --    0.08875   0.08881   0.09667   0.10517   0.11351

 Mulliken charges:
               1
     1  B    0.228477
     2  B    0.228514
     3  S   -0.156143
     4  S   -0.156130
     5  C   -0.735300
     6  H    0.075962
     7  H    0.149383
     8  H    0.179627
     9  C   -0.735289
    10  H    0.075949
    11  H    0.149376
    12  H    0.179647
    13  H    0.257998
    14  H    0.257929
 Sum of Mulliken charges =  -0.00000

 Dipole moment (field-independent basis, Debye):
    X=              0.0002    Y=             -0.0000    Z=             -1.3805  Tot=              1.3805

 Test job not archived.
 1\1\GINC-SE166\SP\RHF\Aug-CC-pVDZ\C2H8B2S2\OHZDE\08-Apr-2025\0\\#t hf
 aug-cc-pvdz iop(5/13=1,5/36=2,99/5=2) pseudo=read geom=check guess=(re
 ad,tcheck) scf=(maxcycle=1)\\title\\0,1\B,0,-0.597065,-0.581303,1.0492
 81\B,0,0.597088,0.581115,1.049376\S,0,2.090659,0.544959,0.090853\S,0,-
 2.090694,-0.54494,0.090856\C,0,2.058801,-1.020527,-0.871261\H,0,2.9461
 35,-1.028163,-1.503697\H,0,1.169075,-1.070052,-1.497129\H,0,2.088843,-
 1.8763,-0.198114\C,0,-2.058737,1.0206,-0.871167\H,0,-2.946112,1.028366
 ,-1.503544\H,0,-1.169048,1.070069,-1.497091\H,0,-2.088646,1.876338,-0.

 Normal termination of Gaussian 16 at Tue Apr  8 23:16:18 2025.
