 Gaussian 16, Revision C.01,

 ----------------------------------------------------------------------
 #t hf aug-cc-pvdz symm=none int=(grid=ultrafine) guess=(read,tcheck) s
 table=(opt,rrhf)
 ----------------------------------------------------------------------
 -----
 title
 -----
 Symbolic Z-matrix:
 Charge =  0 Multiplicity = 1

 SCF Done:  E(RHF) =  -1142.88442686     A.U. after   17 cycles
 Normal termination of Gaussian 16 at Wed Apr  9 00:50:36 2025.
 Gaussian 16:  ES64L-G16RevC.01  3-Jul-2019

 ----------------------------------------------------------------------
 #t hf aug-cc-pvdz iop(5/13=1,5/36=2,99/5=2) pseudo=read geom=check gue
 ss=(read,tcheck) scf=(maxcycle=1)
 ----------------------------------------------------------------------
 -----
 title
 -----
 Structure from the checkpoint file:  "BDE49_nonexpt_890_mol1.chk"
 Charge =  0 Multiplicity = 1

                         Standard orientation:
 ---------------------------------------------------------------------
 Center     Atomic      Atomic             Coordinates (Angstroms)
 Number     Number       Type             X           Y           Z
 ---------------------------------------------------------------------
      1         16           0        2.951386    0.940128    0.605677
      2         16           0        1.970744   -1.922626   -0.507717
      3          7           0       -4.188946   -1.621060    0.509754
      4          6           0       -2.198551   -0.029641    0.065834
      5          6           0       -3.299215   -0.911694    0.311791
      6          6           0        0.209805    0.334489   -0.087466
      7          6           0       -0.886275   -0.511793    0.138557
      8          1           0       -0.728583   -1.553801    0.389565
      9          6           0       -2.435994    1.316043   -0.247797
     10          1           0       -3.453679    1.681695   -0.306096
     11          6           0       -0.057021    1.681711   -0.395298
     12          1           0        0.767740    2.358927   -0.586419
     13          6           0       -1.360046    2.163682   -0.479579
     14          1           0       -1.538197    3.203761   -0.725970
     15          5           0        1.676881   -0.205023    0.001918
     16          1           0        3.260573   -2.036092   -0.149394
     17          1           0        4.040077    0.181233    0.396837
 ---------------------------------------------------------------------

 SCF Done:  E(RHF) =  -1143.34682525     A.U. after    2 cycles

 The electronic state is 1-A.
 Alpha  occ. eigenvalues --  -93.97121 -93.97065 -15.51888 -11.29982 -11.28835
 Alpha  occ. eigenvalues --  -11.28749 -11.28709 -11.28244 -11.27237 -11.26067
 Alpha  occ. eigenvalues --   -8.25421  -8.25360  -7.67349  -6.23259  -6.23200
 Alpha  occ. eigenvalues --   -6.23099  -6.23039  -6.22947  -6.22888  -1.23960
 Alpha  occ. eigenvalues --   -1.19120  -1.08248  -1.06586  -1.04304  -1.01631
 Alpha  occ. eigenvalues --   -0.90117  -0.87518  -0.79109  -0.71491  -0.69449
 Alpha  occ. eigenvalues --   -0.68733  -0.64413  -0.61005  -0.60011  -0.59027
 Alpha  occ. eigenvalues --   -0.57019  -0.55272  -0.54939  -0.52142  -0.51122
 Alpha  occ. eigenvalues --   -0.49776  -0.45872  -0.45131  -0.39337  -0.37778
 Alpha  occ. eigenvalues --   -0.37453
 Alpha virt. eigenvalues --    0.02647   0.02883   0.03400   0.04027   0.04441
 Alpha virt. eigenvalues --    0.05014   0.05486   0.05747   0.07009   0.07470
 Alpha virt. eigenvalues --    0.08560   0.08990   0.09439   0.10799   0.10933

 Mulliken charges:
               1
     1  S   -0.655279
     2  S   -0.636767
     3  N    1.172754
     4  C    2.841650
     5  C   -3.336514
     6  C    0.750104
     7  C   -0.370105
     8  H   -0.385603
     9  C    0.085717
    10  H   -0.287815
    11  C   -0.243482
    12  H   -0.380645
    13  C    0.297414
    14  H   -0.205916
    15  B    0.862473
    16  H    0.248518
    17  H    0.243497
 Sum of Mulliken charges =  -0.00000

 Dipole moment (field-independent basis, Debye):
    X=              4.7689    Y=              3.2276    Z=             -0.9255  Tot=              5.8324

 Test job not archived.
 1\1\GINC-SE461\SP\RHF\Aug-CC-pVDZ\C7H6B1N1S2\OHZDE\09-Apr-2025\0\\#t h
 f aug-cc-pvdz iop(5/13=1,5/36=2,99/5=2) pseudo=read geom=check guess=(
 read,tcheck) scf=(maxcycle=1)\\title\\0,1\S,0,2.951386,0.940128,0.6056
 77\S,0,1.970744,-1.922626,-0.507717\N,0,-4.188946,-1.62106,0.509754\C,
 0,-2.198551,-0.029641,0.065834\C,0,-3.299215,-0.911694,0.311791\C,0,0.
 209805,0.334489,-0.087466\C,0,-0.886275,-0.511793,0.138557\H,0,-0.7285
 83,-1.553801,0.389565\C,0,-2.435994,1.316043,-0.247797\H,0,-3.453679,1
 .681695,-0.306096\C,0,-0.057021,1.681711,-0.395298\H,0,0.76774,2.35892

 Normal termination of Gaussian 16 at Wed Apr  9 00:50:45 2025.
