 Gaussian 16, Revision C.01,

 ----------------------------------------------------------------------
 #t hf aug-cc-pvdz symm=none int=(grid=ultrafine) guess=(read,tcheck) s
 table=(opt,rrhf)
 ----------------------------------------------------------------------
 -----
 title
 -----
 Symbolic Z-matrix:
 Charge =  0 Multiplicity = 1

 SCF Done:  E(RHF) =  -725.887576066     A.U. after   11 cycles
 Normal termination of Gaussian 16 at Tue Apr  8 23:49:18 2025.
 Gaussian 16:  ES64L-G16RevC.01  3-Jul-2019

 ----------------------------------------------------------------------
 #t hf aug-cc-pvdz iop(5/13=1,5/36=2,99/5=2) pseudo=read geom=check gue
 ss=(read,tcheck) scf=(maxcycle=1)
 ----------------------------------------------------------------------
 -----
 title
 -----
 Structure from the checkpoint file:  "BDE49_nonexpt_1835_mol1.chk"
 Charge =  0 Multiplicity = 1

                         Standard orientation:
 ---------------------------------------------------------------------
 Center     Atomic      Atomic             Coordinates (Angstroms)
 Number     Number       Type             X           Y           Z
 ---------------------------------------------------------------------
      1          6           0        1.031018   -0.000000   -0.390951
      2         14           0       -0.727825    0.000000    0.325538
      3          9           0       -1.486476   -1.287109   -0.227132
      4          9           0        1.687691   -1.113436    0.087097
      5          9           0       -1.486476    1.287109   -0.227131
      6          1           0       -0.740735   -0.000001    1.789610
      7          9           0        1.687691    1.113435    0.087096
      8          1           0        1.122308   -0.000001   -1.480806
 ---------------------------------------------------------------------

 SCF Done:  E(RHF) =  -726.319831515     A.U. after    2 cycles

 The electronic state is 1-A.
 Alpha  occ. eigenvalues --  -69.65527 -26.49528 -26.49527 -26.48751 -26.48750
 Alpha  occ. eigenvalues --  -11.42407  -6.31797  -4.07208  -4.07046  -4.06863
 Alpha  occ. eigenvalues --   -1.65265  -1.61290  -1.59165  -1.58811  -0.97122
 Alpha  occ. eigenvalues --   -0.82814  -0.77707  -0.75180  -0.75117  -0.71957
 Alpha  occ. eigenvalues --   -0.70202  -0.67846  -0.66029  -0.65630  -0.63953
 Alpha  occ. eigenvalues --   -0.61859  -0.60916  -0.57926  -0.49033
 Alpha virt. eigenvalues --    0.03808   0.04714   0.05540   0.05742   0.08181
 Alpha virt. eigenvalues --    0.10770   0.11432   0.12496   0.14974   0.15263
 Alpha virt. eigenvalues --    0.16800   0.19406   0.20674   0.22937   0.24383

 Mulliken charges:
               1
     1  C    0.987143
     2  Si   2.277123
     3  F   -0.822307
     4  F   -0.700680
     5  F   -0.822307
     6  H   -0.223002
     7  F   -0.700680
     8  H    0.004709
 Sum of Mulliken charges =  -0.00000

 Dipole moment (field-independent basis, Debye):
    X=             -0.2826    Y=             -0.0000    Z=             -0.1542  Tot=              0.3220

 Test job not archived.
 1\1\GINC-SE454\SP\RHF\Aug-CC-pVDZ\C1H2F4Si1\OHZDE\08-Apr-2025\0\\#t hf
  aug-cc-pvdz iop(5/13=1,5/36=2,99/5=2) pseudo=read geom=check guess=(r
 ead,tcheck) scf=(maxcycle=1)\\title\\0,1\C,0,1.031018,0.,-0.390951\Si,
 0,-0.727825,0.,0.325538\F,0,-1.486476,-1.287109,-0.227132\F,0,1.687691
 ,-1.113435,0.087097\F,0,-1.486476,1.287109,-0.227131\H,0,-0.740735,-0.
 000001,1.78961\F,0,1.687691,1.113436,0.087096\H,0,1.122308,-0.000001,-
 1.480806\\Version=ES64L-G16RevC.01\State=1-A\HF=-726.3198315\RMSD=3.45
 9e-03\Dipole=-0.1112007,-0.0000004,-0.0606679\Quadrupole=-2.0667957,-1

 Normal termination of Gaussian 16 at Tue Apr  8 23:49:21 2025.
