 Gaussian 16, Revision C.01,

 ----------------------------------------------------------------------
 #t hf aug-cc-pvdz symm=none int=(grid=ultrafine) guess=(read,tcheck) s
 table=(opt,rrhf)
 ----------------------------------------------------------------------
 -----
 title
 -----
 Symbolic Z-matrix:
 Charge =  0 Multiplicity = 1

 SCF Done:  E(RHF) =  -877.506339478     A.U. after   14 cycles
 Normal termination of Gaussian 16 at Tue Apr  8 23:54:24 2025.
 Gaussian 16:  ES64L-G16RevC.01  3-Jul-2019

 ----------------------------------------------------------------------
 #t hf aug-cc-pvdz iop(5/13=1,5/36=2,99/5=2) pseudo=read geom=check gue
 ss=(read,tcheck) scf=(maxcycle=1)
 ----------------------------------------------------------------------
 -----
 title
 -----
 Structure from the checkpoint file:  "BDE49_nonexpt_1965_mol1.chk"
 Charge =  0 Multiplicity = 1

                         Standard orientation:
 ---------------------------------------------------------------------
 Center     Atomic      Atomic             Coordinates (Angstroms)
 Number     Number       Type             X           Y           Z
 ---------------------------------------------------------------------
      1         14           0       -1.893657   -0.003841   -0.267643
      2          6           0       -0.494761   -0.348410    0.982315
      3          1           0       -2.211943    1.436162   -0.301477
      4          1           0       -3.077019   -0.736641    0.244679
      5          1           0       -1.555808   -0.505303   -1.611688
      6         16           0        1.133189    0.178312    0.374132
      7          8           0        0.890522    1.373093   -0.455930
      8          8           0        1.251471   -1.191512   -0.621441
      9          1           0        2.144663   -1.183356   -0.991632
     10          1           0       -0.422773   -1.403654    1.251500
     11          1           0       -0.664332    0.231389    1.894583
 ---------------------------------------------------------------------

 SCF Done:  E(RHF) =  -877.793076189     A.U. after    2 cycles

 The electronic state is 1-A.
 Alpha  occ. eigenvalues --  -94.13117 -69.53832 -20.59987 -20.52752 -11.27030
 Alpha  occ. eigenvalues --   -8.39231  -6.37085  -6.36925  -6.36654  -6.20837
 Alpha  occ. eigenvalues --   -3.96236  -3.96211  -3.96198  -1.51700  -1.44066
 Alpha  occ. eigenvalues --   -1.05521  -0.88176  -0.74058  -0.71869  -0.65756
 Alpha  occ. eigenvalues --   -0.62180  -0.60425  -0.59219  -0.51898  -0.49162
 Alpha  occ. eigenvalues --   -0.48733  -0.48376  -0.45437  -0.39101
 Alpha virt. eigenvalues --    0.03428   0.03856   0.04343   0.04932   0.06840
 Alpha virt. eigenvalues --    0.07699   0.08263   0.08815   0.09699   0.11042
 Alpha virt. eigenvalues --    0.11675   0.12359   0.14062   0.15250   0.15978

 Mulliken charges:
               1
     1  Si   0.998603
     2  C   -1.174762
     3  H   -0.138606
     4  H   -0.195326
     5  H   -0.147282
     6  S    2.453003
     7  O   -1.442149
     8  O   -1.168071
     9  H    0.418664
    10  H    0.192426
    11  H    0.203501
 Sum of Mulliken charges =  -0.00000

 Dipole moment (field-independent basis, Debye):
    X=              0.3886    Y=             -2.2488    Z=              1.7310  Tot=              2.8643

 Test job not archived.
 1\1\GINC-SE071\SP\RHF\Aug-CC-pVDZ\C1H6O2S1Si1\OHZDE\08-Apr-2025\0\\#t
 hf aug-cc-pvdz iop(5/13=1,5/36=2,99/5=2) pseudo=read geom=check guess=
 (read,tcheck) scf=(maxcycle=1)\\title\\0,1\Si,0,-1.893657,-0.003841,-0
 .267643\C,0,-0.494761,-0.34841,0.982315\H,0,-2.211943,1.436162,-0.3014
 77\H,0,-3.077019,-0.736642,0.244679\H,0,-1.555808,-0.505303,-1.611688\
 S,0,1.133189,0.178312,0.374132\O,0,0.890522,1.373093,-0.45593\O,0,1.25
 1471,-1.191512,-0.621441\H,0,2.144663,-1.183355,-0.991632\H,0,-0.42277
 3,-1.403654,1.2515\H,0,-0.664332,0.231389,1.894583\\Version=ES64L-G16R

 Normal termination of Gaussian 16 at Tue Apr  8 23:54:28 2025.
