 Gaussian 16, Revision C.01,

 ----------------------------------------------------------------------
 #t hf aug-cc-pvdz symm=none int=(grid=ultrafine) guess=(read,tcheck) s
 table=(opt,rrhf)
 ----------------------------------------------------------------------
 -----
 title
 -----
 Symbolic Z-matrix:
 Charge =  0 Multiplicity = 1

 SCF Done:  E(RHF) =  -411.927197965     A.U. after   13 cycles
 Normal termination of Gaussian 16 at Wed Apr  9 00:32:14 2025.
 Gaussian 16:  ES64L-G16RevC.01  3-Jul-2019

 ----------------------------------------------------------------------
 #t hf aug-cc-pvdz iop(5/13=1,5/36=2,99/5=2) pseudo=read geom=check gue
 ss=(read,tcheck) scf=(maxcycle=1)
 ----------------------------------------------------------------------
 -----
 title
 -----
 Structure from the checkpoint file:  "BDE49_nonexpt_377_mol1.chk"
 Charge =  0 Multiplicity = 1

                         Standard orientation:
 ---------------------------------------------------------------------
 Center     Atomic      Atomic             Coordinates (Angstroms)
 Number     Number       Type             X           Y           Z
 ---------------------------------------------------------------------
      1          9           0       -1.536244   -1.055271    0.000088
      2          9           0       -1.358676    1.201269    0.000032
      3          5           0       -0.782718    0.019426   -0.000104
      4          6           0        0.811374   -0.145235   -0.000131
      5          8           0        1.372934   -1.211522    0.000002
      6          8           0        1.462776    1.038849    0.000013
      7          1           0        2.413946    0.841688    0.000101
 ---------------------------------------------------------------------

 SCF Done:  E(RHF) =  -412.310598541     A.U. after    2 cycles

 The electronic state is 1-A.
 Alpha  occ. eigenvalues --  -26.50882 -26.50563 -20.62372 -20.57344 -11.40813
 Alpha  occ. eigenvalues --   -7.76098  -1.66086  -1.62187  -1.56955  -1.47825
 Alpha  occ. eigenvalues --   -0.92542  -0.82830  -0.78031  -0.76143  -0.72642
 Alpha  occ. eigenvalues --   -0.72312  -0.67195  -0.65812  -0.65109  -0.64414
 Alpha  occ. eigenvalues --   -0.59294  -0.49833  -0.46878
 Alpha virt. eigenvalues --    0.03549   0.04110   0.05442   0.05635   0.06484
 Alpha virt. eigenvalues --    0.07119   0.11883   0.12502   0.14513   0.17841
 Alpha virt. eigenvalues --    0.19146   0.21115   0.21265   0.22340   0.24801

 Mulliken charges:
               1
     1  F   -0.628752
     2  F   -0.639966
     3  B    1.550784
     4  C    1.492569
     5  O   -1.035916
     6  O   -1.067575
     7  H    0.328856
 Sum of Mulliken charges =   0.00000

 Dipole moment (field-independent basis, Debye):
    X=              0.8249    Y=              1.3818    Z=             -0.0006  Tot=              1.6093

 Test job not archived.
 1\1\GINC-SE339\SP\RHF\Aug-CC-pVDZ\C1H1B1F2O2\OHZDE\09-Apr-2025\0\\#t h
 f aug-cc-pvdz iop(5/13=1,5/36=2,99/5=2) pseudo=read geom=check guess=(
 read,tcheck) scf=(maxcycle=1)\\title\\0,1\F,0,1.536244,-1.055271,-0.00
 0088\F,0,1.358676,1.201269,-0.000032\B,0,0.782718,0.019426,0.000104\C,
 0,-0.811374,-0.145235,0.000131\O,0,-1.372934,-1.211522,-0.000002\O,0,-
 1.462776,1.038849,-0.000013\H,0,-2.413946,0.841688,-0.000101\\Version=
 ES64L-G16RevC.01\State=1-A\HF=-412.3105985\RMSD=7.179e-03\Dipole=-0.32
 45385,0.5436484,0.0002203\Quadrupole=2.1808681,-4.3382594,2.1573913,-2

 Normal termination of Gaussian 16 at Wed Apr  9 00:32:16 2025.
