 Gaussian 16, Revision C.01,

 ----------------------------------------------------------------------
 #t hf aug-cc-pvdz symm=none int=(grid=ultrafine) guess=(read,tcheck) s
 table=(opt,rrhf)
 ----------------------------------------------------------------------
 -----
 title
 -----
 Symbolic Z-matrix:
 Charge =  0 Multiplicity = 1

 SCF Done:  E(RHF) =  -548.131027059     A.U. after   16 cycles
 Normal termination of Gaussian 16 at Tue Apr  8 22:43:17 2025.
 Gaussian 16:  ES64L-G16RevC.01  3-Jul-2019

 ----------------------------------------------------------------------
 #t hf aug-cc-pvdz iop(5/13=1,5/36=2,99/5=2) pseudo=read geom=check gue
 ss=(read,tcheck) scf=(maxcycle=1)
 ----------------------------------------------------------------------
 -----
 title
 -----
 Structure from the checkpoint file:  "BDE49_expt_1423_mol1.chk"
 Charge =  0 Multiplicity = 1

                         Standard orientation:
 ---------------------------------------------------------------------
 Center     Atomic      Atomic             Coordinates (Angstroms)
 Number     Number       Type             X           Y           Z
 ---------------------------------------------------------------------
      1          6           0       -1.131001    0.009721    0.000005
      2          6           0       -0.571848    1.288731    0.000002
      3          6           0        0.802913    1.422280    0.000000
      4          6           0       -0.333193   -1.126841    0.000006
      5          6           0        1.050487   -0.994319    0.000004
      6          6           0        1.626097    0.283629    0.000001
      7          1           0       -0.801819   -2.101038    0.000008
      8          1           0        1.665188   -1.883375    0.000005
      9          8           0        2.956875    0.525435   -0.000001
     10          6           0        3.859883   -0.577442    0.000000
     11          1           0        4.856303   -0.140525   -0.000002
     12          1           0        3.733480   -1.194763   -0.895126
     13          1           0        3.733482   -1.194759    0.895128
     14          7           0       -2.592828   -0.137576    0.000007
     15          8           0       -3.267847    0.885368   -0.000013
     16          8           0       -3.052389   -1.274020   -0.000009
     17          1           0       -1.223216    2.151353    0.000001
     18          1           0        1.273241    2.397318   -0.000002
 ---------------------------------------------------------------------

 SCF Done:  E(RHF) =  -548.674512452     A.U. after    2 cycles

 The electronic state is 1-A.
 Alpha  occ. eigenvalues --  -20.60158 -20.58323 -20.58270 -15.78749 -11.34621
 Alpha  occ. eigenvalues --  -11.31775 -11.30415 -11.28739 -11.28404 -11.26811
 Alpha  occ. eigenvalues --  -11.26340  -1.66209  -1.52750  -1.49863  -1.20138
 Alpha  occ. eigenvalues --   -1.10578  -1.05934  -1.00591  -0.94670  -0.88029
 Alpha  occ. eigenvalues --   -0.83794  -0.79924  -0.74844  -0.74670  -0.73935
 Alpha  occ. eigenvalues --   -0.70306  -0.68146  -0.66479  -0.63865  -0.62044
 Alpha  occ. eigenvalues --   -0.61148  -0.56250  -0.55757  -0.51763  -0.50233
 Alpha  occ. eigenvalues --   -0.49386  -0.48058  -0.44614  -0.38263  -0.35507
 Alpha virt. eigenvalues --    0.02507   0.03214   0.03221   0.03883   0.04394
 Alpha virt. eigenvalues --    0.05840   0.05950   0.07977   0.08253   0.08716
 Alpha virt. eigenvalues --    0.10673   0.11677   0.12146   0.12829   0.13316

 Mulliken charges:
               1
     1  C   -0.147519
     2  C    0.330366
     3  C    0.505052
     4  C    0.161331
     5  C    0.211765
     6  C    1.479090
     7  H   -0.200901
     8  H   -0.433994
     9  O   -1.882312
    10  C    0.114580
    11  H   -0.031745
    12  H    0.183614
    13  H    0.183612
    14  N    2.960913
    15  O   -1.472738
    16  O   -1.478005
    17  H   -0.200199
    18  H   -0.282912
 Sum of Mulliken charges =  -0.00000

 Dipole moment (field-independent basis, Debye):
    X=              6.0939    Y=             -0.7638    Z=              0.0000  Tot=              6.1415

 Test job not archived.
 1\1\GINC-SE090\SP\RHF\Aug-CC-pVDZ\C7H7N1O3\OHZDE\08-Apr-2025\0\\#t hf
 aug-cc-pvdz iop(5/13=1,5/36=2,99/5=2) pseudo=read geom=check guess=(re
 ad,tcheck) scf=(maxcycle=1)\\title\\0,1\C,0,-1.131001,0.009721,0.00000
 5\C,0,-0.571848,1.288731,0.000002\C,0,0.802913,1.42228,0.\C,0,-0.33319
 3,-1.126841,0.000006\C,0,1.050487,-0.994319,0.000004\C,0,1.626097,0.28
 3629,0.000001\H,0,-0.801819,-2.101038,0.000008\H,0,1.665188,-1.883375,
 0.000005\O,0,2.956875,0.525435,-0.000001\C,0,3.859883,-0.577442,0.\H,0
 ,4.856303,-0.140525,-0.000002\H,0,3.73348,-1.194763,-0.895126\H,0,3.73

 Normal termination of Gaussian 16 at Tue Apr  8 22:43:27 2025.
