 Gaussian 16, Revision C.01,

 ----------------------------------------------------------------------
 #t hf aug-cc-pvdz symm=none int=(grid=ultrafine) guess=(read,tcheck) s
 table=(opt,rrhf)
 ----------------------------------------------------------------------
 -----
 title
 -----
 Symbolic Z-matrix:
 Charge =  0 Multiplicity = 1

 SCF Done:  E(RHF) =  -1293.84209610     A.U. after   15 cycles
 Normal termination of Gaussian 16 at Wed Apr  9 00:30:29 2025.
 Gaussian 16:  ES64L-G16RevC.01  3-Jul-2019

 ----------------------------------------------------------------------
 #t hf aug-cc-pvdz iop(5/13=1,5/36=2,99/5=2) pseudo=read geom=check gue
 ss=(read,tcheck) scf=(maxcycle=1)
 ----------------------------------------------------------------------
 -----
 title
 -----
 Structure from the checkpoint file:  "BDE49_nonexpt_2718_mol1.chk"
 Charge =  0 Multiplicity = 1

                         Standard orientation:
 ---------------------------------------------------------------------
 Center     Atomic      Atomic             Coordinates (Angstroms)
 Number     Number       Type             X           Y           Z
 ---------------------------------------------------------------------
      1          6           0        3.236613    0.760501    0.003955
      2          8           0        2.546499    1.627624   -0.440764
      3         16           0        2.800162   -1.026261   -0.077979
      4         16           0        0.970313   -0.970604   -1.036509
      5          6           0       -0.156115   -0.414681    0.306912
      6          8           0        0.213140   -0.180671    1.419830
      7          6           0        4.537533    0.973708    0.744927
      8          1           0        5.035288    1.855014    0.338772
      9          1           0        5.197334    0.106573    0.688511
     10          1           0        4.301974    1.160617    1.796666
     11          6           0       -1.580367   -0.257678   -0.197881
     12          6           0       -2.552853   -1.076606    0.677052
     13          6           0       -4.008397   -0.860768    0.240735
     14          1           0       -2.422032   -0.765561    1.718584
     15          1           0       -2.293655   -2.138763    0.627696
     16          6           0       -4.385139    0.627105    0.232601
     17          1           0       -4.675649   -1.418512    0.905178
     18          1           0       -4.152299   -1.277181   -0.764560
     19          6           0       -3.416108    1.445004   -0.632078
     20          1           0       -4.362387    1.010601    1.260497
     21          1           0       -5.411362    0.754533   -0.125749
     22          6           0       -1.959062    1.241936   -0.196279
     23          1           0       -3.666860    2.509137   -0.582416
     24          1           0       -3.526577    1.148520   -1.683023
     25          1           0       -1.278916    1.797054   -0.848739
     26          1           0       -1.814187    1.629635    0.817740
     27          1           0       -1.632027   -0.628586   -1.229535
 ---------------------------------------------------------------------

 SCF Done:  E(RHF) =  -1294.47540973     A.U. after    2 cycles

 The electronic state is 1-A.
 Alpha  occ. eigenvalues --  -93.99026 -93.98992 -20.55903 -20.55610 -11.38458
 Alpha  occ. eigenvalues --  -11.37603 -11.26513 -11.26072 -11.24035 -11.23947
 Alpha  occ. eigenvalues --  -11.23503 -11.23423 -11.23185  -8.27061  -8.27000
 Alpha  occ. eigenvalues --   -6.24855  -6.24787  -6.24627  -6.24565  -6.24420
 Alpha  occ. eigenvalues --   -6.24363  -1.50245  -1.49812  -1.13989  -1.11638
 Alpha  occ. eigenvalues --   -1.05266  -1.03066  -1.01508  -0.95152  -0.86907
 Alpha  occ. eigenvalues --   -0.84802  -0.78265  -0.75958  -0.74120  -0.67704
 Alpha  occ. eigenvalues --   -0.67621  -0.65485  -0.64971  -0.63030  -0.62645
 Alpha  occ. eigenvalues --   -0.61854  -0.60345  -0.58760  -0.57241  -0.56995
 Alpha  occ. eigenvalues --   -0.54688  -0.53080  -0.51778  -0.50962  -0.50227
 Alpha  occ. eigenvalues --   -0.49168  -0.47352  -0.46219  -0.44878  -0.42912
 Alpha  occ. eigenvalues --   -0.41952  -0.38881  -0.37478
 Alpha virt. eigenvalues --    0.03313   0.03559   0.03637   0.03662   0.04777
 Alpha virt. eigenvalues --    0.05552   0.05575   0.06077   0.06395   0.06953
 Alpha virt. eigenvalues --    0.07429   0.07868   0.09287   0.09369   0.09805

 Mulliken charges:
               1
     1  C    0.982788
     2  O   -1.224425
     3  S    0.112391
     4  S   -0.041365
     5  C    1.362916
     6  O   -1.373604
     7  C   -0.512085
     8  H    0.194762
     9  H    0.223365
    10  H    0.303187
    11  C   -0.448141
    12  C   -0.130584
    13  C   -0.256338
    14  H    0.192474
    15  H    0.087929
    16  C   -0.280154
    17  H    0.119479
    18  H    0.152647
    19  C   -0.274144
    20  H    0.152531
    21  H    0.114933
    22  C   -0.201904
    23  H    0.121148
    24  H    0.160622
    25  H    0.094112
    26  H    0.173868
    27  H    0.193591
 Sum of Mulliken charges =  -0.00000

 Dipole moment (field-independent basis, Debye):
    X=             -0.4752    Y=             -0.1404    Z=              0.0120  Tot=              0.4957

 Test job not archived.
 1\1\GINC-SE343\SP\RHF\Aug-CC-pVDZ\C9H14O2S2\OHZDE\09-Apr-2025\0\\#t hf
  aug-cc-pvdz iop(5/13=1,5/36=2,99/5=2) pseudo=read geom=check guess=(r
 ead,tcheck) scf=(maxcycle=1)\\title\\0,1\C,0,3.236613,0.760501,0.00395
 5\O,0,2.546499,1.627624,-0.440764\S,0,2.800162,-1.026261,-0.077979\S,0
 ,0.970313,-0.970604,-1.036509\C,0,-0.156115,-0.414681,0.306912\O,0,0.2
 1314,-0.180671,1.41983\C,0,4.537533,0.973708,0.744927\H,0,5.035288,1.8
 55014,0.338772\H,0,5.197334,0.106573,0.688511\H,0,4.301974,1.160617,1.
 796666\C,0,-1.580367,-0.257678,-0.197881\C,0,-2.552853,-1.076606,0.677

 Normal termination of Gaussian 16 at Wed Apr  9 00:30:53 2025.
