 Gaussian 16, Revision C.01,

 ----------------------------------------------------------------------
 #t hf aug-cc-pvdz symm=none int=(grid=ultrafine) guess=(read,tcheck) s
 table=(opt,rrhf)
 ----------------------------------------------------------------------
 -----
 title
 -----
 Symbolic Z-matrix:
 Charge =  0 Multiplicity = 1

 SCF Done:  E(RHF) =  -787.034607877     A.U. after   15 cycles
 Normal termination of Gaussian 16 at Wed Apr  9 00:47:16 2025.
 Gaussian 16:  ES64L-G16RevC.01  3-Jul-2019

 ----------------------------------------------------------------------
 #t hf aug-cc-pvdz iop(5/13=1,5/36=2,99/5=2) pseudo=read geom=check gue
 ss=(read,tcheck) scf=(maxcycle=1)
 ----------------------------------------------------------------------
 -----
 title
 -----
 Structure from the checkpoint file:  "BDE49_nonexpt_793_mol1.chk"
 Charge =  0 Multiplicity = 1

                         Standard orientation:
 ---------------------------------------------------------------------
 Center     Atomic      Atomic             Coordinates (Angstroms)
 Number     Number       Type             X           Y           Z
 ---------------------------------------------------------------------
      1         14           0        0.095477    0.104799   -0.992877
      2          7           0       -0.680610    1.602405   -0.096848
      3          5           0        1.852759   -0.215373   -0.014933
      4          8           0        0.023543    2.252540    0.693425
      5          8           0       -1.840418    1.891444   -0.345203
      6          8           0        2.304899    0.633575    0.935360
      7          8           0        2.551539   -1.333573   -0.353360
      8          6           0       -1.202173   -1.251814   -0.984320
      9          6           0       -1.276623   -2.116774    0.290131
     10          1           0       -0.982262   -1.884024   -1.853613
     11          1           0       -2.167778   -0.776375   -1.190526
     12          6           0       -1.645490   -1.334134    1.554521
     13          1           0       -0.317513   -2.624140    0.439959
     14          1           0       -2.016443   -2.908256    0.129985
     15          1           0       -0.880496   -0.595234    1.816761
     16          1           0       -1.749510   -2.003681    2.411875
     17          1           0       -2.590547   -0.798234    1.429769
     18          1           0        3.374372   -1.416743    0.146823
     19          1           0        1.690240    1.378111    1.065836
     20          1           0        0.232953    0.685864   -2.347760
 ---------------------------------------------------------------------

 SCF Done:  E(RHF) =  -787.562824881     A.U. after    2 cycles

 The electronic state is 1-A.
 Alpha  occ. eigenvalues --  -69.57454 -20.59776 -20.58977 -20.57762 -20.56555
 Alpha  occ. eigenvalues --  -15.75444 -11.25223 -11.24661 -11.23805  -7.66270
 Alpha  occ. eigenvalues --   -6.24496  -3.99879  -3.99700  -3.99667  -1.65548
 Alpha  occ. eigenvalues --   -1.49904  -1.49216  -1.45422  -1.07916  -0.99527
 Alpha  occ. eigenvalues --   -0.94994  -0.84007  -0.80900  -0.79227  -0.74675
 Alpha  occ. eigenvalues --   -0.73747  -0.72356  -0.67970  -0.63805  -0.63033
 Alpha  occ. eigenvalues --   -0.62060  -0.58345  -0.57962  -0.57848  -0.53651
 Alpha  occ. eigenvalues --   -0.51365  -0.50798  -0.50301  -0.48940  -0.48012
 Alpha  occ. eigenvalues --   -0.46101  -0.45093  -0.43950
 Alpha virt. eigenvalues --    0.02851   0.03198   0.03599   0.04309   0.04964
 Alpha virt. eigenvalues --    0.05429   0.05566   0.06439   0.06832   0.07624
 Alpha virt. eigenvalues --    0.08627   0.08872   0.09224   0.09521   0.09826

 Mulliken charges:
               1
     1  Si   0.937089
     2  N    1.914270
     3  B    1.827247
     4  O   -1.279782
     5  O   -1.282937
     6  O   -1.483664
     7  O   -1.328180
     8  C   -0.519674
     9  C   -0.405934
    10  H    0.024870
    11  H    0.148205
    12  C   -0.308915
    13  H    0.157056
    14  H    0.147775
    15  H    0.158854
    16  H    0.071909
    17  H    0.165727
    18  H    0.525669
    19  H    0.777746
    20  H   -0.247330
 Sum of Mulliken charges =   0.00000

 Dipole moment (field-independent basis, Debye):
    X=              0.9342    Y=             -3.4494    Z=             -0.9769  Tot=              3.7048

 Test job not archived.
 1\1\GINC-SE177\SP\RHF\Aug-CC-pVDZ\C3H10B1N1O4Si1\OHZDE\09-Apr-2025\0\\
 #t hf aug-cc-pvdz iop(5/13=1,5/36=2,99/5=2) pseudo=read geom=check gue
 ss=(read,tcheck) scf=(maxcycle=1)\\title\\0,1\Si,0,-0.095477,-0.104799
 ,-0.992877\N,0,0.68061,-1.602405,-0.096848\B,0,-1.852759,0.215373,-0.0
 14933\O,0,-0.023543,-2.25254,0.693425\O,0,1.840418,-1.891444,-0.345203
 \O,0,-2.304899,-0.633575,0.93536\O,0,-2.551539,1.333573,-0.35336\C,0,1
 .202173,1.251814,-0.98432\C,0,1.276623,2.116774,0.290131\H,0,0.982262,
 1.884024,-1.853613\H,0,2.167778,0.776375,-1.190526\C,0,1.64549,1.33413

 Normal termination of Gaussian 16 at Wed Apr  9 00:47:29 2025.
