 Gaussian 16, Revision C.01,

 ----------------------------------------------------------------------
 #t hf aug-cc-pvdz symm=none int=(grid=ultrafine) guess=(read,tcheck) s
 table=(opt,rrhf)
 ----------------------------------------------------------------------
 -----
 title
 -----
 Symbolic Z-matrix:
 Charge =  0 Multiplicity = 1

 SCF Done:  E(RHF) =  -345.693167217     A.U. after   14 cycles
 Normal termination of Gaussian 16 at Tue Apr  8 23:22:02 2025.
 Gaussian 16:  ES64L-G16RevC.01  3-Jul-2019

 ----------------------------------------------------------------------
 #t hf aug-cc-pvdz iop(5/13=1,5/36=2,99/5=2) pseudo=read geom=check gue
 ss=(read,tcheck) scf=(maxcycle=1)
 ----------------------------------------------------------------------
 -----
 title
 -----
 Structure from the checkpoint file:  "BDE49_nonexpt_1186_mol1.chk"
 Charge =  0 Multiplicity = 1

                         Standard orientation:
 ---------------------------------------------------------------------
 Center     Atomic      Atomic             Coordinates (Angstroms)
 Number     Number       Type             X           Y           Z
 ---------------------------------------------------------------------
      1          9           0        2.512519   -0.331125   -0.000001
      2          7           0        0.294713   -0.574092   -0.000001
      3          6           0       -1.141339    1.428267    0.000001
      4          6           0       -0.875616   -0.054478    0.000000
      5          6           0       -2.026855   -1.017980    0.000000
      6          8           0        1.269573    0.399035   -0.000001
      7          1           0       -0.688920    1.898150   -0.878572
      8          1           0       -0.688916    1.898149    0.878573
      9          1           0       -2.211037    1.637056    0.000004
     10          1           0       -1.667148   -2.046201    0.000000
     11          1           0       -2.656677   -0.857758   -0.881446
     12          1           0       -2.656676   -0.857759    0.881448
 ---------------------------------------------------------------------

 SCF Done:  E(RHF) =  -346.037711936     A.U. after    2 cycles

 The electronic state is 1-A.
 Alpha  occ. eigenvalues --  -26.49810 -20.69597 -15.57733 -11.31583 -11.26255
 Alpha  occ. eigenvalues --  -11.25883  -1.66492  -1.41810  -1.18856  -1.02482
 Alpha  occ. eigenvalues --   -0.98125  -0.80532  -0.71380  -0.70916  -0.70322
 Alpha  occ. eigenvalues --   -0.63577  -0.62056  -0.60038  -0.58122  -0.57335
 Alpha  occ. eigenvalues --   -0.56428  -0.55333  -0.49343  -0.42494
 Alpha virt. eigenvalues --    0.03007   0.04009   0.04333   0.04787   0.06856
 Alpha virt. eigenvalues --    0.07010   0.09219   0.11642   0.12781   0.13415
 Alpha virt. eigenvalues --    0.13983   0.14786   0.15236   0.15499   0.16015

 Mulliken charges:
               1
     1  F   -0.426144
     2  N    1.368069
     3  C   -0.219984
     4  C   -0.957599
     5  C   -0.587432
     6  O   -0.530371
     7  H    0.273770
     8  H    0.273770
     9  H    0.066490
    10  H    0.201395
    11  H    0.269017
    12  H    0.269019
 Sum of Mulliken charges =   0.00000

 Dipole moment (field-independent basis, Debye):
    X=             -4.3001    Y=              1.5403    Z=              0.0000  Tot=              4.5676

 Test job not archived.
 1\1\GINC-SE222\SP\RHF\Aug-CC-pVDZ\C3H6F1N1O1\OHZDE\08-Apr-2025\0\\#t h
 f aug-cc-pvdz iop(5/13=1,5/36=2,99/5=2) pseudo=read geom=check guess=(
 read,tcheck) scf=(maxcycle=1)\\title\\0,1\F,0,2.512519,-0.331125,-0.00
 0001\N,0,0.294713,-0.574092,-0.000001\C,0,-1.141339,1.428267,0.000001\
 C,0,-0.875616,-0.054478,0.\C,0,-2.026855,-1.01798,0.\O,0,1.269573,0.39
 9035,-0.000001\H,0,-0.68892,1.89815,-0.878572\H,0,-0.688916,1.898149,0
 .878573\H,0,-2.211037,1.637056,0.000004\H,0,-1.667148,-2.046201,0.\H,0
 ,-2.656677,-0.857758,-0.881446\H,0,-2.656676,-0.857759,0.881448\\Versi

 Normal termination of Gaussian 16 at Tue Apr  8 23:22:05 2025.
