 Gaussian 16, Revision C.01,

 ----------------------------------------------------------------------
 #t hf aug-cc-pvdz symm=none int=(grid=ultrafine) guess=(read,tcheck) s
 table=(opt,rrhf)
 ----------------------------------------------------------------------
 -----
 title
 -----
 Symbolic Z-matrix:
 Charge =  0 Multiplicity = 1

 SCF Done:  E(RHF) =  -546.373874697     A.U. after   14 cycles
 Normal termination of Gaussian 16 at Wed Apr  9 00:45:39 2025.
 Gaussian 16:  ES64L-G16RevC.01  3-Jul-2019

 ----------------------------------------------------------------------
 #t hf aug-cc-pvdz iop(5/13=1,5/36=2,99/5=2) pseudo=read geom=check gue
 ss=(read,tcheck) scf=(maxcycle=1)
 ----------------------------------------------------------------------
 -----
 title
 -----
 Structure from the checkpoint file:  "BDE49_nonexpt_776_mol1.chk"
 Charge =  0 Multiplicity = 1

                         Standard orientation:
 ---------------------------------------------------------------------
 Center     Atomic      Atomic             Coordinates (Angstroms)
 Number     Number       Type             X           Y           Z
 ---------------------------------------------------------------------
      1          6           0       -1.621694    0.202223   -0.044854
      2          5           0        1.643121    0.017348   -0.026540
      3          6           0        1.830514    1.569588   -0.002883
      4          1           0        0.901610    2.134320   -0.118616
      5          1           0        2.589175    1.939568   -0.700789
      6          1           0        2.195418    1.812752    1.009779
      7          8           0       -1.609906    1.416654   -0.000102
      8          6           0       -2.782014   -0.554286   -0.662120
      9          6           0        2.740534   -0.936498   -0.611290
     10          1           0        2.797769   -1.924210   -0.145351
     11          1           0        3.740573   -0.492955   -0.654634
     12          1           0        2.440944   -1.123889   -1.657154
     13          1           0       -3.230286   -1.219605    0.083572
     14          1           0       -2.420937   -1.193716   -1.474973
     15          1           0       -3.531011    0.144974   -1.038233
     16         14           0       -0.096782   -0.749011    0.718097
     17          1           0       -0.268185   -2.215453    0.525196
     18          1           0       -0.200526   -0.481764    2.178239
 ---------------------------------------------------------------------

 SCF Done:  E(RHF) =  -546.677933032     A.U. after    2 cycles

 The electronic state is 1-A.
 Alpha  occ. eigenvalues --  -69.51667 -20.54042 -11.32632 -11.24367 -11.21414
 Alpha  occ. eigenvalues --  -11.20325  -7.59601  -6.18991  -3.94334  -3.94325
 Alpha  occ. eigenvalues --   -3.94263  -1.46695  -1.01164  -0.98163  -0.93215
 Alpha  occ. eigenvalues --   -0.80587  -0.71607  -0.63817  -0.62156  -0.60608
 Alpha  occ. eigenvalues --   -0.60085  -0.57793  -0.56608  -0.55610  -0.53834
 Alpha  occ. eigenvalues --   -0.53094  -0.50333  -0.48066  -0.46798  -0.40774
 Alpha  occ. eigenvalues --   -0.37063
 Alpha virt. eigenvalues --    0.03048   0.03591   0.03661   0.04471   0.05596
 Alpha virt. eigenvalues --    0.05721   0.06131   0.06313   0.07192   0.07393
 Alpha virt. eigenvalues --    0.08333   0.08988   0.09378   0.09547   0.10025

 Mulliken charges:
               1
     1  C    0.719803
     2  B    0.429816
     3  C   -0.327458
     4  H    0.003860
     5  H   -0.062664
     6  H    0.113075
     7  O   -1.172428
     8  C   -0.550670
     9  C   -0.329356
    10  H   -0.043411
    11  H   -0.061992
    12  H    0.114456
    13  H    0.224210
    14  H    0.238975
    15  H    0.132476
    16  Si   0.773985
    17  H   -0.077848
    18  H   -0.124827
 Sum of Mulliken charges =  -0.00000

 Dipole moment (field-independent basis, Debye):
    X=              0.8347    Y=             -2.2171    Z=             -0.6832  Tot=              2.4655

 Test job not archived.
 1\1\GINC-SE187\SP\RHF\Aug-CC-pVDZ\C4H11B1O1Si1\OHZDE\09-Apr-2025\0\\#t
  hf aug-cc-pvdz iop(5/13=1,5/36=2,99/5=2) pseudo=read geom=check guess
 =(read,tcheck) scf=(maxcycle=1)\\title\\0,1\C,0,-1.621694,0.202223,-0.
 044854\B,0,1.643121,0.017348,-0.02654\C,0,1.830514,1.569588,-0.002883\
 H,0,0.90161,2.13432,-0.118616\H,0,2.589175,1.939568,-0.700789\H,0,2.19
 5418,1.812752,1.009779\O,0,-1.609906,1.416654,-0.000102\C,0,-2.782014,
 -0.554286,-0.66212\C,0,2.740534,-0.936498,-0.61129\H,0,2.797769,-1.924
 21,-0.145351\H,0,3.740573,-0.492955,-0.654634\H,0,2.440944,-1.123889,-

 Normal termination of Gaussian 16 at Wed Apr  9 00:45:47 2025.
