 Gaussian 16, Revision C.01,

 ----------------------------------------------------------------------
 #t hf aug-cc-pvdz symm=none int=(grid=ultrafine) guess=(read,tcheck) s
 table=(opt,rrhf)
 ----------------------------------------------------------------------
 -----
 title
 -----
 Symbolic Z-matrix:
 Charge =  0 Multiplicity = 1

 SCF Done:  E(RHF) =  -979.869103763     A.U. after   17 cycles
 Normal termination of Gaussian 16 at Wed Apr  9 00:02:35 2025.
 Gaussian 16:  ES64L-G16RevC.01  3-Jul-2019

 ----------------------------------------------------------------------
 #t hf aug-cc-pvdz iop(5/13=1,5/36=2,99/5=2) pseudo=read geom=check gue
 ss=(read,tcheck) scf=(maxcycle=1)
 ----------------------------------------------------------------------
 -----
 title
 -----
 Structure from the checkpoint file:  "BDE49_nonexpt_2119_mol1.chk"
 Charge =  0 Multiplicity = 1

                         Standard orientation:
 ---------------------------------------------------------------------
 Center     Atomic      Atomic             Coordinates (Angstroms)
 Number     Number       Type             X           Y           Z
 ---------------------------------------------------------------------
      1         14           0       -0.036205   -0.001392    0.245478
      2          7           0        1.690936   -0.530428    0.632262
      3          7           0       -0.588263   -1.128984   -1.110596
      4          7           0        0.149591    1.646237   -0.568547
      5          6           0       -1.135717   -0.000342    1.721984
      6          8           0        1.215143    2.133640   -0.888974
      7          8           0       -0.583470   -0.819408   -2.285983
      8          8           0        2.315208   -1.342995   -0.021631
      9          8           0       -0.924865   -2.219830   -0.642162
     10          8           0        2.095885    0.076247    1.627440
     11          8           0       -0.966145    2.145927   -0.743331
     12          6           0       -2.646781    0.037879    1.418736
     13          1           0       -0.827710    0.857853    2.328830
     14          1           0       -0.870553   -0.895325    2.295179
     15          1           0       -2.917522    0.934610    0.860516
     16          1           0       -3.206482    0.037350    2.355907
     17          1           0       -2.955795   -0.836653    0.843839
 ---------------------------------------------------------------------

 SCF Done:  E(RHF) =  -980.560557828     A.U. after    2 cycles

 The electronic state is 1-A.
 Alpha  occ. eigenvalues --  -69.71969 -20.64418 -20.64373 -20.64342 -20.63624
 Alpha  occ. eigenvalues --  -20.63623 -20.63595 -15.80900 -15.80880 -15.80845
 Alpha  occ. eigenvalues --  -11.30808 -11.28216  -6.38299  -4.13583  -4.13575
 Alpha  occ. eigenvalues --   -4.13396  -1.70717  -1.70407  -1.70396  -1.54951
 Alpha  occ. eigenvalues --   -1.54936  -1.54842  -1.12006  -1.07543  -1.02432
 Alpha  occ. eigenvalues --   -1.02420  -0.92045  -0.87198  -0.84363  -0.84267
 Alpha  occ. eigenvalues --   -0.78658  -0.78513  -0.78486  -0.77234  -0.77163
 Alpha  occ. eigenvalues --   -0.77078  -0.67850  -0.66703  -0.59854  -0.57366
 Alpha  occ. eigenvalues --   -0.56674  -0.54423  -0.54275  -0.54006  -0.51305
 Alpha  occ. eigenvalues --   -0.50573  -0.50452  -0.49465  -0.48451  -0.48440
 Alpha virt. eigenvalues --    0.00279   0.00466   0.00609   0.02329   0.03675
 Alpha virt. eigenvalues --    0.04004   0.05360   0.06728   0.07621   0.07777
 Alpha virt. eigenvalues --    0.07986   0.10349   0.11235   0.12155   0.12535

 Mulliken charges:
               1
     1  Si   1.603456
     2  N    1.936657
     3  N    1.976395
     4  N    2.012987
     5  C   -0.456243
     6  O   -1.200309
     7  O   -1.184200
     8  O   -1.192108
     9  O   -1.271184
    10  O   -1.240105
    11  O   -1.269084
    12  C   -0.451091
    13  H    0.142553
    14  H    0.128269
    15  H    0.191190
    16  H    0.131679
    17  H    0.141139
 Sum of Mulliken charges =  -0.00000

 Dipole moment (field-independent basis, Debye):
    X=             -3.3283    Y=              0.0439    Z=              3.8988  Tot=              5.1264

 Test job not archived.
 1\1\GINC-SE435\SP\RHF\Aug-CC-pVDZ\C2H5N3O6Si1\OHZDE\09-Apr-2025\0\\#t
 hf aug-cc-pvdz iop(5/13=1,5/36=2,99/5=2) pseudo=read geom=check guess=
 (read,tcheck) scf=(maxcycle=1)\\title\\0,1\Si,0,-0.036205,-0.001392,0.
 245478\N,0,1.690936,-0.530428,0.632262\N,0,-0.588263,-1.128984,-1.1105
 96\N,0,0.149591,1.646237,-0.568547\C,0,-1.135717,-0.000342,1.721984\O,
 0,1.215143,2.13364,-0.888974\O,0,-0.58347,-0.819408,-2.285983\O,0,2.31
 5208,-1.342995,-0.021631\O,0,-0.924865,-2.21983,-0.642162\O,0,2.095885
 ,0.076247,1.62744\O,0,-0.966145,2.145927,-0.743331\C,0,-2.646781,0.037

 Normal termination of Gaussian 16 at Wed Apr  9 00:02:46 2025.
