 Gaussian 16, Revision C.01,

 ----------------------------------------------------------------------
 #t hf aug-cc-pvdz symm=none int=(grid=ultrafine) guess=(read,tcheck) s
 table=(opt,rrhf)
 ----------------------------------------------------------------------
 -----
 title
 -----
 Symbolic Z-matrix:
 Charge =  0 Multiplicity = 1

 SCF Done:  E(RHF) =  -1151.04195883     A.U. after   17 cycles
 Normal termination of Gaussian 16 at Tue Apr  8 23:40:47 2025.
 Gaussian 16:  ES64L-G16RevC.01  3-Jul-2019

 ----------------------------------------------------------------------
 #t hf aug-cc-pvdz iop(5/13=1,5/36=2,99/5=2) pseudo=read geom=check gue
 ss=(read,tcheck) scf=(maxcycle=1)
 ----------------------------------------------------------------------
 -----
 title
 -----
 Structure from the checkpoint file:  "BDE49_nonexpt_1618_mol1.chk"
 Charge =  0 Multiplicity = 1

                         Standard orientation:
 ---------------------------------------------------------------------
 Center     Atomic      Atomic             Coordinates (Angstroms)
 Number     Number       Type             X           Y           Z
 ---------------------------------------------------------------------
      1         15           0        0.574761    0.674523   -0.870020
      2          7           0        1.707727   -0.567844   -0.014628
      3          6           0        0.881377    2.118942    0.228032
      4         15           0       -1.333824   -0.082650   -0.003291
      5          1           0        1.888591    2.492544    0.043563
      6          1           0        0.759681    1.873986    1.282229
      7          1           0        0.161702    2.890271   -0.059956
      8          8           0        1.384566   -1.757559   -0.061982
      9          8           0        2.746023   -0.155618    0.457853
     10          8           0       -2.471313    0.743586   -0.414979
     11          8           0       -1.371938   -1.597437   -0.465400
     12          8           0       -1.082924   -0.126163    1.588892
     13          1           0       -1.798560    0.303055    2.076214
     14          1           0       -0.503139   -2.031155   -0.343245
 ---------------------------------------------------------------------

 SCF Done:  E(RHF) =  -1151.58639053     A.U. after    2 cycles

 The electronic state is 1-A.
 Alpha  occ. eigenvalues --  -84.45833 -84.36782 -20.62465 -20.61657 -20.61409
 Alpha  occ. eigenvalues --  -20.60488 -20.53000 -15.79851 -11.28828  -6.91110
 Alpha  occ. eigenvalues --   -6.83677  -4.45248  -4.44569  -4.43438  -4.36254
 Alpha  occ. eigenvalues --   -4.35782  -4.35175  -1.69141  -1.55399  -1.53054
 Alpha  occ. eigenvalues --   -1.49346  -1.41254  -1.08266  -0.99580  -0.88852
 Alpha  occ. eigenvalues --   -0.85417  -0.77583  -0.76709  -0.75076  -0.74612
 Alpha  occ. eigenvalues --   -0.67313  -0.65365  -0.64059  -0.61844  -0.61008
 Alpha  occ. eigenvalues --   -0.57503  -0.54761  -0.52267  -0.51947  -0.49543
 Alpha  occ. eigenvalues --   -0.48446  -0.47863  -0.45072  -0.39475
 Alpha virt. eigenvalues --    0.02832   0.03190   0.04296   0.05230   0.05674
 Alpha virt. eigenvalues --    0.06351   0.07109   0.07221   0.08849   0.10246
 Alpha virt. eigenvalues --    0.10669   0.12422   0.12780   0.13775   0.14846

 Mulliken charges:
               1
     1  P    0.559202
     2  N    2.113632
     3  C   -0.836179
     4  P    3.701456
     5  H    0.120384
     6  H    0.155364
     7  H    0.184137
     8  O   -1.366426
     9  O   -1.237903
    10  O   -1.480020
    11  O   -1.469949
    12  O   -1.380432
    13  H    0.374784
    14  H    0.561949
 Sum of Mulliken charges =  -0.00000

 Dipole moment (field-independent basis, Debye):
    X=              0.8531    Y=              2.6123    Z=              1.0769  Tot=              2.9515

 Test job not archived.
 1\1\GINC-SE043\SP\RHF\Aug-CC-pVDZ\C1H5N1O5P2\OHZDE\08-Apr-2025\0\\#t h
 f aug-cc-pvdz iop(5/13=1,5/36=2,99/5=2) pseudo=read geom=check guess=(
 read,tcheck) scf=(maxcycle=1)\\title\\0,1\P,0,0.574761,0.674523,-0.870
 02\N,0,1.707727,-0.567844,-0.014628\C,0,0.881377,2.118942,0.228032\P,0
 ,-1.333824,-0.08265,-0.003291\H,0,1.888591,2.492544,0.043563\H,0,0.759
 681,1.873986,1.282229\H,0,0.161702,2.890271,-0.059956\O,0,1.384566,-1.
 757559,-0.061982\O,0,2.746023,-0.155618,0.457853\O,0,-2.471313,0.74358
 7,-0.414979\O,0,-1.371938,-1.597437,-0.4654\O,0,-1.082924,-0.126163,1.

 Normal termination of Gaussian 16 at Tue Apr  8 23:40:55 2025.
