 Gaussian 16, Revision C.01,

 ----------------------------------------------------------------------
 #t hf aug-cc-pvdz symm=none int=(grid=ultrafine) guess=(read,tcheck) s
 table=opt
 ----------------------------------------------------------------------
 -----
 title
 -----
 Symbolic Z-matrix:
 Charge =  0 Multiplicity = 2

 SCF Done:  E(UHF) =  -651.381590358     A.U. after   20 cycles
 Normal termination of Gaussian 16 at Wed Apr  9 00:03:28 2025.
 Gaussian 16:  ES64L-G16RevC.01  3-Jul-2019

 ----------------------------------------------------------------------
 #t hf aug-cc-pvdz iop(5/13=1,5/36=2,99/5=2) pseudo=read geom=check gue
 ss=(read,tcheck) scf=(maxcycle=1)
 ----------------------------------------------------------------------
 -----
 title
 -----
 Structure from the checkpoint file:  "BDE49_nonexpt_218_mol2.chk"
 Charge =  0 Multiplicity = 2

                         Standard orientation:
 ---------------------------------------------------------------------
 Center     Atomic      Atomic             Coordinates (Angstroms)
 Number     Number       Type             X           Y           Z
 ---------------------------------------------------------------------
      1          5           0        0.638914    1.010458    0.000002
      2          6           0       -1.521778   -0.009756   -0.000004
      3          7           0       -2.276834   -0.882542    0.000003
      4          8           0       -0.728827    1.023555    0.000001
      5         17           0        1.629679   -0.412023   -0.000001
 ---------------------------------------------------------------------

 SCF Done:  E(UHF) =  -651.631714292     A.U. after    2 cycles

 The electronic state is 2-A.
 Alpha  occ. eigenvalues -- -105.61291 -20.68331 -15.53595 -11.37307 -10.66330
 Alpha  occ. eigenvalues --   -7.83335  -7.82890  -7.82854  -7.76921  -1.61652
 Alpha  occ. eigenvalues --   -1.25628  -1.12576  -0.94079  -0.75107  -0.70419
 Alpha  occ. eigenvalues --   -0.66859  -0.63041  -0.54360  -0.53783  -0.51388
 Alpha  occ. eigenvalues --   -0.50027  -0.42021
 Alpha virt. eigenvalues --    0.03116   0.04550   0.04622   0.04883   0.06887
 Alpha virt. eigenvalues --    0.10402   0.11738   0.11991   0.12496   0.14915
 Alpha virt. eigenvalues --    0.15256   0.16851   0.17434   0.18030   0.20265

  Beta  occ. eigenvalues -- -105.61182 -20.68184 -15.53789 -11.37021 -10.66203
  Beta  occ. eigenvalues --   -7.83036  -7.82848  -7.82669  -7.74546  -1.61147
  Beta  occ. eigenvalues --   -1.25805  -1.11423  -0.92215  -0.74298  -0.70278
  Beta  occ. eigenvalues --   -0.63733  -0.63208  -0.53693  -0.52449  -0.51521
  Beta  occ. eigenvalues --   -0.50549
  Beta virt. eigenvalues --    0.01617   0.04189   0.04696   0.04925   0.08515
  Beta virt. eigenvalues --    0.09997   0.10751   0.11936   0.11983   0.12685
  Beta virt. eigenvalues --    0.15120   0.15418   0.17047   0.17636   0.18230

 Mulliken charges and spin densities:
               1          2
     1  B    0.348668   1.045935
     2  C   -0.278817   0.133640
     3  N    0.721524  -0.067857
     4  O   -0.628248  -0.144838
     5  Cl  -0.163126   0.033120
 Sum of Mulliken charges =  -0.00000   1.00000

 Dipole moment (field-independent basis, Debye):
    X=              2.7067    Y=              2.4111    Z=             -0.0000  Tot=              3.6248
                          Isotropic Fermi Contact Couplings
        Atom                 a.u.       MegaHertz       Gauss      10(-4) cm-1
     1  B(11)              0.47663     683.66210     243.94764     228.04513
     2  C(13)              0.05808      65.29857      23.30015      21.78126
     3  N(14)             -0.01398      -4.51626      -1.61151      -1.50646
     4  O(17)              0.16240     -98.44878     -35.12897     -32.83898
     5  Cl(35)             0.10496      46.02260      16.42201      15.35149
 --------------------------------------------------------
       Center         ----  Spin Dipole Couplings  ----
                      3XX-RR        3YY-RR        3ZZ-RR

 1\1\GINC-SE342\SP\UHF\Aug-CC-pVDZ\C1B1Cl1N1O1(2)\OHZDE\09-Apr-2025\0\\
 #t hf aug-cc-pvdz iop(5/13=1,5/36=2,99/5=2) pseudo=read geom=check gue
 ss=(read,tcheck) scf=(maxcycle=1)\\title\\0,2\B,0,0.638914,1.010458,0.
 000002\C,0,-1.521778,-0.009756,-0.000004\N,0,-2.276834,-0.882542,0.000
 003\O,0,-0.728827,1.023555,0.000001\Cl,0,1.629679,-0.412023,-0.000001\
 \Version=ES64L-G16RevC.01\State=2-A\HF=-651.6317143\S2=0.755626\S2-1=0
 .\S2A=0.750026\RMSD=1.323e-02\Dipole=1.0648922,0.9485955,-0.0000056\Qu
 adrupole=-3.9245137,0.6785221,3.2459916,-3.8295409,0.0000165,-0.000003

 Normal termination of Gaussian 16 at Wed Apr  9 00:03:30 2025.
