 Gaussian 16, Revision C.01,

 ----------------------------------------------------------------------
 #t hf aug-cc-pvdz symm=none int=(grid=ultrafine) guess=(read,tcheck) s
 table=(opt,rrhf)
 ----------------------------------------------------------------------
 -----
 title
 -----
 Symbolic Z-matrix:
 Charge =  0 Multiplicity = 1

 SCF Done:  E(RHF) =  -1287.24117980     A.U. after   12 cycles
 Normal termination of Gaussian 16 at Tue Apr  8 23:45:19 2025.
 Gaussian 16:  ES64L-G16RevC.01  3-Jul-2019

 ----------------------------------------------------------------------
 #t hf aug-cc-pvdz iop(5/13=1,5/36=2,99/5=2) pseudo=read geom=check gue
 ss=(read,tcheck) scf=(maxcycle=1)
 ----------------------------------------------------------------------
 -----
 title
 -----
 Structure from the checkpoint file:  "BDE49_nonexpt_1759_mol1.chk"
 Charge =  0 Multiplicity = 1

                         Standard orientation:
 ---------------------------------------------------------------------
 Center     Atomic      Atomic             Coordinates (Angstroms)
 Number     Number       Type             X           Y           Z
 ---------------------------------------------------------------------
      1         14           0       -1.398660    0.918018    0.120927
      2          6           0        0.406661    0.760960   -0.386286
      3          6           0        1.212439   -0.221672    0.444666
      4          1           0        0.846796   -1.241539    0.344881
      5          1           0        1.237547    0.049415    1.499023
      6         17           0        2.960666   -0.277849   -0.080589
      7         17           0       -2.365831   -0.918614   -0.091149
      8          1           0        0.840938    1.765087   -0.308659
      9          1           0        0.443959    0.482538   -1.443985
     10          1           0       -2.085793    1.886991   -0.753693
     11          1           0       -1.529002    1.309381    1.538717
 ---------------------------------------------------------------------

 SCF Done:  E(RHF) =  -1287.51567669     A.U. after    2 cycles

 The electronic state is 1-A.
 Alpha  occ. eigenvalues -- -105.56475-105.55673 -69.58912 -11.32014 -11.25599
 Alpha  occ. eigenvalues --  -10.61475 -10.60465  -7.78360  -7.78059  -7.78052
 Alpha  occ. eigenvalues --   -7.77398  -7.77035  -7.77028  -6.25600  -4.01037
 Alpha  occ. eigenvalues --   -4.00873  -4.00868  -1.11950  -1.06079  -0.99560
 Alpha  occ. eigenvalues --   -0.86090  -0.73776  -0.67409  -0.59748  -0.58924
 Alpha  occ. eigenvalues --   -0.56657  -0.53668  -0.52921  -0.50503  -0.46703
 Alpha  occ. eigenvalues --   -0.46159  -0.44655  -0.43801
 Alpha virt. eigenvalues --    0.03199   0.04081   0.04286   0.04838   0.06601
 Alpha virt. eigenvalues --    0.07234   0.07677   0.07845   0.09496   0.10346
 Alpha virt. eigenvalues --    0.12142   0.13078   0.13894   0.13935   0.14816

 Mulliken charges:
               1
     1  Si   1.285847
     2  C   -0.525498
     3  C   -0.529528
     4  H    0.219570
     5  H    0.202149
     6  Cl  -0.120745
     7  Cl  -0.576574
     8  H    0.148829
     9  H    0.181819
    10  H   -0.150328
    11  H   -0.135542
 Sum of Mulliken charges =  -0.00000

 Dipole moment (field-independent basis, Debye):
    X=             -1.0072    Y=              1.7078    Z=              0.4947  Tot=              2.0434

 Test job not archived.
 1\1\GINC-SE368\SP\RHF\Aug-CC-pVDZ\C2H6Cl2Si1\OHZDE\08-Apr-2025\0\\#t h
 f aug-cc-pvdz iop(5/13=1,5/36=2,99/5=2) pseudo=read geom=check guess=(
 read,tcheck) scf=(maxcycle=1)\\title\\0,1\Si,0,-1.39866,0.918018,0.120
 927\C,0,0.406661,0.76096,-0.386286\C,0,1.212439,-0.221672,0.444666\H,0
 ,0.846796,-1.241539,0.344881\H,0,1.237547,0.049415,1.499023\Cl,0,2.960
 666,-0.277849,-0.080589\Cl,0,-2.365831,-0.918614,-0.091149\H,0,0.84093
 8,1.765087,-0.308659\H,0,0.443959,0.482538,-1.443985\H,0,-2.085793,1.8
 86991,-0.753693\H,0,-1.529002,1.309381,1.538717\\Version=ES64L-G16RevC

 Normal termination of Gaussian 16 at Tue Apr  8 23:45:22 2025.
