 Gaussian 16, Revision C.01,

 ----------------------------------------------------------------------
 #t hf aug-cc-pvdz symm=none int=(grid=ultrafine) guess=(read,tcheck) s
 table=(opt,rrhf)
 ----------------------------------------------------------------------
 -----
 title
 -----
 Symbolic Z-matrix:
 Charge =  0 Multiplicity = 1

 SCF Done:  E(RHF) =  -212.778038649     A.U. after   12 cycles
 Normal termination of Gaussian 16 at Tue Apr  8 23:00:35 2025.
 Gaussian 16:  ES64L-G16RevC.01  3-Jul-2019

 ----------------------------------------------------------------------
 #t hf aug-cc-pvdz iop(5/13=1,5/36=2,99/5=2) pseudo=read geom=check gue
 ss=(read,tcheck) scf=(maxcycle=1)
 ----------------------------------------------------------------------
 -----
 title
 -----
 Structure from the checkpoint file:  "BDE49_expt_202_mol1.chk"
 Charge =  0 Multiplicity = 1

                         Standard orientation:
 ---------------------------------------------------------------------
 Center     Atomic      Atomic             Coordinates (Angstroms)
 Number     Number       Type             X           Y           Z
 ---------------------------------------------------------------------
      1          6           0       -0.131304    0.377651    0.000096
      2          8           0       -1.128364   -0.247492   -0.000037
      3          9           0        1.092177   -0.194796   -0.000032
      4          1           0       -0.014859    1.467194    0.000002
 ---------------------------------------------------------------------

 SCF Done:  E(RHF) =  -212.976761017     A.U. after    2 cycles

 The electronic state is 1-A.
 Alpha  occ. eigenvalues --  -26.51067 -20.59400 -11.45179  -1.65276  -1.53032
 Alpha  occ. eigenvalues --   -0.91014  -0.78841  -0.72938  -0.71119  -0.62489
 Alpha  occ. eigenvalues --   -0.55374  -0.50409
 Alpha virt. eigenvalues --    0.03311   0.07666   0.08932   0.09047   0.13875
 Alpha virt. eigenvalues --    0.15138   0.21573   0.22929   0.24968   0.25464
 Alpha virt. eigenvalues --    0.29854   0.30397   0.32868   0.33774   0.38884

 Mulliken charges:
               1
     1  C    1.275121
     2  O   -0.819369
     3  F   -0.585567
     4  H    0.129814
 Sum of Mulliken charges =  -0.00000

 Dipole moment (field-independent basis, Debye):
    X=              0.8095    Y=              2.1797    Z=              0.0003  Tot=              2.3251

 Test job not archived.
 1\1\GINC-SE340\SP\RHF\Aug-CC-pVDZ\C1H1F1O1\OHZDE\08-Apr-2025\0\\#t hf
 aug-cc-pvdz iop(5/13=1,5/36=2,99/5=2) pseudo=read geom=check guess=(re
 ad,tcheck) scf=(maxcycle=1)\\title\\0,1\C,0,-0.131304,0.377651,0.00009
 6\O,0,-1.128364,-0.247492,-0.000037\F,0,1.092177,-0.194796,-0.000032\H
 ,0,-0.014859,1.467194,0.000002\\Version=ES64L-G16RevC.01\State=1-A\HF=
 -212.976761\RMSD=7.330e-03\Dipole=0.3184766,0.8575546,0.0001123\Quadru
 pole=-2.3902036,1.54222,0.8479837,-0.2405351,-0.0000111,-0.0000354\PG=
 C01 [X(C1H1F1O1)]\\@

 Normal termination of Gaussian 16 at Tue Apr  8 23:00:36 2025.
