 Gaussian 16, Revision C.01,

 ----------------------------------------------------------------------
 #t hf aug-cc-pvdz symm=none int=(grid=ultrafine) guess=(read,tcheck) s
 table=(opt,rrhf)
 ----------------------------------------------------------------------
 -----
 title
 -----
 Symbolic Z-matrix:
 Charge =  0 Multiplicity = 1

 SCF Done:  E(RHF) =  -392.095135277     A.U. after   13 cycles
 Normal termination of Gaussian 16 at Wed Apr  9 00:32:48 2025.
 Gaussian 16:  ES64L-G16RevC.01  3-Jul-2019

 ----------------------------------------------------------------------
 #t hf aug-cc-pvdz iop(5/13=1,5/36=2,99/5=2) pseudo=read geom=check gue
 ss=(read,tcheck) scf=(maxcycle=1)
 ----------------------------------------------------------------------
 -----
 title
 -----
 Structure from the checkpoint file:  "BDE49_nonexpt_389_mol1.chk"
 Charge =  0 Multiplicity = 1

                         Standard orientation:
 ---------------------------------------------------------------------
 Center     Atomic      Atomic             Coordinates (Angstroms)
 Number     Number       Type             X           Y           Z
 ---------------------------------------------------------------------
      1          9           0       -1.596647   -1.002804    0.000099
      2          9           0       -1.289988    1.239612   -0.000024
      3          5           0       -0.771698    0.016227   -0.000091
      4          6           0        0.812814   -0.195166   -0.000068
      5          8           0        1.307425   -1.310429    0.000008
      6          7           0        1.547857    0.955211    0.000008
      7          1           0        1.111594    1.862309    0.000005
      8          1           0        2.555324    0.893239    0.000070
 ---------------------------------------------------------------------

 SCF Done:  E(RHF) =  -392.463648836     A.U. after    2 cycles

 The electronic state is 1-A.
 Alpha  occ. eigenvalues --  -26.50804 -26.49897 -20.53566 -15.54890 -11.36762
 Alpha  occ. eigenvalues --   -7.75030  -1.65605  -1.61645  -1.47450  -1.23898
 Alpha  occ. eigenvalues --   -0.90428  -0.82694  -0.80102  -0.77083  -0.73218
 Alpha  occ. eigenvalues --   -0.71809  -0.67235  -0.65485  -0.64666  -0.60382
 Alpha  occ. eigenvalues --   -0.60221  -0.45178  -0.44016
 Alpha virt. eigenvalues --    0.02700   0.04493   0.04980   0.05717   0.06674
 Alpha virt. eigenvalues --    0.06988   0.07737   0.12026   0.13673   0.14083
 Alpha virt. eigenvalues --    0.16923   0.17396   0.18700   0.19701   0.22012

 Mulliken charges:
               1
     1  F   -0.710083
     2  F   -0.665631
     3  B    1.545318
     4  C    0.385351
     5  O   -1.120576
     6  N    0.453577
     7  H    0.020795
     8  H    0.091248
 Sum of Mulliken charges =  -0.00000

 Dipole moment (field-independent basis, Debye):
    X=              0.5265    Y=              3.4832    Z=             -0.0004  Tot=              3.5228

 Test job not archived.
 1\1\GINC-SE141\SP\RHF\Aug-CC-pVDZ\C1H2B1F2N1O1\OHZDE\09-Apr-2025\0\\#t
  hf aug-cc-pvdz iop(5/13=1,5/36=2,99/5=2) pseudo=read geom=check guess
 =(read,tcheck) scf=(maxcycle=1)\\title\\0,1\F,0,-1.596647,-1.002804,0.
 000099\F,0,-1.289988,1.239612,-0.000024\B,0,-0.771698,0.016227,-0.0000
 91\C,0,0.812814,-0.195166,-0.000068\O,0,1.307425,-1.310429,0.000008\N,
 0,1.547857,0.955211,0.000008\H,0,1.111594,1.862309,0.000005\H,0,2.5553
 24,0.893239,0.00007\\Version=ES64L-G16RevC.01\State=1-A\HF=-392.463648
 8\RMSD=1.097e-02\Dipole=0.2071392,1.3703988,-0.0001684\Quadrupole=0.55

 Normal termination of Gaussian 16 at Wed Apr  9 00:32:54 2025.
