 Gaussian 16, Revision C.01,

 ----------------------------------------------------------------------
 #t hf aug-cc-pvdz symm=none int=(grid=ultrafine) guess=(read,tcheck) s
 table=(opt,rrhf)
 ----------------------------------------------------------------------
 -----
 title
 -----
 Symbolic Z-matrix:
 Charge =  0 Multiplicity = 1

 SCF Done:  E(RHF) =  -724.050155022     A.U. after   16 cycles
 Normal termination of Gaussian 16 at Tue Apr  8 23:20:58 2025.
 Gaussian 16:  ES64L-G16RevC.01  3-Jul-2019

 ----------------------------------------------------------------------
 #t hf aug-cc-pvdz iop(5/13=1,5/36=2,99/5=2) pseudo=read geom=check gue
 ss=(read,tcheck) scf=(maxcycle=1)
 ----------------------------------------------------------------------
 -----
 title
 -----
 Structure from the checkpoint file:  "BDE49_nonexpt_1150_mol1.chk"
 Charge =  0 Multiplicity = 1

                         Standard orientation:
 ---------------------------------------------------------------------
 Center     Atomic      Atomic             Coordinates (Angstroms)
 Number     Number       Type             X           Y           Z
 ---------------------------------------------------------------------
      1          9           0       -2.340673    0.188614   -0.000005
      2          8           0       -1.213376   -0.801128   -0.000001
      3          6           0       -0.021721   -0.193367    0.000010
      4         16           0        1.232772   -1.248002   -0.000005
      5          8           0       -0.059420    1.111061    0.000008
      6          6           0        1.199376    1.823204    0.000002
      7          1           0        0.919398    2.872971    0.000002
      8          1           0        1.769371    1.569518   -0.893358
      9          1           0        1.769376    1.569520    0.893360
 ---------------------------------------------------------------------

 SCF Done:  E(RHF) =  -724.420597516     A.U. after    2 cycles

 The electronic state is 1-A.
 Alpha  occ. eigenvalues --  -93.94121 -26.53786 -20.73854 -20.65089 -11.47427
 Alpha  occ. eigenvalues --  -11.33425  -8.22452  -6.20321  -6.19963  -6.19870
 Alpha  occ. eigenvalues --   -1.68664  -1.58223  -1.44613  -1.07524  -1.02110
 Alpha  occ. eigenvalues --   -0.84345  -0.79085  -0.75095  -0.71445  -0.69039
 Alpha  occ. eigenvalues --   -0.65879  -0.61713  -0.61051  -0.60431  -0.54407
 Alpha  occ. eigenvalues --   -0.53450  -0.39457  -0.38235
 Alpha virt. eigenvalues --    0.03001   0.04912   0.05297   0.07310   0.08028
 Alpha virt. eigenvalues --    0.08268   0.09693   0.11423   0.12151   0.13168
 Alpha virt. eigenvalues --    0.13338   0.15111   0.16213   0.17088   0.17477

 Mulliken charges:
               1
     1  F   -0.286903
     2  O   -0.516878
     3  C    1.137396
     4  S    0.095454
     5  O   -1.122585
     6  C    0.237873
     7  H    0.032837
     8  H    0.211403
     9  H    0.211403
 Sum of Mulliken charges =   0.00000

 Dipole moment (field-independent basis, Debye):
    X=              1.3347    Y=              3.2765    Z=              0.0000  Tot=              3.5379

 Test job not archived.
 1\1\GINC-SE165\SP\RHF\Aug-CC-pVDZ\C2H3F1O2S1\OHZDE\08-Apr-2025\0\\#t h
 f aug-cc-pvdz iop(5/13=1,5/36=2,99/5=2) pseudo=read geom=check guess=(
 read,tcheck) scf=(maxcycle=1)\\title\\0,1\F,0,-2.340673,0.188614,-0.00
 0005\O,0,-1.213376,-0.801128,-0.000001\C,0,-0.021721,-0.193367,0.00001
 \S,0,1.232772,-1.248002,-0.000005\O,0,-0.05942,1.111061,0.000008\C,0,1
 .199376,1.823204,0.000002\H,0,0.919398,2.872971,0.000002\H,0,1.769371,
 1.569518,-0.893358\H,0,1.769376,1.56952,0.89336\\Version=ES64L-G16RevC
 .01\State=1-A\HF=-724.4205975\RMSD=6.504e-03\Dipole=0.5251063,1.289070

 Normal termination of Gaussian 16 at Tue Apr  8 23:21:01 2025.
