 Gaussian 16, Revision C.01,

 ----------------------------------------------------------------------
 #t hf aug-cc-pvdz symm=none int=(grid=ultrafine) guess=(read,tcheck) s
 table=(opt,rrhf)
 ----------------------------------------------------------------------
 -----
 title
 -----
 Symbolic Z-matrix:
 Charge =  0 Multiplicity = 1

 SCF Done:  E(RHF) =  -2166.01968058     A.U. after   12 cycles
 Normal termination of Gaussian 16 at Tue Apr  8 23:46:18 2025.
 Gaussian 16:  ES64L-G16RevC.01  3-Jul-2019

 ----------------------------------------------------------------------
 #t hf aug-cc-pvdz iop(5/13=1,5/36=2,99/5=2) pseudo=read geom=check gue
 ss=(read,tcheck) scf=(maxcycle=1)
 ----------------------------------------------------------------------
 -----
 title
 -----
 Structure from the checkpoint file:  "BDE49_nonexpt_1767_mol1.chk"
 Charge =  0 Multiplicity = 1

                         Standard orientation:
 ---------------------------------------------------------------------
 Center     Atomic      Atomic             Coordinates (Angstroms)
 Number     Number       Type             X           Y           Z
 ---------------------------------------------------------------------
      1         14           0       -0.958728    1.076893   -0.000000
      2          6           0        0.603244   -0.032326   -0.000000
      3         17           0       -2.657084   -0.093272    0.000001
      4         17           0        2.002123    1.115188   -0.000001
      5         17           0        0.670130   -1.059097   -1.469100
      6         17           0        0.670131   -1.059095    1.469101
      7          1           0       -0.923681    1.877066   -1.232008
      8          1           0       -0.923680    1.877067    1.232006
 ---------------------------------------------------------------------

 SCF Done:  E(RHF) =  -2166.39447049     A.U. after    2 cycles

 The electronic state is 1-A.
 Alpha  occ. eigenvalues -- -105.60554-105.60321-105.60320-105.57783 -69.61577
 Alpha  occ. eigenvalues --  -11.43950 -10.65336 -10.65119 -10.65109 -10.62801
 Alpha  occ. eigenvalues --   -7.82275  -7.82062  -7.82060  -7.81865  -7.81854
 Alpha  occ. eigenvalues --   -7.81636  -7.81633  -7.81630  -7.81630  -7.79690
 Alpha  occ. eigenvalues --   -7.79372  -7.79359  -6.28143  -4.03574  -4.03438
 Alpha  occ. eigenvalues --   -4.03390  -1.20999  -1.07771  -1.07398  -1.07205
 Alpha  occ. eigenvalues --   -0.86738  -0.75070  -0.64372  -0.64141  -0.62599
 Alpha  occ. eigenvalues --   -0.56298  -0.55901  -0.51921  -0.51886  -0.49870
 Alpha  occ. eigenvalues --   -0.48124  -0.47861  -0.47513  -0.46627  -0.44651
 Alpha virt. eigenvalues --    0.03800   0.05165   0.05457   0.05870   0.07614
 Alpha virt. eigenvalues --    0.07983   0.09066   0.10206   0.10943   0.12326
 Alpha virt. eigenvalues --    0.12743   0.13821   0.13910   0.14835   0.15653

 Mulliken charges:
               1
     1  Si   1.515797
     2  C   -0.984725
     3  Cl  -0.534812
     4  Cl   0.060646
     5  Cl   0.070803
     6  Cl   0.070803
     7  H   -0.099256
     8  H   -0.099255
 Sum of Mulliken charges =  -0.00000

 Dipole moment (field-independent basis, Debye):
    X=             -0.1519    Y=              1.4574    Z=              0.0000  Tot=              1.4653

 Test job not archived.
 1\1\GINC-SE284\SP\RHF\Aug-CC-pVDZ\C1H2Cl4Si1\OHZDE\08-Apr-2025\0\\#t h
 f aug-cc-pvdz iop(5/13=1,5/36=2,99/5=2) pseudo=read geom=check guess=(
 read,tcheck) scf=(maxcycle=1)\\title\\0,1\Si,0,-0.958728,1.076893,0.\C
 ,0,0.603244,-0.032326,0.\Cl,0,-2.657084,-0.093272,0.000001\Cl,0,2.0021
 23,1.115188,-0.000001\Cl,0,0.67013,-1.059097,-1.4691\Cl,0,0.670131,-1.
 059095,1.469101\H,0,-0.923681,1.877066,-1.232008\H,0,-0.92368,1.877067
 ,1.232006\\Version=ES64L-G16RevC.01\State=1-A\HF=-2166.3944705\RMSD=3.
 900e-03\Dipole=-0.0597561,0.5733761,0.0000005\Quadrupole=-2.2076058,1.

 Normal termination of Gaussian 16 at Tue Apr  8 23:46:21 2025.
