 Gaussian 16, Revision C.01,

 ----------------------------------------------------------------------
 #t hf aug-cc-pvdz symm=none int=(grid=ultrafine) guess=(read,tcheck) s
 table=(opt,rrhf)
 ----------------------------------------------------------------------
 -----
 title
 -----
 Symbolic Z-matrix:
 Charge =  0 Multiplicity = 1

 SCF Done:  E(RHF) =  -247.051561758     A.U. after   13 cycles
 Normal termination of Gaussian 16 at Tue Apr  8 22:37:28 2025.
 Gaussian 16:  ES64L-G16RevC.01  3-Jul-2019

 ----------------------------------------------------------------------
 #t hf aug-cc-pvdz iop(5/13=1,5/36=2,99/5=2) pseudo=read geom=check gue
 ss=(read,tcheck) scf=(maxcycle=1)
 ----------------------------------------------------------------------
 -----
 title
 -----
 Structure from the checkpoint file:  "BDE49_expt_1205_mol1.chk"
 Charge =  0 Multiplicity = 1

                         Standard orientation:
 ---------------------------------------------------------------------
 Center     Atomic      Atomic             Coordinates (Angstroms)
 Number     Number       Type             X           Y           Z
 ---------------------------------------------------------------------
      1          6           0       -0.563431    0.138687    0.034691
      2          8           0       -0.535373    1.353985    0.068805
      3          7           0       -1.729807   -0.558519   -0.123110
      4          6           0        0.687847   -0.728208    0.178350
      5          1           0       -2.594578   -0.041452   -0.134093
      6          1           0       -1.764364   -1.562870   -0.089646
      7          6           0        1.970524    0.037097   -0.139799
      8          1           0        0.594192   -1.617980   -0.453688
      9          1           0        0.710153   -1.088909    1.214312
     10          1           0        2.002737    0.329206   -1.191945
     11          1           0        2.849964   -0.575503    0.072531
     12          1           0        2.023891    0.949807    0.454406
 ---------------------------------------------------------------------

 SCF Done:  E(RHF) =  -247.309091713     A.U. after    2 cycles

 The electronic state is 1-A.
 Alpha  occ. eigenvalues --  -20.50677 -15.52652 -11.35750 -11.25140 -11.22752
 Alpha  occ. eigenvalues --   -1.45585  -1.21970  -1.05299  -0.90100  -0.81141
 Alpha  occ. eigenvalues --   -0.75024  -0.68670  -0.64274  -0.60832  -0.57071
 Alpha  occ. eigenvalues --   -0.53657  -0.52312  -0.50124  -0.43536  -0.42008
 Alpha virt. eigenvalues --    0.02622   0.04042   0.04683   0.05148   0.06413
 Alpha virt. eigenvalues --    0.06916   0.08080   0.11571   0.12005   0.12323
 Alpha virt. eigenvalues --    0.13552   0.14345   0.16115   0.16871   0.17243

 Mulliken charges:
               1
     1  C    0.379074
     2  O   -1.260320
     3  N    0.646731
     4  C   -0.434785
     5  H    0.077499
     6  H    0.025487
     7  C   -0.301118
     8  H    0.175110
     9  H    0.232164
    10  H    0.150389
    11  H    0.124321
    12  H    0.185449
 Sum of Mulliken charges =  -0.00000

 Dipole moment (field-independent basis, Debye):
    X=             -0.5215    Y=             -3.7116    Z=              0.0980  Tot=              3.7493

 Test job not archived.
 1\1\GINC-SE071\SP\RHF\Aug-CC-pVDZ\C3H7N1O1\OHZDE\08-Apr-2025\0\\#t hf
 aug-cc-pvdz iop(5/13=1,5/36=2,99/5=2) pseudo=read geom=check guess=(re
 ad,tcheck) scf=(maxcycle=1)\\title\\0,1\C,0,-0.563431,0.138687,0.03469
 1\O,0,-0.535373,1.353985,0.068805\N,0,-1.729807,-0.558519,-0.12311\C,0
 ,0.687847,-0.728208,0.17835\H,0,-2.594578,-0.041451,-0.134093\H,0,-1.7
 64364,-1.56287,-0.089646\C,0,1.970524,0.037097,-0.139799\H,0,0.594192,
 -1.61798,-0.453688\H,0,0.710153,-1.088909,1.214312\H,0,2.002737,0.3292
 06,-1.191945\H,0,2.849964,-0.575504,0.072531\H,0,2.023891,0.949807,0.4

 Normal termination of Gaussian 16 at Tue Apr  8 22:37:31 2025.
