 Gaussian 16, Revision C.01,

 ----------------------------------------------------------------------
 #t hf aug-cc-pvdz symm=none int=(grid=ultrafine) guess=(read,tcheck) s
 table=(opt,rrhf)
 ----------------------------------------------------------------------
 -----
 title
 -----
 Symbolic Z-matrix:
 Charge =  0 Multiplicity = 1

 SCF Done:  E(RHF) =  -986.582927623     A.U. after   13 cycles
 Normal termination of Gaussian 16 at Tue Apr  8 23:40:47 2025.
 Gaussian 16:  ES64L-G16RevC.01  3-Jul-2019

 ----------------------------------------------------------------------
 #t hf aug-cc-pvdz iop(5/13=1,5/36=2,99/5=2) pseudo=read geom=check gue
 ss=(read,tcheck) scf=(maxcycle=1)
 ----------------------------------------------------------------------
 -----
 title
 -----
 Structure from the checkpoint file:  "BDE49_nonexpt_1627_mol1.chk"
 Charge =  0 Multiplicity = 1

                         Standard orientation:
 ---------------------------------------------------------------------
 Center     Atomic      Atomic             Coordinates (Angstroms)
 Number     Number       Type             X           Y           Z
 ---------------------------------------------------------------------
      1         15           0        1.160247   -0.010825   -0.719248
      2         15           0       -0.919160    0.135437   -0.022174
      3          6           0        1.854094    1.402927    0.269097
      4          6           0        1.730060   -1.475928    0.274032
      5          1           0        1.682519    1.291113    1.341181
      6          1           0        1.394570    2.331170   -0.074465
      7          1           0        2.928463    1.460995    0.078650
      8          8           0       -1.609538    1.380481   -0.398330
      9          8           0       -1.644435   -1.202843   -0.583985
     10          1           0        1.224391   -2.371677   -0.090928
     11          1           0        1.534785   -1.363402    1.341036
     12          1           0        2.803265   -1.601483    0.109195
     13          1           0       -2.104012   -1.019463   -1.412918
     14          8           0       -0.857663   -0.196649    1.553322
     15          1           0       -1.692130   -0.006340    2.002743
 ---------------------------------------------------------------------

 SCF Done:  E(RHF) =  -986.985591961     A.U. after    2 cycles

 The electronic state is 1-A.
 Alpha  occ. eigenvalues --  -84.42288 -84.28635 -20.59330 -20.58934 -20.50120
 Alpha  occ. eigenvalues --  -11.24955 -11.24893  -6.87633  -6.75806  -4.41672
 Alpha  occ. eigenvalues --   -4.40964  -4.39953  -4.28152  -4.28138  -4.27480
 Alpha  occ. eigenvalues --   -1.52829  -1.46946  -1.38335  -1.03013  -0.95404
 Alpha  occ. eigenvalues --   -0.86898  -0.75864  -0.72767  -0.66606  -0.63455
 Alpha  occ. eigenvalues --   -0.61073  -0.60153  -0.58014  -0.57729  -0.57168
 Alpha  occ. eigenvalues --   -0.54870  -0.53928  -0.48720  -0.46664  -0.45338
 Alpha  occ. eigenvalues --   -0.41202  -0.33642
 Alpha virt. eigenvalues --    0.03465   0.03953   0.04389   0.04931   0.06218
 Alpha virt. eigenvalues --    0.06585   0.07231   0.07800   0.08411   0.10966
 Alpha virt. eigenvalues --    0.11500   0.12185   0.12654   0.14410   0.14647

 Mulliken charges:
               1
     1  P    0.651597
     2  P    3.698522
     3  C   -0.812502
     4  C   -0.784700
     5  H    0.143283
     6  H    0.125969
     7  H    0.099201
     8  O   -1.497159
     9  O   -1.313593
    10  H    0.095630
    11  H    0.178486
    12  H    0.101543
    13  H    0.331032
    14  O   -1.335383
    15  H    0.318075
 Sum of Mulliken charges =  -0.00000

 Dipole moment (field-independent basis, Debye):
    X=              1.4494    Y=             -1.9388    Z=              0.9885  Tot=              2.6147

 Test job not archived.
 1\1\GINC-SE165\SP\RHF\Aug-CC-pVDZ\C2H8O3P2\OHZDE\08-Apr-2025\0\\#t hf
 aug-cc-pvdz iop(5/13=1,5/36=2,99/5=2) pseudo=read geom=check guess=(re
 ad,tcheck) scf=(maxcycle=1)\\title\\0,1\P,0,1.160247,-0.010825,-0.7192
 48\P,0,-0.91916,0.135437,-0.022174\C,0,1.854094,1.402927,0.269097\C,0,
 1.73006,-1.475928,0.274032\H,0,1.682519,1.291113,1.341181\H,0,1.394569
 ,2.33117,-0.074465\H,0,2.928463,1.460996,0.07865\O,0,-1.609538,1.38048
 1,-0.39833\O,0,-1.644435,-1.202843,-0.583985\H,0,1.224391,-2.371677,-0
 .090928\H,0,1.534785,-1.363402,1.341036\H,0,2.803265,-1.601482,0.10919

 Normal termination of Gaussian 16 at Tue Apr  8 23:40:54 2025.
