 Gaussian 16, Revision C.01,

 ----------------------------------------------------------------------
 #t hf aug-cc-pvdz symm=none int=(grid=ultrafine) guess=(read,tcheck) s
 table=opt
 ----------------------------------------------------------------------
 -----
 title
 -----
 Symbolic Z-matrix:
 Charge =  0 Multiplicity = 2

 SCF Done:  E(UHF) =  -218.829678738     A.U. after   15 cycles
 Normal termination of Gaussian 16 at Wed Apr  9 00:30:44 2025.
 Gaussian 16:  ES64L-G16RevC.01  3-Jul-2019

 ----------------------------------------------------------------------
 #t hf aug-cc-pvdz iop(5/13=1,5/36=2,99/5=2) pseudo=read geom=check gue
 ss=(read,tcheck) scf=(maxcycle=1)
 ----------------------------------------------------------------------
 -----
 title
 -----
 Structure from the checkpoint file:  "BDE49_nonexpt_352_mol2.chk"
 Charge =  0 Multiplicity = 2

                         Standard orientation:
 ---------------------------------------------------------------------
 Center     Atomic      Atomic             Coordinates (Angstroms)
 Number     Number       Type             X           Y           Z
 ---------------------------------------------------------------------
      1          9           0       -1.557625   -0.449655    0.000000
      2          7           0        0.550585    0.673116    0.000000
      3          5           0       -0.836145    0.675679    0.000000
      4          6           0        1.407246   -0.517029    0.000000
      5          1           0        1.038014    1.555705    0.000000
      6          1           0        0.773925   -1.403262   -0.000001
      7          1           0        2.044917   -0.546788    0.888515
      8          1           0        2.044917   -0.546787   -0.888515
 ---------------------------------------------------------------------

 SCF Done:  E(UHF) =  -219.041742099     A.U. after    2 cycles

 The electronic state is 2-A.
 Alpha  occ. eigenvalues --  -26.45662 -15.50654 -11.27590  -7.66673  -1.58636
 Alpha  occ. eigenvalues --   -1.20596  -0.94547  -0.78966  -0.72190  -0.66828
 Alpha  occ. eigenvalues --   -0.65097  -0.63497  -0.61183  -0.56010  -0.44431
 Alpha  occ. eigenvalues --   -0.36281
 Alpha virt. eigenvalues --    0.03211   0.04907   0.05082   0.05963   0.06689
 Alpha virt. eigenvalues --    0.06835   0.07419   0.10268   0.14027   0.14997
 Alpha virt. eigenvalues --    0.15050   0.16119   0.17233   0.18995   0.20065

  Beta  occ. eigenvalues --  -26.45316 -15.50660 -11.27464  -7.64572  -1.57652
  Beta  occ. eigenvalues --   -1.20252  -0.93755  -0.77974  -0.70149  -0.65440
  Beta  occ. eigenvalues --   -0.64801  -0.61549  -0.61398  -0.55808  -0.45161
  Beta virt. eigenvalues --    0.02990   0.04602   0.04997   0.05689   0.06872
  Beta virt. eigenvalues --    0.06875   0.07393   0.08464   0.13550   0.14287
  Beta virt. eigenvalues --    0.15077   0.16039   0.17437   0.19078   0.20041

 Mulliken charges and spin densities:
               1          2
     1  F   -0.509860  -0.007973
     2  N    0.298242  -0.034236
     3  B    0.334808   1.058178
     4  C   -0.457142  -0.001234
     5  H    0.040749  -0.000036
     6  H    0.052978  -0.009327
     7  H    0.120113  -0.002687
     8  H    0.120113  -0.002687
 Sum of Mulliken charges =  -0.00000   1.00000

 Dipole moment (field-independent basis, Debye):
    X=              2.4452    Y=              0.2160    Z=             -0.0000  Tot=              2.4547
                          Isotropic Fermi Contact Couplings
        Atom                 a.u.       MegaHertz       Gauss      10(-4) cm-1
     1  F(19)              0.08660     364.35451     130.01075     121.53558
     2  N(14)              0.08722      28.17986      10.05528       9.39979
     3  B(11)              0.42018     602.69108     215.05516     201.03610
     4  C(13)              0.01940      21.81037       7.78248       7.27516
     5  H(1)               0.00242      10.80631       3.85596       3.60460
     6  H(1)              -0.00081      -3.63585      -1.29736      -1.21279
     7  H(1)              -0.00100      -4.48343      -1.59980      -1.49551
     8  H(1)              -0.00100      -4.48343      -1.59980      -1.49551

 Normal termination of Gaussian 16 at Wed Apr  9 00:30:47 2025.
