 Gaussian 16, Revision C.01,

 ----------------------------------------------------------------------
 #t hf aug-cc-pvdz symm=none int=(grid=ultrafine) guess=(read,tcheck) s
 table=opt
 ----------------------------------------------------------------------
 -----
 title
 -----
 Symbolic Z-matrix:
 Charge =  0 Multiplicity = 2

 SCF Done:  E(UHF) =  -517.349705849     A.U. after   17 cycles
 Normal termination of Gaussian 16 at Wed Apr  9 00:10:41 2025.
 Gaussian 16:  ES64L-G16RevC.01  3-Jul-2019

 ----------------------------------------------------------------------
 #t hf aug-cc-pvdz iop(5/13=1,5/36=2,99/5=2) pseudo=read geom=check gue
 ss=(read,tcheck) scf=(maxcycle=1)
 ----------------------------------------------------------------------
 -----
 title
 -----
 Structure from the checkpoint file:  "BDE49_nonexpt_2362_mol2.chk"
 Charge =  0 Multiplicity = 2

                         Standard orientation:
 ---------------------------------------------------------------------
 Center     Atomic      Atomic             Coordinates (Angstroms)
 Number     Number       Type             X           Y           Z
 ---------------------------------------------------------------------
      1         14           0       -1.815464   -0.176871    0.000071
      2          8           0       -0.198722   -0.683119   -0.000068
      3          1           0       -2.113104    0.596055    1.230482
      4          1           0       -2.113330    0.595993   -1.230324
      5          6           0        0.853965    0.185706   -0.000195
      6          8           0        0.699125    1.377836    0.000024
      7          6           0        2.174385   -0.535642    0.000026
      8          1           0        2.240495   -1.180019    0.879517
      9          1           0        2.988346    0.186039    0.000166
     10          1           0        2.240770   -1.179999   -0.879456
 ---------------------------------------------------------------------

 SCF Done:  E(UHF) =  -517.603805010     A.U. after    2 cycles

 The electronic state is 2-A.
 Alpha  occ. eigenvalues --  -69.58317 -20.58047 -20.54408 -11.40308 -11.25858
 Alpha  occ. eigenvalues --   -6.24920  -4.00823  -4.00069  -3.99885  -1.53603
 Alpha  occ. eigenvalues --   -1.44832  -1.03328  -0.84372  -0.72768  -0.69547
 Alpha  occ. eigenvalues --   -0.66218  -0.65734  -0.58595  -0.57376  -0.53276
 Alpha  occ. eigenvalues --   -0.51084  -0.46757  -0.45147  -0.35618
 Alpha virt. eigenvalues --    0.03356   0.04141   0.04929   0.05326   0.06668
 Alpha virt. eigenvalues --    0.07029   0.07281   0.09442   0.11167   0.13193
 Alpha virt. eigenvalues --    0.13584   0.14366   0.14705   0.15441   0.15586

  Beta  occ. eigenvalues --  -69.57737 -20.57935 -20.54436 -11.40222 -11.25858
  Beta  occ. eigenvalues --   -6.24013  -3.99688  -3.99511  -3.98672  -1.53442
  Beta  occ. eigenvalues --   -1.44686  -1.03211  -0.82842  -0.71370  -0.69042
  Beta  occ. eigenvalues --   -0.65628  -0.64283  -0.58470  -0.57165  -0.52653
  Beta  occ. eigenvalues --   -0.50384  -0.46230  -0.45105
  Beta virt. eigenvalues --    0.02230   0.03689   0.04687   0.04981   0.05594
  Beta virt. eigenvalues --    0.06827   0.07119   0.08853   0.09731   0.11295
  Beta virt. eigenvalues --    0.13453   0.13618   0.14830   0.15377   0.15761

 Mulliken charges and spin densities:
               1          2
     1  Si   1.122586   0.993950
     2  O   -1.549549  -0.106127
     3  H   -0.157844   0.047233
     4  H   -0.157861   0.047228
     5  C    1.868441   0.027516
     6  O   -1.135641  -0.008636
     7  C   -0.635783  -0.001944
     8  H    0.233164   0.000094
     9  H    0.179310   0.000592
    10  H    0.233177   0.000093
 Sum of Mulliken charges =  -0.00000   1.00000

 Dipole moment (field-independent basis, Debye):
    X=              0.4532    Y=             -1.9438    Z=             -0.0002  Tot=              1.9959
                          Isotropic Fermi Contact Couplings
        Atom                 a.u.       MegaHertz       Gauss      10(-4) cm-1
     1  Si(29)             0.70541    -626.91455    -223.69870    -209.11618
     2  O(17)              0.07323     -44.39411     -15.84092     -14.80828
     3  H(1)               0.01301      58.14643      20.74809      19.39556
     4  H(1)               0.01301      58.13891      20.74541      19.39305
     5  C(13)              0.01773      19.92643       7.11025       6.64674
     6  O(17)             -0.00106       0.64177       0.22900       0.21407
     7  C(13)             -0.00004      -0.04468      -0.01594      -0.01490
     8  H(1)               0.00004       0.16902       0.06031       0.05638

 Normal termination of Gaussian 16 at Wed Apr  9 00:10:45 2025.
