 Gaussian 16, Revision C.01,

 ----------------------------------------------------------------------
 #t hf aug-cc-pvdz symm=none int=(grid=ultrafine) guess=(read,tcheck) s
 table=opt
 ----------------------------------------------------------------------
 -----
 title
 -----
 Symbolic Z-matrix:
 Charge =  0 Multiplicity = 2

 SCF Done:  E(UHF) =  -474.083489417     A.U. after   15 cycles
 Normal termination of Gaussian 16 at Tue Apr  8 22:44:33 2025.
 Gaussian 16:  ES64L-G16RevC.01  3-Jul-2019

 ----------------------------------------------------------------------
 #t hf aug-cc-pvdz iop(5/13=1,5/36=2,99/5=2) pseudo=read geom=check gue
 ss=(read,tcheck) scf=(maxcycle=1)
 ----------------------------------------------------------------------
 -----
 title
 -----
 Structure from the checkpoint file:  "BDE49_expt_1512_mol2.chk"
 Charge =  0 Multiplicity = 2

                         Standard orientation:
 ---------------------------------------------------------------------
 Center     Atomic      Atomic             Coordinates (Angstroms)
 Number     Number       Type             X           Y           Z
 ---------------------------------------------------------------------
      1          6           0        0.932774    0.691373   -0.133747
      2          6           0       -0.387735    0.019858   -0.013636
      3          9           0        1.997953   -0.095117    0.002621
      4          1           0        1.070679    1.736011    0.109667
      5          9           0       -1.358776    0.902756   -0.316527
      6          9           0       -0.630245   -0.438277    1.239206
      7          9           0       -0.491256   -1.036406   -0.839230
 ---------------------------------------------------------------------

 SCF Done:  E(UHF) =  -474.516096551     A.U. after    2 cycles

 The electronic state is 2-A.
 Alpha  occ. eigenvalues --  -26.52437 -26.51978 -26.51950 -26.51682 -11.54213
 Alpha  occ. eigenvalues --  -11.38378  -1.72808  -1.65570  -1.63004  -1.62392
 Alpha  occ. eigenvalues --   -1.08592  -0.92695  -0.83405  -0.82922  -0.82436
 Alpha  occ. eigenvalues --   -0.75529  -0.73766  -0.69797  -0.69477  -0.67372
 Alpha  occ. eigenvalues --   -0.64952  -0.64733  -0.63296  -0.58106  -0.44236
 Alpha virt. eigenvalues --    0.03481   0.07785   0.08996   0.09284   0.11748
 Alpha virt. eigenvalues --    0.11751   0.12061   0.15579   0.20964   0.22212
 Alpha virt. eigenvalues --    0.22540   0.25902   0.27594   0.28295   0.30542

  Beta  occ. eigenvalues --  -26.52432 -26.51891 -26.51503 -26.51454 -11.54454
  Beta  occ. eigenvalues --  -11.35673  -1.72587  -1.64181  -1.62869  -1.61907
  Beta  occ. eigenvalues --   -1.04205  -0.90580  -0.82977  -0.81987  -0.81349
  Beta  occ. eigenvalues --   -0.74460  -0.69741  -0.69375  -0.67034  -0.66019
  Beta  occ. eigenvalues --   -0.64871  -0.64403  -0.63076  -0.57124
  Beta virt. eigenvalues --    0.03543   0.05493   0.07881   0.09095   0.11489
  Beta virt. eigenvalues --    0.11781   0.11921   0.13158   0.16090   0.21350
  Beta virt. eigenvalues --    0.22411   0.22853   0.26447   0.27787   0.29329

 Mulliken charges and spin densities:
               1          2
     1  C    0.305285   1.170177
     2  C    2.346902  -0.125564
     3  F   -0.664305   0.031644
     4  H    0.089652  -0.088072
     5  F   -0.706615   0.001922
     6  F   -0.685229   0.012540
     7  F   -0.685690  -0.002647
 Sum of Mulliken charges =  -0.00000   1.00000

 Dipole moment (field-independent basis, Debye):
    X=              0.7532    Y=              1.7094    Z=              0.0265  Tot=              1.8682
                          Isotropic Fermi Contact Couplings
        Atom                 a.u.       MegaHertz       Gauss      10(-4) cm-1
     1  C(13)              0.27521     309.38405     110.39592     103.19941
     2  C(13)             -0.04771     -53.63045     -19.13668     -17.88919
     3  F(19)              0.06294     264.81806      94.49367      88.33380
     4  H(1)              -0.02250    -100.58464     -35.89110     -33.55142
     5  F(19)             -0.00213      -8.94633      -3.19227      -2.98418
     6  F(19)              0.03677     154.72097      55.20829      51.60936
     7  F(19)              0.00841      35.37618      12.62310      11.80022
 --------------------------------------------------------

 Normal termination of Gaussian 16 at Tue Apr  8 22:44:35 2025.
