 Gaussian 16, Revision C.01,

 ----------------------------------------------------------------------
 #t hf aug-cc-pvdz symm=none int=(grid=ultrafine) guess=(read,tcheck) s
 table=(opt,rrhf)
 ----------------------------------------------------------------------
 -----
 title
 -----
 Symbolic Z-matrix:
 Charge =  0 Multiplicity = 1

 SCF Done:  E(RHF) =  -444.916570418     A.U. after   15 cycles
 Normal termination of Gaussian 16 at Wed Apr  9 00:31:04 2025.
 Gaussian 16:  ES64L-G16RevC.01  3-Jul-2019

 ----------------------------------------------------------------------
 #t hf aug-cc-pvdz iop(5/13=1,5/36=2,99/5=2) pseudo=read geom=check gue
 ss=(read,tcheck) scf=(maxcycle=1)
 ----------------------------------------------------------------------
 -----
 title
 -----
 Structure from the checkpoint file:  "BDE49_nonexpt_336_mol1.chk"
 Charge =  0 Multiplicity = 1

                         Standard orientation:
 ---------------------------------------------------------------------
 Center     Atomic      Atomic             Coordinates (Angstroms)
 Number     Number       Type             X           Y           Z
 ---------------------------------------------------------------------
      1          6           0       -2.377197    1.039505   -0.539367
      2          6           0       -1.067478    1.294776   -0.139772
      3          6           0       -2.946447   -0.213713   -0.323034
      4          6           0       -2.193596   -1.207607    0.297943
      5          6           0       -0.883245   -0.948402    0.696456
      6          6           0       -0.296155    0.308285    0.487261
      7          1           0       -0.636021    2.275850   -0.311025
      8          5           0        2.216436   -0.053602   -0.110436
      9          8           0        3.526792    0.278241    0.074618
     10          8           0        1.903732   -0.914495   -1.125183
     11          1           0       -2.955006    1.822612   -1.018027
     12          1           0       -2.627242   -2.185052    0.479054
     13          1           0       -3.966555   -0.412176   -0.631268
     14          1           0       -0.311426   -1.726722    1.193244
     15          6           0        1.138614    0.565753    0.879838
     16          1           0        1.338865    0.150053    1.875744
     17          1           0        1.328251    1.639848    0.971700
     18          1           0        0.956652   -1.079034   -1.193401
     19          1           0        4.099134   -0.158915   -0.565271
 ---------------------------------------------------------------------

 SCF Done:  E(RHF) =  -445.372270741     A.U. after    2 cycles

 The electronic state is 1-A.
 Alpha  occ. eigenvalues --  -20.55453 -20.55041 -11.25635 -11.24990 -11.24881
 Alpha  occ. eigenvalues --  -11.24442 -11.24373 -11.24309 -11.21989  -7.63536
 Alpha  occ. eigenvalues --   -1.47744  -1.43493  -1.16152  -1.05219  -1.02027
 Alpha  occ. eigenvalues --   -0.94406  -0.84024  -0.81771  -0.76132  -0.72792
 Alpha  occ. eigenvalues --   -0.70475  -0.65792  -0.64489  -0.63140  -0.60265
 Alpha  occ. eigenvalues --   -0.58293  -0.57783  -0.55413  -0.53574  -0.52377
 Alpha  occ. eigenvalues --   -0.50381  -0.50072  -0.48759  -0.48091  -0.35206
 Alpha  occ. eigenvalues --   -0.33873
 Alpha virt. eigenvalues --    0.03159   0.03376   0.03477   0.04500   0.04921
 Alpha virt. eigenvalues --    0.05095   0.06634   0.07578   0.07682   0.08183
 Alpha virt. eigenvalues --    0.08891   0.09691   0.09958   0.10473   0.11415

 Mulliken charges:
               1
     1  C    0.066065
     2  C    0.125672
     3  C    0.153494
     4  C   -0.017440
     5  C    0.421438
     6  C    1.008027
     7  H   -0.312031
     8  B    1.895528
     9  O   -1.394844
    10  O   -1.351654
    11  H   -0.230222
    12  H   -0.240872
    13  H   -0.213669
    14  H   -0.346556
    15  C   -0.823137
    16  H    0.069155
    17  H   -0.025791
    18  H    0.702011
    19  H    0.514824
 Sum of Mulliken charges =   0.00000

 Dipole moment (field-independent basis, Debye):
    X=             -1.1091    Y=             -0.3807    Z=             -0.3124  Tot=              1.2135

 Test job not archived.
 1\1\GINC-SE435\SP\RHF\Aug-CC-pVDZ\C7H9B1O2\OHZDE\09-Apr-2025\0\\#t hf
 aug-cc-pvdz iop(5/13=1,5/36=2,99/5=2) pseudo=read geom=check guess=(re
 ad,tcheck) scf=(maxcycle=1)\\title\\0,1\C,0,2.377197,1.039505,0.539367
 \C,0,1.067478,1.294776,0.139772\C,0,2.946447,-0.213713,0.323034\C,0,2.
 193596,-1.207607,-0.297943\C,0,0.883245,-0.948402,-0.696456\C,0,0.2961
 55,0.308285,-0.487261\H,0,0.636021,2.27585,0.311025\B,0,-2.216436,-0.0
 53602,0.110436\O,0,-3.526792,0.278241,-0.074618\O,0,-1.903732,-0.91449
 5,1.125183\H,0,2.955006,1.822612,1.018027\H,0,2.627242,-2.185052,-0.47

 Normal termination of Gaussian 16 at Wed Apr  9 00:31:13 2025.
