 Gaussian 16, Revision C.01,

 ----------------------------------------------------------------------
 #t hf aug-cc-pvdz symm=none int=(grid=ultrafine) guess=(read,tcheck) s
 table=(opt,rrhf)
 ----------------------------------------------------------------------
 -----
 title
 -----
 Symbolic Z-matrix:
 Charge =  0 Multiplicity = 1

 SCF Done:  E(RHF) =  -575.606579107     A.U. after   14 cycles
 Normal termination of Gaussian 16 at Wed Apr  9 00:21:39 2025.
 Gaussian 16:  ES64L-G16RevC.01  3-Jul-2019

 ----------------------------------------------------------------------
 #t hf aug-cc-pvdz iop(5/13=1,5/36=2,99/5=2) pseudo=read geom=check gue
 ss=(read,tcheck) scf=(maxcycle=1)
 ----------------------------------------------------------------------
 -----
 title
 -----
 Structure from the checkpoint file:  "BDE49_nonexpt_2636_mol1.chk"
 Charge =  0 Multiplicity = 1

                         Standard orientation:
 ---------------------------------------------------------------------
 Center     Atomic      Atomic             Coordinates (Angstroms)
 Number     Number       Type             X           Y           Z
 ---------------------------------------------------------------------
      1          9           0       -1.248521    1.007020    0.178317
      2         16           0       -0.806792   -0.564798   -0.212841
      3          6           0        0.874544   -0.526911    0.444106
      4          6           0        1.797399    0.476778   -0.241399
      5          1           0        0.819011   -0.360927    1.522529
      6          1           0        1.908810    0.247412   -1.302909
      7          1           0        2.786589    0.464033    0.225531
      8          1           0        1.390601    1.485162   -0.151111
      9          1           0        1.208695   -1.561298    0.290322
 ---------------------------------------------------------------------

 SCF Done:  E(RHF) =  -575.844095469     A.U. after    2 cycles

 The electronic state is 1-A.
 Alpha  occ. eigenvalues --  -94.02743 -26.46112 -11.28832 -11.24482  -8.30052
 Alpha  occ. eigenvalues --   -6.27861  -6.27542  -6.27269  -1.55948  -1.09629
 Alpha  occ. eigenvalues --   -0.96466  -0.83861  -0.66814  -0.66010  -0.64116
 Alpha  occ. eigenvalues --   -0.60976  -0.58944  -0.55314  -0.52578  -0.47395
 Alpha  occ. eigenvalues --   -0.37468
 Alpha virt. eigenvalues --    0.03362   0.04262   0.04493   0.06035   0.07661
 Alpha virt. eigenvalues --    0.08213   0.08317   0.12282   0.12368   0.14391
 Alpha virt. eigenvalues --    0.15354   0.16314   0.16624   0.17599   0.17908

 Mulliken charges:
               1
     1  F   -0.673125
     2  S    0.921408
     3  C   -0.926477
     4  C   -0.354391
     5  H    0.220403
     6  H    0.172497
     7  H    0.145575
     8  H    0.196503
     9  H    0.297607
 Sum of Mulliken charges =  -0.00000

 Dipole moment (field-independent basis, Debye):
    X=              2.3539    Y=             -1.1395    Z=              0.3397  Tot=              2.6372

 Test job not archived.
 1\1\GINC-SE166\SP\RHF\Aug-CC-pVDZ\C2H5F1S1\OHZDE\09-Apr-2025\0\\#t hf
 aug-cc-pvdz iop(5/13=1,5/36=2,99/5=2) pseudo=read geom=check guess=(re
 ad,tcheck) scf=(maxcycle=1)\\title\\0,1\F,0,-1.248521,1.00702,0.178317
 \S,0,-0.806792,-0.564798,-0.212841\C,0,0.874544,-0.526911,0.444106\C,0
 ,1.797399,0.476778,-0.241399\H,0,0.819011,-0.360927,1.522529\H,0,1.908
 81,0.247412,-1.302909\H,0,2.786589,0.464033,0.225531\H,0,1.390601,1.48
 5162,-0.151111\H,0,1.208695,-1.561298,0.290322\\Version=ES64L-G16RevC.
 01\State=1-A\HF=-575.8440955\RMSD=6.302e-03\Dipole=0.9260896,-0.448307

 Normal termination of Gaussian 16 at Wed Apr  9 00:21:43 2025.
