 Gaussian 16, Revision C.01,

 ----------------------------------------------------------------------
 #t hf aug-cc-pvdz symm=none int=(grid=ultrafine) guess=(read,tcheck) s
 table=(opt,rrhf)
 ----------------------------------------------------------------------
 -----
 title
 -----
 Symbolic Z-matrix:
 Charge =  0 Multiplicity = 1

 SCF Done:  E(RHF) =  -760.416185420     A.U. after   15 cycles
 Normal termination of Gaussian 16 at Tue Apr  8 22:55:01 2025.
 Gaussian 16:  ES64L-G16RevC.01  3-Jul-2019

 ----------------------------------------------------------------------
 #t hf aug-cc-pvdz iop(5/13=1,5/36=2,99/5=2) pseudo=read geom=check gue
 ss=(read,tcheck) scf=(maxcycle=1)
 ----------------------------------------------------------------------
 -----
 title
 -----
 Structure from the checkpoint file:  "BDE49_expt_1822_mol1.chk"
 Charge =  0 Multiplicity = 1

                         Standard orientation:
 ---------------------------------------------------------------------
 Center     Atomic      Atomic             Coordinates (Angstroms)
 Number     Number       Type             X           Y           Z
 ---------------------------------------------------------------------
      1          7           0       -2.908287    0.264272    0.260251
      2          8           0       -2.482080    1.039956    1.042210
      3         16           0       -1.674641   -0.774026   -0.654983
      4          6           0       -0.085322   -0.192089    0.034165
      5          6           0        0.515793    0.953679   -0.796824
      6          6           0        1.851257    1.424980   -0.198238
      7          1           0       -0.193386    1.783816   -0.848947
      8          1           0        0.674044    0.605808   -1.824380
      9          6           0        2.841062    0.263251   -0.037333
     10          1           0        1.666116    1.882918    0.781514
     11          1           0        2.280145    2.207985   -0.831159
     12          6           0        2.231775   -0.878217    0.788218
     13          1           0        3.764936    0.615744    0.431510
     14          1           0        3.118871   -0.115899   -1.029167
     15          6           0        0.898594   -1.363521    0.194137
     16          1           0        2.062606   -0.532514    1.815760
     17          1           0        2.929937   -1.718464    0.853090
     18          1           0        1.084659   -1.820967   -0.784981
     19          1           0        0.457038   -2.137781    0.827184
     20          1           0       -0.355019    0.195714    1.025126
 ---------------------------------------------------------------------

 SCF Done:  E(RHF) =  -760.847380744     A.U. after    2 cycles

 The electronic state is 1-A.
 Alpha  occ. eigenvalues --  -93.97787 -20.64182 -15.68956 -11.27802 -11.24524
 Alpha  occ. eigenvalues --  -11.24006 -11.23823 -11.23571 -11.23471  -8.25748
 Alpha  occ. eigenvalues --   -6.23515  -6.23320  -6.23132  -1.63962  -1.14772
 Alpha  occ. eigenvalues --   -1.08577  -1.01813  -1.01376  -0.90754  -0.85122
 Alpha  occ. eigenvalues --   -0.81922  -0.77212  -0.71907  -0.71147  -0.66270
 Alpha  occ. eigenvalues --   -0.65222  -0.62298  -0.62079  -0.59711  -0.55312
 Alpha  occ. eigenvalues --   -0.54975  -0.52750  -0.50542  -0.50053  -0.47146
 Alpha  occ. eigenvalues --   -0.45876  -0.44164  -0.40033  -0.37903
 Alpha virt. eigenvalues --    0.03256   0.03357   0.03391   0.04522   0.05510
 Alpha virt. eigenvalues --    0.05772   0.06073   0.06581   0.06906   0.07021
 Alpha virt. eigenvalues --    0.08999   0.09361   0.09436   0.10597   0.12417

 Mulliken charges:
               1
     1  N    0.709460
     2  O   -0.995377
     3  S    0.497227
     4  C   -0.644607
     5  C   -0.173951
     6  C   -0.291054
     7  H    0.111288
     8  H    0.194869
     9  C   -0.268628
    10  H    0.144608
    11  H    0.106291
    12  C   -0.309238
    13  H    0.121433
    14  H    0.157436
    15  C   -0.110138
    16  H    0.150280
    17  H    0.102920
    18  H    0.181293
    19  H    0.096184
    20  H    0.219707
 Sum of Mulliken charges =  -0.00000

 Dipole moment (field-independent basis, Debye):
    X=              3.1690    Y=             -0.0179    Z=              0.1703  Tot=              3.1736

 Test job not archived.
 1\1\GINC-SE454\SP\RHF\Aug-CC-pVDZ\C6H11N1O1S1\OHZDE\08-Apr-2025\0\\#t
 hf aug-cc-pvdz iop(5/13=1,5/36=2,99/5=2) pseudo=read geom=check guess=
 (read,tcheck) scf=(maxcycle=1)\\title\\0,1\N,0,-2.908287,0.264272,0.26
 0251\O,0,-2.48208,1.039956,1.04221\S,0,-1.674641,-0.774026,-0.654983\C
 ,0,-0.085322,-0.192089,0.034165\C,0,0.515793,0.953679,-0.796824\C,0,1.
 851257,1.42498,-0.198238\H,0,-0.193386,1.783816,-0.848947\H,0,0.674044
 ,0.605808,-1.82438\C,0,2.841062,0.263251,-0.037333\H,0,1.666116,1.8829
 18,0.781514\H,0,2.280145,2.207985,-0.831159\C,0,2.231775,-0.878217,0.7

 Normal termination of Gaussian 16 at Tue Apr  8 22:55:12 2025.
