 Gaussian 16, Revision C.01,

 ----------------------------------------------------------------------
 #t hf aug-cc-pvdz symm=none int=(grid=ultrafine) guess=(read,tcheck) s
 table=(opt,rrhf)
 ----------------------------------------------------------------------
 -----
 title
 -----
 Symbolic Z-matrix:
 Charge =  0 Multiplicity = 1

 SCF Done:  E(RHF) =  -948.180792448     A.U. after   17 cycles
 Normal termination of Gaussian 16 at Tue Apr  8 23:09:10 2025.
 Gaussian 16:  ES64L-G16RevC.01  3-Jul-2019

 ----------------------------------------------------------------------
 #t hf aug-cc-pvdz iop(5/13=1,5/36=2,99/5=2) pseudo=read geom=check gue
 ss=(read,tcheck) scf=(maxcycle=1)
 ----------------------------------------------------------------------
 -----
 title
 -----
 Structure from the checkpoint file:  "BDE49_expt_479_mol1.chk"
 Charge =  0 Multiplicity = 1

                         Standard orientation:
 ---------------------------------------------------------------------
 Center     Atomic      Atomic             Coordinates (Angstroms)
 Number     Number       Type             X           Y           Z
 ---------------------------------------------------------------------
      1          6           0        0.645904   -1.793864   -0.018999
      2          6           0        1.950195   -1.328377    0.023216
      3          6           0        2.225042    0.049465    0.045567
      4          6           0       -0.439013   -0.917040   -0.016227
      5          6           0       -0.164915    0.453208    0.012928
      6          6           0        1.139842    0.931544    0.030574
      7          1           0        2.768120   -2.040561    0.034621
      8          7           0        3.525105    0.520583    0.137543
      9          1           0        4.251945   -0.105469   -0.173119
     10          1           0        3.677957    1.476039   -0.146628
     11          1           0        0.452179   -2.857902   -0.059055
     12          7           0       -1.228480    1.483659    0.036441
     13          8           0       -0.996750    2.529177   -0.557885
     14          8           0       -2.244250    1.240795    0.664739
     15         17           0       -2.042995   -1.590259   -0.130471
     16          1           0        1.289994    2.003210    0.027126
 ---------------------------------------------------------------------

 SCF Done:  E(RHF) =  -948.737044841     A.U. after    2 cycles

 The electronic state is 1-A.
 Alpha  occ. eigenvalues -- -105.58364 -20.59634 -20.59188 -15.79742 -15.53888
 Alpha  occ. eigenvalues --  -11.33488 -11.33401 -11.32375 -11.28442 -11.27933
 Alpha  occ. eigenvalues --  -11.27707 -10.63152  -7.80129  -7.79703  -7.79685
 Alpha  occ. eigenvalues --   -1.67495  -1.51169  -1.26253  -1.20791  -1.11814
 Alpha  occ. eigenvalues --   -1.10122  -1.01782  -0.97501  -0.88255  -0.85863
 Alpha  occ. eigenvalues --   -0.80797  -0.77375  -0.75225  -0.73694  -0.72551
 Alpha  occ. eigenvalues --   -0.68783  -0.66537  -0.64449  -0.59950  -0.58057
 Alpha  occ. eigenvalues --   -0.56420  -0.54941  -0.50967  -0.49758  -0.47410
 Alpha  occ. eigenvalues --   -0.46942  -0.44559  -0.39386  -0.33998
 Alpha virt. eigenvalues --    0.01879   0.02764   0.03268   0.04333   0.05706
 Alpha virt. eigenvalues --    0.07053   0.07944   0.09509   0.09885   0.09997
 Alpha virt. eigenvalues --    0.10713   0.11895   0.12381   0.12823   0.12876

 Mulliken charges:
               1
     1  C    0.593080
     2  C    0.499388
     3  C   -1.228105
     4  C   -0.253058
     5  C   -0.089743
     6  C    0.753750
     7  H   -0.281350
     8  N    0.789869
     9  H    0.016361
    10  H    0.009728
    11  H   -0.192167
    12  N    2.657372
    13  O   -1.385364
    14  O   -1.366012
    15  Cl  -0.264668
    16  H   -0.259081
 Sum of Mulliken charges =  -0.00000

 Dipole moment (field-independent basis, Debye):
    X=              5.8708    Y=             -2.1708    Z=             -0.8048  Tot=              6.3108

 Test job not archived.
 1\1\GINC-SE332\SP\RHF\Aug-CC-pVDZ\C6H5Cl1N2O2\OHZDE\08-Apr-2025\0\\#t
 hf aug-cc-pvdz iop(5/13=1,5/36=2,99/5=2) pseudo=read geom=check guess=
 (read,tcheck) scf=(maxcycle=1)\\title\\0,1\C,0,0.645904,-1.793864,-0.0
 18999\C,0,1.950195,-1.328377,0.023216\C,0,2.225042,0.049465,0.045567\C
 ,0,-0.439013,-0.91704,-0.016227\C,0,-0.164915,0.453208,0.012928\C,0,1.
 139842,0.931544,0.030574\H,0,2.76812,-2.040561,0.034621\N,0,3.525105,0
 .520583,0.137543\H,0,4.251945,-0.105469,-0.173119\H,0,3.677957,1.47603
 9,-0.146628\H,0,0.452179,-2.857902,-0.059055\N,0,-1.22848,1.483659,0.0

 Normal termination of Gaussian 16 at Tue Apr  8 23:09:18 2025.
