 Gaussian 16, Revision C.01,

 ----------------------------------------------------------------------
 #t hf aug-cc-pvdz symm=none int=(grid=ultrafine) guess=(read,tcheck) s
 table=(opt,rrhf)
 ----------------------------------------------------------------------
 -----
 title
 -----
 Symbolic Z-matrix:
 Charge =  0 Multiplicity = 1

 SCF Done:  E(RHF) =  -907.698611784     A.U. after   15 cycles
 Normal termination of Gaussian 16 at Tue Apr  8 23:33:25 2025.
 Gaussian 16:  ES64L-G16RevC.01  3-Jul-2019

 ----------------------------------------------------------------------
 #t hf aug-cc-pvdz iop(5/13=1,5/36=2,99/5=2) pseudo=read geom=check gue
 ss=(read,tcheck) scf=(maxcycle=1)
 ----------------------------------------------------------------------
 -----
 title
 -----
 Structure from the checkpoint file:  "BDE49_nonexpt_1424_mol1.chk"
 Charge =  0 Multiplicity = 1

                         Standard orientation:
 ---------------------------------------------------------------------
 Center     Atomic      Atomic             Coordinates (Angstroms)
 Number     Number       Type             X           Y           Z
 ---------------------------------------------------------------------
      1          6           0        0.104475   -1.209624   -0.018522
      2          6           0       -1.286141   -1.205007    0.013603
      3          6           0       -2.002319   -0.001672    0.009631
      4          6           0        0.800568   -0.002416   -0.033836
      5          6           0        0.102725    1.205085   -0.020600
      6          6           0       -1.287552    1.202792   -0.003800
      7          1           0        0.646866   -2.146567   -0.029531
      8          1           0       -1.818060   -2.149812    0.044638
      9         15           0       -3.849656   -0.089337    0.070425
     10          6           0        2.304072    0.001186   -0.004279
     11          9           0        2.826766   -1.102168   -0.581578
     12          9           0        2.821173    1.072895   -0.643955
     13          9           0        2.779598    0.039497    1.263104
     14          1           0       -1.817820    2.147737   -0.007377
     15          1           0        0.645390    2.142033   -0.037556
     16          1           0       -4.088895    0.024695   -1.325352
     17          1           0       -4.085439    1.287883    0.307479
 ---------------------------------------------------------------------

 SCF Done:  E(RHF) =  -908.284109129     A.U. after    2 cycles

 The electronic state is 1-A.
 Alpha  occ. eigenvalues --  -84.29008 -26.50521 -26.50488 -26.50035 -11.52344
 Alpha  occ. eigenvalues --  -11.28033 -11.27630 -11.27346 -11.27333 -11.26875
 Alpha  occ. eigenvalues --  -11.26812  -6.76075  -4.28982  -4.28434  -4.28020
 Alpha  occ. eigenvalues --   -1.71021  -1.61129  -1.60615  -1.18903  -1.08031
 Alpha  occ. eigenvalues --   -1.04630  -0.96866  -0.89426  -0.87174  -0.83329
 Alpha  occ. eigenvalues --   -0.80456  -0.80124  -0.79646  -0.69285  -0.68787
 Alpha  occ. eigenvalues --   -0.67290  -0.66386  -0.65895  -0.63788  -0.63208
 Alpha  occ. eigenvalues --   -0.62020  -0.61564  -0.56851  -0.55086  -0.53317
 Alpha  occ. eigenvalues --   -0.51066  -0.49455  -0.39384  -0.37210  -0.34760
 Alpha virt. eigenvalues --    0.03142   0.03696   0.04287   0.05474   0.05634
 Alpha virt. eigenvalues --    0.06282   0.07757   0.08153   0.08289   0.08751
 Alpha virt. eigenvalues --    0.09538   0.10013   0.11915   0.12161   0.13193

 Mulliken charges:
               1
     1  C    0.009014
     2  C   -0.260290
     3  C    0.026193
     4  C    0.587707
     5  C   -0.026844
     6  C    0.320485
     7  H   -0.267978
     8  H   -0.231354
     9  P   -0.522735
    10  C    2.576432
    11  F   -0.830080
    12  F   -0.824028
    13  F   -0.752325
    14  H   -0.277831
    15  H   -0.272110
    16  H    0.451721
    17  H    0.294025
 Sum of Mulliken charges =  -0.00000

 Dipole moment (field-independent basis, Debye):
    X=             -2.4097    Y=              0.3467    Z=             -0.3213  Tot=              2.4556

 Test job not archived.
 1\1\GINC-SE249\SP\RHF\Aug-CC-pVDZ\C7H6F3P1\OHZDE\08-Apr-2025\0\\#t hf
 aug-cc-pvdz iop(5/13=1,5/36=2,99/5=2) pseudo=read geom=check guess=(re
 ad,tcheck) scf=(maxcycle=1)\\title\\0,1\C,0,0.104475,-1.209624,-0.0185
 22\C,0,-1.286141,-1.205007,0.013603\C,0,-2.002319,-0.001672,0.009631\C
 ,0,0.800568,-0.002416,-0.033836\C,0,0.102725,1.205085,-0.0206\C,0,-1.2
 87552,1.202792,-0.0038\H,0,0.646866,-2.146567,-0.029531\H,0,-1.81806,-
 2.149812,0.044638\P,0,-3.849656,-0.089337,0.070425\C,0,2.304072,0.0011
 86,-0.004279\F,0,2.826766,-1.102168,-0.581578\F,0,2.821173,1.072895,-0

 Normal termination of Gaussian 16 at Tue Apr  8 23:33:35 2025.
