 Gaussian 16, Revision C.01,

 ----------------------------------------------------------------------
 #t hf aug-cc-pvdz symm=none int=(grid=ultrafine) guess=(read,tcheck) s
 table=(opt,rrhf)
 ----------------------------------------------------------------------
 -----
 title
 -----
 Symbolic Z-matrix:
 Charge =  0 Multiplicity = 1

 SCF Done:  E(RHF) =  -856.006657831     A.U. after   15 cycles
 Normal termination of Gaussian 16 at Tue Apr  8 22:48:52 2025.
 Gaussian 16:  ES64L-G16RevC.01  3-Jul-2019

 ----------------------------------------------------------------------
 #t hf aug-cc-pvdz iop(5/13=1,5/36=2,99/5=2) pseudo=read geom=check gue
 ss=(read,tcheck) scf=(maxcycle=1)
 ----------------------------------------------------------------------
 -----
 title
 -----
 Structure from the checkpoint file:  "BDE49_expt_1604_mol1.chk"
 Charge =  0 Multiplicity = 1

                         Standard orientation:
 ---------------------------------------------------------------------
 Center     Atomic      Atomic             Coordinates (Angstroms)
 Number     Number       Type             X           Y           Z
 ---------------------------------------------------------------------
      1         16           0       -1.914804    0.114463    0.042319
      2          6           0       -1.638776   -1.033881    1.395837
      3          8           0       -3.158276   -0.247039   -0.611364
      4          8           0       -1.716529    1.457318    0.553988
      5          1           0       -1.737012   -2.054328    1.027436
      6          1           0       -2.420354   -0.817430    2.124566
      7          1           0       -0.655033   -0.853496    1.825688
      8          6           0        0.816741   -0.110002   -0.605660
      9          6           0        1.608803   -1.243969   -0.396789
     10          6           0        1.345274    1.150411   -0.301323
     11          6           0        2.903668   -1.124838    0.103077
     12          6           0        2.637877    1.268612    0.199428
     13          6           0        3.420681    0.132839    0.403028
     14          1           0        1.214212   -2.226095   -0.637712
     15          1           0        3.507446   -2.012649    0.253249
     16          1           0        0.734006    2.033076   -0.444736
     17          1           0        3.035434    2.250289    0.430561
     18          1           0        4.428723    0.228750    0.790058
     19          6           0       -0.577530   -0.250700   -1.149708
     20          1           0       -0.790406    0.462194   -1.950871
     21          1           0       -0.782141   -1.254801   -1.523683
 ---------------------------------------------------------------------

 SCF Done:  E(RHF) =  -856.540855924     A.U. after    2 cycles

 The electronic state is 1-A.
 Alpha  occ. eigenvalues --  -94.18414 -20.52953 -20.52915 -11.29351 -11.28467
 Alpha  occ. eigenvalues --  -11.27211 -11.26290 -11.25950 -11.25868 -11.25715
 Alpha  occ. eigenvalues --  -11.25637  -8.43798  -6.41912  -6.41676  -6.41621
 Alpha  occ. eigenvalues --   -1.54817  -1.42937  -1.17924  -1.09965  -1.04807
 Alpha  occ. eigenvalues --   -1.03335  -0.98472  -0.85764  -0.85284  -0.81268
 Alpha  occ. eigenvalues --   -0.72999  -0.69567  -0.68541  -0.67443  -0.66004
 Alpha  occ. eigenvalues --   -0.65004  -0.61716  -0.61359  -0.60488  -0.59645
 Alpha  occ. eigenvalues --   -0.58457  -0.53642  -0.52333  -0.51881  -0.48469
 Alpha  occ. eigenvalues --   -0.48464  -0.45505  -0.43629  -0.36190  -0.35497
 Alpha virt. eigenvalues --    0.02497   0.03034   0.03795   0.03901   0.05038
 Alpha virt. eigenvalues --    0.05087   0.06397   0.06769   0.07872   0.08173
 Alpha virt. eigenvalues --    0.08535   0.09136   0.10094   0.11303   0.12639

 Mulliken charges:
               1
     1  S    3.403168
     2  C   -0.761749
     3  O   -1.583836
     4  O   -1.649042
     5  H    0.220029
     6  H    0.223271
     7  H    0.280253
     8  C    1.624386
     9  C    0.166839
    10  C    0.131929
    11  C    0.096330
    12  C    0.135636
    13  C    0.129695
    14  H   -0.333289
    15  H   -0.233574
    16  H   -0.298173
    17  H   -0.225087
    18  H   -0.213849
    19  C   -1.297264
    20  H    0.163949
    21  H    0.020377
 Sum of Mulliken charges =  -0.00000

 Dipole moment (field-independent basis, Debye):
    X=              4.1909    Y=             -2.9918    Z=              0.7212  Tot=              5.1995

 Test job not archived.
 1\1\GINC-SE074\SP\RHF\Aug-CC-pVDZ\C8H10O2S1\OHZDE\08-Apr-2025\0\\#t hf
  aug-cc-pvdz iop(5/13=1,5/36=2,99/5=2) pseudo=read geom=check guess=(r
 ead,tcheck) scf=(maxcycle=1)\\title\\0,1\S,0,-1.914804,0.114463,0.0423
 19\C,0,-1.638776,-1.033881,1.395837\O,0,-3.158276,-0.247039,-0.611364\
 O,0,-1.716529,1.457318,0.553988\H,0,-1.737012,-2.054328,1.027436\H,0,-
 2.420354,-0.81743,2.124566\H,0,-0.655033,-0.853496,1.825688\C,0,0.8167
 41,-0.110002,-0.60566\C,0,1.608803,-1.243969,-0.396789\C,0,1.345274,1.
 150411,-0.301323\C,0,2.903668,-1.124838,0.103077\C,0,2.637877,1.268612

 Normal termination of Gaussian 16 at Tue Apr  8 22:49:07 2025.
