 Gaussian 16, Revision C.01,

 ----------------------------------------------------------------------
 #t hf aug-cc-pvdz symm=none int=(grid=ultrafine) guess=(read,tcheck) s
 table=(opt,rrhf)
 ----------------------------------------------------------------------
 -----
 title
 -----
 Symbolic Z-matrix:
 Charge =  0 Multiplicity = 1

 SCF Done:  E(RHF) =  -698.269649555     A.U. after   17 cycles
 Normal termination of Gaussian 16 at Wed Apr  9 00:01:31 2025.
 Gaussian 16:  ES64L-G16RevC.01  3-Jul-2019

 ----------------------------------------------------------------------
 #t hf aug-cc-pvdz iop(5/13=1,5/36=2,99/5=2) pseudo=read geom=check gue
 ss=(read,tcheck) scf=(maxcycle=1)
 ----------------------------------------------------------------------
 -----
 title
 -----
 Structure from the checkpoint file:  "BDE49_nonexpt_2133_mol1.chk"
 Charge =  0 Multiplicity = 1

                         Standard orientation:
 ---------------------------------------------------------------------
 Center     Atomic      Atomic             Coordinates (Angstroms)
 Number     Number       Type             X           Y           Z
 ---------------------------------------------------------------------
      1         14           0       -0.063088   -0.947526    0.146003
      2          7           0       -1.444266    0.260602   -0.088663
      3          7           0        1.498236    0.044136    0.032368
      4          8           0       -1.301025    1.431546   -0.380885
      5          8           0       -2.517643   -0.326435    0.070146
      6          8           0        2.230372   -0.098050   -0.938691
      7          8           0        1.690670    0.804856    0.975746
      8          1           0       -0.147844   -1.892426   -0.967987
      9          1           0       -0.165696   -1.470719    1.507481
 ---------------------------------------------------------------------

 SCF Done:  E(RHF) =  -698.686307995     A.U. after    2 cycles

 The electronic state is 1-A.
 Alpha  occ. eigenvalues --  -69.68049 -20.63231 -20.62616 -20.62454 -20.62426
 Alpha  occ. eigenvalues --  -15.79529 -15.79214  -6.34590  -4.09981  -4.09877
 Alpha  occ. eigenvalues --   -4.09768  -1.69448  -1.68872  -1.53821  -1.53313
 Alpha  occ. eigenvalues --   -1.06461  -1.00857  -0.86626  -0.82707  -0.77617
 Alpha  occ. eigenvalues --   -0.77265  -0.76455  -0.75966  -0.70395  -0.59722
 Alpha  occ. eigenvalues --   -0.53266  -0.52144  -0.50909  -0.49311  -0.47984
 Alpha  occ. eigenvalues --   -0.47330
 Alpha virt. eigenvalues --    0.01057   0.01904   0.02698   0.04198   0.04615
 Alpha virt. eigenvalues --    0.05702   0.07519   0.09817   0.10005   0.12393
 Alpha virt. eigenvalues --    0.13737   0.14696   0.15035   0.15589   0.18119

 Mulliken charges:
               1
     1  Si   1.123278
     2  N    1.771085
     3  N    1.822892
     4  O   -1.128071
     5  O   -1.185653
     6  O   -1.152141
     7  O   -1.161543
     8  H   -0.036071
     9  H   -0.053776
 Sum of Mulliken charges =  -0.00000

 Dipole moment (field-independent basis, Debye):
    X=             -0.1179    Y=             -3.9978    Z=              0.5935  Tot=              4.0434

 Test job not archived.
 1\1\GINC-SE250\SP\RHF\Aug-CC-pVDZ\H2N2O4Si1\OHZDE\09-Apr-2025\0\\#t hf
  aug-cc-pvdz iop(5/13=1,5/36=2,99/5=2) pseudo=read geom=check guess=(r
 ead,tcheck) scf=(maxcycle=1)\\title\\0,1\Si,0,-0.063088,-0.947526,0.14
 6003\N,0,-1.444266,0.260602,-0.088663\N,0,1.498236,0.044136,0.032368\O
 ,0,-1.301025,1.431546,-0.380885\O,0,-2.517643,-0.326435,0.070146\O,0,2
 .230372,-0.09805,-0.938691\O,0,1.69067,0.804856,0.975746\H,0,-0.147844
 ,-1.892426,-0.967987\H,0,-0.165696,-1.470719,1.507481\\Version=ES64L-G
 16RevC.01\State=1-A\HF=-698.686308\RMSD=1.461e-02\Dipole=-0.0463825,-1

 Normal termination of Gaussian 16 at Wed Apr  9 00:01:35 2025.
