 Gaussian 16, Revision C.01,

 ----------------------------------------------------------------------
 #t hf aug-cc-pvdz symm=none int=(grid=ultrafine) guess=(read,tcheck) s
 table=(opt,rrhf)
 ----------------------------------------------------------------------
 -----
 title
 -----
 Symbolic Z-matrix:
 Charge =  0 Multiplicity = 1

 SCF Done:  E(RHF) =  -484.074882294     A.U. after   12 cycles
 Normal termination of Gaussian 16 at Tue Apr  8 23:49:41 2025.
 Gaussian 16:  ES64L-G16RevC.01  3-Jul-2019

 ----------------------------------------------------------------------
 #t hf aug-cc-pvdz iop(5/13=1,5/36=2,99/5=2) pseudo=read geom=check gue
 ss=(read,tcheck) scf=(maxcycle=1)
 ----------------------------------------------------------------------
 -----
 title
 -----
 Structure from the checkpoint file:  "BDE49_nonexpt_1832_mol1.chk"
 Charge =  0 Multiplicity = 1

                         Standard orientation:
 ---------------------------------------------------------------------
 Center     Atomic      Atomic             Coordinates (Angstroms)
 Number     Number       Type             X           Y           Z
 ---------------------------------------------------------------------
      1          6           0       -1.070099   -0.804433    0.601973
      2         14           0        0.644352   -0.953854   -0.204047
      3          6           0        1.504892    0.698941   -0.310085
      4          1           0        0.465769   -1.527667   -1.562835
      5          1           0        1.493091   -1.874060    0.594361
      6          6           0       -2.036212   -0.010995   -0.227306
      7          6           0       -2.474421    1.216139    0.048670
      8          6           0        2.691423    0.953992    0.247527
      9          1           0       -2.376762   -0.491546   -1.143285
     10          1           0       -2.169171    1.742175    0.948350
     11          1           0       -3.157919    1.735080   -0.613507
     12          1           0        1.010927    1.504383   -0.852654
     13          1           0        3.239248    0.197995    0.803787
     14          1           0        3.170802    1.926866    0.172963
     15          1           0       -0.946630   -0.356003    1.593208
     16          1           0       -1.443787   -1.825124    0.751597
 ---------------------------------------------------------------------

 SCF Done:  E(RHF) =  -484.319240563     A.U. after    2 cycles

 The electronic state is 1-A.
 Alpha  occ. eigenvalues --  -69.52417 -11.25059 -11.24869 -11.22893 -11.22824
 Alpha  occ. eigenvalues --  -11.22707  -6.19468  -3.94842  -3.94818  -3.94809
 Alpha  occ. eigenvalues --   -1.07081  -1.03832  -0.93800  -0.80052  -0.76492
 Alpha  occ. eigenvalues --   -0.70629  -0.64966  -0.63075  -0.60203  -0.57403
 Alpha  occ. eigenvalues --   -0.54938  -0.50955  -0.48332  -0.47444  -0.45637
 Alpha  occ. eigenvalues --   -0.38670  -0.35523
 Alpha virt. eigenvalues --    0.03589   0.03756   0.03855   0.04371   0.05582
 Alpha virt. eigenvalues --    0.06044   0.06416   0.06717   0.07734   0.08294
 Alpha virt. eigenvalues --    0.09462   0.09851   0.10661   0.11170   0.13089

 Mulliken charges:
               1
     1  C   -0.748543
     2  Si   1.294739
     3  C   -0.080197
     4  H   -0.221173
     5  H   -0.206665
     6  C    0.709251
     7  C   -0.128207
     8  C    0.028204
     9  H   -0.190664
    10  H   -0.097633
    11  H   -0.098450
    12  H   -0.199342
    13  H   -0.074049
    14  H   -0.058408
    15  H   -0.013943
    16  H    0.085081
 Sum of Mulliken charges =  -0.00000

 Dipole moment (field-independent basis, Debye):
    X=              0.1474    Y=              0.2284    Z=              0.3249  Tot=              0.4236

 Test job not archived.
 1\1\GINC-SE398\SP\RHF\Aug-CC-pVDZ\C5H10Si1\OHZDE\08-Apr-2025\0\\#t hf
 aug-cc-pvdz iop(5/13=1,5/36=2,99/5=2) pseudo=read geom=check guess=(re
 ad,tcheck) scf=(maxcycle=1)\\title\\0,1\C,0,-1.070099,-0.804433,0.6019
 73\Si,0,0.644352,-0.953854,-0.204047\C,0,1.504892,0.698941,-0.310085\H
 ,0,0.465769,-1.527667,-1.562835\H,0,1.493091,-1.87406,0.594361\C,0,-2.
 036212,-0.010995,-0.227306\C,0,-2.474421,1.216139,0.04867\C,0,2.691423
 ,0.953992,0.247527\H,0,-2.376762,-0.491546,-1.143285\H,0,-2.169171,1.7
 42175,0.94835\H,0,-3.157919,1.73508,-0.613507\H,0,1.010927,1.504383,-0

 Normal termination of Gaussian 16 at Tue Apr  8 23:49:46 2025.
