 Gaussian 16, Revision C.01,

 ----------------------------------------------------------------------
 #t hf aug-cc-pvdz symm=none int=(grid=ultrafine) guess=(read,tcheck) s
 table=(opt,rrhf)
 ----------------------------------------------------------------------
 -----
 title
 -----
 Symbolic Z-matrix:
 Charge =  0 Multiplicity = 1

 SCF Done:  E(RHF) =  -1084.44653822     A.U. after   13 cycles

 1\1\GINC-SE458\Stability\RHF\Aug-CC-pVDZ\F4S1Si1\OHZDE\09-Apr-2025\0\\
 #t hf aug-cc-pvdz symm=none int=(grid=ultrafine) guess=(read,tcheck) s
 table=(opt,rrhf)\\title\\0,1\F,0,-2.107364,-0.748005,0.000078\S,0,-1.3
 42601,0.745778,-0.000004\Si,0,0.641547,-0.020933,-0.000013\F,0,0.96708
 1,-0.904351,1.264856\F,0,0.967026,-0.904463,-1.264817\F,0,1.562143,1.2
 63552,-0.00009\\Version=ES64L-G16RevC.01\HF=-1084.4465382\RMSD=3.481e-
 09\Dipole=-0.0173095,0.5259547,-0.0000238\Quadrupole=-0.3507956,0.6278
 793,-0.2770838,-1.5006209,0.000065,-0.000005\PG=Unknown\\@

 Normal termination of Gaussian 16 at Wed Apr  9 00:20:38 2025.
 Gaussian 16:  ES64L-G16RevC.01  3-Jul-2019

 ----------------------------------------------------------------------
 #t hf aug-cc-pvdz iop(5/13=1,5/36=2,99/5=2) pseudo=read geom=check gue
 ss=(read,tcheck) scf=(maxcycle=1)
 ----------------------------------------------------------------------
 -----
 title
 -----
 Structure from the checkpoint file:  "BDE49_nonexpt_2624_mol1.chk"
 Charge =  0 Multiplicity = 1

                         Standard orientation:
 ---------------------------------------------------------------------
 Center     Atomic      Atomic             Coordinates (Angstroms)
 Number     Number       Type             X           Y           Z
 ---------------------------------------------------------------------
      1          9           0       -2.107364   -0.748005    0.000078
      2         16           0       -1.342601    0.745778   -0.000004
      3         14           0        0.641547   -0.020933   -0.000013
      4          9           0        0.967081   -0.904351    1.264856
      5          9           0        0.967026   -0.904463   -1.264817
      6          9           0        1.562143    1.263552   -0.000090
 ---------------------------------------------------------------------

 SCF Done:  E(RHF) =  -1084.89302407     A.U. after    2 cycles

 The electronic state is 1-A.
 Alpha  occ. eigenvalues --  -94.06741 -69.72612 -26.51306 -26.50664 -26.50663
 Alpha  occ. eigenvalues --  -26.50597  -8.34265  -6.38262  -6.32022  -6.31737
 Alpha  occ. eigenvalues --   -6.31468  -4.13591  -4.13531  -4.13407  -1.64867
 Alpha  occ. eigenvalues --   -1.61742  -1.61177  -1.60163  -1.03676  -0.83910
 Alpha  occ. eigenvalues --   -0.75967  -0.75553  -0.74147  -0.69728  -0.69597
 Alpha  occ. eigenvalues --   -0.68448  -0.68367  -0.67191  -0.66419  -0.65607
 Alpha  occ. eigenvalues --   -0.64948  -0.51702  -0.43930
 Alpha virt. eigenvalues --    0.02651   0.05233   0.05836   0.06077   0.07364
 Alpha virt. eigenvalues --    0.10825   0.12415   0.14143   0.18699   0.19104
 Alpha virt. eigenvalues --    0.19589   0.20067   0.21416   0.23320   0.24630

 Mulliken charges:
               1
     1  F   -0.632960
     2  S    0.135865
     3  Si   3.024953
     4  F   -0.854874
     5  F   -0.854874
     6  F   -0.818110
 Sum of Mulliken charges =  -0.00000

 Dipole moment (field-independent basis, Debye):
    X=             -0.0075    Y=              1.0619    Z=             -0.0000  Tot=              1.0619

 Test job not archived.
 1\1\GINC-SE458\SP\RHF\Aug-CC-pVDZ\F4S1Si1\OHZDE\09-Apr-2025\0\\#t hf a
 ug-cc-pvdz iop(5/13=1,5/36=2,99/5=2) pseudo=read geom=check guess=(rea
 d,tcheck) scf=(maxcycle=1)\\title\\0,1\F,0,-2.107364,-0.748005,0.00007
 8\S,0,-1.342601,0.745778,-0.000004\Si,0,0.641547,-0.020933,-0.000013\F
 ,0,0.967081,-0.904351,1.264856\F,0,0.967026,-0.904463,-1.264817\F,0,1.
 562143,1.263552,-0.00009\\Version=ES64L-G16RevC.01\State=1-A\HF=-1084.
 8930241\RMSD=2.690e-03\Dipole=-0.0029613,0.4177764,-0.0000193\Quadrupo
 le=-0.1462054,0.5509175,-0.4047121,-1.1954369,0.0000445,-0.0000138\PG=

 Normal termination of Gaussian 16 at Wed Apr  9 00:20:41 2025.
