 Gaussian 16, Revision C.01,

 ----------------------------------------------------------------------
 #t hf aug-cc-pvdz symm=none int=(grid=ultrafine) guess=(read,tcheck) s
 table=(opt,rrhf)
 ----------------------------------------------------------------------
 -----
 title
 -----
 Symbolic Z-matrix:
 Charge =  0 Multiplicity = 1

 SCF Done:  E(RHF) =  -1267.89045753     A.U. after   14 cycles
 Normal termination of Gaussian 16 at Wed Apr  9 00:49:38 2025.
 Gaussian 16:  ES64L-G16RevC.01  3-Jul-2019

 ----------------------------------------------------------------------
 #t hf aug-cc-pvdz iop(5/13=1,5/36=2,99/5=2) pseudo=read geom=check gue
 ss=(read,tcheck) scf=(maxcycle=1)
 ----------------------------------------------------------------------
 -----
 title
 -----
 Structure from the checkpoint file:  "BDE49_nonexpt_899_mol1.chk"
 Charge =  0 Multiplicity = 1

                         Standard orientation:
 ---------------------------------------------------------------------
 Center     Atomic      Atomic             Coordinates (Angstroms)
 Number     Number       Type             X           Y           Z
 ---------------------------------------------------------------------
      1          5           0        1.811183    0.104285   -0.009959
      2         16           0        0.488232   -1.167455    0.000481
      3          9           0        1.587150    1.395012   -0.005136
      4          9           0        3.044185   -0.360904   -0.000701
      5         16           0       -1.254268    0.029416   -0.135046
      6          8           0       -2.348553   -0.879799   -0.062399
      7          8           0       -1.131925    1.051510   -1.118877
      8          9           0       -1.181947    0.778503    1.300621
 ---------------------------------------------------------------------

 SCF Done:  E(RHF) =  -1268.44386703     A.U. after    2 cycles

 The electronic state is 1-A.
 Alpha  occ. eigenvalues --  -94.30996 -94.04171 -26.53907 -26.52895 -26.52737
 Alpha  occ. eigenvalues --  -20.60933 -20.60846  -8.55517  -8.32492  -7.80381
 Alpha  occ. eigenvalues --   -6.53504  -6.53418  -6.53234  -6.30254  -6.30034
 Alpha  occ. eigenvalues --   -6.29838  -1.69887  -1.68140  -1.64463  -1.58950
 Alpha  occ. eigenvalues --   -1.51716  -1.12686  -0.93863  -0.85187  -0.80752
 Alpha  occ. eigenvalues --   -0.79284  -0.76818  -0.75249  -0.74420  -0.73464
 Alpha  occ. eigenvalues --   -0.68205  -0.67830  -0.67277  -0.66867  -0.58822
 Alpha  occ. eigenvalues --   -0.57864  -0.53837  -0.52605  -0.51158  -0.47322
 Alpha virt. eigenvalues --    0.03180   0.04710   0.04924   0.05317   0.06028
 Alpha virt. eigenvalues --    0.09473   0.09626   0.10266   0.11655   0.11774
 Alpha virt. eigenvalues --    0.12926   0.15799   0.16787   0.18284   0.19458

 Mulliken charges:
               1
     1  B    1.707279
     2  S   -0.371746
     3  F   -0.471000
     4  F   -0.600227
     5  S    3.009597
     6  O   -1.258151
     7  O   -1.312268
     8  F   -0.703484
 Sum of Mulliken charges =  -0.00000

 Dipole moment (field-independent basis, Debye):
    X=              2.3481    Y=             -0.9348    Z=              0.5993  Tot=              2.5975

 Test job not archived.
 1\1\GINC-SE212\SP\RHF\Aug-CC-pVDZ\B1F3O2S2\OHZDE\09-Apr-2025\0\\#t hf
 aug-cc-pvdz iop(5/13=1,5/36=2,99/5=2) pseudo=read geom=check guess=(re
 ad,tcheck) scf=(maxcycle=1)\\title\\0,1\B,0,1.811183,0.104285,-0.00995
 9\S,0,0.488232,-1.167455,0.000481\F,0,1.58715,1.395012,-0.005136\F,0,3
 .044185,-0.360904,-0.000701\S,0,-1.254268,0.029416,-0.135046\O,0,-2.34
 8553,-0.879799,-0.062399\O,0,-1.131925,1.05151,-1.118877\F,0,-1.181947
 ,0.778503,1.300621\\Version=ES64L-G16RevC.01\State=1-A\HF=-1268.443867
 \RMSD=4.868e-03\Dipole=0.9238248,-0.3677876,0.2358004\Quadrupole=-1.64

 Normal termination of Gaussian 16 at Wed Apr  9 00:49:41 2025.
