 Gaussian 16, Revision C.01,

 ----------------------------------------------------------------------
 #t hf aug-cc-pvdz symm=none int=(grid=ultrafine) guess=(read,tcheck) s
 table=(opt,rrhf)
 ----------------------------------------------------------------------
 -----
 title
 -----
 Symbolic Z-matrix:
 Charge =  0 Multiplicity = 1

 SCF Done:  E(RHF) =  -444.910589172     A.U. after   15 cycles
 Normal termination of Gaussian 16 at Wed Apr  9 00:30:44 2025.
 Gaussian 16:  ES64L-G16RevC.01  3-Jul-2019

 ----------------------------------------------------------------------
 #t hf aug-cc-pvdz iop(5/13=1,5/36=2,99/5=2) pseudo=read geom=check gue
 ss=(read,tcheck) scf=(maxcycle=1)
 ----------------------------------------------------------------------
 -----
 title
 -----
 Structure from the checkpoint file:  "BDE49_nonexpt_321_mol1.chk"
 Charge =  0 Multiplicity = 1

                         Standard orientation:
 ---------------------------------------------------------------------
 Center     Atomic      Atomic             Coordinates (Angstroms)
 Number     Number       Type             X           Y           Z
 ---------------------------------------------------------------------
      1          6           0       -1.944244   -1.480526    0.206642
      2          6           0       -0.553744   -1.450460    0.183538
      3          6           0       -2.651318   -0.292021    0.052337
      4          6           0       -1.961679    0.905400   -0.114578
      5          6           0       -0.563807    0.949809   -0.118813
      6          6           0        0.165412   -0.251915    0.029182
      7          1           0       -2.469222   -2.419926    0.338528
      8          1           0       -0.008495   -2.382071    0.307472
      9          5           0        1.742571   -0.335553    0.032772
     10          8           0        2.400854   -1.338393   -0.623192
     11          8           0        2.551198    0.544833    0.695156
     12          1           0       -2.519941    1.826963   -0.247074
     13          1           0       -3.735784   -0.295385    0.056434
     14          6           0        0.119480    2.291891   -0.286325
     15          1           0       -0.533646    2.997243   -0.804308
     16          1           0        1.050123    2.218173   -0.851013
     17          1           0        0.359008    2.743564    0.684620
     18          1           0        2.059832    1.186834    1.211467
     19          1           0        1.808251   -1.882218   -1.147595
 ---------------------------------------------------------------------

 SCF Done:  E(RHF) =  -445.365258437     A.U. after    2 cycles

 The electronic state is 1-A.
 Alpha  occ. eigenvalues --  -20.55142 -20.55061 -11.26209 -11.25359 -11.25311
 Alpha  occ. eigenvalues --  -11.24642 -11.24539 -11.24509 -11.22937  -7.64189
 Alpha  occ. eigenvalues --   -1.47431  -1.43529  -1.16221  -1.05539  -1.02295
 Alpha  occ. eigenvalues --   -0.94657  -0.84434  -0.81876  -0.78731  -0.71857
 Alpha  occ. eigenvalues --   -0.66759  -0.65954  -0.65646  -0.62244  -0.59920
 Alpha  occ. eigenvalues --   -0.59271  -0.57754  -0.56376  -0.55749  -0.53892
 Alpha  occ. eigenvalues --   -0.50553  -0.50383  -0.48463  -0.46645  -0.35349
 Alpha  occ. eigenvalues --   -0.34386
 Alpha virt. eigenvalues --    0.03079   0.03184   0.03597   0.04044   0.05066
 Alpha virt. eigenvalues --    0.05412   0.06223   0.07081   0.07902   0.08300
 Alpha virt. eigenvalues --    0.08825   0.09569   0.10125   0.10615   0.11399

 Mulliken charges:
               1
     1  C   -0.008101
     2  C    0.433189
     3  C    0.160508
     4  C    0.623626
     5  C    0.300111
     6  C    0.472806
     7  H   -0.222248
     8  H   -0.407979
     9  B    1.512678
    10  O   -1.513030
    11  O   -1.605805
    12  H   -0.292933
    13  H   -0.228078
    14  C   -0.803548
    15  H   -0.017081
    16  H    0.151950
    17  H    0.254853
    18  H    0.638067
    19  H    0.551014
 Sum of Mulliken charges =   0.00000

 Dipole moment (field-independent basis, Debye):
    X=             -3.0932    Y=              0.6812    Z=             -0.0879  Tot=              3.1686

 Test job not archived.
 1\1\GINC-SE159\SP\RHF\Aug-CC-pVDZ\C7H9B1O2\OHZDE\09-Apr-2025\0\\#t hf
 aug-cc-pvdz iop(5/13=1,5/36=2,99/5=2) pseudo=read geom=check guess=(re
 ad,tcheck) scf=(maxcycle=1)\\title\\0,1\C,0,-1.944244,-1.480526,0.2066
 42\C,0,-0.553744,-1.45046,0.183538\C,0,-2.651318,-0.292021,0.052337\C,
 0,-1.961679,0.9054,-0.114578\C,0,-0.563807,0.949809,-0.118813\C,0,0.16
 5412,-0.251915,0.029182\H,0,-2.469222,-2.419926,0.338528\H,0,-0.008495
 ,-2.382071,0.307472\B,0,1.742571,-0.335553,0.032772\O,0,2.400854,-1.33
 8393,-0.623192\O,0,2.551198,0.544833,0.695156\H,0,-2.519941,1.826963,-

 Normal termination of Gaussian 16 at Wed Apr  9 00:30:55 2025.
