 Gaussian 16, Revision C.01,

 ----------------------------------------------------------------------
 #t hf aug-cc-pvdz symm=none int=(grid=ultrafine) guess=(read,tcheck) s
 table=(opt,rrhf)
 ----------------------------------------------------------------------
 -----
 title
 -----
 Symbolic Z-matrix:
 Charge =  0 Multiplicity = 1

 SCF Done:  E(RHF) =  -498.082107434     A.U. after   13 cycles
 Normal termination of Gaussian 16 at Tue Apr  8 23:51:23 2025.
 Gaussian 16:  ES64L-G16RevC.01  3-Jul-2019

 ----------------------------------------------------------------------
 #t hf aug-cc-pvdz iop(5/13=1,5/36=2,99/5=2) pseudo=read geom=check gue
 ss=(read,tcheck) scf=(maxcycle=1)
 ----------------------------------------------------------------------
 -----
 title
 -----
 Structure from the checkpoint file:  "BDE49_nonexpt_1905_mol1.chk"
 Charge =  0 Multiplicity = 1

                         Standard orientation:
 ---------------------------------------------------------------------
 Center     Atomic      Atomic             Coordinates (Angstroms)
 Number     Number       Type             X           Y           Z
 ---------------------------------------------------------------------
      1         14           0        1.962676   -0.133036   -0.234252
      2          6           0        0.344276   -0.065094    0.753908
      3          1           0        1.729341   -0.751470   -1.557949
      4          1           0        2.975964   -0.911009    0.517031
      5          1           0        2.469789    1.247414   -0.435676
      6          7           0       -0.666569    0.778629    0.119111
      7          6           0       -1.889598    0.307223   -0.254627
      8          8           0       -2.272214   -0.834942   -0.115032
      9          1           0       -2.511682    1.097836   -0.715361
     10          1           0       -0.467836    1.754809   -0.037167
     11          1           0        0.531858    0.266889    1.781800
     12          1           0       -0.089266   -1.065600    0.817645
 ---------------------------------------------------------------------

 SCF Done:  E(RHF) =  -498.328673300     A.U. after    2 cycles

 The electronic state is 1-A.
 Alpha  occ. eigenvalues --  -69.53633 -20.51678 -15.54038 -11.36251 -11.26926
 Alpha  occ. eigenvalues --   -6.20764  -3.96132  -3.96120  -3.96114  -1.46268
 Alpha  occ. eigenvalues --   -1.24577  -0.98240  -0.84022  -0.77878  -0.72935
 Alpha  occ. eigenvalues --   -0.66838  -0.62886  -0.60289  -0.56647  -0.50401
 Alpha  occ. eigenvalues --   -0.49394  -0.48819  -0.43199  -0.40809
 Alpha virt. eigenvalues --    0.02839   0.03899   0.04211   0.05204   0.05926
 Alpha virt. eigenvalues --    0.06746   0.07508   0.08588   0.08834   0.10582
 Alpha virt. eigenvalues --    0.11085   0.11507   0.13410   0.14821   0.15085

 Mulliken charges:
               1
     1  Si   1.054772
     2  C   -0.715100
     3  H   -0.163184
     4  H   -0.207699
     5  H   -0.196364
     6  N    0.487970
     7  C    0.530965
     8  O   -1.085782
     9  H    0.088461
    10  H    0.094930
    11  H    0.057483
    12  H    0.053546
 Sum of Mulliken charges =   0.00000

 Dipole moment (field-independent basis, Debye):
    X=              1.8509    Y=              2.9450    Z=              0.3108  Tot=              3.4922

 Test job not archived.
 1\1\GINC-SE069\SP\RHF\Aug-CC-pVDZ\C2H7N1O1Si1\OHZDE\08-Apr-2025\0\\#t
 hf aug-cc-pvdz iop(5/13=1,5/36=2,99/5=2) pseudo=read geom=check guess=
 (read,tcheck) scf=(maxcycle=1)\\title\\0,1\Si,0,1.962676,-0.133036,-0.
 234252\C,0,0.344276,-0.065094,0.753908\H,0,1.729341,-0.75147,-1.557949
 \H,0,2.975964,-0.911009,0.517031\H,0,2.469789,1.247414,-0.435676\N,0,-
 0.666569,0.778629,0.119111\C,0,-1.889598,0.307223,-0.254627\O,0,-2.272
 214,-0.834942,-0.115032\H,0,-2.511682,1.097836,-0.715361\H,0,-0.467836
 ,1.754809,-0.037167\H,0,0.531858,0.266889,1.7818\H,0,-0.089266,-1.0656

 Normal termination of Gaussian 16 at Tue Apr  8 23:51:26 2025.
