 Gaussian 16, Revision C.01,

 ----------------------------------------------------------------------
 #t hf aug-cc-pvdz symm=none int=(grid=ultrafine) guess=(read,tcheck) s
 table=(opt,rrhf)
 ----------------------------------------------------------------------
 -----
 title
 -----
 Symbolic Z-matrix:
 Charge =  0 Multiplicity = 1

 SCF Done:  E(RHF) =  -611.877908710     A.U. after   13 cycles
 Normal termination of Gaussian 16 at Tue Apr  8 22:49:30 2025.
 Gaussian 16:  ES64L-G16RevC.01  3-Jul-2019

 ----------------------------------------------------------------------
 #t hf aug-cc-pvdz iop(5/13=1,5/36=2,99/5=2) pseudo=read geom=check gue
 ss=(read,tcheck) scf=(maxcycle=1)
 ----------------------------------------------------------------------
 -----
 title
 -----
 Structure from the checkpoint file:  "BDE49_expt_1710_mol1.chk"
 Charge =  0 Multiplicity = 1

                         Standard orientation:
 ---------------------------------------------------------------------
 Center     Atomic      Atomic             Coordinates (Angstroms)
 Number     Number       Type             X           Y           Z
 ---------------------------------------------------------------------
      1          6           0       -1.318312   -1.009406    0.000114
      2          6           0       -0.495329    0.244330    0.000372
      3          1           0       -1.074442   -1.606560    0.880616
      4          1           0       -1.074131   -1.606435   -0.880388
      5          1           0       -2.374739   -0.742550   -0.000057
      6         17           0        1.309547   -0.139764   -0.000173
      7          8           0       -0.857142    1.365249   -0.000019
 ---------------------------------------------------------------------

 SCF Done:  E(RHF) =  -612.106778279     A.U. after    2 cycles

 The electronic state is 1-A.
 Alpha  occ. eigenvalues -- -105.57399 -20.59228 -11.42804 -11.28369 -10.62249
 Alpha  occ. eigenvalues --   -7.79159  -7.78805  -7.78790  -1.54242  -1.10215
 Alpha  occ. eigenvalues --   -1.02489  -0.78604  -0.68777  -0.68207  -0.65321
 Alpha  occ. eigenvalues --   -0.59351  -0.56054  -0.47514  -0.47314  -0.45276
 Alpha virt. eigenvalues --    0.03150   0.05017   0.05226   0.07857   0.09824
 Alpha virt. eigenvalues --    0.11144   0.12117   0.13260   0.13528   0.14090
 Alpha virt. eigenvalues --    0.14463   0.16228   0.18348   0.18592   0.19723

 Mulliken charges:
               1
     1  C   -0.237970
     2  C    0.659156
     3  H    0.261558
     4  H    0.261589
     5  H    0.176217
     6  Cl  -0.124337
     7  O   -0.996213
 Sum of Mulliken charges =  -0.00000

 Dipole moment (field-independent basis, Debye):
    X=             -1.7407    Y=             -2.5408    Z=              0.0007  Tot=              3.0799

 Test job not archived.
 1\1\GINC-SE227\SP\RHF\Aug-CC-pVDZ\C2H3Cl1O1\OHZDE\08-Apr-2025\0\\#t hf
  aug-cc-pvdz iop(5/13=1,5/36=2,99/5=2) pseudo=read geom=check guess=(r
 ead,tcheck) scf=(maxcycle=1)\\title\\0,1\C,0,-1.318312,-1.009406,0.000
 114\C,0,-0.495329,0.24433,0.000372\H,0,-1.074442,-1.60656,0.880616\H,0
 ,-1.074131,-1.606435,-0.880388\H,0,-2.374739,-0.74255,-0.000057\Cl,0,1
 .309547,-0.139764,-0.000173\O,0,-0.857142,1.365249,-0.000019\\Version=
 ES64L-G16RevC.01\State=1-A\HF=-612.1067783\RMSD=8.194e-03\Dipole=-0.68
 4844,-0.9996292,0.0002607\Quadrupole=0.5855176,-1.2976463,0.7121288,2.

 Normal termination of Gaussian 16 at Tue Apr  8 22:49:32 2025.
