 Gaussian 16, Revision C.01,

 ----------------------------------------------------------------------
 #t hf aug-cc-pvdz symm=none int=(grid=ultrafine) guess=(read,tcheck) s
 table=(opt,rrhf)
 ----------------------------------------------------------------------
 -----
 title
 -----
 Symbolic Z-matrix:
 Charge =  0 Multiplicity = 1

 SCF Done:  E(RHF) =  -817.518464057     A.U. after   13 cycles
 Normal termination of Gaussian 16 at Tue Apr  8 22:54:52 2025.
 Gaussian 16:  ES64L-G16RevC.01  3-Jul-2019

 ----------------------------------------------------------------------
 #t hf aug-cc-pvdz iop(5/13=1,5/36=2,99/5=2) pseudo=read geom=check gue
 ss=(read,tcheck) scf=(maxcycle=1)
 ----------------------------------------------------------------------
 -----
 title
 -----
 Structure from the checkpoint file:  "BDE49_expt_1838_mol1.chk"
 Charge =  0 Multiplicity = 1

                         Standard orientation:
 ---------------------------------------------------------------------
 Center     Atomic      Atomic             Coordinates (Angstroms)
 Number     Number       Type             X           Y           Z
 ---------------------------------------------------------------------
      1          7           0       -0.321984    0.000000   -0.000045
      2          6           0        0.424248    1.194385   -0.000164
      3          6           0        1.886965    0.768930   -0.000025
      4          6           0        1.886965   -0.768930   -0.000018
      5          1           0        2.367861    1.202545    0.878680
      6          1           0        2.367982    1.202542   -0.878663
      7          6           0        0.424248   -1.194385   -0.000058
      8          1           0        2.367888   -1.202534    0.878676
      9          1           0        2.367954   -1.202554   -0.878666
     10          8           0       -0.032407   -2.301325    0.000017
     11          8           0       -0.032407    2.301325    0.000020
     12         17           0       -2.025520   -0.000000    0.000093
 ---------------------------------------------------------------------

 SCF Done:  E(RHF) =  -817.947575515     A.U. after    2 cycles

 The electronic state is 1-A.
 Alpha  occ. eigenvalues -- -105.62774 -20.55838 -20.55835 -15.61650 -11.40400
 Alpha  occ. eigenvalues --  -11.40397 -11.29042 -11.29040 -10.67192  -7.84193
 Alpha  occ. eigenvalues --   -7.83647  -7.83620  -1.51477  -1.50509  -1.32367
 Alpha  occ. eigenvalues --   -1.14250  -1.04372  -0.99066  -0.89511  -0.78526
 Alpha  occ. eigenvalues --   -0.72408  -0.71669  -0.68850  -0.64828  -0.64210
 Alpha  occ. eigenvalues --   -0.62815  -0.60798  -0.59889  -0.52287  -0.52016
 Alpha  occ. eigenvalues --   -0.50153  -0.47973  -0.44720  -0.43781
 Alpha virt. eigenvalues --    0.02593   0.03668   0.04323   0.06087   0.06175
 Alpha virt. eigenvalues --    0.07558   0.09808   0.09819   0.09879   0.11016
 Alpha virt. eigenvalues --    0.12207   0.13767   0.14059   0.14529   0.14882

 Mulliken charges:
               1
     1  N    0.564645
     2  C    0.666471
     3  C   -0.241041
     4  C   -0.241038
     5  H    0.240035
     6  H    0.240084
     7  C    0.666471
     8  H    0.240056
     9  H    0.240062
    10  O   -1.279982
    11  O   -1.279981
    12  Cl   0.184218
 Sum of Mulliken charges =  -0.00000

 Dipole moment (field-independent basis, Debye):
    X=              3.7525    Y=             -0.0000    Z=             -0.0003  Tot=              3.7525

 Test job not archived.
 1\1\GINC-SE218\SP\RHF\Aug-CC-pVDZ\C4H4Cl1N1O2\OHZDE\08-Apr-2025\0\\#t
 hf aug-cc-pvdz iop(5/13=1,5/36=2,99/5=2) pseudo=read geom=check guess=
 (read,tcheck) scf=(maxcycle=1)\\title\\0,1\N,0,-0.321984,0.,-0.000045\
 C,0,0.424248,1.194385,-0.000164\C,0,1.886965,0.76893,-0.000025\C,0,1.8
 86965,-0.76893,-0.000018\H,0,2.367861,1.202545,0.87868\H,0,2.367982,1.
 202542,-0.878663\C,0,0.424248,-1.194385,-0.000058\H,0,2.367888,-1.2025
 34,0.878676\H,0,2.367954,-1.202554,-0.878666\O,0,-0.032407,-2.301325,0
 .000017\O,0,-0.032407,2.301325,0.00002\Cl,0,-2.02552,0.,0.000093\\Vers

 Normal termination of Gaussian 16 at Tue Apr  8 22:54:58 2025.
