 Gaussian 16, Revision C.01,

 ----------------------------------------------------------------------
 #t hf aug-cc-pvdz symm=none int=(grid=ultrafine) guess=(read,tcheck) s
 table=(opt,rrhf)
 ----------------------------------------------------------------------
 -----
 title
 -----
 Symbolic Z-matrix:
 Charge =  0 Multiplicity = 1

 SCF Done:  E(RHF) =  -683.025806031     A.U. after   18 cycles
 Normal termination of Gaussian 16 at Tue Apr  8 23:02:12 2025.
 Gaussian 16:  ES64L-G16RevC.01  3-Jul-2019

 ----------------------------------------------------------------------
 #t hf aug-cc-pvdz iop(5/13=1,5/36=2,99/5=2) pseudo=read geom=check gue
 ss=(read,tcheck) scf=(maxcycle=1)
 ----------------------------------------------------------------------
 -----
 title
 -----
 Structure from the checkpoint file:  "BDE49_expt_1774_mol1.chk"
 Charge =  0 Multiplicity = 1

                         Standard orientation:
 ---------------------------------------------------------------------
 Center     Atomic      Atomic             Coordinates (Angstroms)
 Number     Number       Type             X           Y           Z
 ---------------------------------------------------------------------
      1          6           0       -2.958860    0.133402   -0.971158
      2          6           0       -3.365319   -0.685066    0.088845
      3          6           0       -2.443880   -0.950444    1.106531
      4          6           0       -1.161909   -0.411167    1.075244
      5          6           0       -0.775025    0.396477    0.007656
      6          6           0       -1.678063    0.671170   -1.018724
      7          1           0       -1.378277    1.303595   -1.844246
      8          1           0       -3.654707    0.352141   -1.774426
      9          1           0       -0.458412   -0.618980    1.872770
     10          7           0        0.551005    0.947917   -0.022593
     11          6           0        1.712683    0.123234   -0.046294
     12          6           0        1.662357   -1.131959   -0.660459
     13          6           0        2.799618   -1.933293   -0.694020
     14          6           0        3.993642   -1.491154   -0.129808
     15          6           0        4.039483   -0.238094    0.478830
     16          6           0        2.906548    0.566327    0.534834
     17          1           0        2.937811    1.533809    1.015676
     18          1           0        0.739624   -1.474306   -1.111067
     19          1           0        2.749819   -2.905186   -1.171681
     20          1           0        4.877647   -2.117209   -0.159845
     21          1           0        4.960839    0.113972    0.928763
     22          7           0        0.776293    2.299417    0.002145
     23          8           0       -0.212621    2.993180    0.059935
     24          1           0       -2.732789   -1.583793    1.938669
     25          6           0       -4.767576   -1.239922    0.143527
     26          1           0       -5.461476   -0.504872    0.565505
     27          1           0       -4.818815   -2.135156    0.766662
     28          1           0       -5.133579   -1.497867   -0.853143
 ---------------------------------------------------------------------

 SCF Done:  E(RHF) =  -683.712822207     A.U. after    2 cycles

 The electronic state is 1-A.
 Alpha  occ. eigenvalues --  -20.58364 -15.67585 -15.57814 -11.29935 -11.28827
 Alpha  occ. eigenvalues --  -11.25990 -11.25594 -11.25451 -11.25333 -11.25277
 Alpha  occ. eigenvalues --  -11.24972 -11.24852 -11.24848 -11.24779 -11.24606
 Alpha  occ. eigenvalues --  -11.24283  -1.58918  -1.31132  -1.17041  -1.15877
 Alpha  occ. eigenvalues --   -1.07291  -1.04365  -1.02875  -1.02679  -0.98198
 Alpha  occ. eigenvalues --   -0.91929  -0.86496  -0.85368  -0.84353  -0.80231
 Alpha  occ. eigenvalues --   -0.76967  -0.75678  -0.69982  -0.69785  -0.67789
 Alpha  occ. eigenvalues --   -0.65609  -0.65462  -0.63753  -0.63094  -0.61171
 Alpha  occ. eigenvalues --   -0.61004  -0.60539  -0.59044  -0.56105  -0.54160
 Alpha  occ. eigenvalues --   -0.53777  -0.52680  -0.51841  -0.51646  -0.51077
 Alpha  occ. eigenvalues --   -0.46097  -0.43546  -0.36231  -0.35665  -0.35333
 Alpha  occ. eigenvalues --   -0.32248
 Alpha virt. eigenvalues --    0.03138   0.03266   0.03377   0.03587   0.03840
 Alpha virt. eigenvalues --    0.04659   0.05479   0.05988   0.06231   0.06683
 Alpha virt. eigenvalues --    0.07278   0.07612   0.08516   0.08960   0.09429

 Mulliken charges:
               1
     1  C    0.948259
     2  C    0.306427
     3  C    0.619481
     4  C    0.030552
     5  C   -1.955075
     6  C    0.452002
     7  H   -0.389290
     8  H   -0.316103
     9  H   -0.391528
    10  N    1.338173
    11  C   -0.613229
    12  C    0.322060
    13  C    0.564787
    14  C    0.103624
    15  C    0.505639
    16  C    0.223243
    17  H   -0.268827
    18  H   -0.320403
    19  H   -0.241386
    20  H   -0.227363
    21  H   -0.234260
    22  N    1.127336
    23  O   -1.134632
    24  H   -0.321389
    25  C   -0.695780
    26  H    0.291809
    27  H    0.113024
    28  H    0.162849
 Sum of Mulliken charges =   0.00000

 Dipole moment (field-independent basis, Debye):
    X=             -1.0352    Y=             -3.2140    Z=             -0.0077  Tot=              3.3766

 Test job not archived.
 1\1\GINC-SE364\SP\RHF\Aug-CC-pVDZ\C13H12N2O1\OHZDE\08-Apr-2025\0\\#t h
 f aug-cc-pvdz iop(5/13=1,5/36=2,99/5=2) pseudo=read geom=check guess=(
 read,tcheck) scf=(maxcycle=1)\\title\\0,1\C,0,-2.95886,0.133402,-0.971
 158\C,0,-3.365319,-0.685066,0.088845\C,0,-2.44388,-0.950444,1.106531\C
 ,0,-1.161909,-0.411167,1.075244\C,0,-0.775025,0.396477,0.007656\C,0,-1
 .678063,0.67117,-1.018724\H,0,-1.378277,1.303595,-1.844246\H,0,-3.6547
 07,0.352141,-1.774426\H,0,-0.458412,-0.61898,1.87277\N,0,0.551005,0.94
 7917,-0.022593\C,0,1.712683,0.123234,-0.046294\C,0,1.662357,-1.131959,

 Normal termination of Gaussian 16 at Tue Apr  8 23:02:42 2025.
