 Gaussian 16, Revision C.01,

 ----------------------------------------------------------------------
 #t hf aug-cc-pvdz symm=none int=(grid=ultrafine) guess=(read,tcheck) s
 table=(opt,rrhf)
 ----------------------------------------------------------------------
 -----
 title
 -----
 Symbolic Z-matrix:
 Charge =  0 Multiplicity = 1

 SCF Done:  E(RHF) =  -1015.60224463     A.U. after   13 cycles
 Normal termination of Gaussian 16 at Wed Apr  9 00:41:58 2025.
 Gaussian 16:  ES64L-G16RevC.01  3-Jul-2019

 ----------------------------------------------------------------------
 #t hf aug-cc-pvdz iop(5/13=1,5/36=2,99/5=2) pseudo=read geom=check gue
 ss=(read,tcheck) scf=(maxcycle=1)
 ----------------------------------------------------------------------
 -----
 title
 -----
 Structure from the checkpoint file:  "BDE49_nonexpt_689_mol1.chk"
 Charge =  0 Multiplicity = 1

                         Standard orientation:
 ---------------------------------------------------------------------
 Center     Atomic      Atomic             Coordinates (Angstroms)
 Number     Number       Type             X           Y           Z
 ---------------------------------------------------------------------
      1         15           0       -0.394166    0.485087    0.690827
      2          5           0        1.278171   -0.302959    0.047886
      3          8           0        1.372047   -1.650767   -0.082195
      4          6           0       -0.500733    1.943905   -0.451341
      5          1           0       -0.470248    1.666469   -1.505489
      6          1           0        0.358608    2.581611   -0.225060
      7         17           0       -1.806235   -0.817784   -0.210716
      8          1           0       -1.416880    2.498911   -0.246047
      9          1           0        2.237351   -1.990996   -0.334337
     10          8           0        2.298359    0.589693   -0.126339
     11          1           0        3.159951    0.209986   -0.332417
 ---------------------------------------------------------------------

 SCF Done:  E(RHF) =  -1015.94147938     A.U. after    2 cycles

 The electronic state is 1-A.
 Alpha  occ. eigenvalues -- -105.54330 -84.30100 -20.58619 -20.58094 -11.24564
 Alpha  occ. eigenvalues --  -10.59171  -7.76079  -7.75725  -7.75710  -7.67271
 Alpha  occ. eigenvalues --   -6.76944  -4.29211  -4.29115  -4.28459  -1.50552
 Alpha  occ. eigenvalues --   -1.46625  -1.05197  -0.97231  -0.82775  -0.76272
 Alpha  occ. eigenvalues --   -0.73553  -0.65871  -0.59883  -0.58542  -0.58242
 Alpha  occ. eigenvalues --   -0.54762  -0.51914  -0.50272  -0.48542  -0.46444
 Alpha  occ. eigenvalues --   -0.42199  -0.32590
 Alpha virt. eigenvalues --    0.01903   0.04354   0.04730   0.05047   0.06929
 Alpha virt. eigenvalues --    0.07069   0.07510   0.08476   0.09866   0.10720
 Alpha virt. eigenvalues --    0.11620   0.12215   0.14201   0.15684   0.16332

 Mulliken charges:
               1
     1  P    0.180368
     2  B    2.102124
     3  O   -1.122965
     4  C   -0.848103
     5  H    0.102762
     6  H    0.135084
     7  Cl  -0.537443
     8  H    0.118002
     9  H    0.478076
    10  O   -1.097628
    11  H    0.489725
 Sum of Mulliken charges =   0.00000

 Dipole moment (field-independent basis, Debye):
    X=              4.5869    Y=              0.6589    Z=             -0.8667  Tot=              4.7144

 Test job not archived.
 1\1\GINC-SE227\SP\RHF\Aug-CC-pVDZ\C1H5B1Cl1O2P1\OHZDE\09-Apr-2025\0\\#
 t hf aug-cc-pvdz iop(5/13=1,5/36=2,99/5=2) pseudo=read geom=check gues
 s=(read,tcheck) scf=(maxcycle=1)\\title\\0,1\P,0,-0.394166,0.485087,0.
 690827\B,0,1.278171,-0.302959,0.047886\O,0,1.372047,-1.650767,-0.08219
 5\C,0,-0.500733,1.943905,-0.451341\H,0,-0.470248,1.666469,-1.505489\H,
 0,0.358608,2.581611,-0.22506\Cl,0,-1.806235,-0.817784,-0.210716\H,0,-1
 .41688,2.498911,-0.246047\H,0,2.237351,-1.990996,-0.334337\O,0,2.29835
 9,0.589693,-0.126339\H,0,3.159951,0.209986,-0.332417\\Version=ES64L-G1

 Normal termination of Gaussian 16 at Wed Apr  9 00:42:02 2025.
