 Gaussian 16, Revision C.01,

 ----------------------------------------------------------------------
 #t hf aug-cc-pvdz symm=none int=(grid=ultrafine) guess=(read,tcheck) s
 table=(opt,rrhf)
 ----------------------------------------------------------------------
 -----
 title
 -----
 Symbolic Z-matrix:
 Charge =  0 Multiplicity = 1

 SCF Done:  E(RHF) =  -741.733037211     A.U. after   15 cycles
 Normal termination of Gaussian 16 at Tue Apr  8 23:17:56 2025.
 Gaussian 16:  ES64L-G16RevC.01  3-Jul-2019

 ----------------------------------------------------------------------
 #t hf aug-cc-pvdz iop(5/13=1,5/36=2,99/5=2) pseudo=read geom=check gue
 ss=(read,tcheck) scf=(maxcycle=1)
 ----------------------------------------------------------------------
 -----
 title
 -----
 Structure from the checkpoint file:  "BDE49_nonexpt_1053_mol1.chk"
 Charge =  0 Multiplicity = 1

                         Standard orientation:
 ---------------------------------------------------------------------
 Center     Atomic      Atomic             Coordinates (Angstroms)
 Number     Number       Type             X           Y           Z
 ---------------------------------------------------------------------
      1         17           0       -2.227050   -0.004671    0.000001
      2          8           0       -0.684102   -0.761436    0.000005
      3          6           0        0.391543    0.140224   -0.000004
      4          8           0        0.290418    1.334436   -0.000007
      5          7           0        1.521307   -0.606411   -0.000009
      6          6           0        2.843091    0.000709    0.000008
      7          1           0        1.425886   -1.609071    0.000008
      8          1           0        2.713100    1.081303   -0.000067
      9          1           0        3.406726   -0.288828   -0.890998
     10          1           0        3.406659   -0.288711    0.891094
 ---------------------------------------------------------------------

 SCF Done:  E(RHF) =  -742.087603817     A.U. after    2 cycles

 The electronic state is 1-A.
 Alpha  occ. eigenvalues -- -105.63445 -20.65118 -20.53674 -15.54726 -11.43159
 Alpha  occ. eigenvalues --  -11.28655 -10.67594  -7.84603  -7.84007  -7.83991
 Alpha  occ. eigenvalues --   -1.55110  -1.46770  -1.26253  -1.05630  -0.97376
 Alpha  occ. eigenvalues --   -0.84762  -0.77350  -0.70690  -0.69258  -0.65222
 Alpha  occ. eigenvalues --   -0.62694  -0.60006  -0.57677  -0.54575  -0.48360
 Alpha  occ. eigenvalues --   -0.47005  -0.45675  -0.44200
 Alpha virt. eigenvalues --    0.02938   0.04681   0.05040   0.06127   0.06519
 Alpha virt. eigenvalues --    0.09325   0.10134   0.11022   0.11901   0.14194
 Alpha virt. eigenvalues --    0.14823   0.15279   0.16004   0.17603   0.17645

 Mulliken charges:
               1
     1  Cl   0.391020
     2  O   -1.131385
     3  C    1.069495
     4  O   -0.947375
     5  N    0.549170
     6  C   -0.363918
     7  H    0.085699
     8  H    0.071648
     9  H    0.137816
    10  H    0.137829
 Sum of Mulliken charges =   0.00000

 Dipole moment (field-independent basis, Debye):
    X=              2.4379    Y=             -2.3222    Z=              0.0000  Tot=              3.3669

 Test job not archived.
 1\1\GINC-SE393\SP\RHF\Aug-CC-pVDZ\C2H4Cl1N1O2\OHZDE\08-Apr-2025\0\\#t
 hf aug-cc-pvdz iop(5/13=1,5/36=2,99/5=2) pseudo=read geom=check guess=
 (read,tcheck) scf=(maxcycle=1)\\title\\0,1\Cl,0,-2.22705,-0.004671,0.0
 00001\O,0,-0.684102,-0.761436,0.000005\C,0,0.391543,0.140224,-0.000004
 \O,0,0.290418,1.334436,-0.000007\N,0,1.521307,-0.606411,-0.000009\C,0,
 2.843091,0.000709,0.000008\H,0,1.425886,-1.609071,0.000008\H,0,2.7131,
 1.081303,-0.000067\H,0,3.406726,-0.288828,-0.890998\H,0,3.406659,-0.28
 8711,0.891094\\Version=ES64L-G16RevC.01\State=1-A\HF=-742.0876038\RMSD

 Normal termination of Gaussian 16 at Tue Apr  8 23:17:59 2025.
