 Gaussian 16, Revision C.01,

 ----------------------------------------------------------------------
 #t hf aug-cc-pvdz symm=none int=(grid=ultrafine) guess=(read,tcheck) s
 table=(opt,rrhf)
 ----------------------------------------------------------------------
 -----
 title
 -----
 Symbolic Z-matrix:
 Charge =  0 Multiplicity = 1

 SCF Done:  E(RHF) =  -1063.54965566     A.U. after   13 cycles
 Normal termination of Gaussian 16 at Tue Apr  8 23:43:14 2025.
 Gaussian 16:  ES64L-G16RevC.01  3-Jul-2019

 ----------------------------------------------------------------------
 #t hf aug-cc-pvdz iop(5/13=1,5/36=2,99/5=2) pseudo=read geom=check gue
 ss=(read,tcheck) scf=(maxcycle=1)
 ----------------------------------------------------------------------
 -----
 title
 -----
 Structure from the checkpoint file:  "BDE49_nonexpt_1705_mol1.chk"
 Charge =  0 Multiplicity = 1

                         Standard orientation:
 ---------------------------------------------------------------------
 Center     Atomic      Atomic             Coordinates (Angstroms)
 Number     Number       Type             X           Y           Z
 ---------------------------------------------------------------------
      1          9           0       -2.068603   -0.728808    0.006215
      2         16           0       -1.271139    0.750223   -0.024740
      3         15           0        0.721284    0.088618   -0.019476
      4          8           0        1.522048    1.309537   -0.045921
      5          8           0        0.923278   -0.930064   -1.217176
      6          1           0        0.749131   -1.852294   -0.991129
      7          8           0        0.881155   -0.930626    1.207158
      8          1           0        0.775429   -0.512038    2.070686
 ---------------------------------------------------------------------

 SCF Done:  E(RHF) =  -1063.96325037     A.U. after    2 cycles

 The electronic state is 1-A.
 Alpha  occ. eigenvalues --  -94.06266 -84.47780 -26.49646 -20.62972 -20.62340
 Alpha  occ. eigenvalues --  -20.53622  -8.33725  -6.92926  -6.31471  -6.31183
 Alpha  occ. eigenvalues --   -6.30893  -4.47056  -4.46254  -4.45036  -1.59349
 Alpha  occ. eigenvalues --   -1.57165  -1.50400  -1.42367  -1.03955  -0.87182
 Alpha  occ. eigenvalues --   -0.78960  -0.72887  -0.68255  -0.67456  -0.66045
 Alpha  occ. eigenvalues --   -0.62876  -0.61513  -0.59017  -0.57923  -0.51618
 Alpha  occ. eigenvalues --   -0.49868  -0.46388  -0.42333
 Alpha virt. eigenvalues --    0.02818   0.04321   0.05180   0.07284   0.09189
 Alpha virt. eigenvalues --    0.10413   0.11284   0.12294   0.13467   0.14646
 Alpha virt. eigenvalues --    0.17262   0.18264   0.19528   0.22242   0.22768

 Mulliken charges:
               1
     1  F   -0.658299
     2  S    0.191862
     3  P    3.443938
     4  O   -1.321111
     5  O   -1.189828
     6  H    0.374005
     7  O   -1.243611
     8  H    0.403043
 Sum of Mulliken charges =  -0.00000

 Dipole moment (field-independent basis, Debye):
    X=             -0.7983    Y=             -2.6439    Z=              1.7906  Tot=              3.2915

 Test job not archived.
 1\1\GINC-SE361\SP\RHF\Aug-CC-pVDZ\F1H2O3P1S1\OHZDE\08-Apr-2025\0\\#t h
 f aug-cc-pvdz iop(5/13=1,5/36=2,99/5=2) pseudo=read geom=check guess=(
 read,tcheck) scf=(maxcycle=1)\\title\\0,1\F,0,-2.068603,-0.728808,0.00
 6215\S,0,-1.271139,0.750223,-0.02474\P,0,0.721284,0.088618,-0.019476\O
 ,0,1.522048,1.309537,-0.045921\O,0,0.923278,-0.930064,-1.217176\H,0,0.
 749131,-1.852294,-0.991129\O,0,0.881155,-0.930626,1.207158\H,0,0.77542
 9,-0.512038,2.070686\\Version=ES64L-G16RevC.01\State=1-A\HF=-1063.9632
 504\RMSD=9.417e-03\Dipole=-0.314086,-1.0402077,0.7044665\Quadrupole=-4

 Normal termination of Gaussian 16 at Tue Apr  8 23:43:16 2025.
