 Gaussian 16, Revision C.01,

 ----------------------------------------------------------------------
 #t hf aug-cc-pvdz symm=none int=(grid=ultrafine) guess=(read,tcheck) s
 table=(opt,rrhf)
 ----------------------------------------------------------------------
 -----
 title
 -----
 Symbolic Z-matrix:
 Charge =  0 Multiplicity = 1

 SCF Done:  E(RHF) =  -1479.65928317     A.U. after   15 cycles
 Normal termination of Gaussian 16 at Wed Apr  9 00:16:37 2025.
 Gaussian 16:  ES64L-G16RevC.01  3-Jul-2019

 ----------------------------------------------------------------------
 #t hf aug-cc-pvdz iop(5/13=1,5/36=2,99/5=2) pseudo=read geom=check gue
 ss=(read,tcheck) scf=(maxcycle=1)
 ----------------------------------------------------------------------
 -----
 title
 -----
 Structure from the checkpoint file:  "BDE49_nonexpt_2550_mol1.chk"
 Charge =  0 Multiplicity = 1

                         Standard orientation:
 ---------------------------------------------------------------------
 Center     Atomic      Atomic             Coordinates (Angstroms)
 Number     Number       Type             X           Y           Z
 ---------------------------------------------------------------------
      1         17           0        2.202398   -0.407011   -0.019569
      2         16           0        0.764431    1.067734    0.083242
      3         16           0       -1.025850   -0.060516   -0.128559
      4          8           0       -2.012131    0.973386   -0.065129
      5          8           0       -0.916739   -1.013319   -1.193933
      6          8           0       -1.129510   -0.886823    1.254065
      7          1           0       -0.791020   -1.782251    1.097723
 ---------------------------------------------------------------------

 SCF Done:  E(RHF) =  -1480.07550163     A.U. after    2 cycles

 The electronic state is 1-A.
 Alpha  occ. eigenvalues -- -105.62757 -94.28472 -94.06823 -20.65521 -20.59414
 Alpha  occ. eigenvalues --  -20.59154 -10.67444  -8.53091  -8.34576  -7.84391
 Alpha  occ. eigenvalues --   -7.83921  -7.83874  -6.51191  -6.51031  -6.50919
 Alpha  occ. eigenvalues --   -6.32295  -6.32100  -6.31748  -1.65221  -1.52284
 Alpha  occ. eigenvalues --   -1.50047  -1.17053  -1.02327  -0.90812  -0.78803
 Alpha  occ. eigenvalues --   -0.74301  -0.72865  -0.66737  -0.60553  -0.58989
 Alpha  occ. eigenvalues --   -0.56438  -0.55165  -0.54180  -0.53170  -0.51302
 Alpha  occ. eigenvalues --   -0.46910  -0.42492
 Alpha virt. eigenvalues --    0.02075   0.03288   0.05448   0.08031   0.09778
 Alpha virt. eigenvalues --    0.10353   0.11324   0.12073   0.12725   0.13690
 Alpha virt. eigenvalues --    0.14465   0.15922   0.17035   0.18668   0.18864

 Mulliken charges:
               1
     1  Cl  -0.223030
     2  S    0.397738
     3  S    3.217267
     4  O   -1.287085
     5  O   -1.297569
     6  O   -1.173351
     7  H    0.366031
 Sum of Mulliken charges =  -0.00000

 Dipole moment (field-independent basis, Debye):
    X=              1.9514    Y=             -1.2405    Z=              1.5020  Tot=              2.7573

 Test job not archived.
 1\1\GINC-SE455\SP\RHF\Aug-CC-pVDZ\Cl1H1O3S2\OHZDE\09-Apr-2025\0\\#t hf
  aug-cc-pvdz iop(5/13=1,5/36=2,99/5=2) pseudo=read geom=check guess=(r
 ead,tcheck) scf=(maxcycle=1)\\title\\0,1\Cl,0,2.202398,-0.407011,-0.01
 9569\S,0,0.764431,1.067734,0.083242\S,0,-1.02585,-0.060516,-0.128559\O
 ,0,-2.012131,0.973386,-0.065129\O,0,-0.916739,-1.013319,-1.193933\O,0,
 -1.12951,-0.886823,1.254065\H,0,-0.79102,-1.782251,1.097723\\Version=E
 S64L-G16RevC.01\State=1-A\HF=-1480.0755016\RMSD=5.854e-03\Dipole=0.767
 7291,-0.4880486,0.590938\Quadrupole=-1.9192176,3.8713034,-1.9520858,2.

 Normal termination of Gaussian 16 at Wed Apr  9 00:16:40 2025.
