 Gaussian 16, Revision C.01,

 ----------------------------------------------------------------------
 #t hf aug-cc-pvdz symm=none int=(grid=ultrafine) guess=(read,tcheck) s
 table=(opt,rrhf)
 ----------------------------------------------------------------------
 -----
 title
 -----
 Symbolic Z-matrix:
 Charge =  0 Multiplicity = 1

 SCF Done:  E(RHF) =  -743.826307433     A.U. after   14 cycles
 Normal termination of Gaussian 16 at Tue Apr  8 23:54:28 2025.
 Gaussian 16:  ES64L-G16RevC.01  3-Jul-2019

 ----------------------------------------------------------------------
 #t hf aug-cc-pvdz iop(5/13=1,5/36=2,99/5=2) pseudo=read geom=check gue
 ss=(read,tcheck) scf=(maxcycle=1)
 ----------------------------------------------------------------------
 -----
 title
 -----
 Structure from the checkpoint file:  "BDE49_nonexpt_1926_mol1.chk"
 Charge =  0 Multiplicity = 1

                         Standard orientation:
 ---------------------------------------------------------------------
 Center     Atomic      Atomic             Coordinates (Angstroms)
 Number     Number       Type             X           Y           Z
 ---------------------------------------------------------------------
      1         14           0       -0.201137   -1.195606   -1.118888
      2          6           0        1.435773   -0.214547   -1.243658
      3          6           0        1.704487    0.726848   -0.104887
      4          7           0        2.029945    0.360075    1.076137
      5          8           0        2.082204   -1.056392    1.171659
      6          1           0        2.351213   -1.187480    2.086067
      7          6           0       -1.426856   -0.380919    0.063906
      8          1           0        0.071321   -2.569424   -0.641433
      9          1           0       -0.803667   -1.259055   -2.468263
     10          7           0       -2.263661    0.386529   -0.531741
     11          8           0       -3.165003    0.993185    0.367521
     12          1           0       -3.717528    1.517917   -0.220695
     13          6           0        1.572372    2.206759   -0.329276
     14          1           0        2.266493    2.541114   -1.107228
     15          1           0        1.778242    2.751124    0.591970
     16          1           0        0.559912    2.448560   -0.668990
     17          6           0       -1.414555   -0.608663    1.555122
     18          1           0       -2.321390   -1.141627    1.858752
     19          1           0       -1.413833    0.347412    2.084278
     20          1           0       -0.541903   -1.186114    1.857383
     21          1           0        1.425114    0.341226   -2.183760
     22          1           0        2.233019   -0.962616   -1.295113
 ---------------------------------------------------------------------

 SCF Done:  E(RHF) =  -744.322199345     A.U. after    2 cycles

 The electronic state is 1-A.
 Alpha  occ. eigenvalues --  -69.53591 -20.58264 -20.58235 -15.56620 -15.55155
 Alpha  occ. eigenvalues --  -11.29427 -11.26858 -11.24321 -11.23714 -11.23432
 Alpha  occ. eigenvalues --   -6.20585  -3.95956  -3.95926  -3.95912  -1.49442
 Alpha  occ. eigenvalues --   -1.49096  -1.19242  -1.17989  -1.01017  -0.98324
 Alpha  occ. eigenvalues --   -0.96550  -0.80424  -0.75491  -0.72100  -0.71039
 Alpha  occ. eigenvalues --   -0.69759  -0.66677  -0.63566  -0.62491  -0.61065
 Alpha  occ. eigenvalues --   -0.58821  -0.57630  -0.56710  -0.56151  -0.55096
 Alpha  occ. eigenvalues --   -0.54733  -0.50981  -0.49389  -0.47676  -0.45790
 Alpha  occ. eigenvalues --   -0.43789  -0.40828  -0.39351
 Alpha virt. eigenvalues --    0.03450   0.03947   0.04170   0.04207   0.05148
 Alpha virt. eigenvalues --    0.05251   0.05944   0.06114   0.06982   0.08151
 Alpha virt. eigenvalues --    0.08440   0.09173   0.09332   0.10131   0.10794

 Mulliken charges:
               1
     1  Si   1.094265
     2  C   -0.338698
     3  C   -1.017758
     4  N    1.547965
     5  O   -1.227148
     6  H    0.325732
     7  C   -1.484311
     8  H   -0.079062
     9  H   -0.146498
    10  N    1.491412
    11  O   -1.149680
    12  H    0.306544
    13  C   -0.658343
    14  H    0.249471
    15  H    0.192821
    16  H    0.256997
    17  C   -0.173675
    18  H    0.232109
    19  H    0.255770
    20  H    0.103624
    21  H    0.007904
    22  H    0.210560
 Sum of Mulliken charges =  -0.00000

 Dipole moment (field-independent basis, Debye):
    X=              0.5691    Y=              0.1757    Z=             -0.5451  Tot=              0.8073

 Test job not archived.
 1\1\GINC-SE345\SP\RHF\Aug-CC-pVDZ\C5H12N2O2Si1\OHZDE\08-Apr-2025\0\\#t
  hf aug-cc-pvdz iop(5/13=1,5/36=2,99/5=2) pseudo=read geom=check guess
 =(read,tcheck) scf=(maxcycle=1)\\title\\0,1\Si,0,-0.201137,-1.195606,-
 1.118888\C,0,1.435773,-0.214547,-1.243658\C,0,1.704487,0.726848,-0.104
 887\N,0,2.029945,0.360075,1.076137\O,0,2.082204,-1.056392,1.171659\H,0
 ,2.351213,-1.18748,2.086067\C,0,-1.426856,-0.380919,0.063906\H,0,0.071
 321,-2.569424,-0.641433\H,0,-0.803667,-1.259055,-2.468263\N,0,-2.26366
 1,0.386529,-0.531741\O,0,-3.165003,0.993185,0.367521\H,0,-3.717528,1.5

 Normal termination of Gaussian 16 at Tue Apr  8 23:54:42 2025.
