 Gaussian 16, Revision C.01,

 ----------------------------------------------------------------------
 #t hf aug-cc-pvdz symm=none int=(grid=ultrafine) guess=(read,tcheck) s
 table=(opt,rrhf)
 ----------------------------------------------------------------------
 -----
 title
 -----
 Symbolic Z-matrix:
 Charge =  0 Multiplicity = 1

 SCF Done:  E(RHF) =  -686.156444288     A.U. after   17 cycles
 Normal termination of Gaussian 16 at Wed Apr  9 00:21:58 2025.
 Gaussian 16:  ES64L-G16RevC.01  3-Jul-2019

 ----------------------------------------------------------------------
 #t hf aug-cc-pvdz iop(5/13=1,5/36=2,99/5=2) pseudo=read geom=check gue
 ss=(read,tcheck) scf=(maxcycle=1)
 ----------------------------------------------------------------------
 -----
 title
 -----
 Structure from the checkpoint file:  "BDE49_nonexpt_2651_mol1.chk"
 Charge =  0 Multiplicity = 1

                         Standard orientation:
 ---------------------------------------------------------------------
 Center     Atomic      Atomic             Coordinates (Angstroms)
 Number     Number       Type             X           Y           Z
 ---------------------------------------------------------------------
      1          9           0       -1.814926    1.015356    0.048150
      2         16           0       -1.198230   -0.522893   -0.099369
      3          8           0        0.213530   -0.459451    0.505303
      4          8           0        1.332472   -0.017306   -0.600843
      5          6           0        2.464937    0.307192    0.159334
      6          1           0        3.217390    0.586861   -0.588050
      7          1           0        2.841329   -0.549640    0.730364
      8          1           0        2.289657    1.161766    0.822557
 ---------------------------------------------------------------------

 SCF Done:  E(RHF) =  -686.489905973     A.U. after    2 cycles

 The electronic state is 1-A.
 Alpha  occ. eigenvalues --  -94.09535 -26.47535 -20.67890 -20.65324 -11.31038
 Alpha  occ. eigenvalues --   -8.36333  -6.34116  -6.33834  -6.33433  -1.60230
 Alpha  occ. eigenvalues --   -1.56104  -1.40902  -0.95902  -0.93795  -0.72722
 Alpha  occ. eigenvalues --   -0.70039  -0.69053  -0.65750  -0.64790  -0.62744
 Alpha  occ. eigenvalues --   -0.58548  -0.54947  -0.53534  -0.47798  -0.37617
 Alpha virt. eigenvalues --    0.03497   0.05205   0.05586   0.07021   0.08096
 Alpha virt. eigenvalues --    0.09535   0.09584   0.11104   0.14290   0.15305
 Alpha virt. eigenvalues --    0.16567   0.17572   0.17883   0.21099   0.22871

 Mulliken charges:
               1
     1  F   -0.641117
     2  S    1.370163
     3  O   -0.741029
     4  O   -0.733815
     5  C    0.385662
     6  H    0.072724
     7  H    0.142773
     8  H    0.144639
 Sum of Mulliken charges =  -0.00000

 Dipole moment (field-independent basis, Debye):
    X=              2.3907    Y=             -0.5270    Z=              0.3219  Tot=              2.4691

 Test job not archived.
 1\1\GINC-SE016\SP\RHF\Aug-CC-pVDZ\C1H3F1O2S1\OHZDE\09-Apr-2025\0\\#t h
 f aug-cc-pvdz iop(5/13=1,5/36=2,99/5=2) pseudo=read geom=check guess=(
 read,tcheck) scf=(maxcycle=1)\\title\\0,1\F,0,-1.814926,1.015356,0.048
 15\S,0,-1.19823,-0.522893,-0.099369\O,0,0.21353,-0.459451,0.505303\O,0
 ,1.332472,-0.017306,-0.600843\C,0,2.464937,0.307192,0.159334\H,0,3.217
 39,0.586861,-0.58805\H,0,2.841329,-0.54964,0.730364\H,0,2.289657,1.161
 766,0.822557\\Version=ES64L-G16RevC.01\State=1-A\HF=-686.489906\RMSD=5
 .270e-03\Dipole=0.9405631,-0.2073346,0.1266552\Quadrupole=3.4129704,-1

 Normal termination of Gaussian 16 at Wed Apr  9 00:22:01 2025.
