 Gaussian 16, Revision C.01,

 ----------------------------------------------------------------------
 #t hf aug-cc-pvdz symm=none int=(grid=ultrafine) guess=(read,tcheck) s
 table=(opt,rrhf)
 ----------------------------------------------------------------------
 -----
 title
 -----
 Symbolic Z-matrix:
 Charge =  0 Multiplicity = 1

 SCF Done:  E(RHF) =  -835.266544336     A.U. after   13 cycles
 Normal termination of Gaussian 16 at Tue Apr  8 22:46:28 2025.
 Gaussian 16:  ES64L-G16RevC.01  3-Jul-2019

 ----------------------------------------------------------------------
 #t hf aug-cc-pvdz iop(5/13=1,5/36=2,99/5=2) pseudo=read geom=check gue
 ss=(read,tcheck) scf=(maxcycle=1)
 ----------------------------------------------------------------------
 -----
 title
 -----
 Structure from the checkpoint file:  "BDE49_expt_1590_mol1.chk"
 Charge =  0 Multiplicity = 1

                         Standard orientation:
 ---------------------------------------------------------------------
 Center     Atomic      Atomic             Coordinates (Angstroms)
 Number     Number       Type             X           Y           Z
 ---------------------------------------------------------------------
      1          6           0       -1.664501    0.690282   -0.004594
      2         16           0       -0.485713   -0.707072    0.014339
      3          1           0       -2.657222    0.234921   -0.048817
      4          1           0       -1.511281    1.310595   -0.886418
      5          1           0       -1.580040    1.286830    0.903136
      6         16           0        1.370544    0.244083   -0.087604
      7          1           0        1.578244    0.433797    1.231895
 ---------------------------------------------------------------------

 SCF Done:  E(RHF) =  -835.434415779     A.U. after    2 cycles

 The electronic state is 1-A.
 Alpha  occ. eigenvalues --  -93.98021 -93.97753 -11.27595  -8.25968  -8.25665
 Alpha  occ. eigenvalues --   -6.23790  -6.23618  -6.23473  -6.23376  -6.23260
 Alpha  occ. eigenvalues --   -6.23025  -1.10495  -0.99064  -0.84868  -0.61758
 Alpha  occ. eigenvalues --   -0.60785  -0.56956  -0.52367  -0.46384  -0.38379
 Alpha  occ. eigenvalues --   -0.36961
 Alpha virt. eigenvalues --    0.03579   0.04318   0.05541   0.05908   0.07246
 Alpha virt. eigenvalues --    0.10159   0.12255   0.12983   0.13273   0.14431
 Alpha virt. eigenvalues --    0.15089   0.16510   0.16754   0.17162   0.17963

 Mulliken charges:
               1
     1  C   -0.674640
     2  S    0.058029
     3  H    0.189671
     4  H    0.201098
     5  H    0.189963
     6  S   -0.359657
     7  H    0.395536
 Sum of Mulliken charges =   0.00000

 Dipole moment (field-independent basis, Debye):
    X=             -1.1451    Y=              1.3739    Z=              0.9117  Tot=              2.0075

 Test job not archived.
 1\1\GINC-SE226\SP\RHF\Aug-CC-pVDZ\C1H4S2\OHZDE\08-Apr-2025\0\\#t hf au
 g-cc-pvdz iop(5/13=1,5/36=2,99/5=2) pseudo=read geom=check guess=(read
 ,tcheck) scf=(maxcycle=1)\\title\\0,1\C,0,-1.664501,0.690282,-0.004594
 \S,0,-0.485713,-0.707072,0.014339\H,0,-2.657222,0.234921,-0.048817\H,0
 ,-1.511281,1.310595,-0.886418\H,0,-1.58004,1.28683,0.903136\S,0,1.3705
 44,0.244083,-0.087604\H,0,1.578244,0.433797,1.231895\\Version=ES64L-G1
 6RevC.01\State=1-A\HF=-835.4344158\RMSD=4.761e-03\Dipole=-0.4505237,0.
 5405278,0.3586758\Quadrupole=1.9173205,-1.6721377,-0.2451828,-0.213321

 Normal termination of Gaussian 16 at Tue Apr  8 22:46:30 2025.
