 Gaussian 16, Revision C.01,

 ----------------------------------------------------------------------
 #t hf aug-cc-pvdz symm=none int=(grid=ultrafine) guess=(read,tcheck) s
 table=(opt,rrhf)
 ----------------------------------------------------------------------
 -----
 title
 -----
 Symbolic Z-matrix:
 Charge =  0 Multiplicity = 1

 SCF Done:  E(RHF) =  -967.930527434     A.U. after   18 cycles
 Normal termination of Gaussian 16 at Tue Apr  8 23:20:10 2025.
 Gaussian 16:  ES64L-G16RevC.01  3-Jul-2019

 ----------------------------------------------------------------------
 #t hf aug-cc-pvdz iop(5/13=1,5/36=2,99/5=2) pseudo=read geom=check gue
 ss=(read,tcheck) scf=(maxcycle=1)
 ----------------------------------------------------------------------
 -----
 title
 -----
 Structure from the checkpoint file:  "BDE49_nonexpt_1088_mol1.chk"
 Charge =  0 Multiplicity = 1

                         Standard orientation:
 ---------------------------------------------------------------------
 Center     Atomic      Atomic             Coordinates (Angstroms)
 Number     Number       Type             X           Y           Z
 ---------------------------------------------------------------------
      1         17           0        2.942211   -0.445483   -0.202446
      2          8           0        1.277317   -0.802471    0.174459
      3          6           0        0.409082    0.255781    0.102486
      4          6           0       -0.966699   -0.044491    0.021091
      5          6           0       -1.914561    0.972677   -0.034487
      6          6           0       -1.521661    2.302125   -0.004467
      7          6           0        0.790727    1.596883    0.121312
      8          1           0        1.841881    1.842650    0.165889
      9          6           0       -0.164584    2.605635    0.073065
     10          1           0        0.162727    3.638411    0.094838
     11          1           0       -2.263735    3.089181   -0.042872
     12          7           0       -1.462568   -1.432084    0.010477
     13          8           0       -2.576498   -1.622178   -0.462992
     14          8           0       -0.745832   -2.298967    0.486796
     15          1           0       -2.954210    0.684826   -0.109732
 ---------------------------------------------------------------------

 SCF Done:  E(RHF) =  -968.499124774     A.U. after    2 cycles

 The electronic state is 1-A.
 Alpha  occ. eigenvalues -- -105.65079 -20.66798 -20.59248 -20.58839 -15.79636
 Alpha  occ. eigenvalues --  -11.36964 -11.32664 -11.29256 -11.29214 -11.27864
 Alpha  occ. eigenvalues --  -11.27425 -10.69239  -7.86229  -7.85677  -7.85643
 Alpha  occ. eigenvalues --   -1.67187  -1.53723  -1.50726  -1.21182  -1.12119
 Alpha  occ. eigenvalues --   -1.08092  -1.04304  -0.98484  -0.87939  -0.86316
 Alpha  occ. eigenvalues --   -0.80448  -0.75458  -0.75093  -0.74765  -0.70456
 Alpha  occ. eigenvalues --   -0.68707  -0.66413  -0.65936  -0.60783  -0.58042
 Alpha  occ. eigenvalues --   -0.56057  -0.54813  -0.50824  -0.49477  -0.48594
 Alpha  occ. eigenvalues --   -0.48091  -0.44851  -0.39632  -0.36898
 Alpha virt. eigenvalues --    0.02426   0.02513   0.03065   0.03835   0.04956
 Alpha virt. eigenvalues --    0.06507   0.08283   0.08871   0.09982   0.10395
 Alpha virt. eigenvalues --    0.10703   0.12010   0.12568   0.12827   0.12940

 Mulliken charges:
               1
     1  Cl   0.276146
     2  O   -1.635387
     3  C    1.075488
     4  C   -0.289955
     5  C    0.458757
     6  C    0.384920
     7  C    0.538646
     8  H   -0.258081
     9  C    0.147827
    10  H   -0.210722
    11  H   -0.191911
    12  N    2.700018
    13  O   -1.409722
    14  O   -1.364387
    15  H   -0.221637
 Sum of Mulliken charges =   0.00000

 Dipole moment (field-independent basis, Debye):
    X=              1.2784    Y=              5.3864    Z=             -0.0311  Tot=              5.5361

 Test job not archived.
 1\1\GINC-SE340\SP\RHF\Aug-CC-pVDZ\C6H4Cl1N1O3\OHZDE\08-Apr-2025\0\\#t
 hf aug-cc-pvdz iop(5/13=1,5/36=2,99/5=2) pseudo=read geom=check guess=
 (read,tcheck) scf=(maxcycle=1)\\title\\0,1\Cl,0,2.942211,-0.445484,-0.
 202446\O,0,1.277317,-0.802471,0.174459\C,0,0.409082,0.255781,0.102486\
 C,0,-0.966699,-0.044491,0.021091\C,0,-1.914561,0.972677,-0.034487\C,0,
 -1.52166,2.302125,-0.004467\C,0,0.790727,1.596883,0.121312\H,0,1.84188
 1,1.842649,0.165889\C,0,-0.164583,2.605635,0.073065\H,0,0.162728,3.638
 411,0.094838\H,0,-2.263734,3.089181,-0.042872\N,0,-1.462568,-1.432084,

 Normal termination of Gaussian 16 at Tue Apr  8 23:20:17 2025.
