 Gaussian 16, Revision C.01,

 ----------------------------------------------------------------------
 #t hf aug-cc-pvdz symm=none int=(grid=ultrafine) guess=(read,tcheck) s
 table=(opt,rrhf)
 ----------------------------------------------------------------------
 -----
 title
 -----
 Symbolic Z-matrix:
 Charge =  0 Multiplicity = 1

 SCF Done:  E(RHF) =  -840.991899333     A.U. after   16 cycles
 Normal termination of Gaussian 16 at Wed Apr  9 00:24:57 2025.
 Gaussian 16:  ES64L-G16RevC.01  3-Jul-2019

 ----------------------------------------------------------------------
 #t hf aug-cc-pvdz iop(5/13=1,5/36=2,99/5=2) pseudo=read geom=check gue
 ss=(read,tcheck) scf=(maxcycle=1)
 ----------------------------------------------------------------------
 -----
 title
 -----
 Structure from the checkpoint file:  "BDE49_nonexpt_2696_mol1.chk"
 Charge =  0 Multiplicity = 1

                         Standard orientation:
 ---------------------------------------------------------------------
 Center     Atomic      Atomic             Coordinates (Angstroms)
 Number     Number       Type             X           Y           Z
 ---------------------------------------------------------------------
      1          9           0        3.303288   -0.186261    1.135329
      2         16           0        2.784614   -0.134958   -0.481710
      3          6           0        1.051619    0.025837   -0.273327
      4          6           0        0.455499    1.296432   -0.159848
      5          6           0       -0.912681    1.421060   -0.021231
      6          6           0       -1.725192    0.275185    0.005547
      7          6           0        0.232505   -1.109841   -0.243837
      8          1           0        0.686902   -2.089425   -0.327077
      9          6           0       -1.146173   -0.995879   -0.108201
     10          1           0       -1.754686   -1.889504   -0.090561
     11          1           0        1.084170    2.177980   -0.180701
     12          8           0       -3.051531    0.503963    0.141732
     13          6           0       -3.944092   -0.606382    0.183651
     14          1           0       -3.902928   -1.185171   -0.744600
     15          1           0       -4.938123   -0.179297    0.299473
     16          1           0       -3.727118   -1.259019    1.035211
     17          1           0       -1.388304    2.389930    0.067277
 ---------------------------------------------------------------------

 SCF Done:  E(RHF) =  -841.490047750     A.U. after    2 cycles

 The electronic state is 1-A.
 Alpha  occ. eigenvalues --  -94.02502 -26.44455 -20.59509 -11.33803 -11.31263
 Alpha  occ. eigenvalues --  -11.27767 -11.27451 -11.27371 -11.25748 -11.25269
 Alpha  occ. eigenvalues --   -8.29724  -6.27519  -6.27246  -6.26967  -1.53831
 Alpha  occ. eigenvalues --   -1.52096  -1.18024  -1.07408  -1.04678  -0.99128
 Alpha  occ. eigenvalues --   -0.93539  -0.86634  -0.82316  -0.74835  -0.70421
 Alpha  occ. eigenvalues --   -0.68144  -0.67561  -0.65003  -0.62533  -0.62494
 Alpha  occ. eigenvalues --   -0.62307  -0.60790  -0.59756  -0.55294  -0.54869
 Alpha  occ. eigenvalues --   -0.50849  -0.49571  -0.48297  -0.37769  -0.37166
 Alpha  occ. eigenvalues --   -0.34499
 Alpha virt. eigenvalues --    0.02759   0.03390   0.04088   0.04699   0.05388
 Alpha virt. eigenvalues --    0.05816   0.05972   0.08149   0.08807   0.08958
 Alpha virt. eigenvalues --    0.09049   0.09842   0.12294   0.12586   0.13426

 Mulliken charges:
               1
     1  F   -0.654873
     2  S    0.734569
     3  C    0.358059
     4  C    0.117658
     5  C    0.321504
     6  C    1.548368
     7  C   -0.074244
     8  H   -0.191882
     9  C    0.168087
    10  H   -0.420627
    11  H   -0.201479
    12  O   -1.847851
    13  C    0.090782
    14  H    0.182619
    15  H   -0.029290
    16  H    0.182550
    17  H   -0.283950
 Sum of Mulliken charges =  -0.00000

 Dipole moment (field-independent basis, Debye):
    X=             -4.5301    Y=             -0.9456    Z=             -0.9449  Tot=              4.7232

 Test job not archived.
 1\1\GINC-SE072\SP\RHF\Aug-CC-pVDZ\C7H7F1O1S1\OHZDE\09-Apr-2025\0\\#t h
 f aug-cc-pvdz iop(5/13=1,5/36=2,99/5=2) pseudo=read geom=check guess=(
 read,tcheck) scf=(maxcycle=1)\\title\\0,1\F,0,3.303288,-0.186261,1.135
 329\S,0,2.784614,-0.134958,-0.48171\C,0,1.051619,0.025837,-0.273327\C,
 0,0.455499,1.296432,-0.159848\C,0,-0.912681,1.42106,-0.021231\C,0,-1.7
 25192,0.275185,0.005547\C,0,0.232505,-1.109841,-0.243837\H,0,0.686902,
 -2.089425,-0.327077\C,0,-1.146173,-0.995879,-0.108201\H,0,-1.754686,-1
 .889504,-0.090561\H,0,1.08417,2.17798,-0.180701\O,0,-3.051531,0.503963

 Normal termination of Gaussian 16 at Wed Apr  9 00:25:06 2025.
