 Gaussian 16, Revision C.01,

 ----------------------------------------------------------------------
 #t hf aug-cc-pvdz symm=none int=(grid=ultrafine) guess=(read,tcheck) s
 table=(opt,rrhf)
 ----------------------------------------------------------------------
 -----
 title
 -----
 Symbolic Z-matrix:
 Charge =  0 Multiplicity = 1

 SCF Done:  E(RHF) =  -795.176075391     A.U. after   15 cycles
 Normal termination of Gaussian 16 at Wed Apr  9 00:44:44 2025.
 Gaussian 16:  ES64L-G16RevC.01  3-Jul-2019

 ----------------------------------------------------------------------
 #t hf aug-cc-pvdz iop(5/13=1,5/36=2,99/5=2) pseudo=read geom=check gue
 ss=(read,tcheck) scf=(maxcycle=1)
 ----------------------------------------------------------------------
 -----
 title
 -----
 Structure from the checkpoint file:  "BDE49_nonexpt_734_mol1.chk"
 Charge =  0 Multiplicity = 1

                         Standard orientation:
 ---------------------------------------------------------------------
 Center     Atomic      Atomic             Coordinates (Angstroms)
 Number     Number       Type             X           Y           Z
 ---------------------------------------------------------------------
      1          6           0       -0.540897   -0.343263    0.343909
      2          5           0        2.258266    0.259180   -0.250250
      3          9           0        3.415550   -0.210128   -0.699316
      4          9           0        1.965667    1.519811   -0.538781
      5          6           0       -1.074272    0.903578    0.694481
      6          6           0       -1.339122   -1.242493   -0.373375
      7          6           0       -2.368253    1.250308    0.316413
      8          6           0       -3.155770    0.350120   -0.398402
      9          6           0       -2.638669   -0.897801   -0.737874
     10          1           0       -3.244244   -1.605111   -1.293526
     11          1           0       -0.946235   -2.213484   -0.653590
     12          1           0       -2.763257    2.222823    0.587869
     13          1           0       -4.165716    0.618419   -0.686352
     14          1           0       -0.477683    1.609210    1.262350
     15         15           0        1.150494   -0.788205    0.924215
     16          1           0        1.319352   -2.014522    0.243222
 ---------------------------------------------------------------------

 SCF Done:  E(RHF) =  -795.659110301     A.U. after    2 cycles

 The electronic state is 1-A.
 Alpha  occ. eigenvalues --  -84.27987 -26.48449 -26.48408 -11.26698 -11.25674
 Alpha  occ. eigenvalues --  -11.25523 -11.25403 -11.25338 -11.25244  -7.73439
 Alpha  occ. eigenvalues --   -6.75335  -4.28319  -4.27956  -4.27256  -1.63605
 Alpha  occ. eigenvalues --   -1.59550  -1.16627  -1.03877  -1.02822  -0.90225
 Alpha  occ. eigenvalues --   -0.84657  -0.82303  -0.79796  -0.74730  -0.72071
 Alpha  occ. eigenvalues --   -0.69779  -0.69361  -0.65522  -0.64473  -0.63745
 Alpha  occ. eigenvalues --   -0.63012  -0.61034  -0.57228  -0.53007  -0.51836
 Alpha  occ. eigenvalues --   -0.49814  -0.47122  -0.39409  -0.35710  -0.32220
 Alpha virt. eigenvalues --    0.03140   0.03593   0.03814   0.05124   0.05152
 Alpha virt. eigenvalues --    0.05288   0.06939   0.07435   0.08571   0.08621
 Alpha virt. eigenvalues --    0.09236   0.09420   0.10348   0.11514   0.12508

 Mulliken charges:
               1
     1  C    0.370543
     2  B    1.832469
     3  F   -0.690130
     4  F   -0.626184
     5  C   -0.048904
     6  C   -0.108336
     7  C    0.406015
     8  C    0.108595
     9  C    0.467497
    10  H   -0.215297
    11  H   -0.265075
    12  H   -0.217471
    13  H   -0.207972
    14  H   -0.292502
    15  P   -0.676720
    16  H    0.163473
 Sum of Mulliken charges =  -0.00000

 Dipole moment (field-independent basis, Debye):
    X=             -1.7048    Y=             -0.5844    Z=              0.0610  Tot=              1.8032

 Test job not archived.
 1\1\GINC-SE039\SP\RHF\Aug-CC-pVDZ\C6H6B1F2P1\OHZDE\09-Apr-2025\0\\#t h
 f aug-cc-pvdz iop(5/13=1,5/36=2,99/5=2) pseudo=read geom=check guess=(
 read,tcheck) scf=(maxcycle=1)\\title\\0,1\C,0,-0.540897,-0.343263,0.34
 3909\B,0,2.258266,0.25918,-0.25025\F,0,3.41555,-0.210128,-0.699316\F,0
 ,1.965667,1.519811,-0.538781\C,0,-1.074272,0.903578,0.694481\C,0,-1.33
 9122,-1.242493,-0.373375\C,0,-2.368253,1.250308,0.316413\C,0,-3.15577,
 0.35012,-0.398402\C,0,-2.638669,-0.897801,-0.737874\H,0,-3.244244,-1.6
 05111,-1.293526\H,0,-0.946235,-2.213484,-0.65359\H,0,-2.763257,2.22282

 Normal termination of Gaussian 16 at Wed Apr  9 00:44:56 2025.
