 Gaussian 16, Revision C.01,

 ----------------------------------------------------------------------
 #t hf aug-cc-pvdz symm=none int=(grid=ultrafine) guess=(read,tcheck) s
 table=(opt,rrhf)
 ----------------------------------------------------------------------
 -----
 title
 -----
 Symbolic Z-matrix:
 Charge =  0 Multiplicity = 1

 SCF Done:  E(RHF) =  -952.381903648     A.U. after   14 cycles

 1\1\GINC-SE334\Stability\RHF\Aug-CC-pVDZ\C4H10S2\OHZDE\08-Apr-2025\0\\
 #t hf aug-cc-pvdz symm=none int=(grid=ultrafine) guess=(read,tcheck) s
 table=(opt,rrhf)\\title\\0,1\C,0,1.334403,0.041162,0.444786\S,0,0.0625
 05,-0.606119,-0.752942\S,0,-1.647876,0.504858,-0.36028\C,0,-2.474351,-
 0.448262,0.967027\H,0,-3.423706,0.060361,1.152664\H,0,-1.882243,-0.447
 577,1.881542\H,0,-2.667103,-1.46839,0.638319\C,0,1.681571,1.503082,0.1
 84946\H,0,2.125655,1.625789,-0.806572\H,0,2.401626,1.85671,0.930981\H,
 0,0.795187,2.137034,0.244923\C,0,2.546798,-0.88526,0.315042\H,0,0.9011

 Normal termination of Gaussian 16 at Tue Apr  8 22:46:59 2025.
 Gaussian 16:  ES64L-G16RevC.01  3-Jul-2019

 ----------------------------------------------------------------------
 #t hf aug-cc-pvdz iop(5/13=1,5/36=2,99/5=2) pseudo=read geom=check gue
 ss=(read,tcheck) scf=(maxcycle=1)
 ----------------------------------------------------------------------
 -----
 title
 -----
 Structure from the checkpoint file:  "BDE49_expt_1593_mol1.chk"
 Charge =  0 Multiplicity = 1

                         Standard orientation:
 ---------------------------------------------------------------------
 Center     Atomic      Atomic             Coordinates (Angstroms)
 Number     Number       Type             X           Y           Z
 ---------------------------------------------------------------------
      1          6           0        1.334403    0.041162    0.444786
      2         16           0        0.062505   -0.606119   -0.752942
      3         16           0       -1.647876    0.504858   -0.360280
      4          6           0       -2.474351   -0.448262    0.967027
      5          1           0       -3.423706    0.060361    1.152664
      6          1           0       -1.882243   -0.447577    1.881542
      7          1           0       -2.667103   -1.468390    0.638319
      8          6           0        1.681571    1.503082    0.184946
      9          1           0        2.125655    1.625789   -0.806572
     10          1           0        2.401626    1.856710    0.930981
     11          1           0        0.795187    2.137034    0.244923
     12          6           0        2.546798   -0.885260    0.315042
     13          1           0        0.901176   -0.069615    1.441853
     14          1           0        2.966481   -0.845965   -0.694487
     15          1           0        2.290055   -1.923020    0.539052
     16          1           0        3.328287   -0.569473    1.012472
 ---------------------------------------------------------------------

 SCF Done:  E(RHF) =  -952.681045194     A.U. after    2 cycles

 The electronic state is 1-A.
 Alpha  occ. eigenvalues --  -93.96588 -93.96088 -11.27815 -11.26919 -11.23918
 Alpha  occ. eigenvalues --  -11.23075  -8.24504  -8.24016  -6.22310  -6.22108
 Alpha  occ. eigenvalues --   -6.21885  -6.21819  -6.21601  -6.21396  -1.12082
 Alpha  occ. eigenvalues --   -1.06593  -0.96258  -0.94494  -0.84866  -0.77433
 Alpha  occ. eigenvalues --   -0.64430  -0.61685  -0.60167  -0.59067  -0.58480
 Alpha  occ. eigenvalues --   -0.55388  -0.52266  -0.50908  -0.50554  -0.46852
 Alpha  occ. eigenvalues --   -0.44073  -0.35966  -0.35409
 Alpha virt. eigenvalues --    0.03396   0.03710   0.04165   0.04677   0.05906
 Alpha virt. eigenvalues --    0.06214   0.06569   0.07609   0.08318   0.08726
 Alpha virt. eigenvalues --    0.10230   0.10405   0.12857   0.14022   0.14152

 Mulliken charges:
               1
     1  C   -0.902439
     2  S    0.083474
     3  S    0.128303
     4  C   -0.709642
     5  H    0.184774
     6  H    0.180679
     7  H    0.221572
     8  C   -0.288941
     9  H    0.221868
    10  H    0.173759
    11  H    0.166549
    12  C   -0.150297
    13  H    0.166115
    14  H    0.214516
    15  H    0.134796
    16  H    0.174915
 Sum of Mulliken charges =   0.00000

 Dipole moment (field-independent basis, Debye):
    X=              0.6291    Y=             -0.1988    Z=              2.3681  Tot=              2.4582

 Test job not archived.
 1\1\GINC-SE334\SP\RHF\Aug-CC-pVDZ\C4H10S2\OHZDE\08-Apr-2025\0\\#t hf a
 ug-cc-pvdz iop(5/13=1,5/36=2,99/5=2) pseudo=read geom=check guess=(rea
 d,tcheck) scf=(maxcycle=1)\\title\\0,1\C,0,1.334403,0.041162,0.444786\
 S,0,0.062505,-0.606119,-0.752942\S,0,-1.647876,0.504858,-0.36028\C,0,-
 2.474351,-0.448262,0.967027\H,0,-3.423706,0.060361,1.152664\H,0,-1.882
 243,-0.447577,1.881542\H,0,-2.667103,-1.46839,0.638319\C,0,1.681571,1.
 503082,0.184946\H,0,2.125655,1.625789,-0.806572\H,0,2.401626,1.85671,0
 .930981\H,0,0.795187,2.137034,0.244923\C,0,2.546798,-0.88526,0.315042\

 Normal termination of Gaussian 16 at Tue Apr  8 22:47:04 2025.
