 Gaussian 16, Revision C.01,

 ----------------------------------------------------------------------
 #t hf aug-cc-pvdz symm=none int=(grid=ultrafine) guess=(read,tcheck) s
 table=(opt,rrhf)
 ----------------------------------------------------------------------
 -----
 title
 -----
 Symbolic Z-matrix:
 Charge =  0 Multiplicity = 1

 SCF Done:  E(RHF) =  -2519.58939620     A.U. after   12 cycles
 Normal termination of Gaussian 16 at Tue Apr  8 22:58:40 2025.
 Gaussian 16:  ES64L-G16RevC.01  3-Jul-2019

 ----------------------------------------------------------------------
 #t hf aug-cc-pvdz iop(5/13=1,5/36=2,99/5=2) pseudo=read geom=check gue
 ss=(read,tcheck) scf=(maxcycle=1)
 ----------------------------------------------------------------------
 -----
 title
 -----
 Structure from the checkpoint file:  "BDE49_expt_1949_mol1.chk"
 Charge =  0 Multiplicity = 1

                         Standard orientation:
 ---------------------------------------------------------------------
 Center     Atomic      Atomic             Coordinates (Angstroms)
 Number     Number       Type             X           Y           Z
 ---------------------------------------------------------------------
      1         15           0        0.535608    1.016277   -0.000465
      2         15           0       -0.535608   -1.016277   -0.000465
      3         17           0       -0.535608    1.792345    1.625501
      4         17           0       -0.537043    1.793172   -1.625090
      5         17           0        0.535608   -1.792345    1.625501
      6         17           0        0.537043   -1.793172   -1.625090
 ---------------------------------------------------------------------

 SCF Done:  E(RHF) =  -2519.98590235     A.U. after    2 cycles

 The electronic state is 1-A.
 Alpha  occ. eigenvalues -- -105.59871-105.59870-105.59870-105.59869 -84.41571
 Alpha  occ. eigenvalues --  -84.41543 -10.64750 -10.64749 -10.64739 -10.64739
 Alpha  occ. eigenvalues --   -7.81653  -7.81652  -7.81646  -7.81644  -7.81266
 Alpha  occ. eigenvalues --   -7.81265  -7.81264  -7.81264  -7.81250  -7.81249
 Alpha  occ. eigenvalues --   -7.81248  -7.81248  -6.87776  -6.87762  -4.39575
 Alpha  occ. eigenvalues --   -4.39479  -4.39274  -4.39059  -4.38897  -4.38726
 Alpha  occ. eigenvalues --   -1.14425  -1.11564  -1.07330  -1.06272  -0.86691
 Alpha  occ. eigenvalues --   -0.76338  -0.60080  -0.59105  -0.57448  -0.57018
 Alpha  occ. eigenvalues --   -0.54257  -0.51507  -0.51277  -0.50239  -0.48708
 Alpha  occ. eigenvalues --   -0.47622  -0.46376  -0.43293  -0.35064
 Alpha virt. eigenvalues --    0.04543   0.05440   0.06137   0.07187   0.07502
 Alpha virt. eigenvalues --    0.08450   0.10246   0.10795   0.10834   0.11097
 Alpha virt. eigenvalues --    0.11546   0.12033   0.13895   0.14864   0.15392

 Mulliken charges:
               1
     1  P    0.835017
     2  P    0.835017
     3  Cl  -0.417484
     4  Cl  -0.417533
     5  Cl  -0.417484
     6  Cl  -0.417533
 Sum of Mulliken charges =  -0.00000

 Dipole moment (field-independent basis, Debye):
    X=             -0.0000    Y=             -0.0000    Z=             -0.0013  Tot=              0.0013

 Test job not archived.
 1\1\GINC-SE403\SP\RHF\Aug-CC-pVDZ\Cl4P2\OHZDE\08-Apr-2025\0\\#t hf aug
 -cc-pvdz iop(5/13=1,5/36=2,99/5=2) pseudo=read geom=check guess=(read,
 tcheck) scf=(maxcycle=1)\\title\\0,1\P,0,0.535608,1.016277,-0.000465\P
 ,0,-0.535608,-1.016277,-0.000465\Cl,0,-0.535608,1.792345,1.625501\Cl,0
 ,-0.537043,1.793172,-1.62509\Cl,0,0.535608,-1.792345,1.625501\Cl,0,0.5
 37043,-1.793172,-1.62509\\Version=ES64L-G16RevC.01\State=1-A\HF=-2519.
 9859024\RMSD=1.227e-02\Dipole=0.,0.,-0.0005009\Quadrupole=1.1804793,-0
 .7037833,-0.4766961,1.7380263,0.,0.\PG=C02 [X(Cl4P2)]\\@

 Normal termination of Gaussian 16 at Tue Apr  8 22:58:42 2025.
