 Gaussian 16, Revision C.01,

 ----------------------------------------------------------------------
 #t hf aug-cc-pvdz symm=none int=(grid=ultrafine) guess=(read,tcheck) s
 table=(opt,rrhf)
 ----------------------------------------------------------------------
 -----
 title
 -----
 Symbolic Z-matrix:
 Charge =  0 Multiplicity = 1

 SCF Done:  E(RHF) =  -184.610555161     A.U. after   11 cycles
 Normal termination of Gaussian 16 at Tue Apr  8 22:36:20 2025.
 Gaussian 16:  ES64L-G16RevC.01  3-Jul-2019

 ----------------------------------------------------------------------
 #t hf aug-cc-pvdz iop(5/13=1,5/36=2,99/5=2) pseudo=read geom=check gue
 ss=(read,tcheck) scf=(maxcycle=1)
 ----------------------------------------------------------------------
 -----
 title
 -----
 Structure from the checkpoint file:  "BDE49_expt_1146_mol1.chk"
 Charge =  0 Multiplicity = 1

                         Standard orientation:
 ---------------------------------------------------------------------
 Center     Atomic      Atomic             Coordinates (Angstroms)
 Number     Number       Type             X           Y           Z
 ---------------------------------------------------------------------
      1          6           0       -0.013435   -0.687459    0.000000
      2          6           0        0.000000    0.687591    0.000000
      3          7           0       -0.012251   -1.842539    0.000000
      4          7           0        0.023767    1.842427   -0.000000
 ---------------------------------------------------------------------

 SCF Done:  E(RHF) =  -184.782641687     A.U. after    2 cycles

 The electronic state is 1-A'.
 Alpha  occ. eigenvalues --  -15.59919 -15.59849 -11.36225 -11.36121  -1.31390
 Alpha  occ. eigenvalues --   -1.29370  -1.00041  -0.68804  -0.67225  -0.63211
 Alpha  occ. eigenvalues --   -0.63211  -0.53687  -0.53687
 Alpha virt. eigenvalues --    0.02170   0.02170   0.04880   0.07138   0.10456
 Alpha virt. eigenvalues --    0.10456   0.12874   0.12879   0.13947   0.18841
 Alpha virt. eigenvalues --    0.20985   0.23045   0.23047   0.25027   0.25029

 Mulliken charges:
               1
     1  C   -0.903271
     2  C   -0.903273
     3  N    0.903272
     4  N    0.903272
 Sum of Mulliken charges =  -0.00000

 Dipole moment (field-independent basis, Debye):
    X=             -0.0464    Y=              0.0005    Z=             -0.0000  Tot=              0.0464

 Test job not archived.
 1\1\GINC-SE366\SP\RHF\Aug-CC-pVDZ\C2N2\OHZDE\08-Apr-2025\0\\#t hf aug-
 cc-pvdz iop(5/13=1,5/36=2,99/5=2) pseudo=read geom=check guess=(read,t
 check) scf=(maxcycle=1)\\title\\0,1\C,0,0.,0.687591,0.\C,0,-0.013435,-
 0.687459,0.\N,0,0.023753,1.842427,0.\N,0,-0.012237,-1.842539,0.\\Versi
 on=ES64L-G16RevC.01\State=1-A'\HF=-184.7826417\RMSD=1.357e-01\Dipole=-
 0.0182608,0.0001787,0.\Quadrupole=2.7442554,-5.4890716,2.7448162,-0.08
 04203,0.,0.\PG=CS [SG(C2N2)]\\@

 Normal termination of Gaussian 16 at Tue Apr  8 22:36:22 2025.
