 Gaussian 16, Revision C.01,

 ----------------------------------------------------------------------
 #t hf aug-cc-pvdz symm=none int=(grid=ultrafine) guess=(read,tcheck) s
 table=(opt,rrhf)
 ----------------------------------------------------------------------
 -----
 title
 -----
 Symbolic Z-matrix:
 Charge =  0 Multiplicity = 1

 SCF Done:  E(RHF) =  -611.406772752     A.U. after   14 cycles
 Normal termination of Gaussian 16 at Wed Apr  9 00:24:11 2025.
 Gaussian 16:  ES64L-G16RevC.01  3-Jul-2019

 ----------------------------------------------------------------------
 #t hf aug-cc-pvdz iop(5/13=1,5/36=2,99/5=2) pseudo=read geom=check gue
 ss=(read,tcheck) scf=(maxcycle=1)
 ----------------------------------------------------------------------
 -----
 title
 -----
 Structure from the checkpoint file:  "BDE49_nonexpt_2702_mol1.chk"
 Charge =  0 Multiplicity = 1

                         Standard orientation:
 ---------------------------------------------------------------------
 Center     Atomic      Atomic             Coordinates (Angstroms)
 Number     Number       Type             X           Y           Z
 ---------------------------------------------------------------------
      1         16           0        0.643801   -0.585889    0.168766
      2          9           0        1.422071    0.876952   -0.088528
      3          8           0       -0.793831   -0.342651   -0.540563
      4          6           0       -1.779141    0.409513    0.213490
      5          1           0       -2.702980    0.336753   -0.358732
      6          1           0       -1.464444    1.451044    0.290691
      7          1           0       -1.906533   -0.022019    1.208100
 ---------------------------------------------------------------------

 SCF Done:  E(RHF) =  -611.670405607     A.U. after    2 cycles

 The electronic state is 1-A.
 Alpha  occ. eigenvalues --  -94.08398 -26.47086 -20.61437 -11.31331  -8.35050
 Alpha  occ. eigenvalues --   -6.32813  -6.32580  -6.32164  -1.57752  -1.50627
 Alpha  occ. eigenvalues --   -1.01884  -0.90833  -0.70816  -0.68727  -0.67598
 Alpha  occ. eigenvalues --   -0.63637  -0.62551  -0.58674  -0.52537  -0.49214
 Alpha  occ. eigenvalues --   -0.38230
 Alpha virt. eigenvalues --    0.03460   0.05149   0.05496   0.07869   0.08121
 Alpha virt. eigenvalues --    0.09397   0.12133   0.14240   0.15269   0.16353
 Alpha virt. eigenvalues --    0.17327   0.20170   0.20876   0.22315   0.26145

 Mulliken charges:
               1
     1  S    1.265637
     2  F   -0.645436
     3  O   -1.226497
     4  C    0.267582
     5  H    0.034870
     6  H    0.144529
     7  H    0.159316
 Sum of Mulliken charges =  -0.00000

 Dipole moment (field-independent basis, Debye):
    X=             -2.2169    Y=             -0.1387    Z=              1.0885  Tot=              2.4736

 Test job not archived.
 1\1\GINC-SE212\SP\RHF\Aug-CC-pVDZ\C1H3F1O1S1\OHZDE\09-Apr-2025\0\\#t h
 f aug-cc-pvdz iop(5/13=1,5/36=2,99/5=2) pseudo=read geom=check guess=(
 read,tcheck) scf=(maxcycle=1)\\title\\0,1\S,0,0.643801,-0.585889,0.168
 766\F,0,1.422071,0.876952,-0.088528\O,0,-0.793831,-0.342651,-0.540563\
 C,0,-1.779141,0.409513,0.21349\H,0,-2.70298,0.336753,-0.358732\H,0,-1.
 464444,1.451044,0.290691\H,0,-1.906533,-0.022019,1.2081\\Version=ES64L
 -G16RevC.01\State=1-A\HF=-611.6704056\RMSD=5.440e-03\Dipole=-0.8721857
 ,-0.0545793,0.4282436\Quadrupole=1.6845655,-0.3300158,-1.3545498,-1.84

 Normal termination of Gaussian 16 at Wed Apr  9 00:24:13 2025.
