 Gaussian 16, Revision C.01,

 ----------------------------------------------------------------------
 #t hf aug-cc-pvdz symm=none int=(grid=ultrafine) guess=(read,tcheck) s
 table=(opt,rrhf)
 ----------------------------------------------------------------------
 -----
 title
 -----
 Symbolic Z-matrix:
 Charge =  0 Multiplicity = 1

 SCF Done:  E(RHF) =  -1163.47799287     A.U. after   15 cycles
 Normal termination of Gaussian 16 at Wed Apr  9 00:20:07 2025.
 Gaussian 16:  ES64L-G16RevC.01  3-Jul-2019

 ----------------------------------------------------------------------
 #t hf aug-cc-pvdz iop(5/13=1,5/36=2,99/5=2) pseudo=read geom=check gue
 ss=(read,tcheck) scf=(maxcycle=1)
 ----------------------------------------------------------------------
 -----
 title
 -----
 Structure from the checkpoint file:  "BDE49_nonexpt_2585_mol1.chk"
 Charge =  0 Multiplicity = 1

                         Standard orientation:
 ---------------------------------------------------------------------
 Center     Atomic      Atomic             Coordinates (Angstroms)
 Number     Number       Type             X           Y           Z
 ---------------------------------------------------------------------
      1         17           0        2.515344   -0.062236    0.220071
      2         16           0        0.879340   -0.490939   -0.990081
      3          6           0       -0.549156   -0.201058    0.216640
      4          8           0       -1.570756   -0.334631   -0.745436
      5          8           0       -0.537088    1.037049    0.831984
      6          6           0       -2.907585   -0.459298   -0.249769
      7          1           0       -3.556350   -0.356633   -1.118246
      8          1           0       -3.133921    0.331965    0.470511
      9          1           0       -3.076046   -1.436950    0.211032
     10          6           0       -0.494791    2.197206   -0.008482
     11          1           0       -0.719861    3.039346    0.643998
     12          1           0       -1.235909    2.133248   -0.807255
     13          1           0        0.499574    2.322078   -0.442710
     14          6           0       -0.560429   -1.245918    1.319424
     15          1           0       -0.675875   -2.242068    0.892606
     16          1           0       -1.374496   -1.041578    2.018222
     17          1           0        0.377120   -1.201302    1.872685
 ---------------------------------------------------------------------

 SCF Done:  E(RHF) =  -1163.93252893     A.U. after    2 cycles

 The electronic state is 1-A.
 Alpha  occ. eigenvalues -- -105.57510 -93.99943 -20.57541 -20.57087 -11.39958
 Alpha  occ. eigenvalues --  -11.30202 -11.28842 -11.24303 -10.62199  -8.27630
 Alpha  occ. eigenvalues --   -7.79139  -7.78713  -7.78680  -6.25432  -6.25146
 Alpha  occ. eigenvalues --   -6.24893  -1.52900  -1.45963  -1.11597  -1.04657
 Alpha  occ. eigenvalues --   -0.98038  -0.94010  -0.91249  -0.79448  -0.71697
 Alpha  occ. eigenvalues --   -0.69436  -0.68174  -0.63629  -0.62237  -0.60982
 Alpha  occ. eigenvalues --   -0.57818  -0.55491  -0.54520  -0.53740  -0.51788
 Alpha  occ. eigenvalues --   -0.50405  -0.49017  -0.46346  -0.45863  -0.41754
 Alpha  occ. eigenvalues --   -0.36824
 Alpha virt. eigenvalues --    0.03228   0.03925   0.04024   0.05065   0.06007
 Alpha virt. eigenvalues --    0.06317   0.06722   0.07289   0.08030   0.09234
 Alpha virt. eigenvalues --    0.09982   0.11059   0.12962   0.13268   0.13855

 Mulliken charges:
               1
     1  Cl  -0.340483
     2  S    0.314298
     3  C    1.836475
     4  O   -1.467740
     5  O   -1.531680
     6  C    0.227193
     7  H    0.003034
     8  H    0.196358
     9  H    0.151596
    10  C    0.091019
    11  H   -0.001423
    12  H    0.199559
    13  H    0.188446
    14  C   -0.447218
    15  H    0.225369
    16  H    0.200522
    17  H    0.154677
 Sum of Mulliken charges =  -0.00000

 Dipole moment (field-independent basis, Debye):
    X=             -3.2982    Y=              0.2862    Z=              0.6567  Tot=              3.3751

 Test job not archived.
 1\1\GINC-SE132\SP\RHF\Aug-CC-pVDZ\C4H9Cl1O2S1\OHZDE\09-Apr-2025\0\\#t
 hf aug-cc-pvdz iop(5/13=1,5/36=2,99/5=2) pseudo=read geom=check guess=
 (read,tcheck) scf=(maxcycle=1)\\title\\0,1\Cl,0,2.515344,-0.062236,0.2
 20071\S,0,0.87934,-0.490939,-0.990081\C,0,-0.549156,-0.201058,0.21664\
 O,0,-1.570756,-0.334631,-0.745436\O,0,-0.537088,1.037049,0.831984\C,0,
 -2.907585,-0.459298,-0.249769\H,0,-3.55635,-0.356633,-1.118246\H,0,-3.
 133921,0.331965,0.470511\H,0,-3.076046,-1.43695,0.211032\C,0,-0.494791
 ,2.197206,-0.008482\H,0,-0.719861,3.039346,0.643998\H,0,-1.235909,2.13

 Normal termination of Gaussian 16 at Wed Apr  9 00:20:16 2025.
