 Gaussian 16, Revision C.01,

 ----------------------------------------------------------------------
 #t hf aug-cc-pvdz symm=none int=(grid=ultrafine) guess=(read,tcheck) s
 table=opt
 ----------------------------------------------------------------------
 -----
 title
 -----
 Symbolic Z-matrix:
 Charge =  0 Multiplicity = 2

 SCF Done:  E(UHF) =  -406.546666032     A.U. after   16 cycles

 1\1\GINC-SE084\Stability\UHF\Aug-CC-pVDZ\C3H7Si1\OHZDE\09-Apr-2025\0\\
 #t hf aug-cc-pvdz symm=none int=(grid=ultrafine) guess=(read,tcheck) s
 table=opt\\title\\0,2\C,0,0.265374,0.044176,-0.570792\C,0,1.393367,-0.
 731554,0.088972\C,0,1.329132,0.753804,0.269492\H,0,2.163819,-1.139305,
 -0.554856\H,0,1.152905,-1.357213,0.941686\H,0,1.041328,1.140093,1.2403
 12\H,0,2.044842,1.371122,-0.261527\Si,0,-1.491607,-0.1022,0.029993\H,0
 ,-1.500509,-0.225405,1.513677\H,0,-2.32171,1.062494,-0.382105\H,0,0.37
 4591,0.180463,-1.643129\\Version=ES64L-G16RevC.01\HF=-406.546666\S2=0.

 Normal termination of Gaussian 16 at Wed Apr  9 00:47:39 2025.
 Gaussian 16:  ES64L-G16RevC.01  3-Jul-2019

 ----------------------------------------------------------------------
 #t hf aug-cc-pvdz iop(5/13=1,5/36=2,99/5=2) pseudo=read geom=check gue
 ss=(read,tcheck) scf=(maxcycle=1)
 ----------------------------------------------------------------------
 -----
 title
 -----
 Structure from the checkpoint file:  "BDE49_nonexpt_846_mol2.chk"
 Charge =  0 Multiplicity = 2

                         Standard orientation:
 ---------------------------------------------------------------------
 Center     Atomic      Atomic             Coordinates (Angstroms)
 Number     Number       Type             X           Y           Z
 ---------------------------------------------------------------------
      1          6           0        0.265374    0.044176   -0.570792
      2          6           0        1.393367   -0.731554    0.088972
      3          6           0        1.329132    0.753804    0.269492
      4          1           0        2.163819   -1.139305   -0.554856
      5          1           0        1.152905   -1.357213    0.941686
      6          1           0        1.041328    1.140093    1.240312
      7          1           0        2.044842    1.371122   -0.261527
      8         14           0       -1.491607   -0.102200    0.029993
      9          1           0       -1.500509   -0.225405    1.513677
     10          1           0       -2.321710    1.062494   -0.382105
     11          1           0        0.374591    0.180463   -1.643129
 ---------------------------------------------------------------------

 SCF Done:  E(UHF) =  -406.705169396     A.U. after    2 cycles

 The electronic state is 2-A.
 Alpha  occ. eigenvalues --  -69.53057 -11.24578 -11.24432 -11.23321  -6.20197
 Alpha  occ. eigenvalues --   -3.96138  -3.95266  -3.95242  -1.14199  -0.83811
 Alpha  occ. eigenvalues --   -0.83010  -0.72705  -0.66809  -0.61560  -0.52820
 Alpha  occ. eigenvalues --   -0.49957  -0.47298  -0.44977  -0.42722  -0.32004
 Alpha virt. eigenvalues --    0.03707   0.04021   0.04469   0.04533   0.06224
 Alpha virt. eigenvalues --    0.06675   0.07650   0.08164   0.08973   0.10486
 Alpha virt. eigenvalues --    0.12464   0.13167   0.13875   0.14781   0.15767

  Beta  occ. eigenvalues --  -69.52506 -11.24465 -11.24388 -11.23300  -6.19363
  Beta  occ. eigenvalues --   -3.94886  -3.94874  -3.94012  -1.13865  -0.82905
  Beta  occ. eigenvalues --   -0.82715  -0.70423  -0.66049  -0.60551  -0.52703
  Beta  occ. eigenvalues --   -0.49178  -0.46762  -0.43236  -0.42392
  Beta virt. eigenvalues --    0.02651   0.03801   0.04086   0.04518   0.05784
  Beta virt. eigenvalues --    0.06376   0.07208   0.07821   0.09143   0.09390
  Beta virt. eigenvalues --    0.10751   0.12774   0.13365   0.13971   0.15305

 Mulliken charges and spin densities:
               1          2
     1  C   -0.161688  -0.035234
     2  C    0.240343  -0.007893
     3  C    0.242134   0.051292
     4  H   -0.097601  -0.002663
     5  H   -0.109213  -0.000088
     6  H   -0.112541  -0.008138
     7  H   -0.089074  -0.000413
     8  Si   0.496774   0.965156
     9  H   -0.147516   0.007965
    10  H   -0.148024   0.032871
    11  H   -0.113595  -0.002856
 Sum of Mulliken charges =  -0.00000   1.00000

 Dipole moment (field-independent basis, Debye):
    X=              1.0021    Y=              0.1406    Z=             -0.2382  Tot=              1.0396
                          Isotropic Fermi Contact Couplings
        Atom                 a.u.       MegaHertz       Gauss      10(-4) cm-1
     1  C(13)              0.01061      11.92255       4.25426       3.97693
     2  C(13)             -0.00048      -0.53782      -0.19191      -0.17940
     3  C(13)              0.02752      30.93502      11.03838      10.31881
     4  H(1)              -0.00006      -0.28422      -0.10142      -0.09481
     5  H(1)               0.00036       1.62587       0.58015       0.54233
     6  H(1)              -0.00076      -3.38593      -1.20818      -1.12942
     7  H(1)               0.00081       3.62514       1.29354       1.20922
     8  Si(29)             0.57098    -507.44223    -181.06800    -169.26451

 Normal termination of Gaussian 16 at Wed Apr  9 00:47:45 2025.
