 Gaussian 16, Revision C.01,

 ----------------------------------------------------------------------
 #t hf aug-cc-pvdz symm=none int=(grid=ultrafine) guess=(read,tcheck) s
 table=opt
 ----------------------------------------------------------------------
 -----
 title
 -----
 Symbolic Z-matrix:
 Charge =  0 Multiplicity = 2

 SCF Done:  E(UHF) =  -643.954518876     A.U. after   19 cycles
 Normal termination of Gaussian 16 at Wed Apr  9 00:18:28 2025.
 Gaussian 16:  ES64L-G16RevC.01  3-Jul-2019

 ----------------------------------------------------------------------
 #t hf aug-cc-pvdz iop(5/13=1,5/36=2,99/5=2) pseudo=read geom=check gue
 ss=(read,tcheck) scf=(maxcycle=1)
 ----------------------------------------------------------------------
 -----
 title
 -----
 Structure from the checkpoint file:  "BDE49_nonexpt_2566_mol2.chk"
 Charge =  0 Multiplicity = 2

                         Standard orientation:
 ---------------------------------------------------------------------
 Center     Atomic      Atomic             Coordinates (Angstroms)
 Number     Number       Type             X           Y           Z
 ---------------------------------------------------------------------
      1         16           0       -1.855093    0.363311   -0.000037
      2          6           0       -0.308720   -0.476816    0.000048
      3          8           0       -0.456879   -1.697974   -0.000031
      4          7           0        0.879470    0.164353    0.000026
      5          6           0        1.000977    1.610268    0.000022
      6          1           0        0.010271    2.065461   -0.000001
      7          1           0        1.538956    1.950597   -0.890676
      8          1           0        1.538918    1.950605    0.890740
      9          6           0        2.111760   -0.616252    0.000019
     10          1           0        1.855484   -1.673518    0.000019
     11          1           0        2.706256   -0.388007    0.890244
     12          1           0        2.706249   -0.388004   -0.890211
 ---------------------------------------------------------------------

 SCF Done:  E(UHF) =  -644.259999761     A.U. after    2 cycles

 The electronic state is 2-A.
 Alpha  occ. eigenvalues --  -93.99140 -20.52191 -15.54834 -11.39303 -11.29550
 Alpha  occ. eigenvalues --  -11.27995  -8.27320  -6.26490  -6.24695  -6.24385
 Alpha  occ. eigenvalues --   -1.47358  -1.27809  -1.07265  -1.00314  -0.96676
 Alpha  occ. eigenvalues --   -0.77778  -0.69685  -0.69247  -0.69095  -0.59506
 Alpha  occ. eigenvalues --   -0.58718  -0.57927  -0.56870  -0.56732  -0.48686
 Alpha  occ. eigenvalues --   -0.41867  -0.41821  -0.40595
 Alpha virt. eigenvalues --    0.02986   0.04250   0.04482   0.05344   0.06675
 Alpha virt. eigenvalues --    0.07316   0.08036   0.09348   0.11696   0.12209
 Alpha virt. eigenvalues --    0.13733   0.13786   0.13996   0.14936   0.15528

  Beta  occ. eigenvalues --  -93.98220 -20.51798 -15.54873 -11.39420 -11.29479
  Beta  occ. eigenvalues --  -11.27994  -8.26261  -6.24201  -6.23814  -6.22400
  Beta  occ. eigenvalues --   -1.46472  -1.27741  -1.02389  -0.99872  -0.93968
  Beta  occ. eigenvalues --   -0.77253  -0.69292  -0.68788  -0.67139  -0.59046
  Beta  occ. eigenvalues --   -0.58684  -0.56655  -0.56606  -0.56471  -0.41829
  Beta  occ. eigenvalues --   -0.41636  -0.38421
  Beta virt. eigenvalues --   -0.00362   0.03073   0.04381   0.04485   0.05459
  Beta virt. eigenvalues --    0.06681   0.07370   0.08229   0.09527   0.11724
  Beta virt. eigenvalues --    0.12431   0.13763   0.13848   0.14431   0.15051

 Mulliken charges and spin densities:
               1          2
     1  S    0.342546   1.062644
     2  C    0.076604  -0.081064
     3  O   -1.108903   0.051502
     4  N    0.709568  -0.026155
     5  C   -0.461220   0.014012
     6  H    0.069162  -0.009182
     7  H    0.179503  -0.000038
     8  H    0.179509  -0.000038
     9  C   -0.355806  -0.009945
    10  H    0.004764  -0.001409
    11  H    0.182145  -0.000164
    12  H    0.182127  -0.000164
 Sum of Mulliken charges =  -0.00000   1.00000

 Dipole moment (field-independent basis, Debye):
    X=              2.7097    Y=              3.2441    Z=              0.0001  Tot=              4.2269
                          Isotropic Fermi Contact Couplings
        Atom                 a.u.       MegaHertz       Gauss      10(-4) cm-1
     1  S(33)              0.21380      73.43348      26.20289      24.49477
     2  C(13)             -0.02199     -24.72578      -8.82277      -8.24763
     3  O(17)              0.04449     -26.96699      -9.62249      -8.99522
     4  N(14)             -0.01093      -3.53119      -1.26002      -1.17788
     5  C(13)              0.01203      13.52329       4.82545       4.51088
     6  H(1)              -0.00027      -1.20298      -0.42925      -0.40127
     7  H(1)              -0.00003      -0.15357      -0.05480      -0.05123
     8  H(1)              -0.00003      -0.15360      -0.05481      -0.05124

 Normal termination of Gaussian 16 at Wed Apr  9 00:18:34 2025.
