 Gaussian 16, Revision C.01,

 ----------------------------------------------------------------------
 #t hf aug-cc-pvdz symm=none int=(grid=ultrafine) guess=(read,tcheck) s
 table=(opt,rrhf)
 ----------------------------------------------------------------------
 -----
 title
 -----
 Symbolic Z-matrix:
 Charge =  0 Multiplicity = 1

 SCF Done:  E(RHF) =  -1668.18722692     A.U. after   11 cycles
 Normal termination of Gaussian 16 at Tue Apr  8 23:12:46 2025.
 Gaussian 16:  ES64L-G16RevC.01  3-Jul-2019

 ----------------------------------------------------------------------
 #t hf aug-cc-pvdz iop(5/13=1,5/36=2,99/5=2) pseudo=read geom=check gue
 ss=(read,tcheck) scf=(maxcycle=1)
 ----------------------------------------------------------------------
 -----
 title
 -----
 Structure from the checkpoint file:  "BDE49_expt_815_mol1.chk"
 Charge =  0 Multiplicity = 1

                         Standard orientation:
 ---------------------------------------------------------------------
 Center     Atomic      Atomic             Coordinates (Angstroms)
 Number     Number       Type             X           Y           Z
 ---------------------------------------------------------------------
      1         14           0       -0.000004   -0.000051    0.502001
      2         17           0        1.673521   -0.973205   -0.176309
      3         17           0       -1.679661   -0.962567   -0.176312
      4         17           0        0.006143    1.935812   -0.176293
      5          1           0        0.000000    0.000025    1.963532
 ---------------------------------------------------------------------

 SCF Done:  E(RHF) =  -1668.45090527     A.U. after    2 cycles

 The electronic state is 1-A.
 Alpha  occ. eigenvalues -- -105.58759-105.58759-105.58758 -69.67974 -10.63825
 Alpha  occ. eigenvalues --  -10.63812 -10.63812  -7.80709  -7.80702  -7.80701
 Alpha  occ. eigenvalues --   -7.80365  -7.80365  -7.80363  -7.80363  -7.80362
 Alpha  occ. eigenvalues --   -7.80362  -6.33780  -4.09173  -4.09173  -4.08984
 Alpha  occ. eigenvalues --   -1.12075  -1.06857  -1.06857  -0.74777  -0.60228
 Alpha  occ. eigenvalues --   -0.59407  -0.59406  -0.51809  -0.51808  -0.49297
 Alpha  occ. eigenvalues --   -0.49296  -0.48490  -0.47845
 Alpha virt. eigenvalues --    0.04855   0.05488   0.05560   0.05560   0.08612
 Alpha virt. eigenvalues --    0.11855   0.12633   0.12633   0.12946   0.12947
 Alpha virt. eigenvalues --    0.14931   0.14931   0.16763   0.18423   0.19735

 Mulliken charges:
               1
     1  Si   1.551574
     2  Cl  -0.475899
     3  Cl  -0.475895
     4  Cl  -0.475889
     5  H   -0.123891
 Sum of Mulliken charges =  -0.00000

 Dipole moment (field-independent basis, Debye):
    X=             -0.0000    Y=             -0.0003    Z=              1.0945  Tot=              1.0945

 Test job not archived.
 1\1\GINC-SE132\SP\RHF\Aug-CC-pVDZ\Cl3H1Si1\OHZDE\08-Apr-2025\0\\#t hf
 aug-cc-pvdz iop(5/13=1,5/36=2,99/5=2) pseudo=read geom=check guess=(re
 ad,tcheck) scf=(maxcycle=1)\\title\\0,1\Si,0,-0.000004,-0.000051,0.502
 001\Cl,0,1.672769,-0.974497,-0.176309\Cl,0,-1.680404,-0.96127,-0.17631
 2\Cl,0,0.007638,1.935807,-0.176293\H,0,0.,0.000025,1.963532\\Version=E
 S64L-G16RevC.01\State=1-A\HF=-1668.4509053\RMSD=3.424e-03\Dipole=-0.00
 0018,-0.0001077,0.4306095\Quadrupole=-0.6500229,-0.6502693,1.3002922,0
 .0000307,-0.0000011,-0.0000707\PG=C01 [X(Cl3H1Si1)]\\@

 Normal termination of Gaussian 16 at Tue Apr  8 23:12:48 2025.
