 Gaussian 16, Revision C.01,

 ----------------------------------------------------------------------
 #t hf aug-cc-pvdz symm=none int=(grid=ultrafine) guess=(read,tcheck) s
 table=(opt,rrhf)
 ----------------------------------------------------------------------
 -----
 title
 -----
 Symbolic Z-matrix:
 Charge =  0 Multiplicity = 1

 SCF Done:  E(RHF) =  -796.936072909     A.U. after   17 cycles
 Normal termination of Gaussian 16 at Tue Apr  8 23:10:47 2025.
 Gaussian 16:  ES64L-G16RevC.01  3-Jul-2019

 ----------------------------------------------------------------------
 #t hf aug-cc-pvdz iop(5/13=1,5/36=2,99/5=2) pseudo=read geom=check gue
 ss=(read,tcheck) scf=(maxcycle=1)
 ----------------------------------------------------------------------
 -----
 title
 -----
 Structure from the checkpoint file:  "BDE49_expt_551_mol1.chk"
 Charge =  0 Multiplicity = 1

                         Standard orientation:
 ---------------------------------------------------------------------
 Center     Atomic      Atomic             Coordinates (Angstroms)
 Number     Number       Type             X           Y           Z
 ---------------------------------------------------------------------
      1          6           0       -1.580341   -1.541209   -0.000001
      2          6           0       -2.917082   -1.181819   -0.000001
      3          6           0       -3.297873    0.168548    0.000002
      4          6           0       -2.329158    1.155805    0.000005
      5          6           0       -0.962682    0.823802    0.000006
      6          6           0       -0.595498   -0.542009    0.000003
      7          7           0        0.747203   -0.860035    0.000005
      8          6           0        1.792220    0.031744    0.000018
      9          1           0       -4.347860    0.434324    0.000002
     10          1           0        1.018120   -1.835720   -0.000000
     11          1           0       -3.676054   -1.955443   -0.000003
     12          1           0       -2.611754    2.202871    0.000005
     13         16           0        3.375773   -0.500834   -0.000015
     14          6           0        0.095738    1.793984    0.000003
     15          6           0        1.399937    1.420913    0.000002
     16          1           0       -0.168411    2.846525   -0.000001
     17          1           0        2.199553    2.148092   -0.000007
     18          1           0       -1.287940   -2.585620   -0.000004
 ---------------------------------------------------------------------

 SCF Done:  E(RHF) =  -797.398938138     A.U. after    2 cycles

 The electronic state is 1-A.
 Alpha  occ. eigenvalues --  -93.88994 -15.57876 -11.35461 -11.32394 -11.29163
 Alpha  occ. eigenvalues --  -11.27703 -11.27656 -11.27475 -11.26916 -11.26592
 Alpha  occ. eigenvalues --  -11.26236  -8.17219  -6.15093  -6.14781  -6.14676
 Alpha  occ. eigenvalues --   -1.32066  -1.18100  -1.12679  -1.07823  -1.04114
 Alpha  occ. eigenvalues --   -0.98451  -0.90760  -0.88899  -0.86880  -0.78091
 Alpha  occ. eigenvalues --   -0.77396  -0.71551  -0.69614  -0.66705  -0.64277
 Alpha  occ. eigenvalues --   -0.63760  -0.63243  -0.59214  -0.55575  -0.53101
 Alpha  occ. eigenvalues --   -0.52642  -0.51200  -0.46295  -0.39733  -0.35809
 Alpha  occ. eigenvalues --   -0.33284  -0.30306
 Alpha virt. eigenvalues --    0.02517   0.02656   0.03032   0.03229   0.04534
 Alpha virt. eigenvalues --    0.05566   0.07467   0.07628   0.07831   0.07900
 Alpha virt. eigenvalues --    0.08857   0.10491   0.10495   0.11305   0.11561

 Mulliken charges:
               1
     1  C    0.856407
     2  C   -0.133224
     3  C    0.132541
     4  C    0.464947
     5  C    1.778514
     6  C   -2.260949
     7  N    1.138526
     8  C   -1.258632
     9  H   -0.244897
    10  H    0.120968
    11  H   -0.228770
    12  H   -0.292322
    13  S   -0.074036
    14  C    0.624241
    15  C    0.141620
    16  H   -0.290303
    17  H   -0.159936
    18  H   -0.314696
 Sum of Mulliken charges =  -0.00000

 Dipole moment (field-independent basis, Debye):
    X=             -6.2577    Y=              0.9790    Z=              0.0000  Tot=              6.3338

 Test job not archived.
 1\1\GINC-SE218\SP\RHF\Aug-CC-pVDZ\C9H7N1S1\OHZDE\08-Apr-2025\0\\#t hf
 aug-cc-pvdz iop(5/13=1,5/36=2,99/5=2) pseudo=read geom=check guess=(re
 ad,tcheck) scf=(maxcycle=1)\\title\\0,1\C,0,-1.580341,-1.541209,-0.000
 001\C,0,-2.917082,-1.181819,-0.000001\C,0,-3.297873,0.168548,0.000002\
 C,0,-2.329158,1.155805,0.000005\C,0,-0.962682,0.823802,0.000006\C,0,-0
 .595498,-0.542009,0.000003\N,0,0.747203,-0.860035,0.000005\C,0,1.79222
 ,0.031744,0.000018\H,0,-4.34786,0.434324,0.000002\H,0,1.01812,-1.83572
 ,0.\H,0,-3.676054,-1.955443,-0.000003\H,0,-2.611754,2.202871,0.000005\

 Normal termination of Gaussian 16 at Tue Apr  8 23:10:59 2025.
