 Gaussian 16, Revision C.01,

 ----------------------------------------------------------------------
 #t hf aug-cc-pvdz symm=none int=(grid=ultrafine) guess=(read,tcheck) s
 table=opt
 ----------------------------------------------------------------------
 -----
 title
 -----
 Symbolic Z-matrix:
 Charge =  0 Multiplicity = 2

 SCF Done:  E(UHF) =  -598.705728604     A.U. after   16 cycles
 Normal termination of Gaussian 16 at Wed Apr  9 00:15:34 2025.
 Gaussian 16:  ES64L-G16RevC.01  3-Jul-2019

 ----------------------------------------------------------------------
 #t hf aug-cc-pvdz iop(5/13=1,5/36=2,99/5=2) pseudo=read geom=check gue
 ss=(read,tcheck) scf=(maxcycle=1)
 ----------------------------------------------------------------------
 -----
 title
 -----
 Structure from the checkpoint file:  "BDE49_nonexpt_251_mol2.chk"
 Charge =  0 Multiplicity = 2

                         Standard orientation:
 ---------------------------------------------------------------------
 Center     Atomic      Atomic             Coordinates (Angstroms)
 Number     Number       Type             X           Y           Z
 ---------------------------------------------------------------------
      1          5           0        0.139172    0.957542    0.000002
      2         17           0        1.473786   -0.225312   -0.000003
      3          8           0       -1.149410    0.685236    0.000003
      4          6           0       -1.783133   -0.612517    0.000002
      5          1           0       -2.407809   -0.676637    0.890500
      6          1           0       -1.040507   -1.410916   -0.000006
      7          1           0       -2.407819   -0.676630   -0.890490
 ---------------------------------------------------------------------

 SCF Done:  E(UHF) =  -598.918395849     A.U. after    2 cycles

 The electronic state is 2-A.
 Alpha  occ. eigenvalues -- -105.56731 -20.58471 -11.31566 -10.61746  -7.78761
 Alpha  occ. eigenvalues --   -7.78320  -7.78292  -7.70030  -1.50046  -1.07247
 Alpha  occ. eigenvalues --   -0.98077  -0.74563  -0.66597  -0.66029  -0.62470
 Alpha  occ. eigenvalues --   -0.53755  -0.52254  -0.48738  -0.47131  -0.35678
 Alpha virt. eigenvalues --    0.03321   0.04399   0.05193   0.05983   0.07281
 Alpha virt. eigenvalues --    0.07615   0.08452   0.12247   0.12808   0.14251
 Alpha virt. eigenvalues --    0.14554   0.15410   0.16856   0.18354   0.18874

  Beta  occ. eigenvalues -- -105.56592 -20.58442 -11.31421 -10.61583  -7.78389
  Beta  occ. eigenvalues --   -7.78234  -7.78088  -7.67789  -1.49786  -1.05941
  Beta  occ. eigenvalues --   -0.97280  -0.73610  -0.66192  -0.65528  -0.59741
  Beta  occ. eigenvalues --   -0.52039  -0.51926  -0.47759  -0.47429
  Beta virt. eigenvalues --    0.03307   0.04423   0.04534   0.05260   0.07511
  Beta virt. eigenvalues --    0.07543   0.07833   0.11836   0.13313   0.14569
  Beta virt. eigenvalues --    0.14628   0.15155   0.15554   0.17205   0.19056

 Mulliken charges and spin densities:
               1          2
     1  B    0.305156   1.066856
     2  Cl  -0.272297   0.036427
     3  O   -0.769543  -0.137118
     4  C    0.412772   0.050401
     5  H    0.099940  -0.003445
     6  H    0.124032  -0.009677
     7  H    0.099940  -0.003445
 Sum of Mulliken charges =  -0.00000   1.00000

 Dipole moment (field-independent basis, Debye):
    X=             -1.9492    Y=             -1.4299    Z=              0.0000  Tot=              2.4175
                          Isotropic Fermi Contact Couplings
        Atom                 a.u.       MegaHertz       Gauss      10(-4) cm-1
     1  B(11)              0.46101     661.25410     235.95191     220.57063
     2  Cl(35)             0.14272      62.57704      22.32904      20.87345
     3  O(17)              0.12618     -76.48734     -27.29258     -25.51343
     4  C(13)              0.02713      30.49473      10.88128      10.17195
     5  H(1)              -0.00115      -5.14472      -1.83576      -1.71609
     6  H(1)              -0.00068      -3.04731      -1.08735      -1.01647
     7  H(1)              -0.00115      -5.14470      -1.83576      -1.71609
 --------------------------------------------------------

 1\1\GINC-SE362\SP\UHF\Aug-CC-pVDZ\C1H3B1Cl1O1(2)\OHZDE\09-Apr-2025\0\\
 #t hf aug-cc-pvdz iop(5/13=1,5/36=2,99/5=2) pseudo=read geom=check gue
 ss=(read,tcheck) scf=(maxcycle=1)\\title\\0,2\B,0,0.139172,0.957542,0.
 000002\Cl,0,1.473786,-0.225312,-0.000003\O,0,-1.14941,0.685236,0.00000
 3\C,0,-1.783133,-0.612517,0.000002\H,0,-2.407809,-0.676637,0.8905\H,0,
 -1.040507,-1.410916,-0.000006\H,0,-2.407819,-0.67663,-0.89049\\Version
 =ES64L-G16RevC.01\State=2-A\HF=-598.9183958\S2=0.755534\S2-1=0.\S2A=0.
 750021\RMSD=6.171e-03\Dipole=-0.7668703,-0.5625838,0.0000005\Quadrupol

 Normal termination of Gaussian 16 at Wed Apr  9 00:15:36 2025.
