 Gaussian 16, Revision C.01,

 ----------------------------------------------------------------------
 #t hf aug-cc-pvdz symm=none int=(grid=ultrafine) guess=(read,tcheck) s
 table=(opt,rrhf)
 ----------------------------------------------------------------------
 -----
 title
 -----
 Symbolic Z-matrix:
 Charge =  0 Multiplicity = 1

 SCF Done:  E(RHF) =  -178.178378096     A.U. after   13 cycles
 Normal termination of Gaussian 16 at Wed Apr  9 00:27:41 2025.
 Gaussian 16:  ES64L-G16RevC.01  3-Jul-2019

 ----------------------------------------------------------------------
 #t hf aug-cc-pvdz iop(5/13=1,5/36=2,99/5=2) pseudo=read geom=check gue
 ss=(read,tcheck) scf=(maxcycle=1)
 ----------------------------------------------------------------------
 -----
 title
 -----
 Structure from the checkpoint file:  "BDE49_nonexpt_293_mol1.chk"
 Charge =  0 Multiplicity = 1

                         Standard orientation:
 ---------------------------------------------------------------------
 Center     Atomic      Atomic             Coordinates (Angstroms)
 Number     Number       Type             X           Y           Z
 ---------------------------------------------------------------------
      1          6           0        1.482241   -0.287924    0.000016
      2          6           0        0.014544   -0.032526    0.000037
      3          1           0        2.040747    0.649811   -0.000039
      4          1           0        1.745751   -0.885590   -0.878612
      5          1           0        1.745780   -0.885504    0.878693
      6          5           0       -1.350130   -0.749030    0.000033
      7          8           0       -0.499085    1.088694   -0.000075
      8          1           0       -1.884793   -0.960277    1.040316
      9          1           0       -1.884862   -0.960143   -1.040244
 ---------------------------------------------------------------------

 SCF Done:  E(RHF) =  -178.362236546     A.U. after    2 cycles

 The electronic state is 1-A.
 Alpha  occ. eigenvalues --  -20.56136 -11.33350 -11.26004  -7.61124  -1.48779
 Alpha  occ. eigenvalues --   -1.03140  -0.83325  -0.71872  -0.63552  -0.62321
 Alpha  occ. eigenvalues --   -0.61273  -0.54794  -0.54265  -0.47109  -0.40743
 Alpha virt. eigenvalues --    0.02847   0.04034   0.04281   0.05362   0.06663
 Alpha virt. eigenvalues --    0.06686   0.07087   0.10043   0.11068   0.11471
 Alpha virt. eigenvalues --    0.12895   0.13566   0.15442   0.15454   0.16974

 Mulliken charges:
               1
     1  C   -0.732442
     2  C    1.229772
     3  H    0.175831
     4  H    0.238610
     5  H    0.238615
     6  B   -0.475311
     7  O   -1.133176
     8  H    0.229071
     9  H    0.229031
 Sum of Mulliken charges =  -0.00000

 Dipole moment (field-independent basis, Debye):
    X=              2.0946    Y=             -2.1289    Z=              0.0002  Tot=              2.9865

 Test job not archived.
 1\1\GINC-SE072\SP\RHF\Aug-CC-pVDZ\C2H5B1O1\OHZDE\09-Apr-2025\0\\#t hf
 aug-cc-pvdz iop(5/13=1,5/36=2,99/5=2) pseudo=read geom=check guess=(re
 ad,tcheck) scf=(maxcycle=1)\\title\\0,1\C,0,1.482241,-0.287924,0.00001
 6\C,0,0.014544,-0.032526,0.000037\H,0,2.040747,0.649811,-0.000039\H,0,
 1.745751,-0.88559,-0.878612\H,0,1.74578,-0.885504,0.878693\B,0,-1.3501
 3,-0.74903,0.000033\O,0,-0.499085,1.088694,-0.000075\H,0,-1.884793,-0.
 960277,1.040316\H,0,-1.884862,-0.960143,-1.040244\\Version=ES64L-G16Re
 vC.01\State=1-A\HF=-178.3622365\RMSD=1.029e-02\Dipole=0.824062,-0.8375

 Normal termination of Gaussian 16 at Wed Apr  9 00:27:43 2025.
