 Gaussian 16, Revision C.01,

 ----------------------------------------------------------------------
 #t hf aug-cc-pvdz symm=none int=(grid=ultrafine) guess=(read,tcheck) s
 table=(opt,rrhf)
 ----------------------------------------------------------------------
 -----
 title
 -----
 Symbolic Z-matrix:
 Charge =  0 Multiplicity = 1

 SCF Done:  E(RHF) =  -306.739523471     A.U. after   14 cycles
 Normal termination of Gaussian 16 at Tue Apr  8 22:33:49 2025.
 Gaussian 16:  ES64L-G16RevC.01  3-Jul-2019

 ----------------------------------------------------------------------
 #t hf aug-cc-pvdz iop(5/13=1,5/36=2,99/5=2) pseudo=read geom=check gue
 ss=(read,tcheck) scf=(maxcycle=1)
 ----------------------------------------------------------------------
 -----
 title
 -----
 Structure from the checkpoint file:  "BDE49_expt_1075_mol1.chk"
 Charge =  0 Multiplicity = 1

                         Standard orientation:
 ---------------------------------------------------------------------
 Center     Atomic      Atomic             Coordinates (Angstroms)
 Number     Number       Type             X           Y           Z
 ---------------------------------------------------------------------
      1          8           0        0.849442   -1.101238   -0.000004
      2          6           0        2.039696   -0.432703   -0.000000
      3          6           0        1.826999    0.906271    0.000004
      4          6           0        0.401897    1.083391   -0.000000
      5          6           0       -0.146454   -0.163519   -0.000001
      6          1           0        2.923896   -1.047133   -0.000000
      7          1           0        2.582182    1.676146    0.000007
      8          1           0       -0.135217    2.018047   -0.000000
      9          6           0       -1.544651   -0.686160   -0.000004
     10          6           0       -2.605392    0.416526    0.000005
     11          1           0       -1.679812   -1.334431    0.874351
     12          1           0       -1.679814   -1.334418   -0.874367
     13          1           0       -2.515869    1.053093    0.884168
     14          1           0       -3.607607   -0.017339    0.000003
     15          1           0       -2.515871    1.053105   -0.884149
 ---------------------------------------------------------------------

 SCF Done:  E(RHF) =  -307.059647925     A.U. after    2 cycles

 The electronic state is 1-A.
 Alpha  occ. eigenvalues --  -20.60014 -11.29361 -11.28796 -11.24707 -11.23363
 Alpha  occ. eigenvalues --  -11.23325 -11.22742  -1.53482  -1.09101  -1.06876
 Alpha  occ. eigenvalues --   -0.97638  -0.87203  -0.80288  -0.76399  -0.71455
 Alpha  occ. eigenvalues --   -0.64910  -0.62262  -0.60230  -0.58709  -0.55932
 Alpha  occ. eigenvalues --   -0.54632  -0.53092  -0.51051  -0.50814  -0.39522
 Alpha  occ. eigenvalues --   -0.31519
 Alpha virt. eigenvalues --    0.03537   0.03721   0.03995   0.04779   0.05278
 Alpha virt. eigenvalues --    0.05792   0.07604   0.08019   0.11106   0.11227
 Alpha virt. eigenvalues --    0.11697   0.12878   0.13296   0.14704   0.14831

 Mulliken charges:
               1
     1  O   -1.629840
     2  C    0.811068
     3  C    0.188481
     4  C    0.339506
     5  C    1.189617
     6  H   -0.161874
     7  H   -0.136250
     8  H   -0.248349
     9  C   -0.913549
    10  C   -0.309892
    11  H    0.198839
    12  H    0.198838
    13  H    0.203408
    14  H    0.066589
    15  H    0.203408
 Sum of Mulliken charges =  -0.00000

 Dipole moment (field-independent basis, Debye):
    X=             -0.5578    Y=              0.4465    Z=              0.0000  Tot=              0.7145

 Test job not archived.
 1\1\GINC-SE070\SP\RHF\Aug-CC-pVDZ\C6H8O1\OHZDE\08-Apr-2025\0\\#t hf au
 g-cc-pvdz iop(5/13=1,5/36=2,99/5=2) pseudo=read geom=check guess=(read
 ,tcheck) scf=(maxcycle=1)\\title\\0,1\O,0,0.849442,-1.101238,-0.000004
 \C,0,2.039696,-0.432703,0.\C,0,1.826999,0.906271,0.000004\C,0,0.401897
 ,1.083391,0.\C,0,-0.146454,-0.163519,-0.000001\H,0,2.923896,-1.047132,
 0.\H,0,2.582182,1.676146,0.000007\H,0,-0.135217,2.018047,0.\C,0,-1.544
 651,-0.68616,-0.000004\C,0,-2.605392,0.416526,0.000005\H,0,-1.679812,-
 1.334431,0.874351\H,0,-1.679814,-1.334418,-0.874367\H,0,-2.515869,1.05

 Normal termination of Gaussian 16 at Tue Apr  8 22:33:54 2025.
