 Gaussian 16, Revision C.01,

 ----------------------------------------------------------------------
 #t hf aug-cc-pvdz symm=none int=(grid=ultrafine) guess=(read,tcheck) s
 table=(opt,rrhf)
 ----------------------------------------------------------------------
 -----
 title
 -----
 Symbolic Z-matrix:
 Charge =  0 Multiplicity = 1

 SCF Done:  E(RHF) =  -667.298297342     A.U. after   16 cycles
 Normal termination of Gaussian 16 at Tue Apr  8 23:15:32 2025.
 Gaussian 16:  ES64L-G16RevC.01  3-Jul-2019

 ----------------------------------------------------------------------
 #t hf aug-cc-pvdz iop(5/13=1,5/36=2,99/5=2) pseudo=read geom=check gue
 ss=(read,tcheck) scf=(maxcycle=1)
 ----------------------------------------------------------------------
 -----
 title
 -----
 Structure from the checkpoint file:  "BDE49_expt_854_mol1.chk"
 Charge =  0 Multiplicity = 1

                         Standard orientation:
 ---------------------------------------------------------------------
 Center     Atomic      Atomic             Coordinates (Angstroms)
 Number     Number       Type             X           Y           Z
 ---------------------------------------------------------------------
      1          6           0        2.389578    0.009079   -0.001416
      2          6           0        1.524788    1.099990    0.003067
      3          6           0        0.135419    0.940829   -0.000722
      4          6           0        1.870830   -1.281870    0.001535
      5          6           0        0.492371   -1.468881    0.021811
      6          6           0       -0.373655   -0.372136    0.016978
      7          1           0        3.461731    0.168948   -0.007436
      8          1           0        1.932851    2.105448   -0.003288
      9          6           0       -0.765962    2.147414   -0.022903
     10          1           0        2.531465   -2.141243    0.002238
     11          1           0        0.078138   -2.469759    0.050897
     12         16           0       -2.130682   -0.728240   -0.059102
     13          1           0       -2.538562    0.151597    0.871608
     14          1           0       -0.185915    3.061795   -0.157369
     15          1           0       -1.330436    2.250305    0.910853
     16          1           0       -1.498574    2.078197   -0.831981
 ---------------------------------------------------------------------

 SCF Done:  E(RHF) =  -667.638779762     A.U. after    2 cycles

 The electronic state is 1-A.
 Alpha  occ. eigenvalues --  -93.95853 -11.27732 -11.25922 -11.24962 -11.24738
 Alpha  occ. eigenvalues --  -11.24544 -11.24526 -11.24059  -8.23924  -6.21780
 Alpha  occ. eigenvalues --   -6.21633  -6.21407  -1.17174  -1.07020  -1.05017
 Alpha  occ. eigenvalues --   -0.97482  -0.93862  -0.83306  -0.80780  -0.70152
 Alpha  occ. eigenvalues --   -0.66814  -0.63648  -0.60122  -0.59332  -0.58112
 Alpha  occ. eigenvalues --   -0.55880  -0.53065  -0.51142  -0.50307  -0.47464
 Alpha  occ. eigenvalues --   -0.40386  -0.34549  -0.32617
 Alpha virt. eigenvalues --    0.03365   0.03496   0.03983   0.05060   0.05364
 Alpha virt. eigenvalues --    0.05620   0.07707   0.08288   0.09209   0.09863
 Alpha virt. eigenvalues --    0.10354   0.10690   0.12132   0.12932   0.13184

 Mulliken charges:
               1
     1  C   -0.125139
     2  C    0.630930
     3  C    0.583285
     4  C   -0.004849
     5  C   -0.206943
     6  C    0.044234
     7  H   -0.230942
     8  H   -0.292958
     9  C   -0.743170
    10  H   -0.214379
    11  H   -0.211476
    12  S   -0.094183
    13  H    0.341014
    14  H   -0.001654
    15  H    0.248187
    16  H    0.278045
 Sum of Mulliken charges =   0.00000

 Dipole moment (field-independent basis, Debye):
    X=              0.9059    Y=              1.1667    Z=              0.5873  Tot=              1.5896

 Test job not archived.
 1\1\GINC-SE332\SP\RHF\Aug-CC-pVDZ\C7H8S1\OHZDE\08-Apr-2025\0\\#t hf au
 g-cc-pvdz iop(5/13=1,5/36=2,99/5=2) pseudo=read geom=check guess=(read
 ,tcheck) scf=(maxcycle=1)\\title\\0,1\C,0,2.389578,0.00908,-0.001416\C
 ,0,1.524787,1.099991,0.003067\C,0,0.135419,0.940829,-0.000722\C,0,1.87
 0831,-1.281869,0.001535\C,0,0.492372,-1.468881,0.021811\C,0,-0.373655,
 -0.372136,0.016978\H,0,3.461731,0.16895,-0.007436\H,0,1.93285,2.105449
 ,-0.003288\C,0,-0.765963,2.147414,-0.022903\H,0,2.531466,-2.141242,0.0
 02238\H,0,0.078139,-2.469759,0.050897\S,0,-2.130682,-0.728241,-0.05910

 Normal termination of Gaussian 16 at Tue Apr  8 23:15:38 2025.
