 Gaussian 16, Revision C.01,

 ----------------------------------------------------------------------
 #t hf aug-cc-pvdz symm=none int=(grid=ultrafine) guess=(read,tcheck) s
 table=(opt,rrhf)
 ----------------------------------------------------------------------
 -----
 title
 -----
 Symbolic Z-matrix:
 Charge =  0 Multiplicity = 1

 SCF Done:  E(RHF) =  -607.009779333     A.U. after   15 cycles
 Normal termination of Gaussian 16 at Tue Apr  8 23:31:06 2025.
 Gaussian 16:  ES64L-G16RevC.01  3-Jul-2019

 ----------------------------------------------------------------------
 #t hf aug-cc-pvdz iop(5/13=1,5/36=2,99/5=2) pseudo=read geom=check gue
 ss=(read,tcheck) scf=(maxcycle=1)
 ----------------------------------------------------------------------
 -----
 title
 -----
 Structure from the checkpoint file:  "BDE49_nonexpt_1400_mol1.chk"
 Charge =  0 Multiplicity = 1

                         Standard orientation:
 ---------------------------------------------------------------------
 Center     Atomic      Atomic             Coordinates (Angstroms)
 Number     Number       Type             X           Y           Z
 ---------------------------------------------------------------------
      1         15           0        0.169413    1.304075   -0.215790
      2          6           0       -0.994674   -0.169896    0.008074
      3          8           0       -0.290590   -1.337990    0.037924
      4          6           0        1.124240   -1.187154   -0.184452
      5          6           0        1.581365    0.194628    0.307972
      6          1           0        1.318735   -1.307501   -1.254931
      7          1           0        1.608113   -2.002785    0.351923
      8          8           0       -2.184595   -0.139232    0.097442
      9          1           0        2.523911    0.478265   -0.161428
     10          1           0        1.711046    0.198176    1.390773
     11          1           0       -0.167107    1.865022    1.038014
 ---------------------------------------------------------------------

 SCF Done:  E(RHF) =  -607.317967834     A.U. after    2 cycles

 The electronic state is 1-A.
 Alpha  occ. eigenvalues --  -84.30165 -20.59769 -20.54131 -11.39486 -11.32624
 Alpha  occ. eigenvalues --  -11.27396  -6.77307  -4.29892  -4.29592  -4.29041
 Alpha  occ. eigenvalues --   -1.54494  -1.46368  -1.07134  -0.96199  -0.84305
 Alpha  occ. eigenvalues --   -0.77275  -0.70246  -0.69201  -0.65609  -0.60840
 Alpha  occ. eigenvalues --   -0.58629  -0.56372  -0.52857  -0.49837  -0.45600
 Alpha  occ. eigenvalues --   -0.41358  -0.36740
 Alpha virt. eigenvalues --    0.02803   0.03873   0.04218   0.04903   0.06337
 Alpha virt. eigenvalues --    0.08399   0.09256   0.09634   0.10192   0.11640
 Alpha virt. eigenvalues --    0.12913   0.13703   0.14301   0.14843   0.15498

 Mulliken charges:
               1
     1  P    0.272875
     2  C    1.309975
     3  O   -1.240586
     4  C    0.506559
     5  C   -0.614870
     6  H    0.120610
     7  H    0.063995
     8  O   -1.203476
     9  H    0.170104
    10  H    0.066665
    11  H    0.548149
 Sum of Mulliken charges =  -0.00000

 Dipole moment (field-independent basis, Debye):
    X=              4.9667    Y=              0.8135    Z=              0.1712  Tot=              5.0358

 Test job not archived.
 1\1\GINC-SE457\SP\RHF\Aug-CC-pVDZ\C3H5O2P1\OHZDE\08-Apr-2025\0\\#t hf
 aug-cc-pvdz iop(5/13=1,5/36=2,99/5=2) pseudo=read geom=check guess=(re
 ad,tcheck) scf=(maxcycle=1)\\title\\0,1\P,0,0.169413,1.304075,-0.21579
 \C,0,-0.994674,-0.169896,0.008074\O,0,-0.29059,-1.33799,0.037924\C,0,1
 .12424,-1.187154,-0.184452\C,0,1.581365,0.194628,0.307972\H,0,1.318735
 ,-1.307501,-1.254931\H,0,1.608113,-2.002785,0.351923\O,0,-2.184595,-0.
 139232,0.097442\H,0,2.523911,0.478265,-0.161428\H,0,1.711046,0.198176,
 1.390773\H,0,-0.167107,1.865022,1.038014\\Version=ES64L-G16RevC.01\Sta

 Normal termination of Gaussian 16 at Tue Apr  8 23:31:10 2025.
