 Gaussian 16, Revision C.01,

 ----------------------------------------------------------------------
 #t hf aug-cc-pvdz symm=none int=(grid=ultrafine) guess=(read,tcheck) s
 table=(opt,rrhf)
 ----------------------------------------------------------------------
 -----
 title
 -----
 Symbolic Z-matrix:
 Charge =  0 Multiplicity = 1

 SCF Done:  E(RHF) =  -824.766002679     A.U. after   11 cycles
 Normal termination of Gaussian 16 at Tue Apr  8 23:49:20 2025.
 Gaussian 16:  ES64L-G16RevC.01  3-Jul-2019

 ----------------------------------------------------------------------
 #t hf aug-cc-pvdz iop(5/13=1,5/36=2,99/5=2) pseudo=read geom=check gue
 ss=(read,tcheck) scf=(maxcycle=1)
 ----------------------------------------------------------------------
 -----
 title
 -----
 Structure from the checkpoint file:  "BDE49_nonexpt_1837_mol1.chk"
 Charge =  0 Multiplicity = 1

                         Standard orientation:
 ---------------------------------------------------------------------
 Center     Atomic      Atomic             Coordinates (Angstroms)
 Number     Number       Type             X           Y           Z
 ---------------------------------------------------------------------
      1         14           0        0.954509   -0.000000   -0.404443
      2          6           0       -0.913213    0.000000    0.011378
      3          9           0       -1.157597   -0.000003    1.338098
      4          9           0        1.593837   -1.291436    0.260924
      5          9           0       -1.519363   -1.091001   -0.516579
      6          9           0        1.593838    1.291436    0.260923
      7          9           0       -1.519362    1.091004   -0.516574
      8          1           0        1.193964   -0.000000   -1.847193
 ---------------------------------------------------------------------

 SCF Done:  E(RHF) =  -825.283377488     A.U. after    2 cycles

 The electronic state is 1-A.
 Alpha  occ. eigenvalues --  -69.67339 -26.52165 -26.52163 -26.52063 -26.49912
 Alpha  occ. eigenvalues --  -26.49911 -11.52035  -6.33564  -4.08979  -4.08817
 Alpha  occ. eigenvalues --   -4.08647  -1.72359  -1.62577  -1.62490  -1.62461
 Alpha  occ. eigenvalues --   -1.60343  -0.97975  -0.86332  -0.81790  -0.81781
 Alpha  occ. eigenvalues --   -0.79099  -0.73356  -0.71810  -0.69794  -0.69554
 Alpha  occ. eigenvalues --   -0.69369  -0.67055  -0.65427  -0.65065  -0.64674
 Alpha  occ. eigenvalues --   -0.63394  -0.60203  -0.51839
 Alpha virt. eigenvalues --    0.04342   0.05245   0.05253   0.05908   0.09693
 Alpha virt. eigenvalues --    0.11210   0.11894   0.12456   0.15574   0.16132
 Alpha virt. eigenvalues --    0.19466   0.20160   0.22121   0.22905   0.23747

 Mulliken charges:
               1
     1  Si   2.235120
     2  C    1.815132
     3  F   -0.743406
     4  F   -0.812989
     5  F   -0.735347
     6  F   -0.812990
     7  F   -0.735347
     8  H   -0.210172
 Sum of Mulliken charges =  -0.00000

 Dipole moment (field-independent basis, Debye):
    X=              0.9392    Y=             -0.0000    Z=             -1.5251  Tot=              1.7911

 Test job not archived.
 1\1\GINC-SE253\SP\RHF\Aug-CC-pVDZ\C1H1F5Si1\OHZDE\08-Apr-2025\0\\#t hf
  aug-cc-pvdz iop(5/13=1,5/36=2,99/5=2) pseudo=read geom=check guess=(r
 ead,tcheck) scf=(maxcycle=1)\\title\\0,1\Si,0,0.954509,0.,-0.404443\C,
 0,-0.913213,0.,0.011378\F,0,-1.157597,-0.000003,1.338098\F,0,1.593837,
 -1.291436,0.260924\F,0,-1.519363,-1.091001,-0.516579\F,0,1.593838,1.29
 1436,0.260923\F,0,-1.519362,1.091004,-0.516574\H,0,1.193964,0.,-1.8471
 93\\Version=ES64L-G16RevC.01\State=1-A\HF=-825.2833775\RMSD=2.849e-03\
 Dipole=0.3695026,0.,-0.6000109\Quadrupole=-0.7046173,-1.0968765,1.8014

 Normal termination of Gaussian 16 at Tue Apr  8 23:49:23 2025.
