 Gaussian 16, Revision C.01,

 ----------------------------------------------------------------------
 #t hf aug-cc-pvdz symm=none int=(grid=ultrafine) guess=(read,tcheck) s
 table=(opt,rrhf)
 ----------------------------------------------------------------------
 -----
 title
 -----
 Symbolic Z-matrix:
 Charge =  0 Multiplicity = 1

 SCF Done:  E(RHF) =  -562.053470443     A.U. after   14 cycles
 Normal termination of Gaussian 16 at Wed Apr  9 00:46:20 2025.
 Gaussian 16:  ES64L-G16RevC.01  3-Jul-2019

 ----------------------------------------------------------------------
 #t hf aug-cc-pvdz iop(5/13=1,5/36=2,99/5=2) pseudo=read geom=check gue
 ss=(read,tcheck) scf=(maxcycle=1)
 ----------------------------------------------------------------------
 -----
 title
 -----
 Structure from the checkpoint file:  "BDE49_nonexpt_790_mol1.chk"
 Charge =  0 Multiplicity = 1

                         Standard orientation:
 ---------------------------------------------------------------------
 Center     Atomic      Atomic             Coordinates (Angstroms)
 Number     Number       Type             X           Y           Z
 ---------------------------------------------------------------------
      1          6           0        0.109402   -0.167062    0.136546
      2          6           0       -0.465284    1.104386    0.270958
      3          6           0       -1.841325    1.257101    0.125590
      4          7           0       -2.675199    0.247873   -0.146107
      5          6           0       -2.132669   -0.964939   -0.278509
      6          6           0       -0.768295   -1.220416   -0.148336
      7          1           0        0.143626    1.976676    0.485939
      8          1           0       -2.297740    2.237947    0.230203
      9          1           0       -2.822453   -1.775287   -0.499994
     10          1           0       -0.402893   -2.234684   -0.269050
     11          5           0        3.117964    0.802162   -0.752867
     12         14           0        1.967044   -0.450836    0.324377
     13          1           0        2.742001    1.889701   -1.063330
     14          1           0        4.229293    0.496372   -1.055685
     15          1           0        2.358983   -0.197124    1.742062
     16          1           0        2.236164   -1.882238    0.038164
 ---------------------------------------------------------------------

 SCF Done:  E(RHF) =  -562.364851963     A.U. after    2 cycles

 The electronic state is 1-A.
 Alpha  occ. eigenvalues --  -69.52694 -15.50776 -11.28166 -11.28147 -11.25538
 Alpha  occ. eigenvalues --  -11.25277 -11.25252  -7.61792  -6.19964  -3.95316
 Alpha  occ. eigenvalues --   -3.95312  -3.95276  -1.25965  -1.08985  -1.03800
 Alpha  occ. eigenvalues --   -0.87710  -0.87129  -0.77978  -0.71804  -0.69176
 Alpha  occ. eigenvalues --   -0.66629  -0.65563  -0.61055  -0.56353  -0.53472
 Alpha  occ. eigenvalues --   -0.53005  -0.50671  -0.48933  -0.45009  -0.43537
 Alpha  occ. eigenvalues --   -0.39266  -0.35836
 Alpha virt. eigenvalues --    0.01930   0.03157   0.03409   0.03657   0.04572
 Alpha virt. eigenvalues --    0.05490   0.05767   0.06751   0.06986   0.07309
 Alpha virt. eigenvalues --    0.07955   0.08494   0.09519   0.09841   0.10182

 Mulliken charges:
               1
     1  C   -0.719141
     2  C    1.285754
     3  C   -0.982726
     4  N    1.049447
     5  C   -0.979062
     6  C    1.104044
     7  H   -0.328118
     8  H   -0.177688
     9  H   -0.174292
    10  H   -0.296089
    11  B   -1.007759
    12  Si   0.772923
    13  H    0.410968
    14  H    0.346675
    15  H   -0.138911
    16  H   -0.166026
 Sum of Mulliken charges =   0.00000

 Dipole moment (field-independent basis, Debye):
    X=              2.5509    Y=             -0.1190    Z=             -0.1102  Tot=              2.5561

 Test job not archived.
 1\1\GINC-SE039\SP\RHF\Aug-CC-pVDZ\C5H8B1N1Si1\OHZDE\09-Apr-2025\0\\#t
 hf aug-cc-pvdz iop(5/13=1,5/36=2,99/5=2) pseudo=read geom=check guess=
 (read,tcheck) scf=(maxcycle=1)\\title\\0,1\C,0,0.109402,-0.167062,0.13
 6546\C,0,-0.465284,1.104386,0.270958\C,0,-1.841325,1.257101,0.12559\N,
 0,-2.675199,0.247873,-0.146107\C,0,-2.132669,-0.964939,-0.278509\C,0,-
 0.768295,-1.220416,-0.148336\H,0,0.143626,1.976676,0.485939\H,0,-2.297
 74,2.237947,0.230203\H,0,-2.822453,-1.775287,-0.499994\H,0,-0.402893,-
 2.234684,-0.26905\B,0,3.117964,0.802162,-0.752867\Si,0,1.967044,-0.450

 Normal termination of Gaussian 16 at Wed Apr  9 00:46:28 2025.
