 Gaussian 16, Revision C.01,

 ----------------------------------------------------------------------
 #t hf aug-cc-pvdz symm=none int=(grid=ultrafine) guess=(read,tcheck) s
 table=(opt,rrhf)
 ----------------------------------------------------------------------
 -----
 title
 -----
 Symbolic Z-matrix:
 Charge =  0 Multiplicity = 1

 SCF Done:  E(RHF) =  -1056.89892119     A.U. after   12 cycles
 Normal termination of Gaussian 16 at Tue Apr  8 22:36:37 2025.
 Gaussian 16:  ES64L-G16RevC.01  3-Jul-2019

 ----------------------------------------------------------------------
 #t hf aug-cc-pvdz iop(5/13=1,5/36=2,99/5=2) pseudo=read geom=check gue
 ss=(read,tcheck) scf=(maxcycle=1)
 ----------------------------------------------------------------------
 -----
 title
 -----
 Structure from the checkpoint file:  "BDE49_expt_115_mol1.chk"
 Charge =  0 Multiplicity = 1

                         Standard orientation:
 ---------------------------------------------------------------------
 Center     Atomic      Atomic             Coordinates (Angstroms)
 Number     Number       Type             X           Y           Z
 ---------------------------------------------------------------------
      1          6           0        0.000000    0.383860    0.402220
      2         17           0        1.475885   -0.504042   -0.063634
      3          1           0       -0.000003    0.499644    1.481232
      4         17           0       -1.475886   -0.504041   -0.063634
      5          9           0        0.000001    1.592734   -0.192331
 ---------------------------------------------------------------------

 SCF Done:  E(RHF) =  -1057.17876315     A.U. after    2 cycles

 The electronic state is 1-A.
 Alpha  occ. eigenvalues -- -105.59857-105.59856 -26.51490 -11.47635 -10.64730
 Alpha  occ. eigenvalues --  -10.64729  -7.81673  -7.81668  -7.81247  -7.81246
 Alpha  occ. eigenvalues --   -7.81240  -7.81240  -1.65338  -1.16703  -1.07558
 Alpha  occ. eigenvalues --   -0.90888  -0.77618  -0.72798  -0.71834  -0.60243
 Alpha  occ. eigenvalues --   -0.57535  -0.51376  -0.49377  -0.48701  -0.47309
 Alpha virt. eigenvalues --    0.03724   0.07248   0.07973   0.10133   0.11507
 Alpha virt. eigenvalues --    0.12703   0.14034   0.15036   0.15671   0.15880
 Alpha virt. eigenvalues --    0.17920   0.20982   0.21267   0.25487   0.27815

 Mulliken charges:
               1
     1  C    0.239767
     2  Cl   0.009982
     3  H    0.314791
     4  Cl   0.009981
     5  F   -0.574521
 Sum of Mulliken charges =   0.00000

 Dipole moment (field-independent basis, Debye):
    X=              0.0000    Y=              0.0926    Z=              1.3971  Tot=              1.4001

 Test job not archived.
 1\1\GINC-SE118\SP\RHF\Aug-CC-pVDZ\C1H1Cl2F1\OHZDE\08-Apr-2025\0\\#t hf
  aug-cc-pvdz iop(5/13=1,5/36=2,99/5=2) pseudo=read geom=check guess=(r
 ead,tcheck) scf=(maxcycle=1)\\title\\0,1\C,0,0.,0.38386,0.40222\Cl,0,1
 .475885,-0.504042,-0.063634\H,0,-0.000003,0.499644,1.481232\Cl,0,-1.47
 5886,-0.504041,-0.063634\F,0,0.000001,1.592734,-0.192331\\Version=ES64
 L-G16RevC.01\State=1-A\HF=-1057.1787632\RMSD=3.745e-03\Dipole=0.000000
 8,0.0364219,0.5496456\Quadrupole=-0.2715652,-1.0624151,1.3339803,-0.00
 00039,-0.0000046,1.0780257\PG=C01 [X(C1H1Cl2F1)]\\@

 Normal termination of Gaussian 16 at Tue Apr  8 22:36:39 2025.
