 Gaussian 16, Revision C.01,

 ----------------------------------------------------------------------
 #t hf aug-cc-pvdz symm=none int=(grid=ultrafine) guess=(read,tcheck) s
 table=(opt,rrhf)
 ----------------------------------------------------------------------
 -----
 title
 -----
 Symbolic Z-matrix:
 Charge =  0 Multiplicity = 1

 SCF Done:  E(RHF) =  -764.523791897     A.U. after   15 cycles
 Normal termination of Gaussian 16 at Tue Apr  8 23:11:11 2025.
 Gaussian 16:  ES64L-G16RevC.01  3-Jul-2019

 ----------------------------------------------------------------------
 #t hf aug-cc-pvdz iop(5/13=1,5/36=2,99/5=2) pseudo=read geom=check gue
 ss=(read,tcheck) scf=(maxcycle=1)
 ----------------------------------------------------------------------
 -----
 title
 -----
 Structure from the checkpoint file:  "BDE49_expt_725_mol1.chk"
 Charge =  0 Multiplicity = 1

                         Standard orientation:
 ---------------------------------------------------------------------
 Center     Atomic      Atomic             Coordinates (Angstroms)
 Number     Number       Type             X           Y           Z
 ---------------------------------------------------------------------
      1          6           0        1.379098    0.641606    0.000000
      2          6           0       -0.000000    0.835057   -0.000000
      3          6           0       -0.893790   -0.225767   -0.000000
      4          6           0        1.859324   -0.664445    0.000000
      5          6           0        0.988301   -1.750588    0.000000
      6          6           0       -0.390645   -1.528950    0.000000
      7          1           0        2.929042   -0.838764    0.000000
      8          1           0        1.376490   -2.764344    0.000000
      9          8           0       -1.303389   -2.541708    0.000000
     10          1           0       -0.842511   -3.387053    0.000000
     11          1           0       -1.962989   -0.064243   -0.000000
     12         17           0       -0.633971    2.473983   -0.000000
     13          1           0        2.050851    1.488882    0.000000
 ---------------------------------------------------------------------

 SCF Done:  E(RHF) =  -764.908865286     A.U. after    2 cycles

 The electronic state is 1-A'.
 Alpha  occ. eigenvalues -- -105.57334 -20.59392 -11.32759 -11.31923 -11.26685
 Alpha  occ. eigenvalues --  -11.25467 -11.25320 -11.25207 -10.62129  -7.79094
 Alpha  occ. eigenvalues --   -7.78695  -7.78680  -1.50833  -1.18505  -1.09775
 Alpha  occ. eigenvalues --   -1.03335  -0.99338  -0.85776  -0.85314  -0.73903
 Alpha  occ. eigenvalues --   -0.71299  -0.68333  -0.63496  -0.60748  -0.60518
 Alpha  occ. eigenvalues --   -0.59479  -0.54775  -0.53847  -0.52250  -0.46946
 Alpha  occ. eigenvalues --   -0.46704  -0.35819  -0.33625
 Alpha virt. eigenvalues --    0.02709   0.03572   0.04556   0.05460   0.06604
 Alpha virt. eigenvalues --    0.08670   0.09500   0.10320   0.10851   0.11288
 Alpha virt. eigenvalues --    0.12705   0.13417   0.13640   0.14010   0.14159

 Mulliken charges:
               1
     1  C   -0.035828
     2  C    0.319012
     3  C    0.114591
     4  C    0.563993
     5  C   -0.462254
     6  C    1.990672
     7  H   -0.202112
     8  H   -0.311018
     9  O   -1.747850
    10  H    0.411122
    11  H   -0.133072
    12  Cl  -0.335151
    13  H   -0.172106
 Sum of Mulliken charges =  -0.00000

 Dipole moment (field-independent basis, Debye):
    X=              1.8125    Y=             -2.6458    Z=              0.0000  Tot=              3.2071

 Test job not archived.
 1\1\GINC-SE362\SP\RHF\Aug-CC-pVDZ\C6H5Cl1O1\OHZDE\08-Apr-2025\0\\#t hf
  aug-cc-pvdz iop(5/13=1,5/36=2,99/5=2) pseudo=read geom=check guess=(r
 ead,tcheck) scf=(maxcycle=1)\\title\\0,1\C,0,-0.559234,1.414506,0.\C,0
 ,-0.833606,0.049202,0.\C,0,0.172712,-0.905539,0.\C,0,0.772843,1.816944
 ,0.\C,0,1.805778,0.883439,0.\C,0,1.503277,-0.480053,0.\H,0,1.009887,2.
 874533,0.\H,0,2.840645,1.211222,0.\O,0,2.460496,-1.450883,0.\H,0,3.331
 527,-1.040614,0.\H,0,-0.051529,-1.963364,0.\Cl,0,-2.507039,-0.487101,0
 .\H,0,-1.365458,2.135014,0.\\Version=ES64L-G16RevC.01\State=1-A'\HF=-7

 Normal termination of Gaussian 16 at Tue Apr  8 23:11:16 2025.
