 Gaussian 16, Revision C.01,

 ----------------------------------------------------------------------
 #t hf aug-cc-pvdz symm=none int=(grid=ultrafine) guess=(read,tcheck) s
 table=(opt,rrhf)
 ----------------------------------------------------------------------
 -----
 title
 -----
 Symbolic Z-matrix:
 Charge =  0 Multiplicity = 1

 SCF Done:  E(RHF) =  -684.784227071     A.U. after   18 cycles
 Normal termination of Gaussian 16 at Tue Apr  8 23:28:02 2025.
 Gaussian 16:  ES64L-G16RevC.01  3-Jul-2019

 ----------------------------------------------------------------------
 #t hf aug-cc-pvdz iop(5/13=1,5/36=2,99/5=2) pseudo=read geom=check gue
 ss=(read,tcheck) scf=(maxcycle=1)
 ----------------------------------------------------------------------
 -----
 title
 -----
 Structure from the checkpoint file:  "BDE49_nonexpt_1293_mol1.chk"
 Charge =  0 Multiplicity = 1

                         Standard orientation:
 ---------------------------------------------------------------------
 Center     Atomic      Atomic             Coordinates (Angstroms)
 Number     Number       Type             X           Y           Z
 ---------------------------------------------------------------------
      1          6           0       -1.961707   -1.424754   -0.051837
      2          6           0       -0.602275   -1.126150   -0.054813
      3          6           0       -0.171454    0.204158   -0.004086
      4          6           0        1.274982    0.587171   -0.018675
      5          8           0        1.629648    1.742968   -0.095619
      6         15           0        2.607255   -0.765506   -0.060505
      7          6           0       -2.899874   -0.396560    0.009808
      8          6           0       -2.478134    0.933143    0.061412
      9          6           0       -1.122677    1.232548    0.050287
     10          1           0       -0.771491    2.256506    0.081846
     11          1           0       -2.288216   -2.457204   -0.096811
     12          1           0        0.116931   -1.935242   -0.106560
     13          1           0       -3.958627   -0.630159    0.016094
     14          1           0       -3.208758    1.732626    0.107622
     15          1           0        2.183121   -1.501563    1.073769
     16          1           0        3.547870    0.016551    0.643986
 ---------------------------------------------------------------------

 SCF Done:  E(RHF) =  -685.174040316     A.U. after    2 cycles

 The electronic state is 1-A.
 Alpha  occ. eigenvalues --  -84.28812 -20.54739 -11.35615 -11.26929 -11.26606
 Alpha  occ. eigenvalues --  -11.26275 -11.26073 -11.25927 -11.25713  -6.75992
 Alpha  occ. eigenvalues --   -4.28582  -4.28488  -4.27681  -1.48191  -1.17536
 Alpha  occ. eigenvalues --   -1.05405  -1.03644  -0.93043  -0.87090  -0.84737
 Alpha  occ. eigenvalues --   -0.77449  -0.72005  -0.66861  -0.66154  -0.63691
 Alpha  occ. eigenvalues --   -0.61862  -0.58984  -0.56864  -0.54211  -0.52139
 Alpha  occ. eigenvalues --   -0.51452  -0.51159  -0.41614  -0.36701  -0.36103
 Alpha  occ. eigenvalues --   -0.35108
 Alpha virt. eigenvalues --    0.02933   0.03477   0.04040   0.04924   0.05167
 Alpha virt. eigenvalues --    0.05927   0.07207   0.07419   0.07992   0.09160
 Alpha virt. eigenvalues --    0.10122   0.10690   0.11064   0.12364   0.13582

 Mulliken charges:
               1
     1  C    0.148201
     2  C    0.263608
     3  C    1.481972
     4  C    0.212415
     5  O   -1.378767
     6  P   -0.417070
     7  C   -0.030340
     8  C    0.354822
     9  C   -0.261765
    10  H   -0.309230
    11  H   -0.224116
    12  H   -0.286222
    13  H   -0.212413
    14  H   -0.217460
    15  H    0.444700
    16  H    0.431667
 Sum of Mulliken charges =  -0.00000

 Dipole moment (field-independent basis, Debye):
    X=             -1.9745    Y=             -2.3429    Z=              0.5727  Tot=              3.1170

 Test job not archived.
 1\1\GINC-SE109\SP\RHF\Aug-CC-pVDZ\C7H7O1P1\OHZDE\08-Apr-2025\0\\#t hf
 aug-cc-pvdz iop(5/13=1,5/36=2,99/5=2) pseudo=read geom=check guess=(re
 ad,tcheck) scf=(maxcycle=1)\\title\\0,1\C,0,-1.961707,-1.424754,-0.051
 837\C,0,-0.602275,-1.12615,-0.054813\C,0,-0.171454,0.204158,-0.004086\
 C,0,1.274982,0.587171,-0.018675\O,0,1.629648,1.742968,-0.095619\P,0,2.
 607255,-0.765507,-0.060505\C,0,-2.899874,-0.39656,0.009808\C,0,-2.4781
 34,0.933143,0.061412\C,0,-1.122677,1.232548,0.050287\H,0,-0.77149,2.25
 6506,0.081846\H,0,-2.288216,-2.457204,-0.096811\H,0,0.116931,-1.935242

 Normal termination of Gaussian 16 at Tue Apr  8 23:28:10 2025.
