 Gaussian 16, Revision C.01,

 ----------------------------------------------------------------------
 #t hf aug-cc-pvdz symm=none int=(grid=ultrafine) guess=(read,tcheck) s
 table=(opt,rrhf)
 ----------------------------------------------------------------------
 -----
 title
 -----
 Symbolic Z-matrix:
 Charge =  0 Multiplicity = 1

 SCF Done:  E(RHF) =  -338.250266472     A.U. after   12 cycles
 Normal termination of Gaussian 16 at Wed Apr  9 00:34:17 2025.
 Gaussian 16:  ES64L-G16RevC.01  3-Jul-2019

 ----------------------------------------------------------------------
 #t hf aug-cc-pvdz iop(5/13=1,5/36=2,99/5=2) pseudo=read geom=check gue
 ss=(read,tcheck) scf=(maxcycle=1)
 ----------------------------------------------------------------------
 -----
 title
 -----
 Structure from the checkpoint file:  "BDE49_nonexpt_439_mol1.chk"
 Charge =  0 Multiplicity = 1

                         Standard orientation:
 ---------------------------------------------------------------------
 Center     Atomic      Atomic             Coordinates (Angstroms)
 Number     Number       Type             X           Y           Z
 ---------------------------------------------------------------------
      1          5           0       -0.530652   -0.025537   -0.000003
      2          9           0       -1.670640   -0.704698    0.000006
      3          9           0       -0.603139    1.308317   -0.000008
      4          8           0        0.630390   -0.690438    0.000003
      5          6           0        1.898676   -0.027174    0.000001
      6          1           0        2.449459   -0.338142    0.888891
      7          1           0        1.783176    1.057964   -0.000011
      8          1           0        2.449464   -0.338161   -0.888880
 ---------------------------------------------------------------------

 SCF Done:  E(RHF) =  -338.572301020     A.U. after    2 cycles

 The electronic state is 1-A.
 Alpha  occ. eigenvalues --  -26.47947 -26.47168 -20.57786 -11.31129  -7.74015
 Alpha  occ. eigenvalues --   -1.63008  -1.58879  -1.49445  -0.97333  -0.80217
 Alpha  occ. eigenvalues --   -0.75553  -0.74892  -0.70650  -0.64514  -0.64335
 Alpha  occ. eigenvalues --   -0.63523  -0.63290  -0.60736  -0.52358  -0.49202
 Alpha virt. eigenvalues --    0.03319   0.04397   0.05157   0.05836   0.07465
 Alpha virt. eigenvalues --    0.07719   0.08615   0.13235   0.14880   0.14980
 Alpha virt. eigenvalues --    0.16459   0.21477   0.21694   0.23270   0.23475

 Mulliken charges:
               1
     1  B    1.610273
     2  F   -0.779066
     3  F   -0.504318
     4  O   -1.022937
     5  C    0.449079
     6  H    0.096915
     7  H    0.053136
     8  H    0.096917
 Sum of Mulliken charges =   0.00000

 Dipole moment (field-independent basis, Debye):
    X=              2.3875    Y=              0.5943    Z=             -0.0000  Tot=              2.4603

 Test job not archived.
 1\1\GINC-SE106\SP\RHF\Aug-CC-pVDZ\C1H3B1F2O1\OHZDE\09-Apr-2025\0\\#t h
 f aug-cc-pvdz iop(5/13=1,5/36=2,99/5=2) pseudo=read geom=check guess=(
 read,tcheck) scf=(maxcycle=1)\\title\\0,1\B,0,-0.530652,-0.025537,-0.0
 00003\F,0,-1.67064,-0.704699,0.000006\F,0,-0.603139,1.308317,-0.000008
 \O,0,0.63039,-0.690438,0.000003\C,0,1.898676,-0.027173,0.000001\H,0,2.
 449459,-0.338141,0.888891\H,0,1.783176,1.057964,-0.000011\H,0,2.449464
 ,-0.33816,-0.88888\\Version=ES64L-G16RevC.01\State=1-A\HF=-338.572301\
 RMSD=6.138e-03\Dipole=0.939309,0.23381,-0.0000062\Quadrupole=1.1893097

 Normal termination of Gaussian 16 at Wed Apr  9 00:34:20 2025.
