 Gaussian 16, Revision C.01,

 ----------------------------------------------------------------------
 #t hf aug-cc-pvdz symm=none int=(grid=ultrafine) guess=(read,tcheck) s
 table=(opt,rrhf)
 ----------------------------------------------------------------------
 -----
 title
 -----
 Symbolic Z-matrix:
 Charge =  0 Multiplicity = 1

 SCF Done:  E(RHF) =  -734.994679511     A.U. after   15 cycles
 Normal termination of Gaussian 16 at Wed Apr  9 00:49:28 2025.
 Gaussian 16:  ES64L-G16RevC.01  3-Jul-2019

 ----------------------------------------------------------------------
 #t hf aug-cc-pvdz iop(5/13=1,5/36=2,99/5=2) pseudo=read geom=check gue
 ss=(read,tcheck) scf=(maxcycle=1)
 ----------------------------------------------------------------------
 -----
 title
 -----
 Structure from the checkpoint file:  "BDE49_nonexpt_834_mol1.chk"
 Charge =  0 Multiplicity = 1

                         Standard orientation:
 ---------------------------------------------------------------------
 Center     Atomic      Atomic             Coordinates (Angstroms)
 Number     Number       Type             X           Y           Z
 ---------------------------------------------------------------------
      1          6           0        2.364282    0.928199   -0.675027
      2          6           0        1.040897    1.333473   -0.518724
      3          6           0        2.842916   -0.232146   -0.059632
      4          6           0        1.948522   -0.977840    0.715601
      5          6           0        0.625440   -0.573438    0.871518
      6          6           0        0.137125    0.595001    0.260060
      7          1           0        3.036311    1.522968   -1.286167
      8          1           0        0.708062    2.240451   -1.013287
      9          5           0       -2.840720   -0.432596   -0.230058
     10          8           0       -2.305542   -1.569304   -0.773874
     11          8           0       -4.194761   -0.333782   -0.141869
     12          1           0        2.292359   -1.884648    1.203902
     13          6           0        4.285132   -0.653075   -0.202770
     14          1           0        4.715231   -0.291624   -1.139440
     15          1           0        4.388206   -1.740489   -0.178260
     16          1           0        4.892985   -0.249164    0.614328
     17          1           0       -0.032430   -1.177775    1.490973
     18          1           0       -4.640707   -1.113454   -0.498194
     19          1           0       -1.343386   -1.554028   -0.810756
     20         14           0       -1.672845    1.097535    0.444375
     21          1           0       -1.972881    1.408059    1.866554
     22          1           0       -1.883790    2.340845   -0.340816
 ---------------------------------------------------------------------

 SCF Done:  E(RHF) =  -735.482038909     A.U. after    2 cycles

 The electronic state is 1-A.
 Alpha  occ. eigenvalues --  -69.51260 -20.56152 -20.55626 -11.25738 -11.25272
 Alpha  occ. eigenvalues --  -11.25036 -11.24509 -11.24347 -11.24176 -11.23242
 Alpha  occ. eigenvalues --   -7.63914  -6.18495  -3.93864  -3.93844  -3.93798
 Alpha  occ. eigenvalues --   -1.48212  -1.43913  -1.16062  -1.05139  -1.02015
 Alpha  occ. eigenvalues --   -0.94328  -0.84067  -0.81784  -0.78042  -0.75002
 Alpha  occ. eigenvalues --   -0.72022  -0.66783  -0.65928  -0.63846  -0.60989
 Alpha  occ. eigenvalues --   -0.60049  -0.58888  -0.56939  -0.55916  -0.55559
 Alpha  occ. eigenvalues --   -0.54684  -0.50857  -0.50159  -0.49154  -0.47501
 Alpha  occ. eigenvalues --   -0.46110  -0.42228  -0.35221  -0.33791
 Alpha virt. eigenvalues --    0.03202   0.03310   0.03608   0.04067   0.04550
 Alpha virt. eigenvalues --    0.04966   0.05321   0.06569   0.07049   0.07250
 Alpha virt. eigenvalues --    0.07940   0.08076   0.08883   0.09617   0.09748

 Mulliken charges:
               1
     1  C    0.771772
     2  C   -0.151736
     3  C    0.256943
     4  C    0.587600
     5  C    0.573119
     6  C   -0.612324
     7  H   -0.296517
     8  H   -0.317319
     9  B    1.746113
    10  O   -1.497391
    11  O   -1.341677
    12  H   -0.302929
    13  C   -0.717068
    14  H    0.114498
    15  H    0.125893
    16  H    0.278699
    17  H   -0.372576
    18  H    0.561770
    19  H    0.680595
    20  Si   0.160513
    21  H   -0.107254
    22  H   -0.140722
 Sum of Mulliken charges =  -0.00000

 Dipole moment (field-independent basis, Debye):
    X=              2.1687    Y=             -1.1299    Z=             -0.5661  Tot=              2.5100

 Test job not archived.
 1\1\GINC-SE329\SP\RHF\Aug-CC-pVDZ\C7H11B1O2Si1\OHZDE\09-Apr-2025\0\\#t
  hf aug-cc-pvdz iop(5/13=1,5/36=2,99/5=2) pseudo=read geom=check guess
 =(read,tcheck) scf=(maxcycle=1)\\title\\0,1\C,0,2.364282,0.928199,-0.6
 75027\C,0,1.040897,1.333473,-0.518724\C,0,2.842916,-0.232146,-0.059632
 \C,0,1.948522,-0.97784,0.715601\C,0,0.62544,-0.573438,0.871518\C,0,0.1
 37125,0.595001,0.26006\H,0,3.036311,1.522968,-1.286167\H,0,0.708062,2.
 240451,-1.013287\B,0,-2.84072,-0.432596,-0.230058\O,0,-2.305542,-1.569
 304,-0.773874\O,0,-4.194761,-0.333782,-0.141869\H,0,2.292359,-1.884648

 Normal termination of Gaussian 16 at Wed Apr  9 00:49:42 2025.
