 Gaussian 16, Revision C.01,

 ----------------------------------------------------------------------
 #t hf aug-cc-pvdz symm=none int=(grid=ultrafine) guess=(read,tcheck) s
 table=(opt,rrhf)
 ----------------------------------------------------------------------
 -----
 title
 -----
 Symbolic Z-matrix:
 Charge =  0 Multiplicity = 1

 SCF Done:  E(RHF) =  -1039.56468212     A.U. after   14 cycles
 Normal termination of Gaussian 16 at Tue Apr  8 23:43:15 2025.
 Gaussian 16:  ES64L-G16RevC.01  3-Jul-2019

 ----------------------------------------------------------------------
 #t hf aug-cc-pvdz iop(5/13=1,5/36=2,99/5=2) pseudo=read geom=check gue
 ss=(read,tcheck) scf=(maxcycle=1)
 ----------------------------------------------------------------------
 -----
 title
 -----
 Structure from the checkpoint file:  "BDE49_nonexpt_1715_mol1.chk"
 Charge =  0 Multiplicity = 1

                         Standard orientation:
 ---------------------------------------------------------------------
 Center     Atomic      Atomic             Coordinates (Angstroms)
 Number     Number       Type             X           Y           Z
 ---------------------------------------------------------------------
      1         16           0        1.217575   -0.867378    0.034679
      2         15           0       -0.736823   -0.046596   -0.064139
      3          8           0       -1.741137   -1.078953   -0.304681
      4          8           0       -0.580921    1.118769   -1.128646
      5          8           0        2.044715    0.637094   -0.021346
      6          1           0        2.163425    0.925222    0.893582
      7          8           0       -0.924589    0.809900    1.285908
      8          1           0       -1.294712    0.271612    1.997244
      9          1           0        0.317886    1.485670   -1.133490
 ---------------------------------------------------------------------

 SCF Done:  E(RHF) =  -1039.96437595     A.U. after    2 cycles

 The electronic state is 1-A.
 Alpha  occ. eigenvalues --  -94.03445 -84.46392 -20.62811 -20.61360 -20.60879
 Alpha  occ. eigenvalues --  -20.52612  -8.31082  -6.91537  -6.28857  -6.28653
 Alpha  occ. eigenvalues --   -6.28385  -4.45658  -4.44852  -4.43729  -1.55580
 Alpha  occ. eigenvalues --   -1.49922  -1.49024  -1.41113  -1.02393  -0.85802
 Alpha  occ. eigenvalues --   -0.75776  -0.72979  -0.70179  -0.66129  -0.60593
 Alpha  occ. eigenvalues --   -0.59802  -0.57843  -0.57741  -0.55514  -0.50597
 Alpha  occ. eigenvalues --   -0.48234  -0.44248  -0.41663
 Alpha virt. eigenvalues --    0.02450   0.04090   0.05482   0.06991   0.08219
 Alpha virt. eigenvalues --    0.09736   0.10521   0.11544   0.12368   0.13698
 Alpha virt. eigenvalues --    0.15390   0.18776   0.19635   0.20215   0.20914

 Mulliken charges:
               1
     1  S    0.188583
     2  P    3.456458
     3  O   -1.315173
     4  O   -1.320674
     5  O   -1.083852
     6  H    0.433730
     7  O   -1.239585
     8  H    0.368921
     9  H    0.511592
 Sum of Mulliken charges =  -0.00000

 Dipole moment (field-independent basis, Debye):
    X=              2.6944    Y=              2.0065    Z=              3.0465  Tot=              4.5351

 Test job not archived.
 1\1\GINC-SE460\SP\RHF\Aug-CC-pVDZ\H3O4P1S1\OHZDE\08-Apr-2025\0\\#t hf
 aug-cc-pvdz iop(5/13=1,5/36=2,99/5=2) pseudo=read geom=check guess=(re
 ad,tcheck) scf=(maxcycle=1)\\title\\0,1\S,0,1.217575,-0.867378,0.03467
 9\P,0,-0.736823,-0.046596,-0.064139\O,0,-1.741137,-1.078953,-0.304681\
 O,0,-0.580921,1.118769,-1.128646\O,0,2.044715,0.637094,-0.021346\H,0,2
 .163425,0.925222,0.893582\O,0,-0.924589,0.8099,1.285908\H,0,-1.294712,
 0.271612,1.997244\H,0,0.317886,1.48567,-1.13349\\Version=ES64L-G16RevC
 .01\State=1-A\HF=-1039.964376\RMSD=9.286e-03\Dipole=1.0600646,0.789413

 Normal termination of Gaussian 16 at Tue Apr  8 23:43:18 2025.
