 Gaussian 16, Revision C.01,

 ----------------------------------------------------------------------
 #t hf aug-cc-pvdz symm=none int=(grid=ultrafine) guess=(read,tcheck) s
 table=(opt,rrhf)
 ----------------------------------------------------------------------
 -----
 title
 -----
 Symbolic Z-matrix:
 Charge =  0 Multiplicity = 1

 SCF Done:  E(RHF) =  -890.612797830     A.U. after   11 cycles
 Normal termination of Gaussian 16 at Tue Apr  8 23:01:04 2025.
 Gaussian 16:  ES64L-G16RevC.01  3-Jul-2019

 ----------------------------------------------------------------------
 #t hf aug-cc-pvdz iop(5/13=1,5/36=2,99/5=2) pseudo=read geom=check gue
 ss=(read,tcheck) scf=(maxcycle=1)
 ----------------------------------------------------------------------
 -----
 title
 -----
 Structure from the checkpoint file:  "BDE49_expt_1911_mol1.chk"
 Charge =  0 Multiplicity = 1

                         Standard orientation:
 ---------------------------------------------------------------------
 Center     Atomic      Atomic             Coordinates (Angstroms)
 Number     Number       Type             X           Y           Z
 ---------------------------------------------------------------------
      1         14           0        1.628996   -0.000000    0.029175
      2          8           0        0.000000   -0.000001    0.255255
      3          6           0        2.448321   -0.000205    1.715971
      4          6           0        2.123602    1.537239   -0.929202
      5          6           0        2.123559   -1.537034   -0.929555
      6         14           0       -1.628996    0.000000    0.029175
      7          1           0        1.828204   -2.446816   -0.398405
      8          1           0        3.207685   -1.575418   -1.077831
      9          1           0        1.653220   -1.559738   -1.917328
     10          1           0        2.160048    0.883336    2.293191
     11          1           0        3.539477   -0.000206    1.626905
     12          1           0        1.828284    2.446908   -0.397836
     13          1           0        1.653251    1.560190   -1.916964
     14          1           0        2.160031   -0.883874    2.292987
     15          1           0        3.207727    1.575620   -1.077481
     16          6           0       -2.448321    0.000173    1.715971
     17          1           0       -2.160047   -0.883378    2.293176
     18          1           0       -3.539476    0.000175    1.626905
     19          1           0       -2.160031    0.883833    2.293003
     20          6           0       -2.123600   -1.537222   -0.929229
     21          1           0       -1.828282   -2.446901   -0.397880
     22          1           0       -1.653250   -1.560155   -1.916991
     23          1           0       -3.207726   -1.575602   -1.077509
     24          6           0       -2.123561    1.537050   -0.929527
     25          1           0       -1.828206    2.446824   -0.398360
     26          1           0       -3.207687    1.575436   -1.077802
     27          1           0       -1.653222    1.559773   -1.917299
 ---------------------------------------------------------------------

 SCF Done:  E(RHF) =  -891.023363313     A.U. after    2 cycles

 The electronic state is 1-A.
 Alpha  occ. eigenvalues --  -69.53414 -69.53413 -20.50883 -11.20425 -11.20423
 Alpha  occ. eigenvalues --  -11.20420 -11.20416 -11.20299 -11.20295  -6.19959
 Alpha  occ. eigenvalues --   -6.19934  -3.95466  -3.95443  -3.95266  -3.95262
 Alpha  occ. eigenvalues --   -3.95250  -3.95249  -1.40493  -0.97781  -0.96426
 Alpha  occ. eigenvalues --   -0.92661  -0.92553  -0.92279  -0.92265  -0.74377
 Alpha  occ. eigenvalues --   -0.60917  -0.58271  -0.58117  -0.58017  -0.56258
 Alpha  occ. eigenvalues --   -0.56256  -0.56114  -0.55382  -0.55229  -0.54158
 Alpha  occ. eigenvalues --   -0.54102  -0.53341  -0.53173  -0.52077  -0.51117
 Alpha  occ. eigenvalues --   -0.51092  -0.44003  -0.43991  -0.40908  -0.40891
 Alpha virt. eigenvalues --    0.03108   0.03436   0.03597   0.03610   0.05214
 Alpha virt. eigenvalues --    0.05578   0.05634   0.06384   0.06423   0.07897
 Alpha virt. eigenvalues --    0.07899   0.08058   0.08080   0.08163   0.09043

 Mulliken charges:
               1
     1  Si   3.933438
     2  O   -3.609005
     3  C   -0.601919
     4  C   -0.618465
     5  C   -0.618457
     6  Si   3.933439
     7  H   -0.041147
     8  H   -0.026030
     9  H   -0.031510
    10  H   -0.036454
    11  H   -0.019806
    12  H   -0.041180
    13  H   -0.031463
    14  H   -0.036469
    15  H   -0.026035
    16  C   -0.601920
    17  H   -0.036453
    18  H   -0.019809
    19  H   -0.036466
    20  C   -0.618466
    21  H   -0.041181
    22  H   -0.031466
    23  H   -0.026032
    24  C   -0.618459
    25  H   -0.041142
    26  H   -0.026031
    27  H   -0.031512
 Sum of Mulliken charges =  -0.00000

 Dipole moment (field-independent basis, Debye):
    X=             -0.0000    Y=              0.0000    Z=             -0.2352  Tot=              0.2352

 Test job not archived.
 1\1\GINC-SE015\SP\RHF\Aug-CC-pVDZ\C6H18O1Si2\OHZDE\08-Apr-2025\0\\#t h
 f aug-cc-pvdz iop(5/13=1,5/36=2,99/5=2) pseudo=read geom=check guess=(
 read,tcheck) scf=(maxcycle=1)\\title\\0,1\Si,0,1.628996,0.,0.029175\O,
 0,0.,-0.000001,0.255255\C,0,2.448321,-0.000205,1.715971\C,0,2.123602,1
 .537239,-0.929202\C,0,2.123559,-1.537034,-0.929555\Si,0,-1.628996,0.,0
 .029175\H,0,1.828204,-2.446816,-0.398405\H,0,3.207685,-1.575418,-1.077
 831\H,0,1.65322,-1.559738,-1.917328\H,0,2.160048,0.883336,2.293191\H,0
 ,3.539477,-0.000206,1.626905\H,0,1.828284,2.446908,-0.397836\H,0,1.653

 Normal termination of Gaussian 16 at Tue Apr  8 23:01:24 2025.
