 Gaussian 16, Revision C.01,

 ----------------------------------------------------------------------
 #t hf aug-cc-pvdz symm=none int=(grid=ultrafine) guess=(read,tcheck) s
 table=(opt,rrhf)
 ----------------------------------------------------------------------
 -----
 title
 -----
 Symbolic Z-matrix:
 Charge =  0 Multiplicity = 1

 SCF Done:  E(RHF) =  -424.349004813     A.U. after   12 cycles
 Normal termination of Gaussian 16 at Tue Apr  8 23:51:25 2025.
 Gaussian 16:  ES64L-G16RevC.01  3-Jul-2019

 ----------------------------------------------------------------------
 #t hf aug-cc-pvdz iop(5/13=1,5/36=2,99/5=2) pseudo=read geom=check gue
 ss=(read,tcheck) scf=(maxcycle=1)
 ----------------------------------------------------------------------
 -----
 title
 -----
 Structure from the checkpoint file:  "BDE49_nonexpt_1898_mol1.chk"
 Charge =  0 Multiplicity = 1

                         Standard orientation:
 ---------------------------------------------------------------------
 Center     Atomic      Atomic             Coordinates (Angstroms)
 Number     Number       Type             X           Y           Z
 ---------------------------------------------------------------------
      1         14           0       -1.734078   -0.094431    0.034533
      2          6           0        0.017413    0.608282   -0.093527
      3          1           0       -1.879152   -1.233405   -0.907102
      4          1           0       -2.728606    0.944189   -0.331567
      5          1           0       -2.013590   -0.573746    1.406624
      6          7           0        1.004028   -0.464490    0.044207
      7          6           0        2.386482    0.004408    0.057940
      8          1           0        0.883410   -1.133546   -0.708769
      9          1           0        2.557964    0.605564    0.955683
     10          1           0        2.658410    0.622338   -0.815701
     11          1           0        3.063328   -0.852564    0.099465
     12          1           0        0.150794    1.311033    0.738279
     13          1           0        0.132974    1.207454   -1.016296
 ---------------------------------------------------------------------

 SCF Done:  E(RHF) =  -424.533753774     A.U. after    2 cycles

 The electronic state is 1-A.
 Alpha  occ. eigenvalues --  -69.52162 -15.49090 -11.25430 -11.24774  -6.19296
 Alpha  occ. eigenvalues --   -3.94665  -3.94654  -3.94640  -1.20039  -0.95651
 Alpha  occ. eigenvalues --   -0.87159  -0.73520  -0.67292  -0.62757  -0.61194
 Alpha  occ. eigenvalues --   -0.55864  -0.53179  -0.48085  -0.47679  -0.45710
 Alpha  occ. eigenvalues --   -0.40446
 Alpha virt. eigenvalues --    0.03668   0.04243   0.04628   0.04733   0.05911
 Alpha virt. eigenvalues --    0.06578   0.06653   0.07814   0.08819   0.10064
 Alpha virt. eigenvalues --    0.10170   0.10731   0.13048   0.15265   0.15760

 Mulliken charges:
               1
     1  Si   0.988839
     2  C   -0.707234
     3  H   -0.222862
     4  H   -0.183858
     5  H   -0.174599
     6  N    0.125374
     7  C   -0.473259
     8  H    0.211547
     9  H    0.108984
    10  H    0.171496
    11  H    0.029553
    12  H    0.068585
    13  H    0.057434
 Sum of Mulliken charges =  -0.00000

 Dipole moment (field-independent basis, Debye):
    X=              0.8034    Y=              0.6716    Z=             -0.9274  Tot=              1.3988

 Test job not archived.
 1\1\GINC-SE334\SP\RHF\Aug-CC-pVDZ\C2H9N1Si1\OHZDE\08-Apr-2025\0\\#t hf
  aug-cc-pvdz iop(5/13=1,5/36=2,99/5=2) pseudo=read geom=check guess=(r
 ead,tcheck) scf=(maxcycle=1)\\title\\0,1\Si,0,-1.734078,-0.094431,0.03
 4533\C,0,0.017413,0.608282,-0.093527\H,0,-1.879152,-1.233405,-0.907102
 \H,0,-2.728606,0.944189,-0.331567\H,0,-2.01359,-0.573746,1.406624\N,0,
 1.004028,-0.46449,0.044207\C,0,2.386482,0.004408,0.05794\H,0,0.88341,-
 1.133546,-0.708769\H,0,2.557964,0.605564,0.955683\H,0,2.65841,0.622338
 ,-0.815701\H,0,3.063328,-0.852564,0.099465\H,0,0.150794,1.311033,0.738

 Normal termination of Gaussian 16 at Tue Apr  8 23:51:29 2025.
