 Gaussian 16, Revision C.01,

 ----------------------------------------------------------------------
 #t hf aug-cc-pvdz symm=none int=(grid=ultrafine) guess=(read,tcheck) s
 table=(opt,rrhf)
 ----------------------------------------------------------------------
 -----
 title
 -----
 Symbolic Z-matrix:
 Charge =  0 Multiplicity = 1

 SCF Done:  E(RHF) =  -1551.92916168     A.U. after   16 cycles
 Normal termination of Gaussian 16 at Wed Apr  9 00:53:46 2025.
 Gaussian 16:  ES64L-G16RevC.01  3-Jul-2019

 ----------------------------------------------------------------------
 #t hf aug-cc-pvdz iop(5/13=1,5/36=2,99/5=2) pseudo=read geom=check gue
 ss=(read,tcheck) scf=(maxcycle=1)
 ----------------------------------------------------------------------
 -----
 title
 -----
 Structure from the checkpoint file:  "BDE49_nonexpt_938_mol1.chk"
 Charge =  0 Multiplicity = 1

                         Standard orientation:
 ---------------------------------------------------------------------
 Center     Atomic      Atomic             Coordinates (Angstroms)
 Number     Number       Type             X           Y           Z
 ---------------------------------------------------------------------
      1         17           0        3.262031   -0.557364   -0.130702
      2          7           0        1.536855   -0.839464   -0.064972
      3          6           0        0.832656    0.229728    0.110268
      4          7           0        1.258485    1.495331    0.323155
      5          1           0        2.264347    1.576429    0.250015
      6          6           0        0.510245    2.742098    0.179032
      7          1           0        1.060686    3.523031    0.703456
      8          1           0       -0.470757    2.666442    0.645502
      9          1           0        0.387703    3.027448   -0.868911
     10          6           0       -0.656383   -0.088660    0.187938
     11         17           0       -1.369145    0.335016    1.731709
     12          7           0       -1.450606    0.589649   -0.984666
     13          8           0       -2.651308    0.640508   -0.867474
     14          8           0       -0.775330    0.971662   -1.917505
     15          7           0       -0.881785   -1.646445   -0.081623
     16          8           0       -1.008557   -1.943202   -1.245984
     17          8           0       -0.912404   -2.357208    0.886731
 ---------------------------------------------------------------------

 SCF Done:  E(RHF) =  -1552.68513539     A.U. after    2 cycles

 The electronic state is 1-A.
 Alpha  occ. eigenvalues -- -105.64356-105.60978 -20.64238 -20.64157 -20.63256
 Alpha  occ. eigenvalues --  -20.62921 -15.84524 -15.83899 -15.58551 -15.57606
 Alpha  occ. eigenvalues --  -11.49057 -11.40710 -11.31367 -10.69138 -10.65503
 Alpha  occ. eigenvalues --   -7.86111  -7.85648  -7.85632  -7.82450  -7.82008
 Alpha  occ. eigenvalues --   -7.81976  -1.72954  -1.71800  -1.56879  -1.56323
 Alpha  occ. eigenvalues --   -1.35286  -1.25008  -1.23835  -1.09934  -1.06776
 Alpha  occ. eigenvalues --   -1.02923  -1.00279  -0.93149  -0.87521  -0.85738
 Alpha  occ. eigenvalues --   -0.81360  -0.79916  -0.78669  -0.77661  -0.76663
 Alpha  occ. eigenvalues --   -0.75055  -0.71307  -0.68264  -0.65738  -0.61524
 Alpha  occ. eigenvalues --   -0.61094  -0.57505  -0.56952  -0.55314  -0.53721
 Alpha  occ. eigenvalues --   -0.52357  -0.52081  -0.50529  -0.50438  -0.49366
 Alpha  occ. eigenvalues --   -0.48122  -0.47193  -0.42782
 Alpha virt. eigenvalues --    0.01098   0.02466   0.03101   0.03961   0.04746
 Alpha virt. eigenvalues --    0.05222   0.06684   0.07226   0.08230   0.09586
 Alpha virt. eigenvalues --    0.10297   0.10866   0.11530   0.12757   0.13317

 Mulliken charges:
               1
     1  Cl   0.034604
     2  N    0.900521
     3  C   -2.097977
     4  N    1.089893
     5  H    0.244162
     6  C   -0.358853
     7  H   -0.001771
     8  H    0.158000
     9  H    0.205211
    10  C   -1.033996
    11  Cl   0.257909
    12  N    3.585942
    13  O   -1.534443
    14  O   -1.548981
    15  N    2.994292
    16  O   -1.477594
    17  O   -1.416920
 Sum of Mulliken charges =   0.00000

 Dipole moment (field-independent basis, Debye):
    X=              1.2325    Y=              5.4790    Z=              2.2088  Tot=              6.0346

 Test job not archived.
 1\1\GINC-SE459\SP\RHF\Aug-CC-pVDZ\C3H4Cl2N4O4\OHZDE\09-Apr-2025\0\\#t
 hf aug-cc-pvdz iop(5/13=1,5/36=2,99/5=2) pseudo=read geom=check guess=
 (read,tcheck) scf=(maxcycle=1)\\title\\0,1\Cl,0,3.262031,-0.557365,-0.
 130702\N,0,1.536855,-0.839464,-0.064972\C,0,0.832656,0.229728,0.110268
 \N,0,1.258485,1.495331,0.323155\H,0,2.264347,1.576428,0.250015\C,0,0.5
 10245,2.742098,0.179032\H,0,1.060687,3.523031,0.703456\H,0,-0.470757,2
 .666442,0.645502\H,0,0.387704,3.027448,-0.868911\C,0,-0.656383,-0.0886
 6,0.187938\Cl,0,-1.369145,0.335016,1.731709\N,0,-1.450606,0.589649,-0.

 Normal termination of Gaussian 16 at Wed Apr  9 00:54:01 2025.
