 Gaussian 16, Revision C.01,

 ----------------------------------------------------------------------
 #t hf aug-cc-pvdz symm=none int=(grid=ultrafine) guess=(read,tcheck) s
 table=(opt,rrhf)
 ----------------------------------------------------------------------
 -----
 title
 -----
 Symbolic Z-matrix:
 Charge =  0 Multiplicity = 1

 SCF Done:  E(RHF) =  -1103.16476374     A.U. after   15 cycles
 Normal termination of Gaussian 16 at Wed Apr  9 00:19:53 2025.
 Gaussian 16:  ES64L-G16RevC.01  3-Jul-2019

 ----------------------------------------------------------------------
 #t hf aug-cc-pvdz iop(5/13=1,5/36=2,99/5=2) pseudo=read geom=check gue
 ss=(read,tcheck) scf=(maxcycle=1)
 ----------------------------------------------------------------------
 -----
 title
 -----
 Structure from the checkpoint file:  "BDE49_nonexpt_2596_mol1.chk"
 Charge =  0 Multiplicity = 1

                         Standard orientation:
 ---------------------------------------------------------------------
 Center     Atomic      Atomic             Coordinates (Angstroms)
 Number     Number       Type             X           Y           Z
 ---------------------------------------------------------------------
      1         17           0       -2.631553    0.637593    0.000002
      2         16           0       -1.378898   -1.005780   -0.000003
      3          6           0        0.252584   -0.307684   -0.000001
      4          6           0        0.565000    1.048627   -0.000004
      5          6           0        1.300206   -1.236610    0.000003
      6          6           0        2.603909   -0.755675    0.000004
      7          6           0        1.911268    1.409638   -0.000002
      8          7           0        2.925297    0.542313    0.000001
      9          1           0       -0.205335    1.806905   -0.000007
     10          1           0        2.181053    2.462103   -0.000004
     11          1           0        1.114455   -2.304854    0.000006
     12          1           0        3.433719   -1.456721    0.000007
 ---------------------------------------------------------------------

 SCF Done:  E(RHF) =  -1103.54899355     A.U. after    2 cycles

 The electronic state is 1-A.
 Alpha  occ. eigenvalues -- -105.60440 -94.03464 -15.51480 -11.32151 -11.29753
 Alpha  occ. eigenvalues --  -11.29728 -11.26837 -11.26417 -10.65133  -8.31205
 Alpha  occ. eigenvalues --   -7.82080  -7.81634  -7.81585  -6.29023  -6.28766
 Alpha  occ. eigenvalues --   -6.28483  -1.27376  -1.17096  -1.09818  -1.05527
 Alpha  occ. eigenvalues --   -0.97296  -0.89605  -0.84968  -0.73167  -0.71627
 Alpha  occ. eigenvalues --   -0.67582  -0.62864  -0.60357  -0.58683  -0.56071
 Alpha  occ. eigenvalues --   -0.54138  -0.53848  -0.48299  -0.46252  -0.45925
 Alpha  occ. eigenvalues --   -0.37525  -0.36142
 Alpha virt. eigenvalues --    0.03104   0.03494   0.04618   0.05030   0.06256
 Alpha virt. eigenvalues --    0.06790   0.07762   0.08796   0.09368   0.11127
 Alpha virt. eigenvalues --    0.11449   0.11528   0.11778   0.12379   0.13986

 Mulliken charges:
               1
     1  Cl  -0.277527
     2  S    0.334484
     3  C   -0.073535
     4  C    1.087342
     5  C    0.757428
     6  C   -1.062415
     7  C   -1.117642
     8  N    1.016145
     9  H   -0.134479
    10  H   -0.173680
    11  H   -0.185627
    12  H   -0.170493
 Sum of Mulliken charges =  -0.00000

 Dipole moment (field-independent basis, Debye):
    X=             -0.8244    Y=             -0.8370    Z=             -0.0000  Tot=              1.1748

 Test job not archived.
 1\1\GINC-SE362\SP\RHF\Aug-CC-pVDZ\C5H4Cl1N1S1\OHZDE\09-Apr-2025\0\\#t
 hf aug-cc-pvdz iop(5/13=1,5/36=2,99/5=2) pseudo=read geom=check guess=
 (read,tcheck) scf=(maxcycle=1)\\title\\0,1\Cl,0,-2.631553,0.637593,0.0
 00002\S,0,-1.378898,-1.00578,-0.000003\C,0,0.252584,-0.307684,-0.00000
 1\C,0,0.565,1.048627,-0.000004\C,0,1.300206,-1.23661,0.000003\C,0,2.60
 3909,-0.755675,0.000004\C,0,1.911268,1.409638,-0.000002\N,0,2.925297,0
 .542313,0.000001\H,0,-0.205335,1.806905,-0.000007\H,0,2.181053,2.46210
 3,-0.000004\H,0,1.114455,-2.304854,0.000006\H,0,3.433719,-1.456721,0.0

 Normal termination of Gaussian 16 at Wed Apr  9 00:19:58 2025.
