 Gaussian 16, Revision C.01,

 ----------------------------------------------------------------------
 #t hf aug-cc-pvdz symm=none int=(grid=ultrafine) guess=(read,tcheck) s
 table=(opt,rrhf)
 ----------------------------------------------------------------------
 -----
 title
 -----
 Symbolic Z-matrix:
 Charge =  0 Multiplicity = 1

 SCF Done:  E(RHF) =  -621.003231512     A.U. after   15 cycles
 Normal termination of Gaussian 16 at Wed Apr  9 00:48:01 2025.
 Gaussian 16:  ES64L-G16RevC.01  3-Jul-2019

 ----------------------------------------------------------------------
 #t hf aug-cc-pvdz iop(5/13=1,5/36=2,99/5=2) pseudo=read geom=check gue
 ss=(read,tcheck) scf=(maxcycle=1)
 ----------------------------------------------------------------------
 -----
 title
 -----
 Structure from the checkpoint file:  "BDE49_nonexpt_838_mol1.chk"
 Charge =  0 Multiplicity = 1

                         Standard orientation:
 ---------------------------------------------------------------------
 Center     Atomic      Atomic             Coordinates (Angstroms)
 Number     Number       Type             X           Y           Z
 ---------------------------------------------------------------------
      1          6           0       -2.890812    0.662637   -0.077557
      2          6           0       -1.810023    1.491888    0.214049
      3          6           0       -0.523584    0.962395    0.296372
      4          6           0       -2.679638   -0.698171   -0.290490
      5          6           0       -1.392686   -1.224709   -0.207075
      6          6           0       -0.290248   -0.407760    0.092281
      7          1           0       -3.891811    1.074902   -0.142952
      8          1           0       -1.967777    2.553142    0.373784
      9          1           0        0.309173    1.624396    0.505776
     10          1           0       -3.516167   -1.348287   -0.523141
     11          1           0       -1.245737   -2.286272   -0.380756
     12          5           0        2.969882    0.102517   -0.241818
     13          8           0        2.758603    1.441632   -0.270977
     14          1           0        3.544816    1.956101   -0.485726
     15         14           0        1.437592   -1.145619    0.236618
     16          1           0        4.071129   -0.320285   -0.471061
     17          1           0        1.678036   -1.611262    1.633634
     18          1           0        1.495776   -2.367100   -0.610780
 ---------------------------------------------------------------------

 SCF Done:  E(RHF) =  -621.374731018     A.U. after    2 cycles

 The electronic state is 1-A.
 Alpha  occ. eigenvalues --  -69.50815 -20.57918 -11.24217 -11.24187 -11.23969
 Alpha  occ. eigenvalues --  -11.23860 -11.23792 -11.22674  -7.62647  -6.18069
 Alpha  occ. eigenvalues --   -3.93427  -3.93410  -3.93386  -1.47696  -1.14658
 Alpha  occ. eigenvalues --   -1.01118  -1.01052  -0.83149  -0.82780  -0.78629
 Alpha  occ. eigenvalues --   -0.72982  -0.69124  -0.65749  -0.63464  -0.63046
 Alpha  occ. eigenvalues --   -0.59395  -0.56029  -0.54661  -0.53824  -0.51079
 Alpha  occ. eigenvalues --   -0.49878  -0.47076  -0.45431  -0.40873  -0.34112
 Alpha  occ. eigenvalues --   -0.33831
 Alpha virt. eigenvalues --    0.02694   0.03679   0.03776   0.04413   0.04712
 Alpha virt. eigenvalues --    0.04923   0.06509   0.06912   0.07126   0.07723
 Alpha virt. eigenvalues --    0.08882   0.09426   0.09727   0.10458   0.10900

 Mulliken charges:
               1
     1  C    0.231983
     2  C    0.382065
     3  C    0.440009
     4  C    0.428299
     5  C    0.295903
     6  C   -0.601924
     7  H   -0.212779
     8  H   -0.229592
     9  H   -0.285371
    10  H   -0.216501
    11  H   -0.343321
    12  B    0.359719
    13  O   -1.055116
    14  H    0.517549
    15  Si   0.532298
    16  H    0.054362
    17  H   -0.160098
    18  H   -0.137487
 Sum of Mulliken charges =  -0.00000

 Dipole moment (field-independent basis, Debye):
    X=              1.2201    Y=              1.3114    Z=             -0.5867  Tot=              1.8849

 Test job not archived.
 1\1\GINC-SE455\SP\RHF\Aug-CC-pVDZ\C6H9B1O1Si1\OHZDE\09-Apr-2025\0\\#t
 hf aug-cc-pvdz iop(5/13=1,5/36=2,99/5=2) pseudo=read geom=check guess=
 (read,tcheck) scf=(maxcycle=1)\\title\\0,1\C,0,-2.890812,0.662637,-0.0
 77557\C,0,-1.810023,1.491888,0.214049\C,0,-0.523584,0.962395,0.296372\
 C,0,-2.679638,-0.698171,-0.29049\C,0,-1.392686,-1.224709,-0.207075\C,0
 ,-0.290248,-0.40776,0.092281\H,0,-3.891811,1.074902,-0.142952\H,0,-1.9
 67777,2.553142,0.373784\H,0,0.309173,1.624396,0.505776\H,0,-3.516167,-
 1.348287,-0.523141\H,0,-1.245737,-2.286272,-0.380756\B,0,2.969882,0.10

 Normal termination of Gaussian 16 at Wed Apr  9 00:48:09 2025.
