 Gaussian 16, Revision C.01,

 ----------------------------------------------------------------------
 #t hf aug-cc-pvdz symm=none int=(grid=ultrafine) guess=(read,tcheck) s
 table=(opt,rrhf)
 ----------------------------------------------------------------------
 -----
 title
 -----
 Symbolic Z-matrix:
 Charge =  0 Multiplicity = 1

 SCF Done:  E(RHF) =  -931.614332142     A.U. after   12 cycles
 Normal termination of Gaussian 16 at Wed Apr  9 00:14:14 2025.
 Gaussian 16:  ES64L-G16RevC.01  3-Jul-2019

 ----------------------------------------------------------------------
 #t hf aug-cc-pvdz iop(5/13=1,5/36=2,99/5=2) pseudo=read geom=check gue
 ss=(read,tcheck) scf=(maxcycle=1)
 ----------------------------------------------------------------------
 -----
 title
 -----
 Structure from the checkpoint file:  "BDE49_nonexpt_2453_mol1.chk"
 Charge =  0 Multiplicity = 1

                         Standard orientation:
 ---------------------------------------------------------------------
 Center     Atomic      Atomic             Coordinates (Angstroms)
 Number     Number       Type             X           Y           Z
 ---------------------------------------------------------------------
      1         14           0        1.066108   -1.256054    0.527690
      2         14           0       -1.060315   -1.253121   -0.499292
      3          5           0       -2.075843    0.449431    0.004789
      4          1           0       -1.804516   -2.488643   -0.148946
      5          1           0       -0.809308   -1.287647   -1.967480
      6          5           0        2.064150    0.441716   -0.003104
      7          1           0        1.889648   -2.441875    0.161150
      8          1           0        0.921051   -1.271960    2.008831
      9          8           0       -1.493414    1.663219    0.190635
     10          1           0       -0.528071    1.687150    0.089731
     11          8           0       -3.426655    0.339354    0.158163
     12          1           0       -3.825658    1.188467    0.390867
     13          8           0        3.387389    0.541609   -0.319159
     14          1           0        3.864295   -0.290635   -0.265478
     15          8           0        1.332875    1.606740   -0.072965
     16          1           0        1.868360    2.370489   -0.328077
 ---------------------------------------------------------------------

 SCF Done:  E(RHF) =  -932.028059680     A.U. after    2 cycles

 The electronic state is 1-A.
 Alpha  occ. eigenvalues --  -69.51475 -69.50869 -20.58466 -20.58071 -20.55113
 Alpha  occ. eigenvalues --  -20.54600  -7.66209  -7.63745  -6.18842  -6.18201
 Alpha  occ. eigenvalues --   -3.94181  -3.94165  -3.94143  -3.93540  -3.93537
 Alpha  occ. eigenvalues --   -3.93483  -1.50697  -1.47376  -1.46182  -1.42945
 Alpha  occ. eigenvalues --   -0.81183  -0.78289  -0.77535  -0.73869  -0.72550
 Alpha  occ. eigenvalues --   -0.68159  -0.62181  -0.60334  -0.59264  -0.58539
 Alpha  occ. eigenvalues --   -0.56158  -0.54472  -0.51654  -0.49328  -0.48260
 Alpha  occ. eigenvalues --   -0.48018  -0.44500  -0.42080  -0.38789
 Alpha virt. eigenvalues --    0.02875   0.03629   0.04233   0.04326   0.05310
 Alpha virt. eigenvalues --    0.06164   0.06818   0.07094   0.07805   0.08176
 Alpha virt. eigenvalues --    0.08838   0.09307   0.09863   0.10139   0.10246

 Mulliken charges:
               1
     1  Si   0.085951
     2  Si  -0.061952
     3  B    1.747995
     4  H   -0.098255
     5  H   -0.070021
     6  B    1.686348
     7  H   -0.146525
     8  H   -0.101881
     9  O   -1.433946
    10  H    0.856732
    11  O   -1.399307
    12  H    0.552122
    13  O   -1.296694
    14  H    0.527106
    15  O   -1.359243
    16  H    0.511571
 Sum of Mulliken charges =  -0.00000

 Dipole moment (field-independent basis, Debye):
    X=              2.8205    Y=              0.8788    Z=             -0.1189  Tot=              2.9566

 Test job not archived.
 1\1\GINC-SE402\SP\RHF\Aug-CC-pVDZ\B2H8O4Si2\OHZDE\09-Apr-2025\0\\#t hf
  aug-cc-pvdz iop(5/13=1,5/36=2,99/5=2) pseudo=read geom=check guess=(r
 ead,tcheck) scf=(maxcycle=1)\\title\\0,1\Si,0,1.066108,-1.256054,0.527
 69\Si,0,-1.060315,-1.253121,-0.499292\B,0,-2.075843,0.449431,0.004789\
 H,0,-1.804516,-2.488643,-0.148946\H,0,-0.809308,-1.287647,-1.96748\B,0
 ,2.06415,0.441716,-0.003104\H,0,1.889648,-2.441875,0.16115\H,0,0.92105
 1,-1.27196,2.008831\O,0,-1.493414,1.663219,0.190635\H,0,-0.528071,1.68
 715,0.089731\O,0,-3.426655,0.339354,0.158163\H,0,-3.825658,1.188467,0.

 Normal termination of Gaussian 16 at Wed Apr  9 00:14:21 2025.
