 Gaussian 16, Revision C.01,

 ----------------------------------------------------------------------
 #t hf aug-cc-pvdz symm=none int=(grid=ultrafine) guess=(read,tcheck) s
 table=(opt,rrhf)
 ----------------------------------------------------------------------
 -----
 title
 -----
 Symbolic Z-matrix:
 Charge =  0 Multiplicity = 1

 SCF Done:  E(RHF) =  -694.584592044     A.U. after   16 cycles
 Normal termination of Gaussian 16 at Wed Apr  9 00:04:26 2025.
 Gaussian 16:  ES64L-G16RevC.01  3-Jul-2019

 ----------------------------------------------------------------------
 #t hf aug-cc-pvdz iop(5/13=1,5/36=2,99/5=2) pseudo=read geom=check gue
 ss=(read,tcheck) scf=(maxcycle=1)
 ----------------------------------------------------------------------
 -----
 title
 -----
 Structure from the checkpoint file:  "BDE49_nonexpt_2184_mol1.chk"
 Charge =  0 Multiplicity = 1

                         Standard orientation:
 ---------------------------------------------------------------------
 Center     Atomic      Atomic             Coordinates (Angstroms)
 Number     Number       Type             X           Y           Z
 ---------------------------------------------------------------------
      1          6           0       -2.780510    0.257238    0.000010
      2          6           0       -1.779065    1.226167   -0.000003
      3          6           0       -0.455747    0.825196   -0.000001
      4          6           0       -2.433540   -1.092481    0.000007
      5          6           0       -1.096218   -1.478255    0.000005
      6          6           0       -0.081409   -0.519972   -0.000010
      7          1           0       -3.820691    0.558623   -0.000017
      8          1           0       -2.003302    2.285719   -0.000002
      9          9           0        0.529519    1.763457   -0.000002
     10          1           0       -3.206337   -1.851955    0.000038
     11          1           0       -0.807128   -2.521995    0.000010
     12          8           0        1.212304   -0.929855   -0.000046
     13         14           0        2.694209   -0.160548    0.000011
     14          1           0        3.653217   -1.281528    0.000002
     15          1           0        2.880039    0.659505    1.214178
     16          1           0        2.880105    0.659675   -1.214025
 ---------------------------------------------------------------------

 SCF Done:  E(RHF) =  -695.016132646     A.U. after    2 cycles

 The electronic state is 1-A.
 Alpha  occ. eigenvalues --  -69.56792 -26.48679 -20.56818 -11.33672 -11.32585
 Alpha  occ. eigenvalues --  -11.26070 -11.25549 -11.25324 -11.25239  -6.23306
 Alpha  occ. eigenvalues --   -3.98813  -3.98654  -3.98628  -1.61368  -1.48479
 Alpha  occ. eigenvalues --   -1.16634  -1.03488  -1.02410  -0.87173  -0.86391
 Alpha  occ. eigenvalues --   -0.79421  -0.73728  -0.71452  -0.68609  -0.68048
 Alpha  occ. eigenvalues --   -0.64568  -0.62810  -0.61671  -0.60490  -0.57066
 Alpha  occ. eigenvalues --   -0.54439  -0.52226  -0.51509  -0.47308  -0.46953
 Alpha  occ. eigenvalues --   -0.35929  -0.33409
 Alpha virt. eigenvalues --    0.03409   0.03734   0.03897   0.04889   0.05438
 Alpha virt. eigenvalues --    0.05792   0.07196   0.07816   0.09369   0.09722
 Alpha virt. eigenvalues --    0.10274   0.11279   0.12240   0.13043   0.13632

 Mulliken charges:
               1
     1  C    0.457423
     2  C    0.016093
     3  C    1.306910
     4  C    0.330032
     5  C    0.305071
     6  C    0.869247
     7  H   -0.205565
     8  H   -0.220641
     9  F   -0.994167
    10  H   -0.204637
    11  H   -0.258148
    12  O   -2.311160
    13  Si   1.398660
    14  H   -0.195370
    15  H   -0.146878
    16  H   -0.146870
 Sum of Mulliken charges =  -0.00000

 Dipole moment (field-independent basis, Debye):
    X=             -1.0288    Y=             -0.2130    Z=             -0.0001  Tot=              1.0506

 Test job not archived.
 1\1\GINC-SE252\SP\RHF\Aug-CC-pVDZ\C6H7F1O1Si1\OHZDE\09-Apr-2025\0\\#t
 hf aug-cc-pvdz iop(5/13=1,5/36=2,99/5=2) pseudo=read geom=check guess=
 (read,tcheck) scf=(maxcycle=1)\\title\\0,1\C,0,2.78051,0.257238,-0.000
 01\C,0,1.779065,1.226167,0.000003\C,0,0.455747,0.825196,0.000001\C,0,2
 .43354,-1.092481,-0.000007\C,0,1.096218,-1.478255,-0.000005\C,0,0.0814
 09,-0.519972,0.00001\H,0,3.820691,0.558623,0.000017\H,0,2.003302,2.285
 719,0.000002\F,0,-0.529519,1.763457,0.000002\H,0,3.206337,-1.851955,-0
 .000038\H,0,0.807128,-2.521995,-0.00001\O,0,-1.212304,-0.929855,0.0000

 Normal termination of Gaussian 16 at Wed Apr  9 00:04:33 2025.
