 Gaussian 16, Revision C.01,

 ----------------------------------------------------------------------
 #t hf aug-cc-pvdz symm=none int=(grid=ultrafine) guess=(read,tcheck) s
 table=(opt,rrhf)
 ----------------------------------------------------------------------
 -----
 title
 -----
 Symbolic Z-matrix:
 Charge =  0 Multiplicity = 1

 SCF Done:  E(RHF) =  -558.048685701     A.U. after   14 cycles
 Normal termination of Gaussian 16 at Wed Apr  9 00:05:56 2025.
 Gaussian 16:  ES64L-G16RevC.01  3-Jul-2019

 ----------------------------------------------------------------------
 #t hf aug-cc-pvdz iop(5/13=1,5/36=2,99/5=2) pseudo=read geom=check gue
 ss=(read,tcheck) scf=(maxcycle=1)
 ----------------------------------------------------------------------
 -----
 title
 -----
 Structure from the checkpoint file:  "BDE49_nonexpt_2226_mol1.chk"
 Charge =  0 Multiplicity = 1

                         Standard orientation:
 ---------------------------------------------------------------------
 Center     Atomic      Atomic             Coordinates (Angstroms)
 Number     Number       Type             X           Y           Z
 ---------------------------------------------------------------------
      1          6           0       -2.916512   -0.111405   -0.467646
      2          6           0       -1.941832    0.291206    0.627362
      3          1           0       -2.553351   -0.993870   -0.995428
      4          1           0       -3.040417    0.699908   -1.188562
      5          1           0       -3.893356   -0.343650   -0.033338
      6         14           0        1.518267   -0.598036    0.204851
      7          6           0        2.554382    0.869874   -0.295269
      8          1           0        3.565710    0.775783    0.113464
      9          1           0        2.118909    1.797444    0.083547
     10          1           0        2.630669    0.944903   -1.382967
     11          8           0       -0.662562    0.674232    0.124686
     12          8           0       -0.043735   -0.540943   -0.432149
     13          1           0       -1.817087   -0.503498    1.371350
     14          1           0       -2.270942    1.199555    1.142978
     15          1           0        1.456223   -0.710683    1.680716
     16          1           0        2.022046   -1.857747   -0.386661
 ---------------------------------------------------------------------

 SCF Done:  E(RHF) =  -558.361034091     A.U. after    2 cycles

 The electronic state is 1-A.
 Alpha  occ. eigenvalues --  -69.55322 -20.61178 -20.58617 -11.29285 -11.22676
 Alpha  occ. eigenvalues --  -11.21814  -6.21971  -3.97439  -3.97307  -3.97262
 Alpha  occ. eigenvalues --   -1.55984  -1.28134  -1.01268  -0.95546  -0.84497
 Alpha  occ. eigenvalues --   -0.73279  -0.67348  -0.65978  -0.61854  -0.58189
 Alpha  occ. eigenvalues --   -0.57117  -0.56224  -0.54352  -0.53530  -0.50861
 Alpha  occ. eigenvalues --   -0.49335  -0.46666  -0.45292  -0.42359
 Alpha virt. eigenvalues --    0.03723   0.04096   0.04273   0.04443   0.05753
 Alpha virt. eigenvalues --    0.06194   0.06537   0.07569   0.08075   0.08576
 Alpha virt. eigenvalues --    0.09682   0.10145   0.11676   0.13327   0.13990

 Mulliken charges:
               1
     1  C   -0.429200
     2  C    0.557131
     3  H    0.172015
     4  H    0.178198
     5  H    0.168783
     6  Si   2.041344
     7  C   -0.648079
     8  H   -0.008850
     9  H    0.062603
    10  H    0.087935
    11  O   -0.836166
    12  O   -1.074939
    13  H    0.137637
    14  H    0.049676
    15  H   -0.221983
    16  H   -0.236107
 Sum of Mulliken charges =  -0.00000

 Dipole moment (field-independent basis, Debye):
    X=             -0.2197    Y=              0.2846    Z=              0.8629  Tot=              0.9348

 Test job not archived.
 1\1\GINC-SE364\SP\RHF\Aug-CC-pVDZ\C3H10O2Si1\OHZDE\09-Apr-2025\0\\#t h
 f aug-cc-pvdz iop(5/13=1,5/36=2,99/5=2) pseudo=read geom=check guess=(
 read,tcheck) scf=(maxcycle=1)\\title\\0,1\C,0,-2.916512,-0.111405,-0.4
 67646\C,0,-1.941832,0.291206,0.627362\H,0,-2.553351,-0.99387,-0.995428
 \H,0,-3.040417,0.699908,-1.188562\H,0,-3.893356,-0.34365,-0.033338\Si,
 0,1.518267,-0.598036,0.204851\C,0,2.554382,0.869874,-0.295269\H,0,3.56
 571,0.775783,0.113464\H,0,2.118909,1.797444,0.083547\H,0,2.630669,0.94
 4903,-1.382967\O,0,-0.662562,0.674232,0.124686\O,0,-0.043735,-0.540943

 Normal termination of Gaussian 16 at Wed Apr  9 00:06:01 2025.
