 Gaussian 16, Revision C.01,

 ----------------------------------------------------------------------
 #t hf aug-cc-pvdz symm=none int=(grid=ultrafine) guess=(read,tcheck) s
 table=(opt,rrhf)
 ----------------------------------------------------------------------
 -----
 title
 -----
 Symbolic Z-matrix:
 Charge =  0 Multiplicity = 1

 SCF Done:  E(RHF) =  -1173.94922164     A.U. after   15 cycles
 Normal termination of Gaussian 16 at Wed Apr  9 00:12:21 2025.
 Gaussian 16:  ES64L-G16RevC.01  3-Jul-2019

 ----------------------------------------------------------------------
 #t hf aug-cc-pvdz iop(5/13=1,5/36=2,99/5=2) pseudo=read geom=check gue
 ss=(read,tcheck) scf=(maxcycle=1)
 ----------------------------------------------------------------------
 -----
 title
 -----
 Structure from the checkpoint file:  "BDE49_nonexpt_239_mol1.chk"
 Charge =  0 Multiplicity = 1

                         Standard orientation:
 ---------------------------------------------------------------------
 Center     Atomic      Atomic             Coordinates (Angstroms)
 Number     Number       Type             X           Y           Z
 ---------------------------------------------------------------------
      1         17           0        2.086848   -1.505096   -0.000025
      2         17           0        2.086848    1.505096   -0.000007
      3          5           0        1.150590    0.000000    0.000024
      4          6           0       -0.391708    0.000000    0.000015
      5          6           0       -1.120035   -1.206734    0.000006
      6          1           0       -0.587187   -2.149861    0.000001
      7          6           0       -2.509343   -1.207779    0.000000
      8          1           0       -3.050263   -2.147141   -0.000008
      9          6           0       -3.206235    0.000000    0.000005
     10          6           0       -1.120035    1.206734    0.000021
     11          1           0       -0.587187    2.149861    0.000028
     12          6           0       -2.509343    1.207779    0.000015
     13          1           0       -3.050263    2.147141    0.000018
     14          1           0       -4.290688    0.000000    0.000000
 ---------------------------------------------------------------------

 SCF Done:  E(RHF) =  -1174.36113149     A.U. after    2 cycles

 The electronic state is 1-A.
 Alpha  occ. eigenvalues -- -105.57074-105.57074 -11.26876 -11.26618 -11.26615
 Alpha  occ. eigenvalues --  -11.25572 -11.25553 -11.24429 -10.62103 -10.62073
 Alpha  occ. eigenvalues --   -7.78995  -7.78971  -7.78704  -7.78700  -7.78673
 Alpha  occ. eigenvalues --   -7.78665  -7.71250  -1.17108  -1.10543  -1.05427
 Alpha  occ. eigenvalues --   -1.03119  -1.03097  -0.85602  -0.84807  -0.74721
 Alpha  occ. eigenvalues --   -0.69231  -0.66116  -0.64696  -0.61612  -0.60943
 Alpha  occ. eigenvalues --   -0.56921  -0.54207  -0.52754  -0.51668  -0.51050
 Alpha  occ. eigenvalues --   -0.47473  -0.47343  -0.45782  -0.36647  -0.36118
 Alpha virt. eigenvalues --    0.02994   0.03481   0.03658   0.04042   0.05236
 Alpha virt. eigenvalues --    0.05648   0.05711   0.07098   0.08579   0.08714
 Alpha virt. eigenvalues --    0.09443   0.12371   0.12963   0.13268   0.13644

 Mulliken charges:
               1
     1  Cl  -0.356584
     2  Cl  -0.356584
     3  B    0.473147
     4  C    0.484696
     5  C    0.097188
     6  H   -0.338318
     7  C    0.248519
     8  H   -0.215218
     9  C    0.375692
    10  C    0.097188
    11  H   -0.338318
    12  C    0.248519
    13  H   -0.215218
    14  H   -0.204709
 Sum of Mulliken charges =  -0.00000

 Dipole moment (field-independent basis, Debye):
    X=             -2.8612    Y=              0.0000    Z=              0.0001  Tot=              2.8612

 Test job not archived.
 1\1\GINC-SE461\SP\RHF\Aug-CC-pVDZ\C6H5B1Cl2\OHZDE\09-Apr-2025\0\\#t hf
  aug-cc-pvdz iop(5/13=1,5/36=2,99/5=2) pseudo=read geom=check guess=(r
 ead,tcheck) scf=(maxcycle=1)\\title\\0,1\Cl,0,2.086848,1.505096,0.0000
 25\Cl,0,2.086848,-1.505096,0.000007\B,0,1.15059,0.,-0.000024\C,0,-0.39
 1708,0.,-0.000015\C,0,-1.120035,1.206734,-0.000006\H,0,-0.587187,2.149
 861,-0.000001\C,0,-2.509343,1.207779,0.\H,0,-3.050263,2.147141,0.00000
 8\C,0,-3.206235,0.,-0.000005\C,0,-1.120035,-1.206734,-0.000021\H,0,-0.
 587187,-2.149861,-0.000028\C,0,-2.509343,-1.207779,-0.000015\H,0,-3.05

 Normal termination of Gaussian 16 at Wed Apr  9 00:12:27 2025.
