 Gaussian 16, Revision C.01,

 ----------------------------------------------------------------------
 #t hf aug-cc-pvdz symm=none int=(grid=ultrafine) guess=(read,tcheck) s
 table=opt
 ----------------------------------------------------------------------
 -----
 title
 -----
 Symbolic Z-matrix:
 Charge =  0 Multiplicity = 2

 SCF Done:  E(UHF) =  -715.595165591     A.U. after   19 cycles
 Normal termination of Gaussian 16 at Wed Apr  9 00:19:50 2025.
 Gaussian 16:  ES64L-G16RevC.01  3-Jul-2019

 ----------------------------------------------------------------------
 #t hf aug-cc-pvdz iop(5/13=1,5/36=2,99/5=2) pseudo=read geom=check gue
 ss=(read,tcheck) scf=(maxcycle=1)
 ----------------------------------------------------------------------
 -----
 title
 -----
 Structure from the checkpoint file:  "BDE49_nonexpt_258_mol2.chk"
 Charge =  0 Multiplicity = 2

                         Standard orientation:
 ---------------------------------------------------------------------
 Center     Atomic      Atomic             Coordinates (Angstroms)
 Number     Number       Type             X           Y           Z
 ---------------------------------------------------------------------
      1          9           0       -2.760067   -0.980327   -0.308535
      2          6           0       -1.301328    0.911463   -0.178342
      3          6           0       -2.357740    0.115163    0.495009
      4          1           0       -3.248650    0.722299    0.670532
      5          1           0       -1.993612   -0.302658    1.436704
      6          7           0       -0.021138    0.551995   -0.116449
      7          5           0        1.181650    0.203778   -0.051486
      8         17           0        2.814779   -0.256525    0.040568
      9          1           0       -1.574258    1.721614   -0.847510
 ---------------------------------------------------------------------

 SCF Done:  E(UHF) =  -715.915308344     A.U. after    2 cycles

 The electronic state is 2-A.
 Alpha  occ. eigenvalues -- -105.61264 -26.43733 -15.50445 -11.32378 -11.29207
 Alpha  occ. eigenvalues --  -10.66224  -7.83107  -7.82847  -7.82800  -7.68142
 Alpha  occ. eigenvalues --   -1.55424  -1.21360  -1.11699  -1.02315  -0.89582
 Alpha  occ. eigenvalues --   -0.74417  -0.69322  -0.67739  -0.65939  -0.64538
 Alpha  occ. eigenvalues --   -0.57763  -0.56502  -0.53778  -0.52154  -0.51681
 Alpha  occ. eigenvalues --   -0.44092  -0.32517
 Alpha virt. eigenvalues --    0.03290   0.04489   0.04808   0.05625   0.06002
 Alpha virt. eigenvalues --    0.06266   0.08689   0.10279   0.12311   0.13402
 Alpha virt. eigenvalues --    0.13541   0.14734   0.14909   0.15745   0.16255

  Beta  occ. eigenvalues -- -105.61254 -26.43403 -15.51498 -11.32656 -11.26927
  Beta  occ. eigenvalues --  -10.66213  -7.83201  -7.82781  -7.82720  -7.67461
  Beta  occ. eigenvalues --   -1.54509  -1.21502  -1.11505  -0.99748  -0.87813
  Beta  occ. eigenvalues --   -0.72881  -0.68837  -0.65577  -0.65080  -0.64128
  Beta  occ. eigenvalues --   -0.56312  -0.55748  -0.53327  -0.51749  -0.50388
  Beta  occ. eigenvalues --   -0.45212
  Beta virt. eigenvalues --    0.03370   0.04525   0.04818   0.05626   0.06009
  Beta virt. eigenvalues --    0.06266   0.06602   0.08840   0.11133   0.12756
  Beta virt. eigenvalues --    0.13591   0.13783   0.14929   0.15306   0.16133

 Mulliken charges and spin densities:
               1          2
     1  F   -0.690370   0.023948
     2  C   -0.688399   1.175717
     3  C    0.508318  -0.191896
     4  H    0.119438   0.008650
     5  H    0.074664   0.004934
     6  N    1.020209  -0.295461
     7  B   -0.115297   0.360779
     8  Cl  -0.178431   0.002248
     9  H   -0.050133  -0.088919
 Sum of Mulliken charges =  -0.00000   1.00000

 Dipole moment (field-independent basis, Debye):
    X=              1.3145    Y=              1.3710    Z=              0.9755  Tot=              2.1352
                          Isotropic Fermi Contact Couplings
        Atom                 a.u.       MegaHertz       Gauss      10(-4) cm-1
     1  F(19)              0.06336     266.59976      95.12942      88.92811
     2  C(13)              0.19440     218.54741      77.98315      72.89957
     3  C(13)             -0.04049     -45.51617     -16.24130     -15.18256
     4  H(1)               0.00225      10.03668       3.58134       3.34788
     5  H(1)               0.00367      16.42623       5.86129       5.47920
     6  N(14)             -0.18654     -60.27183     -21.50649     -20.10452
     7  B(11)              0.04568      65.52643      23.38146      21.85726
     8  Cl(35)             0.00774       3.39468       1.21131       1.13234

 Normal termination of Gaussian 16 at Wed Apr  9 00:19:53 2025.
