 Gaussian 16, Revision C.01,

 ----------------------------------------------------------------------
 #t hf aug-cc-pvdz symm=none int=(grid=ultrafine) guess=(read,tcheck) s
 table=opt
 ----------------------------------------------------------------------
 -----
 title
 -----
 Symbolic Z-matrix:
 Charge =  0 Multiplicity = 2

 SCF Done:  E(UHF) =  -213.313644240     A.U. after   16 cycles
 Normal termination of Gaussian 16 at Tue Apr  8 23:19:49 2025.
 Gaussian 16:  ES64L-G16RevC.01  3-Jul-2019

 ----------------------------------------------------------------------
 #t hf aug-cc-pvdz iop(5/13=1,5/36=2,99/5=2) pseudo=read geom=check gue
 ss=(read,tcheck) scf=(maxcycle=1)
 ----------------------------------------------------------------------
 -----
 title
 -----
 Structure from the checkpoint file:  "BDE49_nonexpt_1108_mol2.chk"
 Charge =  0 Multiplicity = 2

                         Standard orientation:
 ---------------------------------------------------------------------
 Center     Atomic      Atomic             Coordinates (Angstroms)
 Number     Number       Type             X           Y           Z
 ---------------------------------------------------------------------
      1          8           0       -1.164025   -0.318338   -0.000002
      2          6           0       -0.092614    0.433650    0.000000
      3          9           0        1.119107   -0.248318    0.000001
      4          1           0       -0.102041    1.089832    0.894936
      5          1           0       -0.102034    1.089837   -0.894931
 ---------------------------------------------------------------------

 SCF Done:  E(UHF) =  -213.513500301     A.U. after    2 cycles

 The electronic state is 2-A.
 Alpha  occ. eigenvalues --  -26.46073 -20.65044 -11.39293  -1.60502  -1.53332
 Alpha  occ. eigenvalues --   -0.93731  -0.78049  -0.73723  -0.71575  -0.64191
 Alpha  occ. eigenvalues --   -0.58922  -0.54629  -0.51622
 Alpha virt. eigenvalues --    0.03464   0.05069   0.08573   0.09129   0.14301
 Alpha virt. eigenvalues --    0.16247   0.20229   0.22669   0.22950   0.25026
 Alpha virt. eigenvalues --    0.27445   0.30107   0.31051   0.33857   0.34579

  Beta  occ. eigenvalues --  -26.46132 -20.61069 -11.39662  -1.59290  -1.41792
  Beta  occ. eigenvalues --   -0.91149  -0.72734  -0.71685  -0.69142  -0.57845
  Beta  occ. eigenvalues --   -0.55464  -0.50491
  Beta virt. eigenvalues --    0.03481   0.04988   0.05895   0.08659   0.09182
  Beta virt. eigenvalues --    0.14682   0.16292   0.20327   0.23023   0.25009
  Beta virt. eigenvalues --    0.25187   0.30067   0.30364   0.31528   0.34264

 Mulliken charges and spin densities:
               1          2
     1  O   -0.685245   1.029997
     2  C    1.087457  -0.168370
     3  F   -0.660129  -0.005021
     4  H    0.128959   0.071698
     5  H    0.128957   0.071697
 Sum of Mulliken charges =  -0.00000   1.00000

 Dipole moment (field-independent basis, Debye):
    X=             -0.4605    Y=              1.9899    Z=              0.0000  Tot=              2.0425
                          Isotropic Fermi Contact Couplings
        Atom                 a.u.       MegaHertz       Gauss      10(-4) cm-1
     1  O(17)              0.25502    -154.59393     -55.16296     -51.56698
     2  C(13)             -0.06575     -73.91618     -26.37513     -24.65578
     3  F(19)             -0.01463     -61.56161     -21.96671     -20.53474
     4  H(1)               0.03330     148.84815      53.11272      49.65040
     5  H(1)               0.03330     148.84645      53.11211      49.64983
 --------------------------------------------------------
       Center         ----  Spin Dipole Couplings  ----
                      3XX-RR        3YY-RR        3ZZ-RR

 Normal termination of Gaussian 16 at Tue Apr  8 23:19:51 2025.
