 Gaussian 16, Revision C.01,

 ----------------------------------------------------------------------
 #t hf aug-cc-pvdz symm=none int=(grid=ultrafine) guess=(read,tcheck) s
 table=(opt,rrhf)
 ----------------------------------------------------------------------
 -----
 title
 -----
 Symbolic Z-matrix:
 Charge =  0 Multiplicity = 1

 SCF Done:  E(RHF) =  -304.813319199     A.U. after   13 cycles
 Normal termination of Gaussian 16 at Tue Apr  8 23:34:21 2025.
 Gaussian 16:  ES64L-G16RevC.01  3-Jul-2019

 ----------------------------------------------------------------------
 #t hf aug-cc-pvdz iop(5/13=1,5/36=2,99/5=2) pseudo=read geom=check gue
 ss=(read,tcheck) scf=(maxcycle=1)
 ----------------------------------------------------------------------
 -----
 title
 -----
 Structure from the checkpoint file:  "BDE49_nonexpt_145_mol1.chk"
 Charge =  0 Multiplicity = 1

                         Standard orientation:
 ---------------------------------------------------------------------
 Center     Atomic      Atomic             Coordinates (Angstroms)
 Number     Number       Type             X           Y           Z
 ---------------------------------------------------------------------
      1          5           0        2.486691   -1.481366   -0.431095
      2          5           0        1.449064   -0.811316    0.614368
      3          5           0       -0.060277   -0.146904    0.180180
      4          8           0       -1.102728   -1.021582    0.132295
      5          8           0       -0.299357    1.168337   -0.108146
      6          6           0       -2.432135   -0.583962   -0.166332
      7          1           0       -3.075809   -1.462936   -0.132521
      8          1           0       -2.481235   -0.133124   -1.160827
      9          1           0       -2.777629    0.150131    0.566117
     10          6           0        0.720394    2.158638   -0.044114
     11          1           0        0.470349    2.948454   -0.754091
     12          1           0        1.703606    1.753107   -0.306589
     13          1           0        0.769289    2.590762    0.959685
     14          1           0        1.730049   -0.781782    1.782506
     15          1           0        2.424010   -2.639514   -0.726884
     16          1           0        3.347108   -0.849257   -0.975182
 ---------------------------------------------------------------------

 SCF Done:  E(RHF) =  -305.126260163     A.U. after    2 cycles

 The electronic state is 1-A.
 Alpha  occ. eigenvalues --  -20.54717 -20.53821 -11.29695 -11.28150  -7.61847
 Alpha  occ. eigenvalues --   -7.57727  -7.56149  -1.47680  -1.43675  -0.95169
 Alpha  occ. eigenvalues --   -0.93771  -0.76975  -0.72190  -0.67746  -0.66020
 Alpha  occ. eigenvalues --   -0.64814  -0.61891  -0.60320  -0.59461  -0.51671
 Alpha  occ. eigenvalues --   -0.49404  -0.48986  -0.48680  -0.45051  -0.43936
 Alpha  occ. eigenvalues --   -0.40949
 Alpha virt. eigenvalues --    0.03192   0.03345   0.03666   0.04001   0.05211
 Alpha virt. eigenvalues --    0.05841   0.05938   0.06379   0.06433   0.07896
 Alpha virt. eigenvalues --    0.08710   0.08906   0.09478   0.10152   0.10624

 Mulliken charges:
               1
     1  B   -0.863445
     2  B   -0.589045
     3  B    1.901174
     4  O   -1.386989
     5  O   -1.335836
     6  C    0.406551
     7  H   -0.037079
     8  H    0.143112
     9  H    0.156557
    10  C    0.434905
    11  H    0.020566
    12  H    0.113374
    13  H    0.131676
    14  H    0.237814
    15  H    0.331429
    16  H    0.335236
 Sum of Mulliken charges =  -0.00000

 Dipole moment (field-independent basis, Debye):
    X=             -0.0639    Y=              1.6505    Z=             -0.0479  Tot=              1.6524

 Test job not archived.
 1\1\GINC-SE150\SP\RHF\Aug-CC-pVDZ\C2H9B3O2\OHZDE\08-Apr-2025\0\\#t hf
 aug-cc-pvdz iop(5/13=1,5/36=2,99/5=2) pseudo=read geom=check guess=(re
 ad,tcheck) scf=(maxcycle=1)\\title\\0,1\B,0,2.486691,-1.481366,-0.4310
 95\B,0,1.449064,-0.811316,0.614368\B,0,-0.060277,-0.146904,0.18018\O,0
 ,-1.102728,-1.021582,0.132295\O,0,-0.299357,1.168337,-0.108146\C,0,-2.
 432135,-0.583962,-0.166332\H,0,-3.075809,-1.462936,-0.132521\H,0,-2.48
 1235,-0.133124,-1.160827\H,0,-2.777629,0.150131,0.566117\C,0,0.720394,
 2.158638,-0.044114\H,0,0.470349,2.948454,-0.754091\H,0,1.703606,1.7531

 Normal termination of Gaussian 16 at Tue Apr  8 23:34:27 2025.
