 Gaussian 16, Revision C.01,

 ----------------------------------------------------------------------
 #t hf aug-cc-pvdz symm=none int=(grid=ultrafine) guess=(read,tcheck) s
 table=(opt,rrhf)
 ----------------------------------------------------------------------
 -----
 title
 -----
 Symbolic Z-matrix:
 Charge =  0 Multiplicity = 1

 SCF Done:  E(RHF) =  -789.279862248     A.U. after   11 cycles
 Normal termination of Gaussian 16 at Tue Apr  8 23:47:13 2025.
 Gaussian 16:  ES64L-G16RevC.01  3-Jul-2019

 ----------------------------------------------------------------------
 #t hf aug-cc-pvdz iop(5/13=1,5/36=2,99/5=2) pseudo=read geom=check gue
 ss=(read,tcheck) scf=(maxcycle=1)
 ----------------------------------------------------------------------
 -----
 title
 -----
 Structure from the checkpoint file:  "BDE49_nonexpt_1788_mol1.chk"
 Charge =  0 Multiplicity = 1

                         Standard orientation:
 ---------------------------------------------------------------------
 Center     Atomic      Atomic             Coordinates (Angstroms)
 Number     Number       Type             X           Y           Z
 ---------------------------------------------------------------------
      1          6           0        1.785056   -0.680332    0.000001
      2         14           0        0.454152    0.626092    0.000002
      3          1           0        1.710578   -1.315302    0.886092
      4          1           0        2.771343   -0.205010    0.000006
      5          1           0        1.710584   -1.315296   -0.886094
      6         17           0       -1.429252   -0.281859   -0.000002
      7          1           0        0.518156    1.471961   -1.208860
      8          1           0        0.518153    1.471957    1.208866
 ---------------------------------------------------------------------

 SCF Done:  E(RHF) =  -789.438728358     A.U. after    2 cycles

 The electronic state is 1-A.
 Alpha  occ. eigenvalues -- -105.55149 -69.57565 -11.23527 -10.60160  -7.77042
 Alpha  occ. eigenvalues --   -7.76741  -7.76736  -6.24237  -3.99681  -3.99512
 Alpha  occ. eigenvalues --   -3.99511  -1.04897  -0.96761  -0.72160  -0.59045
 Alpha  occ. eigenvalues --   -0.58774  -0.52029  -0.51928  -0.51221  -0.45003
 Alpha  occ. eigenvalues --   -0.44836
 Alpha virt. eigenvalues --    0.03384   0.04550   0.04918   0.04969   0.07550
 Alpha virt. eigenvalues --    0.07810   0.08180   0.10359   0.11851   0.14542
 Alpha virt. eigenvalues --    0.15198   0.15611   0.15631   0.16998   0.17627

 Mulliken charges:
               1
     1  C   -0.639790
     2  Si   1.416121
     3  H    0.084849
     4  H    0.044372
     5  H    0.084848
     6  Cl  -0.584025
     7  H   -0.203187
     8  H   -0.203187
 Sum of Mulliken charges =  -0.00000

 Dipole moment (field-independent basis, Debye):
    X=              2.2409    Y=              0.2333    Z=              0.0000  Tot=              2.2530

 Test job not archived.
 1\1\GINC-SE338\SP\RHF\Aug-CC-pVDZ\C1H5Cl1Si1\OHZDE\08-Apr-2025\0\\#t h
 f aug-cc-pvdz iop(5/13=1,5/36=2,99/5=2) pseudo=read geom=check guess=(
 read,tcheck) scf=(maxcycle=1)\\title\\0,1\C,0,1.785056,-0.680332,0.000
 001\Si,0,0.454152,0.626092,0.000002\H,0,1.710578,-1.315302,0.886092\H,
 0,2.771343,-0.20501,0.000006\H,0,1.710584,-1.315296,-0.886094\Cl,0,-1.
 429252,-0.281859,-0.000002\H,0,0.518156,1.471961,-1.20886\H,0,0.518153
 ,1.471957,1.208866\\Version=ES64L-G16RevC.01\State=1-A\HF=-789.4387284
 \RMSD=5.180e-03\Dipole=0.8816473,0.0918032,0.0000021\Quadrupole=-0.035

 Normal termination of Gaussian 16 at Tue Apr  8 23:47:15 2025.
