 Gaussian 16, Revision C.01,

 ----------------------------------------------------------------------
 #t hf aug-cc-pvdz symm=none int=(grid=ultrafine) guess=(read,tcheck) s
 table=opt
 ----------------------------------------------------------------------
 -----
 title
 -----
 Symbolic Z-matrix:
 Charge =  0 Multiplicity = 2

 SCF Done:  E(UHF) =  -826.074098286     A.U. after   19 cycles
 Normal termination of Gaussian 16 at Tue Apr  8 23:44:11 2025.
 Gaussian 16:  ES64L-G16RevC.01  3-Jul-2019

 ----------------------------------------------------------------------
 #t hf aug-cc-pvdz iop(5/13=1,5/36=2,99/5=2) pseudo=read geom=check gue
 ss=(read,tcheck) scf=(maxcycle=1)
 ----------------------------------------------------------------------
 -----
 title
 -----
 Structure from the checkpoint file:  "BDE49_nonexpt_172_mol2.chk"
 Charge =  0 Multiplicity = 2

                         Standard orientation:
 ---------------------------------------------------------------------
 Center     Atomic      Atomic             Coordinates (Angstroms)
 Number     Number       Type             X           Y           Z
 ---------------------------------------------------------------------
      1         17           0        1.636816   -0.092134   -0.000059
      2          5           0        0.084069    0.675410    0.053180
      3         15           0       -1.625529   -0.092586   -0.118219
      4          1           0       -2.333766    0.774797    0.741208
      5          1           0       -1.529517   -1.196780    0.767183
 ---------------------------------------------------------------------

 SCF Done:  E(UHF) =  -826.215805187     A.U. after    2 cycles

 The electronic state is 2-A.
 Alpha  occ. eigenvalues -- -105.58584 -84.28096 -10.63601  -7.80499  -7.80234
 Alpha  occ. eigenvalues --   -7.80162  -7.69110  -6.75501  -4.27912  -4.27817
 Alpha  occ. eigenvalues --   -4.27130  -1.09606  -0.89665  -0.67355  -0.55582
 Alpha  occ. eigenvalues --   -0.53982  -0.51171  -0.49733  -0.38184  -0.32742
 Alpha virt. eigenvalues --    0.03840   0.04317   0.05139   0.05428   0.06534
 Alpha virt. eigenvalues --    0.08161   0.09137   0.11031   0.11250   0.14104
 Alpha virt. eigenvalues --    0.14909   0.16934   0.17634   0.18541   0.19230

  Beta  occ. eigenvalues -- -105.58519 -84.28069 -10.63527  -7.80441  -7.80179
  Beta  occ. eigenvalues --   -7.79956  -7.67152  -6.75459  -4.27843  -4.27767
  Beta  occ. eigenvalues --   -4.27086  -1.08693  -0.88501  -0.64195  -0.53145
  Beta  occ. eigenvalues --   -0.52326  -0.50848  -0.47624  -0.36518
  Beta virt. eigenvalues --    0.03027   0.05114   0.05331   0.05513   0.06944
  Beta virt. eigenvalues --    0.07495   0.08790   0.10273   0.11491   0.11831
  Beta virt. eigenvalues --    0.15002   0.15491   0.17094   0.17913   0.18801

 Mulliken charges and spin densities:
               1          2
     1  Cl  -0.203987   0.005720
     2  B    0.313688   1.029235
     3  P   -0.876425  -0.029097
     4  H    0.391666  -0.022479
     5  H    0.375057   0.016621
 Sum of Mulliken charges =  -0.00000   1.00000

 Dipole moment (field-independent basis, Debye):
    X=             -1.0489    Y=             -0.3254    Z=              0.4330  Tot=              1.1805
                          Isotropic Fermi Contact Couplings
        Atom                 a.u.       MegaHertz       Gauss      10(-4) cm-1
     1  Cl(35)             0.05447      23.88457       8.52261       7.96704
     2  B(11)              0.28138     403.60831     144.01748     134.62924
     3  P(31)              0.02259      40.91142      14.59821      13.64658
     4  H(1)               0.00265      11.83239       4.22209       3.94686
     5  H(1)               0.00726      32.43695      11.57431      10.81980
 --------------------------------------------------------
       Center         ----  Spin Dipole Couplings  ----
                      3XX-RR        3YY-RR        3ZZ-RR

 Normal termination of Gaussian 16 at Tue Apr  8 23:44:13 2025.
