 Gaussian 16, Revision C.01,

 ----------------------------------------------------------------------
 #t hf aug-cc-pvdz symm=none int=(grid=ultrafine) guess=(read,tcheck) s
 table=(opt,rrhf)
 ----------------------------------------------------------------------
 -----
 title
 -----
 Symbolic Z-matrix:
 Charge =  0 Multiplicity = 1

 SCF Done:  E(RHF) =  -1124.45617683     A.U. after   15 cycles
 Normal termination of Gaussian 16 at Wed Apr  9 00:19:38 2025.
 Gaussian 16:  ES64L-G16RevC.01  3-Jul-2019

 ----------------------------------------------------------------------
 #t hf aug-cc-pvdz iop(5/13=1,5/36=2,99/5=2) pseudo=read geom=check gue
 ss=(read,tcheck) scf=(maxcycle=1)
 ----------------------------------------------------------------------
 -----
 title
 -----
 Structure from the checkpoint file:  "BDE49_nonexpt_2587_mol1.chk"
 Charge =  0 Multiplicity = 1

                         Standard orientation:
 ---------------------------------------------------------------------
 Center     Atomic      Atomic             Coordinates (Angstroms)
 Number     Number       Type             X           Y           Z
 ---------------------------------------------------------------------
      1         17           0       -2.177166    0.249492    0.323108
      2         16           0       -0.710530   -0.528177   -0.926570
      3          6           0        0.871414   -0.386978    0.130482
      4          8           0        0.984267    0.833206    0.767741
      5          8           0        1.854806   -0.648828   -0.835610
      6          6           0        1.118575    2.005979   -0.033034
      7          1           0        2.080945    2.023343   -0.556336
      8          1           0        1.082738    2.843559    0.660541
      9          1           0        0.296861    2.092380   -0.749855
     10          6           0        0.934065   -1.465303    1.188732
     11          1           0        0.115005   -1.336755    1.895687
     12          1           0        1.882859   -1.372134    1.721426
     13          1           0        0.866941   -2.448208    0.725391
     14          1           0        1.798041    0.010069   -1.538701
 ---------------------------------------------------------------------

 SCF Done:  E(RHF) =  -1124.86839588     A.U. after    2 cycles

 The electronic state is 1-A.
 Alpha  occ. eigenvalues -- -105.58194 -94.00423 -20.59359 -20.57938 -11.40803
 Alpha  occ. eigenvalues --  -11.30292 -11.24166 -10.62871  -8.28159  -7.79814
 Alpha  occ. eigenvalues --   -7.79375  -7.79347  -6.25969  -6.25677  -6.25440
 Alpha  occ. eigenvalues --   -1.53908  -1.46908  -1.11768  -1.05211  -0.95108
 Alpha  occ. eigenvalues --   -0.93894  -0.81982  -0.75159  -0.69062  -0.68150
 Alpha  occ. eigenvalues --   -0.64140  -0.60151  -0.57035  -0.56023  -0.54931
 Alpha  occ. eigenvalues --   -0.53705  -0.51907  -0.50986  -0.50042  -0.47173
 Alpha  occ. eigenvalues --   -0.41604  -0.37570
 Alpha virt. eigenvalues --    0.03214   0.04047   0.04551   0.05370   0.06222
 Alpha virt. eigenvalues --    0.06782   0.07092   0.07558   0.09018   0.11076
 Alpha virt. eigenvalues --    0.12647   0.13367   0.14045   0.14476   0.15279

 Mulliken charges:
               1
     1  Cl  -0.331290
     2  S    0.272436
     3  C    1.957225
     4  O   -1.499450
     5  O   -1.414211
     6  C    0.080355
     7  H    0.123239
     8  H   -0.017626
     9  H    0.239415
    10  C   -0.408078
    11  H    0.208515
    12  H    0.196406
    13  H    0.194107
    14  H    0.398956
 Sum of Mulliken charges =   0.00000

 Dipole moment (field-independent basis, Debye):
    X=              1.7872    Y=              1.2672    Z=             -0.6504  Tot=              2.2854

 Test job not archived.
 1\1\GINC-SE186\SP\RHF\Aug-CC-pVDZ\C3H7Cl1O2S1\OHZDE\09-Apr-2025\0\\#t
 hf aug-cc-pvdz iop(5/13=1,5/36=2,99/5=2) pseudo=read geom=check guess=
 (read,tcheck) scf=(maxcycle=1)\\title\\0,1\Cl,0,-2.177166,0.249492,0.3
 23108\S,0,-0.71053,-0.528177,-0.92657\C,0,0.871414,-0.386978,0.130482\
 O,0,0.984267,0.833206,0.767741\O,0,1.854806,-0.648828,-0.83561\C,0,1.1
 18575,2.005979,-0.033034\H,0,2.080945,2.023343,-0.556336\H,0,1.082738,
 2.843559,0.660541\H,0,0.296861,2.09238,-0.749855\C,0,0.934065,-1.46530
 3,1.188732\H,0,0.115005,-1.336755,1.895687\H,0,1.882859,-1.372134,1.72

 Normal termination of Gaussian 16 at Wed Apr  9 00:19:44 2025.
