 Gaussian 16, Revision C.01,

 ----------------------------------------------------------------------
 #t hf aug-cc-pvdz symm=none int=(grid=ultrafine) guess=(read,tcheck) s
 table=(opt,rrhf)
 ----------------------------------------------------------------------
 -----
 title
 -----
 Symbolic Z-matrix:
 Charge =  0 Multiplicity = 1

 SCF Done:  E(RHF) =  -597.588315149     A.U. after   15 cycles
 Normal termination of Gaussian 16 at Wed Apr  9 00:44:42 2025.
 Gaussian 16:  ES64L-G16RevC.01  3-Jul-2019

 ----------------------------------------------------------------------
 #t hf aug-cc-pvdz iop(5/13=1,5/36=2,99/5=2) pseudo=read geom=check gue
 ss=(read,tcheck) scf=(maxcycle=1)
 ----------------------------------------------------------------------
 -----
 title
 -----
 Structure from the checkpoint file:  "BDE49_nonexpt_765_mol1.chk"
 Charge =  0 Multiplicity = 1

                         Standard orientation:
 ---------------------------------------------------------------------
 Center     Atomic      Atomic             Coordinates (Angstroms)
 Number     Number       Type             X           Y           Z
 ---------------------------------------------------------------------
      1          6           0       -2.865530   -0.030396    0.771257
      2          6           0       -2.193828    0.603944   -0.450270
      3          1           0       -2.449799   -1.018149    0.981870
      4          1           0       -3.938948   -0.151893    0.605575
      5          1           0       -2.736021    0.591496    1.662848
      6          6           0       -0.689876    0.840628   -0.269235
      7          1           0       -2.665175    1.566690   -0.671921
      8          1           0       -2.345695   -0.032607   -1.325820
      9          6           0        0.137208   -0.436189   -0.263414
     10          1           0       -0.480688    1.405666    0.646242
     11          1           0       -0.294709    1.452151   -1.090213
     12          8           0       -0.263387   -1.499428   -0.664526
     13          5           0        2.805276    1.135539   -0.126480
     14         15           0        1.864839   -0.339333    0.464283
     15          1           0        3.979529    1.041156   -0.281507
     16          1           0        2.258738    2.187559   -0.209608
     17          1           0        2.453050   -1.502262   -0.063127
 ---------------------------------------------------------------------

 SCF Done:  E(RHF) =  -597.901017148     A.U. after    2 cycles

 The electronic state is 1-A.
 Alpha  occ. eigenvalues --  -84.27110 -20.55098 -11.35937 -11.25651 -11.23923
 Alpha  occ. eigenvalues --  -11.22560  -7.62258  -6.74783  -4.27502  -4.27479
 Alpha  occ. eigenvalues --   -4.26450  -1.48802  -1.08527  -0.98470  -0.91115
 Alpha  occ. eigenvalues --   -0.83333  -0.75080  -0.70241  -0.65384  -0.64211
 Alpha  occ. eigenvalues --   -0.62149  -0.58753  -0.56442  -0.53612  -0.52843
 Alpha  occ. eigenvalues --   -0.50414  -0.49430  -0.49116  -0.48042  -0.39132
 Alpha  occ. eigenvalues --   -0.33695
 Alpha virt. eigenvalues --    0.03001   0.03388   0.03526   0.04191   0.04532
 Alpha virt. eigenvalues --    0.05360   0.05809   0.07242   0.07412   0.07886
 Alpha virt. eigenvalues --    0.08403   0.09228   0.09947   0.10389   0.11906

 Mulliken charges:
               1
     1  C   -0.335441
     2  C   -0.304499
     3  H    0.155785
     4  H    0.118297
     5  H    0.161358
     6  C   -0.434197
     7  H    0.144443
     8  H    0.175840
     9  C    0.551883
    10  H    0.202104
    11  H    0.248768
    12  O   -1.274397
    13  B   -0.393733
    14  P   -0.038795
    15  H    0.331924
    16  H    0.369540
    17  H    0.321121
 Sum of Mulliken charges =   0.00000

 Dipole moment (field-independent basis, Debye):
    X=              0.2086    Y=              2.0532    Z=              0.3049  Tot=              2.0862

 Test job not archived.
 1\1\GINC-SE229\SP\RHF\Aug-CC-pVDZ\C4H10B1O1P1\OHZDE\09-Apr-2025\0\\#t
 hf aug-cc-pvdz iop(5/13=1,5/36=2,99/5=2) pseudo=read geom=check guess=
 (read,tcheck) scf=(maxcycle=1)\\title\\0,1\C,0,2.86553,0.030396,0.7712
 57\C,0,2.193828,-0.603944,-0.45027\H,0,2.449799,1.018149,0.98187\H,0,3
 .938948,0.151893,0.605575\H,0,2.736021,-0.591496,1.662848\C,0,0.689876
 ,-0.840628,-0.269235\H,0,2.665175,-1.56669,-0.671921\H,0,2.345695,0.03
 2607,-1.32582\C,0,-0.137208,0.436189,-0.263414\H,0,0.480688,-1.405666,
 0.646242\H,0,0.294709,-1.452151,-1.090213\O,0,0.263387,1.499428,-0.664

 Normal termination of Gaussian 16 at Wed Apr  9 00:44:49 2025.
