 Gaussian 16, Revision C.01,

 ----------------------------------------------------------------------
 #t hf aug-cc-pvdz symm=none int=(grid=ultrafine) guess=(read,tcheck) s
 table=(opt,rrhf)
 ----------------------------------------------------------------------
 -----
 title
 -----
 Symbolic Z-matrix:
 Charge =  0 Multiplicity = 1

 SCF Done:  E(RHF) =  -1646.51089406     A.U. after   15 cycles

 1\1\GINC-SE367\Stability\RHF\Aug-CC-pVDZ\C7H5Cl3\OHZDE\08-Apr-2025\0\\
 #t hf aug-cc-pvdz symm=none int=(grid=ultrafine) guess=(read,tcheck) s
 table=(opt,rrhf)\\title\\0,1\C,0,-0.613358,0.05431,-0.000002\C,0,-1.33
 5798,1.246761,-0.000005\C,0,-2.730149,1.220311,-0.000004\C,0,-3.411142
 ,0.009315,-0.000001\C,0,-2.691023,-1.185764,0.000002\C,0,-1.303735,-1.
 165687,0.000002\H,0,-0.752258,-2.097362,0.000004\H,0,-4.494858,-0.0078
 77,-0.000001\H,0,-3.211434,-2.136338,0.000004\H,0,-0.820469,2.196187,-
 0.000007\H,0,-3.278279,2.155181,-0.000007\C,0,0.904082,0.019515,0.\Cl,

 Normal termination of Gaussian 16 at Tue Apr  8 22:32:24 2025.
 Gaussian 16:  ES64L-G16RevC.01  3-Jul-2019

 ----------------------------------------------------------------------
 #t hf aug-cc-pvdz iop(5/13=1,5/36=2,99/5=2) pseudo=read geom=check gue
 ss=(read,tcheck) scf=(maxcycle=1)
 ----------------------------------------------------------------------
 -----
 title
 -----
 Structure from the checkpoint file:  "BDE49_expt_1042_mol1.chk"
 Charge =  0 Multiplicity = 1

                         Standard orientation:
 ---------------------------------------------------------------------
 Center     Atomic      Atomic             Coordinates (Angstroms)
 Number     Number       Type             X           Y           Z
 ---------------------------------------------------------------------
      1          6           0       -0.613358    0.054310   -0.000002
      2          6           0       -1.335798    1.246761   -0.000005
      3          6           0       -2.730149    1.220311   -0.000004
      4          6           0       -3.411142    0.009315   -0.000001
      5          6           0       -2.691023   -1.185764    0.000002
      6          6           0       -1.303735   -1.165687    0.000002
      7          1           0       -0.752258   -2.097362    0.000004
      8          1           0       -4.494858   -0.007877   -0.000001
      9          1           0       -3.211434   -2.136338    0.000004
     10          1           0       -0.820469    2.196187   -0.000007
     11          1           0       -3.278279    2.155181   -0.000007
     12          6           0        0.904082    0.019515    0.000000
     13         17           0        1.665497    1.647371   -0.000015
     14         17           0        1.509725   -0.862004   -1.466208
     15         17           0        1.509721   -0.861976    1.466226
 ---------------------------------------------------------------------

 SCF Done:  E(RHF) =  -1647.00980133     A.U. after    2 cycles

 The electronic state is 1-A.
 Alpha  occ. eigenvalues -- -105.59373-105.58893-105.58893 -11.45546 -11.28318
 Alpha  occ. eigenvalues --  -11.26549 -11.26499 -11.26270 -11.25988 -11.25934
 Alpha  occ. eigenvalues --  -10.64200 -10.63681 -10.63680  -7.81149  -7.80736
 Alpha  occ. eigenvalues --   -7.80717  -7.80627  -7.80624  -7.80206  -7.80206
 Alpha  occ. eigenvalues --   -7.80199  -7.80199  -1.22351  -1.16380  -1.06724
 Alpha  occ. eigenvalues --   -1.05812  -1.04340  -1.03462  -0.89602  -0.85693
 Alpha  occ. eigenvalues --   -0.80340  -0.73432  -0.67672  -0.67129  -0.63854
 Alpha  occ. eigenvalues --   -0.63524  -0.62111  -0.60863  -0.54453  -0.53755
 Alpha  occ. eigenvalues --   -0.52627  -0.50518  -0.50474  -0.48061  -0.46490
 Alpha  occ. eigenvalues --   -0.46435  -0.45341  -0.36618  -0.36143
 Alpha virt. eigenvalues --    0.03099   0.03506   0.04318   0.05903   0.06397
 Alpha virt. eigenvalues --    0.06839   0.08580   0.08998   0.09240   0.09775
 Alpha virt. eigenvalues --    0.10091   0.11410   0.11543   0.12914   0.13597

 Mulliken charges:
               1
     1  C    2.725705
     2  C   -0.376733
     3  C    0.278551
     4  C   -0.139927
     5  C    0.518132
     6  C   -0.321752
     7  H   -0.297872
     8  H   -0.206189
     9  H   -0.216207
    10  H   -0.215258
    11  H   -0.230953
    12  C   -1.840459
    13  Cl   0.032242
    14  Cl   0.145360
    15  Cl   0.145360
 Sum of Mulliken charges =  -0.00000

 Dipole moment (field-independent basis, Debye):
    X=             -2.6400    Y=              0.1372    Z=             -0.0000  Tot=              2.6436

 Test job not archived.
 1\1\GINC-SE367\SP\RHF\Aug-CC-pVDZ\C7H5Cl3\OHZDE\08-Apr-2025\0\\#t hf a
 ug-cc-pvdz iop(5/13=1,5/36=2,99/5=2) pseudo=read geom=check guess=(rea
 d,tcheck) scf=(maxcycle=1)\\title\\0,1\C,0,-0.613358,0.05431,-0.000002
 \C,0,-1.335798,1.246761,-0.000005\C,0,-2.730149,1.220311,-0.000004\C,0
 ,-3.411142,0.009315,-0.000001\C,0,-2.691023,-1.185764,0.000002\C,0,-1.
 303735,-1.165687,0.000002\H,0,-0.752258,-2.097362,0.000004\H,0,-4.4948
 58,-0.007877,-0.000001\H,0,-3.211434,-2.136338,0.000004\H,0,-0.820469,
 2.196187,-0.000007\H,0,-3.278279,2.155181,-0.000007\C,0,0.904082,0.019

 Normal termination of Gaussian 16 at Tue Apr  8 22:32:32 2025.
