 Gaussian 16, Revision C.01,

 ----------------------------------------------------------------------
 #t hf aug-cc-pvdz symm=none int=(grid=ultrafine) guess=(read,tcheck) s
 table=(opt,rrhf)
 ----------------------------------------------------------------------
 -----
 title
 -----
 Symbolic Z-matrix:
 Charge =  0 Multiplicity = 1

 SCF Done:  E(RHF) =  -639.468118984     A.U. after   12 cycles
 Normal termination of Gaussian 16 at Wed Apr  9 00:11:36 2025.
 Gaussian 16:  ES64L-G16RevC.01  3-Jul-2019

 ----------------------------------------------------------------------
 #t hf aug-cc-pvdz iop(5/13=1,5/36=2,99/5=2) pseudo=read geom=check gue
 ss=(read,tcheck) scf=(maxcycle=1)
 ----------------------------------------------------------------------
 -----
 title
 -----
 Structure from the checkpoint file:  "BDE49_nonexpt_2286_mol1.chk"
 Charge =  0 Multiplicity = 1

                         Standard orientation:
 ---------------------------------------------------------------------
 Center     Atomic      Atomic             Coordinates (Angstroms)
 Number     Number       Type             X           Y           Z
 ---------------------------------------------------------------------
      1          8           0        0.250819    0.136118    0.539138
      2         14           0       -1.305718   -0.118600    0.016875
      3          6           0       -1.336396   -1.367470   -1.388850
      4          1           0       -0.902008   -2.323380   -1.082530
      5          1           0       -0.781839   -1.013869   -2.263586
      6          6           0       -2.209694   -0.780753    1.515088
      7          1           0       -3.258170   -0.992357    1.282716
      8          1           0       -2.186014   -0.058050    2.335516
      9          1           0       -1.750251   -1.706664    1.872078
     10          6           0       -2.099682    1.480357   -0.576814
     11          1           0       -1.583738    1.892249   -1.449840
     12          1           0       -2.094622    2.243313    0.207098
     13          1           0       -3.141614    1.307386   -0.866400
     14          1           0       -2.365686   -1.556187   -1.711490
     15          6           0        1.383856    0.609840   -0.196522
     16          6           0        2.612728   -0.197327    0.231802
     17          6           0        2.508450   -1.694099   -0.063516
     18          1           0        2.759298   -0.038691    1.306150
     19          1           0        3.490132    0.221888   -0.274162
     20          6           0        1.569463    2.106064    0.051064
     21          1           0        1.218918    0.443722   -1.272478
     22          1           0        1.724751    2.292000    1.117185
     23          1           0        0.689170    2.668033   -0.267793
     24          1           0        2.435615    2.486698   -0.498271
     25          1           0        1.655156   -2.132449    0.457416
     26          1           0        3.409368   -2.221740    0.260660
     27          1           0        2.382690   -1.880113   -1.135135
 ---------------------------------------------------------------------

 SCF Done:  E(RHF) =  -639.885330428     A.U. after    2 cycles

 The electronic state is 1-A.
 Alpha  occ. eigenvalues --  -69.53006 -20.51513 -11.28733 -11.22372 -11.22129
 Alpha  occ. eigenvalues --  -11.21813 -11.20576 -11.20552 -11.20267  -6.19623
 Alpha  occ. eigenvalues --   -3.95089  -3.94942  -3.94921  -1.42044  -1.06337
 Alpha  occ. eigenvalues --   -0.98468  -0.97000  -0.92564  -0.92454  -0.86636
 Alpha  occ. eigenvalues --   -0.79123  -0.70777  -0.62306  -0.61295  -0.60387
 Alpha  occ. eigenvalues --   -0.58430  -0.56861  -0.56565  -0.56322  -0.55215
 Alpha  occ. eigenvalues --   -0.54291  -0.53619  -0.53284  -0.52392  -0.50832
 Alpha  occ. eigenvalues --   -0.50085  -0.48710  -0.45867  -0.45096  -0.42253
 Alpha  occ. eigenvalues --   -0.40554
 Alpha virt. eigenvalues --    0.03218   0.03497   0.03530   0.03833   0.05299
 Alpha virt. eigenvalues --    0.05412   0.05790   0.06136   0.06194   0.07823
 Alpha virt. eigenvalues --    0.08024   0.08356   0.08582   0.09088   0.09384

 Mulliken charges:
               1
     1  O   -2.381183
     2  Si   3.705152
     3  C   -0.614571
     4  H   -0.030449
     5  H   -0.048757
     6  C   -0.642185
     7  H   -0.045553
     8  H   -0.052153
     9  H   -0.013095
    10  C   -0.615319
    11  H   -0.027840
    12  H   -0.056382
    13  H   -0.065992
    14  H   -0.018197
    15  C    0.089375
    16  C   -0.146762
    17  C   -0.273096
    18  H    0.162865
    19  H    0.162825
    20  C   -0.314651
    21  H    0.232000
    22  H    0.235244
    23  H    0.110990
    24  H    0.188434
    25  H    0.233982
    26  H    0.065370
    27  H    0.159949
 Sum of Mulliken charges =  -0.00000

 Dipole moment (field-independent basis, Debye):
    X=              0.0469    Y=              0.2695    Z=             -0.8718  Tot=              0.9137

 Test job not archived.
 1\1\GINC-SE393\SP\RHF\Aug-CC-pVDZ\C7H18O1Si1\OHZDE\09-Apr-2025\0\\#t h
 f aug-cc-pvdz iop(5/13=1,5/36=2,99/5=2) pseudo=read geom=check guess=(
 read,tcheck) scf=(maxcycle=1)\\title\\0,1\O,0,0.250819,0.136118,0.5391
 38\Si,0,-1.305718,-0.1186,0.016875\C,0,-1.336396,-1.36747,-1.38885\H,0
 ,-0.902008,-2.32338,-1.08253\H,0,-0.781839,-1.013869,-2.263586\C,0,-2.
 209694,-0.780753,1.515088\H,0,-3.25817,-0.992356,1.282716\H,0,-2.18601
 4,-0.05805,2.335516\H,0,-1.750251,-1.706664,1.872078\C,0,-2.099682,1.4
 80357,-0.576814\H,0,-1.583738,1.892249,-1.44984\H,0,-2.094622,2.243313

 Normal termination of Gaussian 16 at Wed Apr  9 00:11:55 2025.
