 Gaussian 16, Revision C.01,

 ----------------------------------------------------------------------
 #t hf aug-cc-pvdz symm=none int=(grid=ultrafine) guess=(read,tcheck) s
 table=(opt,rrhf)
 ----------------------------------------------------------------------
 -----
 title
 -----
 Symbolic Z-matrix:
 Charge =  0 Multiplicity = 1

 SCF Done:  E(RHF) =  -271.221272752     A.U. after   12 cycles

 1\1\GINC-SE336\Stability\RHF\Aug-CC-pVDZ\C5H12O1\OHZDE\08-Apr-2025\0\\
 #t hf aug-cc-pvdz symm=none int=(grid=ultrafine) guess=(read,tcheck) s
 table=(opt,rrhf)\\title\\0,1\C,0,-0.408342,0.00474,0.009196\C,0,-0.479
 68,-0.422552,1.484786\H,0,0.414725,-0.099481,2.021356\H,0,-0.547998,-1
 .511333,1.574017\H,0,-1.355927,0.010046,1.976961\C,0,-1.605339,-0.5687
 15,-0.767475\H,0,-1.610993,-1.662773,-0.7343\H,0,-1.582803,-0.264489,-
 1.818965\H,0,-2.549729,-0.218983,-0.340365\C,0,-0.417035,1.540958,-0.0
 90242\H,0,-1.345308,1.952507,0.315919\H,0,-0.3337,1.873605,-1.130674\H

 Normal termination of Gaussian 16 at Tue Apr  8 22:48:02 2025.
 Gaussian 16:  ES64L-G16RevC.01  3-Jul-2019

 ----------------------------------------------------------------------
 #t hf aug-cc-pvdz iop(5/13=1,5/36=2,99/5=2) pseudo=read geom=check gue
 ss=(read,tcheck) scf=(maxcycle=1)
 ----------------------------------------------------------------------
 -----
 title
 -----
 Structure from the checkpoint file:  "BDE49_expt_163_mol1.chk"
 Charge =  0 Multiplicity = 1

                         Standard orientation:
 ---------------------------------------------------------------------
 Center     Atomic      Atomic             Coordinates (Angstroms)
 Number     Number       Type             X           Y           Z
 ---------------------------------------------------------------------
      1          6           0       -0.408342    0.004740    0.009196
      2          6           0       -0.479680   -0.422552    1.484786
      3          1           0        0.414725   -0.099481    2.021356
      4          1           0       -0.547998   -1.511333    1.574017
      5          1           0       -1.355927    0.010046    1.976961
      6          6           0       -1.605339   -0.568715   -0.767475
      7          1           0       -1.610993   -1.662773   -0.734300
      8          1           0       -1.582803   -0.264489   -1.818965
      9          1           0       -2.549729   -0.218983   -0.340365
     10          6           0       -0.417035    1.540958   -0.090242
     11          1           0       -1.345308    1.952507    0.315919
     12          1           0       -0.333700    1.873605   -1.130674
     13          1           0        0.406350    1.983007    0.479207
     14          6           0        0.883748   -0.553556   -0.626603
     15          8           0        2.083132   -0.115934    0.005972
     16          1           0        0.897840   -0.308068   -1.698837
     17          1           0        0.889478   -1.643567   -0.539377
     18          1           0        2.212894    0.811743   -0.210688
 ---------------------------------------------------------------------

 SCF Done:  E(RHF) =  -271.517232268     A.U. after    2 cycles

 The electronic state is 1-A.
 Alpha  occ. eigenvalues --  -20.54478 -11.27866 -11.24075 -11.22693 -11.22541
 Alpha  occ. eigenvalues --  -11.21674  -1.44335  -1.10297  -0.93991  -0.93288
 Alpha  occ. eigenvalues --   -0.91643  -0.75186  -0.68758  -0.64111  -0.62866
 Alpha  occ. eigenvalues --   -0.60349  -0.57755  -0.54752  -0.53800  -0.52384
 Alpha  occ. eigenvalues --   -0.52173  -0.49382  -0.47255  -0.46342  -0.42422
 Alpha virt. eigenvalues --    0.03554   0.03741   0.03904   0.04388   0.06307
 Alpha virt. eigenvalues --    0.06409   0.06602   0.06759   0.07224   0.09604
 Alpha virt. eigenvalues --    0.09737   0.09811   0.12517   0.13927   0.14208

 Mulliken charges:
               1
     1  C   -3.428947
     2  C    0.255091
     3  H    0.257181
     4  H    0.190338
     5  H    0.191464
     6  C    0.287400
     7  H    0.182659
     8  H    0.192527
     9  H    0.198347
    10  C    0.331245
    11  H    0.169569
    12  H    0.207272
    13  H    0.168919
    14  C    1.364166
    15  O   -1.187974
    16  H    0.176505
    17  H    0.124933
    18  H    0.319306
 Sum of Mulliken charges =  -0.00000

 Dipole moment (field-independent basis, Debye):
    X=             -1.1297    Y=              0.9491    Z=             -0.8181  Tot=              1.6871

 Test job not archived.
 1\1\GINC-SE336\SP\RHF\Aug-CC-pVDZ\C5H12O1\OHZDE\08-Apr-2025\0\\#t hf a
 ug-cc-pvdz iop(5/13=1,5/36=2,99/5=2) pseudo=read geom=check guess=(rea
 d,tcheck) scf=(maxcycle=1)\\title\\0,1\C,0,-0.408342,0.00474,0.009196\
 C,0,-0.47968,-0.422552,1.484786\H,0,0.414725,-0.099481,2.021356\H,0,-0
 .547998,-1.511333,1.574017\H,0,-1.355927,0.010046,1.976961\C,0,-1.6053
 39,-0.568715,-0.767475\H,0,-1.610993,-1.662773,-0.7343\H,0,-1.582803,-
 0.264489,-1.818965\H,0,-2.549729,-0.218983,-0.340365\C,0,-0.417035,1.5
 40958,-0.090242\H,0,-1.345308,1.952507,0.315919\H,0,-0.3337,1.873605,-

 Normal termination of Gaussian 16 at Tue Apr  8 22:48:09 2025.
