 Gaussian 16, Revision C.01,

 ----------------------------------------------------------------------
 #t hf aug-cc-pvdz symm=none int=(grid=ultrafine) guess=(read,tcheck) s
 table=opt
 ----------------------------------------------------------------------
 -----
 title
 -----
 Symbolic Z-matrix:
 Charge =  0 Multiplicity = 2

 SCF Done:  E(UHF) =  -458.994314451     A.U. after   16 cycles
 Normal termination of Gaussian 16 at Tue Apr  8 23:36:00 2025.
 Gaussian 16:  ES64L-G16RevC.01  3-Jul-2019

 ----------------------------------------------------------------------
 #t hf aug-cc-pvdz iop(5/13=1,5/36=2,99/5=2) pseudo=read geom=check gue
 ss=(read,tcheck) scf=(maxcycle=1)
 ----------------------------------------------------------------------
 -----
 title
 -----
 Structure from the checkpoint file:  "BDE49_nonexpt_1504_mol2.chk"
 Charge =  0 Multiplicity = 2

                         Standard orientation:
 ---------------------------------------------------------------------
 Center     Atomic      Atomic             Coordinates (Angstroms)
 Number     Number       Type             X           Y           Z
 ---------------------------------------------------------------------
      1         15           0       -0.541849   -0.684874   -0.000009
      2          6           0        0.806516    0.602145    0.000016
      3          6           0        2.213338   -0.007281   -0.000003
      4          1           0        0.669769    1.247714    0.877187
      5          1           0        0.669764    1.247758   -0.877121
      6          1           0        2.375443   -0.633204   -0.881989
      7          1           0        2.375440   -0.633267    0.881940
      8          6           0       -2.014802    0.444917    0.000000
      9          1           0       -2.020314    1.089775   -0.885630
     10          1           0       -2.020311    1.089768    0.885636
     11          1           0       -2.931959   -0.147246   -0.000001
     12          1           0        2.979592    0.773122    0.000027
 ---------------------------------------------------------------------

 SCF Done:  E(UHF) =  -459.169588737     A.U. after    2 cycles

 The electronic state is 2-A.
 Alpha  occ. eigenvalues --  -84.26464 -11.23932 -11.23592 -11.23099  -6.73676
 Alpha  occ. eigenvalues --   -4.26207  -4.25815  -4.25146  -1.04692  -0.97622
 Alpha  occ. eigenvalues --   -0.85931  -0.73942  -0.62483  -0.58322  -0.57803
 Alpha  occ. eigenvalues --   -0.57576  -0.52438  -0.50612  -0.44100  -0.35955
 Alpha  occ. eigenvalues --   -0.29991
 Alpha virt. eigenvalues --    0.03834   0.03961   0.04672   0.04910   0.06289
 Alpha virt. eigenvalues --    0.06715   0.07442   0.08996   0.09705   0.11503
 Alpha virt. eigenvalues --    0.13150   0.13307   0.14281   0.16140   0.16172

  Beta  occ. eigenvalues --  -84.25783 -11.24072 -11.23733 -11.23092  -6.72813
  Beta  occ. eigenvalues --   -4.25284  -4.24769  -4.22869  -1.04028  -0.96896
  Beta  occ. eigenvalues --   -0.85406  -0.69137  -0.61593  -0.57923  -0.57714
  Beta  occ. eigenvalues --   -0.56479  -0.52283  -0.50137  -0.43821  -0.33896
  Beta virt. eigenvalues --    0.03852   0.03980   0.04441   0.04944   0.06309
  Beta virt. eigenvalues --    0.06327   0.06886   0.07493   0.09498   0.09882
  Beta virt. eigenvalues --    0.11776   0.13265   0.14306   0.15922   0.16288

 Mulliken charges and spin densities:
               1          2
     1  P    1.127542   1.204792
     2  C   -0.792335  -0.154049
     3  C   -0.458624   0.037103
     4  H    0.123191   0.008694
     5  H    0.123192   0.008694
     6  H    0.158408   0.002023
     7  H    0.158411   0.002022
     8  C   -0.845118  -0.129191
     9  H    0.098631   0.012103
    10  H    0.098634   0.012103
    11  H    0.071899  -0.003398
    12  H    0.136170  -0.000895
 Sum of Mulliken charges =  -0.00000   1.00000

 Dipole moment (field-independent basis, Debye):
    X=             -0.0116    Y=              1.2534    Z=              0.0000  Tot=              1.2534
                          Isotropic Fermi Contact Couplings
        Atom                 a.u.       MegaHertz       Gauss      10(-4) cm-1
     1  P(31)              0.21418     387.89282     138.40980     129.38712
     2  C(13)             -0.02551     -28.67633     -10.23243      -9.56540
     3  C(13)              0.00073       0.81865       0.29211       0.27307
     4  H(1)               0.00937      41.87234      14.94109      13.96711
     5  H(1)               0.00937      41.87117      14.94067      13.96672
     6  H(1)              -0.00035      -1.56821      -0.55958      -0.52310
     7  H(1)              -0.00035      -1.56823      -0.55958      -0.52310
     8  C(13)             -0.02614     -29.39092     -10.48741      -9.80375

 Normal termination of Gaussian 16 at Tue Apr  8 23:36:03 2025.
