 Gaussian 16, Revision C.01,

 ----------------------------------------------------------------------
 #t hf aug-cc-pvdz symm=none int=(grid=ultrafine) guess=(read,tcheck) s
 table=(opt,rrhf)
 ----------------------------------------------------------------------
 -----
 title
 -----
 Symbolic Z-matrix:
 Charge =  0 Multiplicity = 1

 SCF Done:  E(RHF) =  -490.420755183     A.U. after   14 cycles
 Normal termination of Gaussian 16 at Tue Apr  8 23:32:02 2025.
 Gaussian 16:  ES64L-G16RevC.01  3-Jul-2019

 ----------------------------------------------------------------------
 #t hf aug-cc-pvdz iop(5/13=1,5/36=2,99/5=2) pseudo=read geom=check gue
 ss=(read,tcheck) scf=(maxcycle=1)
 ----------------------------------------------------------------------
 -----
 title
 -----
 Structure from the checkpoint file:  "BDE49_nonexpt_1410_mol1.chk"
 Charge =  0 Multiplicity = 1

                         Standard orientation:
 ---------------------------------------------------------------------
 Center     Atomic      Atomic             Coordinates (Angstroms)
 Number     Number       Type             X           Y           Z
 ---------------------------------------------------------------------
      1          6           0        0.521877    0.124432    0.022041
      2          7           0        1.150995    1.232909    0.023183
      3         15           0       -1.339615   -0.055004   -0.124640
      4          7           0        1.212837   -1.067534   -0.068171
      5          1           0        2.214640   -0.969760    0.038337
      6          1           0        0.815194   -1.879960    0.376018
      7          1           0        0.520732    2.030889    0.001384
      8          1           0       -1.640428    0.897818    0.879303
      9          1           0       -1.494005   -1.158136    0.757230
 ---------------------------------------------------------------------

 SCF Done:  E(RHF) =  -490.620341634     A.U. after    2 cycles

 The electronic state is 1-A.
 Alpha  occ. eigenvalues --  -84.29452 -15.52183 -15.47618 -11.33182  -6.76595
 Alpha  occ. eigenvalues --   -4.29123  -4.28935  -4.28168  -1.26355  -1.15589
 Alpha  occ. eigenvalues --   -0.91604  -0.82119  -0.74262  -0.67886  -0.60468
 Alpha  occ. eigenvalues --   -0.56527  -0.51854  -0.44762  -0.42553  -0.36579
 Alpha virt. eigenvalues --    0.03015   0.04778   0.05278   0.06318   0.07830
 Alpha virt. eigenvalues --    0.08416   0.09628   0.10254   0.12588   0.13754
 Alpha virt. eigenvalues --    0.14183   0.15363   0.16483   0.17901   0.18896

 Mulliken charges:
               1
     1  C   -1.708946
     2  N    0.506471
     3  P   -0.329476
     4  N    0.387093
     5  H    0.037257
     6  H    0.144213
     7  H    0.136360
     8  H    0.414331
     9  H    0.412696
 Sum of Mulliken charges =  -0.00000

 Dipole moment (field-independent basis, Debye):
    X=             -1.8635    Y=             -1.9517    Z=              1.1845  Tot=              2.9470

 Test job not archived.
 1\1\GINC-SE195\SP\RHF\Aug-CC-pVDZ\C1H5N2P1\OHZDE\08-Apr-2025\0\\#t hf
 aug-cc-pvdz iop(5/13=1,5/36=2,99/5=2) pseudo=read geom=check guess=(re
 ad,tcheck) scf=(maxcycle=1)\\title\\0,1\C,0,0.521877,0.124432,0.022041
 \N,0,1.150995,1.232909,0.023183\P,0,-1.339615,-0.055005,-0.12464\N,0,1
 .212837,-1.067534,-0.068171\H,0,2.21464,-0.96976,0.038337\H,0,0.815194
 ,-1.87996,0.376018\H,0,0.520731,2.030889,0.001384\H,0,-1.640428,0.8978
 17,0.879303\H,0,-1.494005,-1.158137,0.75723\\Version=ES64L-G16RevC.01\
 State=1-A\HF=-490.6203416\RMSD=3.078e-02\Dipole=-0.7331627,-0.7678639,

 Normal termination of Gaussian 16 at Tue Apr  8 23:32:05 2025.
