 Gaussian 16, Revision C.01,

 ----------------------------------------------------------------------
 #t hf aug-cc-pvdz symm=none int=(grid=ultrafine) guess=(read,tcheck) s
 table=(opt,rrhf)
 ----------------------------------------------------------------------
 -----
 title
 -----
 Symbolic Z-matrix:
 Charge =  0 Multiplicity = 1

 SCF Done:  E(RHF) =  -641.260856721     A.U. after   15 cycles
 Normal termination of Gaussian 16 at Tue Apr  8 23:11:58 2025.
 Gaussian 16:  ES64L-G16RevC.01  3-Jul-2019

 ----------------------------------------------------------------------
 #t hf aug-cc-pvdz iop(5/13=1,5/36=2,99/5=2) pseudo=read geom=check gue
 ss=(read,tcheck) scf=(maxcycle=1)
 ----------------------------------------------------------------------
 -----
 title
 -----
 Structure from the checkpoint file:  "BDE49_expt_742_mol1.chk"
 Charge =  0 Multiplicity = 1

                         Standard orientation:
 ---------------------------------------------------------------------
 Center     Atomic      Atomic             Coordinates (Angstroms)
 Number     Number       Type             X           Y           Z
 ---------------------------------------------------------------------
      1          6           0        0.104289    1.519485   -0.020621
      2          6           0       -0.275515    0.175747   -0.033996
      3          6           0        0.674525   -0.838880   -0.024649
      4          6           0        1.457489    1.836110    0.002107
      5          6           0        2.421987    0.831548    0.012380
      6          6           0        2.030716   -0.508578   -0.001692
      7          1           0        1.768950    2.873978    0.008928
      8          1           0        3.477134    1.087997    0.028127
      9          8           0        2.920620   -1.540677    0.002624
     10          1           0        3.818003   -1.191963    0.015782
     11          1           0        0.384699   -1.880844   -0.042672
     12          6           0       -1.738121   -0.177649   -0.002501
     13          9           0       -2.484826    0.700373   -0.708060
     14          9           0       -1.981225   -1.406012   -0.506578
     15          9           0       -2.224991   -0.170861    1.261314
     16          1           0       -0.646581    2.298055   -0.037401
 ---------------------------------------------------------------------

 SCF Done:  E(RHF) =  -641.875847348     A.U. after    2 cycles

 The electronic state is 1-A.
 Alpha  occ. eigenvalues --  -26.50263 -26.50159 -26.49785 -20.59779 -11.52088
 Alpha  occ. eigenvalues --  -11.33121 -11.28188 -11.27049 -11.26533 -11.26296
 Alpha  occ. eigenvalues --  -11.26115  -1.70743  -1.60833  -1.60338  -1.51255
 Alpha  occ. eigenvalues --   -1.18281  -1.07270  -1.03776  -0.96054  -0.87812
 Alpha  occ. eigenvalues --   -0.86478  -0.81084  -0.80157  -0.79812  -0.72214
 Alpha  occ. eigenvalues --   -0.71813  -0.69178  -0.68000  -0.67142  -0.64340
 Alpha  occ. eigenvalues --   -0.62950  -0.62145  -0.61383  -0.60744  -0.59746
 Alpha  occ. eigenvalues --   -0.59240  -0.55125  -0.52716  -0.51125  -0.37870
 Alpha  occ. eigenvalues --   -0.34365
 Alpha virt. eigenvalues --    0.02423   0.03410   0.04594   0.05363   0.06471
 Alpha virt. eigenvalues --    0.07712   0.08623   0.09144   0.10189   0.11079
 Alpha virt. eigenvalues --    0.12493   0.12521   0.12745   0.13456   0.13618

 Mulliken charges:
               1
     1  C   -0.369204
     2  C    1.056504
     3  C   -0.186242
     4  C    0.315703
     5  C   -0.375031
     6  C    1.896283
     7  H   -0.204312
     8  H   -0.303601
     9  O   -1.789420
    10  H    0.410323
    11  H   -0.222506
    12  C    2.446460
    13  F   -0.819881
    14  F   -0.835103
    15  F   -0.750303
    16  H   -0.269668
 Sum of Mulliken charges =  -0.00000

 Dipole moment (field-independent basis, Debye):
    X=              3.8115    Y=              1.6494    Z=             -0.0446  Tot=              4.1533

 Test job not archived.
 1\1\GINC-SE454\SP\RHF\Aug-CC-pVDZ\C7H5F3O1\OHZDE\08-Apr-2025\0\\#t hf
 aug-cc-pvdz iop(5/13=1,5/36=2,99/5=2) pseudo=read geom=check guess=(re
 ad,tcheck) scf=(maxcycle=1)\\title\\0,1\C,0,0.104289,1.519485,-0.02062
 1\C,0,-0.275515,0.175747,-0.033996\C,0,0.674525,-0.83888,-0.024649\C,0
 ,1.457489,1.83611,0.002107\C,0,2.421987,0.831548,0.01238\C,0,2.030716,
 -0.508578,-0.001692\H,0,1.76895,2.873978,0.008928\H,0,3.477134,1.08799
 8,0.028127\O,0,2.92062,-1.540677,0.002624\H,0,3.818003,-1.191962,0.015
 782\H,0,0.384699,-1.880844,-0.042672\C,0,-1.738121,-0.177649,-0.002501

 Normal termination of Gaussian 16 at Tue Apr  8 23:12:07 2025.
