 Gaussian 16, Revision C.01,

 ----------------------------------------------------------------------
 #t hf aug-cc-pvdz symm=none int=(grid=ultrafine) guess=(read,tcheck) s
 table=(opt,rrhf)
 ----------------------------------------------------------------------
 -----
 title
 -----
 Symbolic Z-matrix:
 Charge =  0 Multiplicity = 1

 SCF Done:  E(RHF) =  -734.310345662     A.U. after   13 cycles
 Normal termination of Gaussian 16 at Tue Apr  8 23:29:02 2025.
 Gaussian 16:  ES64L-G16RevC.01  3-Jul-2019

 ----------------------------------------------------------------------
 #t hf aug-cc-pvdz iop(5/13=1,5/36=2,99/5=2) pseudo=read geom=check gue
 ss=(read,tcheck) scf=(maxcycle=1)
 ----------------------------------------------------------------------
 -----
 title
 -----
 Structure from the checkpoint file:  "BDE49_nonexpt_133_mol1.chk"
 Charge =  0 Multiplicity = 1

                         Standard orientation:
 ---------------------------------------------------------------------
 Center     Atomic      Atomic             Coordinates (Angstroms)
 Number     Number       Type             X           Y           Z
 ---------------------------------------------------------------------
      1          5           0        0.751191    0.916278   -0.329258
      2          5           0       -0.751192    0.916283    0.329249
      3         15           0       -2.064738   -0.396198    0.008496
      4          1           0       -1.952832   -0.686376   -1.367665
      5          1           0       -3.265575    0.344153   -0.016842
      6         15           0        2.064739   -0.396200   -0.008500
      7          1           0        1.952799   -0.686412    1.367652
      8          1           0        3.265571    0.344158    0.016888
      9          1           0       -1.037272    1.703791    1.181961
     10          1           0        1.037307    1.703846   -1.181902
 ---------------------------------------------------------------------

 SCF Done:  E(RHF) =  -734.454245081     A.U. after    2 cycles

 The electronic state is 1-A.
 Alpha  occ. eigenvalues --  -84.26498 -84.26493  -7.59880  -7.59880  -6.73915
 Alpha  occ. eigenvalues --   -6.73915  -4.26499  -4.26444  -4.26393  -4.26349
 Alpha  occ. eigenvalues --   -4.25634  -4.25543  -0.89397  -0.87230  -0.71987
 Alpha  occ. eigenvalues --   -0.61968  -0.54612  -0.51533  -0.47726  -0.45159
 Alpha  occ. eigenvalues --   -0.43759  -0.35410  -0.32883
 Alpha virt. eigenvalues --    0.03409   0.03626   0.04090   0.04426   0.05922
 Alpha virt. eigenvalues --    0.06418   0.06870   0.07037   0.08122   0.08296
 Alpha virt. eigenvalues --    0.09351   0.09851   0.11391   0.11551   0.11764

 Mulliken charges:
               1
     1  B    0.069537
     2  B    0.069528
     3  P   -1.114734
     4  H    0.400409
     5  H    0.361241
     6  P   -1.114732
     7  H    0.400414
     8  H    0.361236
     9  H    0.283552
    10  H    0.283550
 Sum of Mulliken charges =  -0.00000

 Dipole moment (field-independent basis, Debye):
    X=             -0.0000    Y=              0.4513    Z=             -0.0000  Tot=              0.4513

 Test job not archived.
 1\1\GINC-SE038\SP\RHF\Aug-CC-pVDZ\B2H6P2\OHZDE\08-Apr-2025\0\\#t hf au
 g-cc-pvdz iop(5/13=1,5/36=2,99/5=2) pseudo=read geom=check guess=(read
 ,tcheck) scf=(maxcycle=1)\\title\\0,1\B,0,-0.751191,0.916278,0.329258\
 B,0,0.751192,0.916283,-0.329249\P,0,2.064738,-0.396198,-0.008496\H,0,1
 .952832,-0.686376,1.367665\H,0,3.265575,0.344153,0.016842\P,0,-2.06473
 9,-0.3962,0.0085\H,0,-1.952799,-0.686412,-1.367652\H,0,-3.265571,0.344
 158,-0.016888\H,0,1.037272,1.703791,-1.181961\H,0,-1.037307,1.703846,1
 .181902\\Version=ES64L-G16RevC.01\State=1-A\HF=-734.4542451\RMSD=3.906

 Normal termination of Gaussian 16 at Tue Apr  8 23:29:06 2025.
