 Gaussian 16, Revision C.01,

 ----------------------------------------------------------------------
 #t hf aug-cc-pvdz symm=none int=(grid=ultrafine) guess=(read,tcheck) s
 table=(opt,rrhf)
 ----------------------------------------------------------------------
 -----
 title
 -----
 Symbolic Z-matrix:
 Charge =  0 Multiplicity = 1

 SCF Done:  E(RHF) =  -606.362809327     A.U. after   15 cycles
 Normal termination of Gaussian 16 at Wed Apr  9 00:23:38 2025.
 Gaussian 16:  ES64L-G16RevC.01  3-Jul-2019

 ----------------------------------------------------------------------
 #t hf aug-cc-pvdz iop(5/13=1,5/36=2,99/5=2) pseudo=read geom=check gue
 ss=(read,tcheck) scf=(maxcycle=1)
 ----------------------------------------------------------------------
 -----
 title
 -----
 Structure from the checkpoint file:  "BDE49_nonexpt_2687_mol1.chk"
 Charge =  0 Multiplicity = 1

                         Standard orientation:
 ---------------------------------------------------------------------
 Center     Atomic      Atomic             Coordinates (Angstroms)
 Number     Number       Type             X           Y           Z
 ---------------------------------------------------------------------
      1          9           0       -1.508895    0.810484    0.000020
      2         16           0       -0.541638   -0.588518   -0.000001
      3          7           0        1.005820   -0.350881   -0.000007
      4          7           0        1.781599    0.620978   -0.000020
      5          1           0        2.734341    0.231250    0.000033
 ---------------------------------------------------------------------

 SCF Done:  E(RHF) =  -606.615645837     A.U. after    2 cycles

 The electronic state is 1-A.
 Alpha  occ. eigenvalues --  -94.09519 -26.47333 -15.64525 -15.59734  -8.36560
 Alpha  occ. eigenvalues --   -6.34344  -6.33948  -6.33679  -1.56894  -1.41467
 Alpha  occ. eigenvalues --   -1.17302  -0.88659  -0.79047  -0.71728  -0.67496
 Alpha  occ. eigenvalues --   -0.63863  -0.62906  -0.56642  -0.47718  -0.41474
 Alpha virt. eigenvalues --    0.03206   0.03428   0.06624   0.08178   0.11078
 Alpha virt. eigenvalues --    0.11194   0.13248   0.15314   0.16639   0.17558
 Alpha virt. eigenvalues --    0.18952   0.20484   0.20678   0.24343   0.27192

 Mulliken charges:
               1
     1  F   -0.612192
     2  S    0.889268
     3  N   -0.596389
     4  N    0.183333
     5  H    0.135979
 Sum of Mulliken charges =  -0.00000

 Dipole moment (field-independent basis, Debye):
    X=              1.2398    Y=             -1.7782    Z=              0.0000  Tot=              2.1678

 Test job not archived.
 1\1\GINC-SE186\SP\RHF\Aug-CC-pVDZ\F1H1N2S1\OHZDE\09-Apr-2025\0\\#t hf
 aug-cc-pvdz iop(5/13=1,5/36=2,99/5=2) pseudo=read geom=check guess=(re
 ad,tcheck) scf=(maxcycle=1)\\title\\0,1\F,0,1.508895,0.810484,-0.00002
 \S,0,0.541638,-0.588518,0.000001\N,0,-1.00582,-0.350881,0.000007\N,0,-
 1.781599,0.620978,0.00002\H,0,-2.734341,0.231249,-0.000033\\Version=ES
 64L-G16RevC.01\State=1-A\HF=-606.6156458\RMSD=3.407e-02\Dipole=-0.4877
 889,-0.6996166,-0.0000196\Quadrupole=3.0408674,-2.1169112,-0.9239562,-
 0.6821303,0.0001719,-0.0000245\PG=C01 [X(F1H1N2S1)]\\@

 Normal termination of Gaussian 16 at Wed Apr  9 00:23:39 2025.
