 Gaussian 16, Revision C.01,

 ----------------------------------------------------------------------
 #t hf aug-cc-pvdz symm=none int=(grid=ultrafine) guess=(read,tcheck) s
 table=(opt,rrhf)
 ----------------------------------------------------------------------
 -----
 title
 -----
 Symbolic Z-matrix:
 Charge =  0 Multiplicity = 1

 SCF Done:  E(RHF) =  -671.973590830     A.U. after   12 cycles
 Normal termination of Gaussian 16 at Tue Apr  8 23:59:31 2025.
 Gaussian 16:  ES64L-G16RevC.01  3-Jul-2019

 ----------------------------------------------------------------------
 #t hf aug-cc-pvdz iop(5/13=1,5/36=2,99/5=2) pseudo=read geom=check gue
 ss=(read,tcheck) scf=(maxcycle=1)
 ----------------------------------------------------------------------
 -----
 title
 -----
 Structure from the checkpoint file:  "BDE49_nonexpt_2068_mol1.chk"
 Charge =  0 Multiplicity = 1

                         Standard orientation:
 ---------------------------------------------------------------------
 Center     Atomic      Atomic             Coordinates (Angstroms)
 Number     Number       Type             X           Y           Z
 ---------------------------------------------------------------------
      1         14           0        1.608936   -0.739770   -0.822460
      2          6           0       -0.016752    0.048221   -0.105926
      3          8           0       -0.997975   -0.378669   -1.003488
      4          8           0        0.041474    1.451909   -0.171837
      5          8           0       -0.350667   -0.269917    1.233343
      6          6           0       -2.286330    0.250125   -0.882199
      7          1           0       -2.961054   -0.344009   -1.497098
      8          1           0       -2.251135    1.276649   -1.249351
      9          1           0       -2.627071    0.244329    0.155619
     10          6           0        0.771281    2.128293    0.852151
     11          1           0        0.754882    3.182553    0.577030
     12          1           0        1.812415    1.789515    0.900084
     13          1           0        0.305842    1.991039    1.829108
     14          6           0       -0.436041   -1.656766    1.542800
     15          1           0       -0.856792   -1.720941    2.545931
     16          1           0        0.551494   -2.133916    1.545171
     17          1           0       -1.086713   -2.183612    0.839250
     18          1           0        1.855937   -0.126389   -2.142579
     19          1           0        1.486395   -2.207272   -0.968609
     20          1           0        2.755094   -0.456989    0.074783
 ---------------------------------------------------------------------

 SCF Done:  E(RHF) =  -672.400320652     A.U. after    2 cycles

 The electronic state is 1-A.
 Alpha  occ. eigenvalues --  -69.52813 -20.55471 -20.55257 -20.55136 -11.38194
 Alpha  occ. eigenvalues --  -11.28881 -11.28222 -11.27647  -6.19946  -3.95314
 Alpha  occ. eigenvalues --   -3.95305  -3.95281  -1.53510  -1.43993  -1.43634
 Alpha  occ. eigenvalues --   -0.98902  -0.94382  -0.93290  -0.82323  -0.75181
 Alpha  occ. eigenvalues --   -0.70772  -0.70446  -0.65887  -0.63913  -0.62151
 Alpha  occ. eigenvalues --   -0.60549  -0.59147  -0.58557  -0.54237  -0.52768
 Alpha  occ. eigenvalues --   -0.49725  -0.48877  -0.48586  -0.47320  -0.44926
 Alpha  occ. eigenvalues --   -0.43783  -0.39240
 Alpha virt. eigenvalues --    0.03525   0.04014   0.04139   0.04305   0.05931
 Alpha virt. eigenvalues --    0.06209   0.06376   0.06638   0.06760   0.08512
 Alpha virt. eigenvalues --    0.09301   0.09494   0.10022   0.10833   0.11787

 Mulliken charges:
               1
     1  Si   0.516989
     2  C    2.964630
     3  O   -1.507568
     4  O   -1.568511
     5  O   -1.598482
     6  C    0.128227
     7  H   -0.008530
     8  H    0.158946
     9  H    0.192600
    10  C    0.145642
    11  H   -0.019392
    12  H    0.120074
    13  H    0.182462
    14  C    0.247528
    15  H    0.003163
    16  H    0.133649
    17  H    0.199442
    18  H   -0.125729
    19  H   -0.063325
    20  H   -0.101815
 Sum of Mulliken charges =  -0.00000

 Dipole moment (field-independent basis, Debye):
    X=             -0.1818    Y=             -0.3537    Z=              1.3153  Tot=              1.3741

 Test job not archived.
 1\1\GINC-SE342\SP\RHF\Aug-CC-pVDZ\C4H12O3Si1\OHZDE\08-Apr-2025\0\\#t h
 f aug-cc-pvdz iop(5/13=1,5/36=2,99/5=2) pseudo=read geom=check guess=(
 read,tcheck) scf=(maxcycle=1)\\title\\0,1\Si,0,1.608936,-0.73977,-0.82
 246\C,0,-0.016752,0.048221,-0.105926\O,0,-0.997975,-0.378669,-1.003488
 \O,0,0.041474,1.451909,-0.171837\O,0,-0.350667,-0.269917,1.233343\C,0,
 -2.28633,0.250126,-0.882199\H,0,-2.961054,-0.344008,-1.497098\H,0,-2.2
 51135,1.27665,-1.249351\H,0,-2.627071,0.24433,0.155619\C,0,0.771282,2.
 128293,0.852151\H,0,0.754883,3.182553,0.57703\H,0,1.812416,1.789515,0.

 Normal termination of Gaussian 16 at Tue Apr  8 23:59:40 2025.
