 Gaussian 16, Revision C.01,

 ----------------------------------------------------------------------
 #t hf aug-cc-pvdz symm=none int=(grid=ultrafine) guess=(read,tcheck) s
 table=(opt,rrhf)
 ----------------------------------------------------------------------
 -----
 title
 -----
 Symbolic Z-matrix:
 Charge =  0 Multiplicity = 1

 SCF Done:  E(RHF) =  -1093.70115228     A.U. after   16 cycles
 Normal termination of Gaussian 16 at Tue Apr  8 23:47:44 2025.
 Gaussian 16:  ES64L-G16RevC.01  3-Jul-2019

 ----------------------------------------------------------------------
 #t hf aug-cc-pvdz iop(5/13=1,5/36=2,99/5=2) pseudo=read geom=check gue
 ss=(read,tcheck) scf=(maxcycle=1)
 ----------------------------------------------------------------------
 -----
 title
 -----
 Structure from the checkpoint file:  "BDE49_nonexpt_1776_mol1.chk"
 Charge =  0 Multiplicity = 1

                         Standard orientation:
 ---------------------------------------------------------------------
 Center     Atomic      Atomic             Coordinates (Angstroms)
 Number     Number       Type             X           Y           Z
 ---------------------------------------------------------------------
      1          6           0        0.085451    1.925470    0.022077
      2          6           0       -1.216147    2.293084   -0.327232
      3          6           0       -2.225313    1.345132   -0.373013
      4          6           0       -1.947727    0.004989   -0.067138
      5          6           0       -0.650087   -0.367700    0.285572
      6          6           0        0.377600    0.592535    0.329785
      7          1           0        0.864706    2.678867    0.053341
      8          1           0       -1.442528    3.326403   -0.565193
      9         14           0        2.108208    0.099627    0.800627
     10          1           0       -0.427710   -1.399923    0.525343
     11         17           0        3.076942   -0.879638   -0.777020
     12          1           0       -3.240888    1.609941   -0.641566
     13          8           0       -3.008009   -0.845725   -0.140254
     14          6           0       -2.796997   -2.223170    0.142828
     15          1           0       -2.076480   -2.669511   -0.551114
     16          1           0       -3.765451   -2.703162    0.014063
     17          1           0       -2.453398   -2.373368    1.172251
     18          1           0        2.110094   -0.861828    1.920929
     19          1           0        2.912131    1.295431    1.117282
 ---------------------------------------------------------------------

 SCF Done:  E(RHF) =  -1094.16402646     A.U. after    2 cycles

 The electronic state is 1-A.
 Alpha  occ. eigenvalues -- -105.55056 -69.57807 -20.57994 -11.31662 -11.30209
 Alpha  occ. eigenvalues --  -11.25584 -11.25390 -11.25147 -11.24962 -11.24738
 Alpha  occ. eigenvalues --  -10.60036  -7.76923  -7.76624  -7.76620  -6.24475
 Alpha  occ. eigenvalues --   -3.99899  -3.99766  -3.99755  -1.50436  -1.16073
 Alpha  occ. eigenvalues --   -1.04988  -1.03105  -1.02701  -0.95473  -0.85501
 Alpha  occ. eigenvalues --   -0.82860  -0.75769  -0.70743  -0.68509  -0.68172
 Alpha  occ. eigenvalues --   -0.66357  -0.63223  -0.59636  -0.57767  -0.54823
 Alpha  occ. eigenvalues --   -0.53595  -0.53307  -0.52794  -0.52512  -0.49081
 Alpha  occ. eigenvalues --   -0.47664  -0.45052  -0.44685  -0.36133  -0.32930
 Alpha virt. eigenvalues --    0.03204   0.03428   0.03758   0.04582   0.04885
 Alpha virt. eigenvalues --    0.05071   0.06237   0.06522   0.07621   0.08396
 Alpha virt. eigenvalues --    0.08830   0.09648   0.10339   0.10926   0.11223

 Mulliken charges:
               1
     1  C    0.165207
     2  C    0.718936
     3  C    0.109205
     4  C    2.054730
     5  C    0.297426
     6  C   -0.826761
     7  H   -0.301413
     8  H   -0.215032
     9  Si   1.040399
    10  H   -0.486543
    11  Cl  -0.621060
    12  H   -0.264605
    13  O   -1.898087
    14  C    0.172388
    15  H    0.190055
    16  H   -0.051120
    17  H    0.183339
    18  H   -0.129444
    19  H   -0.137620
 Sum of Mulliken charges =  -0.00000

 Dipole moment (field-independent basis, Debye):
    X=             -1.6979    Y=             -0.0233    Z=              1.2574  Tot=              2.1130

 Test job not archived.
 1\1\GINC-SE345\SP\RHF\Aug-CC-pVDZ\C7H9Cl1O1Si1\OHZDE\08-Apr-2025\0\\#t
  hf aug-cc-pvdz iop(5/13=1,5/36=2,99/5=2) pseudo=read geom=check guess
 =(read,tcheck) scf=(maxcycle=1)\\title\\0,1\C,0,0.085451,1.92547,0.022
 077\C,0,-1.216147,2.293084,-0.327232\C,0,-2.225313,1.345132,-0.373013\
 C,0,-1.947727,0.004989,-0.067138\C,0,-0.650087,-0.3677,0.285572\C,0,0.
 3776,0.592535,0.329785\H,0,0.864706,2.678867,0.053341\H,0,-1.442528,3.
 326403,-0.565193\Si,0,2.108208,0.099627,0.800627\H,0,-0.42771,-1.39992
 3,0.525343\Cl,0,3.076942,-0.879638,-0.77702\H,0,-3.240888,1.609941,-0.

 Normal termination of Gaussian 16 at Tue Apr  8 23:47:53 2025.
