 Gaussian 16, Revision C.01,

 ----------------------------------------------------------------------
 #t hf aug-cc-pvdz symm=none int=(grid=ultrafine) guess=(read,tcheck) s
 table=(opt,rrhf)
 ----------------------------------------------------------------------
 -----
 title
 -----
 Symbolic Z-matrix:
 Charge =  0 Multiplicity = 1

 SCF Done:  E(RHF) =  -1643.78974394     A.U. after   11 cycles
 Normal termination of Gaussian 16 at Tue Apr  8 23:49:32 2025.
 Gaussian 16:  ES64L-G16RevC.01  3-Jul-2019

 ----------------------------------------------------------------------
 #t hf aug-cc-pvdz iop(5/13=1,5/36=2,99/5=2) pseudo=read geom=check gue
 ss=(read,tcheck) scf=(maxcycle=1)
 ----------------------------------------------------------------------
 -----
 title
 -----
 Structure from the checkpoint file:  "BDE49_nonexpt_1855_mol1.chk"
 Charge =  0 Multiplicity = 1

                         Standard orientation:
 ---------------------------------------------------------------------
 Center     Atomic      Atomic             Coordinates (Angstroms)
 Number     Number       Type             X           Y           Z
 ---------------------------------------------------------------------
      1          6           0        0.443849    1.312880   -0.000000
      2         14           0       -0.415287   -0.402242    0.000000
      3          9           0       -1.979481   -0.134878    0.000000
      4         17           0        0.093762   -1.420428    1.682017
      5          9           0        0.093762    2.028429    1.089848
      6          9           0        1.787851    1.194537   -0.000000
      7         17           0        0.093762   -1.420428   -1.682017
      8          9           0        0.093762    2.028429   -1.089848
 ---------------------------------------------------------------------

 SCF Done:  E(RHF) =  -1644.36865806     A.U. after    2 cycles

 The electronic state is 1-A'.
 Alpha  occ. eigenvalues -- -105.60916-105.60916 -69.71153 -26.52626 -26.52564
 Alpha  occ. eigenvalues --  -26.52561 -26.50766 -11.52979 -10.65973 -10.65965
 Alpha  occ. eigenvalues --   -7.82859  -7.82854  -7.82513  -7.82512  -7.82506
 Alpha  occ. eigenvalues --   -7.82503  -6.36954  -4.12347  -4.12273  -4.12127
 Alpha  occ. eigenvalues --   -1.72993  -1.63114  -1.63034  -1.62319  -1.12813
 Alpha  occ. eigenvalues --   -1.09280  -0.98134  -0.85696  -0.82379  -0.82331
 Alpha  occ. eigenvalues --   -0.77839  -0.70871  -0.70515  -0.69452  -0.69396
 Alpha  occ. eigenvalues --   -0.66716  -0.65583  -0.65474  -0.63841  -0.59255
 Alpha  occ. eigenvalues --   -0.56759  -0.53897  -0.52097  -0.50911  -0.50716
 Alpha virt. eigenvalues --    0.04911   0.05716   0.05964   0.06141   0.09987
 Alpha virt. eigenvalues --    0.10899   0.12085   0.12120   0.12123   0.14452
 Alpha virt. eigenvalues --    0.14597   0.15586   0.16541   0.17780   0.18200

 Mulliken charges:
               1
     1  C    1.814950
     2  Si   2.147189
     3  F   -0.874970
     4  Cl  -0.449787
     5  F   -0.732662
     6  F   -0.722271
     7  Cl  -0.449787
     8  F   -0.732662
 Sum of Mulliken charges =  -0.00000

 Dipole moment (field-independent basis, Debye):
    X=              0.0146    Y=             -1.0962    Z=             -0.0000  Tot=              1.0963

 Test job not archived.
 1\1\GINC-SE080\SP\RHF\Aug-CC-pVDZ\C1Cl2F4Si1\OHZDE\08-Apr-2025\0\\#t h
 f aug-cc-pvdz iop(5/13=1,5/36=2,99/5=2) pseudo=read geom=check guess=(
 read,tcheck) scf=(maxcycle=1)\\title\\0,1\C,0,-1.381007,0.,-0.11608\Si
 ,0,0.490089,0.,0.306716\F,0,0.605609,0.,1.889385\Cl,0,1.356502,1.68201
 7,-0.431635\F,0,-1.991731,1.089848,0.395377\F,0,-1.588399,0.,-1.449247
 \Cl,0,1.356502,-1.682017,-0.431635\F,0,-1.991731,-1.089848,0.395377\\V
 ersion=ES64L-G16RevC.01\State=1-A'\HF=-1644.3686581\RMSD=2.641e-03\Dip
 ole=0.4173056,0.,-0.1089886\Quadrupole=-0.3883544,1.2127056,-0.8243513

 Normal termination of Gaussian 16 at Tue Apr  8 23:49:35 2025.
