 Gaussian 16, Revision C.01,

 ----------------------------------------------------------------------
 #t hf aug-cc-pvdz symm=none int=(grid=ultrafine) guess=(read,tcheck) s
 table=opt
 ----------------------------------------------------------------------
 -----
 title
 -----
 Symbolic Z-matrix:
 Charge =  0 Multiplicity = 2

 SCF Done:  E(UHF) =  -435.945923836     A.U. after   16 cycles
 Normal termination of Gaussian 16 at Tue Apr  8 23:37:06 2025.
 Gaussian 16:  ES64L-G16RevC.01  3-Jul-2019

 ----------------------------------------------------------------------
 #t hf aug-cc-pvdz iop(5/13=1,5/36=2,99/5=2) pseudo=read geom=check gue
 ss=(read,tcheck) scf=(maxcycle=1)
 ----------------------------------------------------------------------
 -----
 title
 -----
 Structure from the checkpoint file:  "BDE49_nonexpt_1538_mol2.chk"
 Charge =  0 Multiplicity = 2

                         Standard orientation:
 ---------------------------------------------------------------------
 Center     Atomic      Atomic             Coordinates (Angstroms)
 Number     Number       Type             X           Y           Z
 ---------------------------------------------------------------------
      1         15           0        1.153796   -0.249946   -0.000004
      2          6           0       -0.511169    0.626341    0.000004
      3          7           0       -1.674420   -0.256184    0.000004
      4          1           0       -0.564999    1.285236   -0.873824
      5          1           0       -0.564993    1.285231    0.873835
      6          1           0       -1.670523   -0.859999    0.815887
      7          1           0       -1.670544   -0.859972   -0.815899
      8          1           0        1.952067    0.933936    0.000011
 ---------------------------------------------------------------------

 SCF Done:  E(UHF) =  -436.089681572     A.U. after    2 cycles

 The electronic state is 2-A.
 Alpha  occ. eigenvalues --  -84.27684 -15.49659 -11.27578  -6.74934  -4.27389
 Alpha  occ. eigenvalues --   -4.26915  -4.26291  -1.18789  -0.94816  -0.80252
 Alpha  occ. eigenvalues --   -0.70992  -0.61978  -0.56009  -0.55954  -0.43031
 Alpha  occ. eigenvalues --   -0.37134  -0.32558
 Alpha virt. eigenvalues --    0.03515   0.04971   0.05415   0.05839   0.07153
 Alpha virt. eigenvalues --    0.09151   0.10598   0.11468   0.12381   0.13422
 Alpha virt. eigenvalues --    0.16458   0.17757   0.18470   0.19680   0.20442

  Beta  occ. eigenvalues --  -84.27005 -15.49681 -11.27720  -6.74075  -4.26374
  Beta  occ. eigenvalues --   -4.25892  -4.24075  -1.18786  -0.93335  -0.75215
  Beta  occ. eigenvalues --   -0.70764  -0.61665  -0.55740  -0.54840  -0.42129
  Beta  occ. eigenvalues --   -0.35651
  Beta virt. eigenvalues --    0.03587   0.03595   0.05004   0.05945   0.06203
  Beta virt. eigenvalues --    0.07240   0.09218   0.10736   0.12762   0.13601
  Beta virt. eigenvalues --    0.14329   0.16724   0.18615   0.19010   0.20143

 Mulliken charges and spin densities:
               1          2
     1  P    0.322519   1.280827
     2  C   -1.122852  -0.109561
     3  N    0.135516  -0.009799
     4  H    0.111579   0.003347
     5  H    0.111574   0.003347
     6  H    0.135390   0.001578
     7  H    0.135392   0.001578
     8  H    0.170881  -0.171316
 Sum of Mulliken charges =  -0.00000   1.00000

 Dipole moment (field-independent basis, Debye):
    X=              0.4716    Y=              0.0052    Z=             -0.0000  Tot=              0.4717
                          Isotropic Fermi Contact Couplings
        Atom                 a.u.       MegaHertz       Gauss      10(-4) cm-1
     1  P(31)              0.19455     352.34373     125.72501     117.52922
     2  C(13)             -0.02845     -31.97765     -11.41042     -10.66659
     3  N(14)             -0.00079      -0.25375      -0.09054      -0.08464
     4  H(1)               0.00987      44.13616      15.74888      14.72224
     5  H(1)               0.00987      44.13553      15.74865      14.72203
     6  H(1)              -0.00006      -0.27864      -0.09943      -0.09295
     7  H(1)              -0.00006      -0.27862      -0.09942      -0.09294
     8  H(1)              -0.01379     -61.62919     -21.99083     -20.55728

 Normal termination of Gaussian 16 at Tue Apr  8 23:37:08 2025.
