 Gaussian 16, Revision C.01,

 ----------------------------------------------------------------------
 #t hf aug-cc-pvdz symm=none int=(grid=ultrafine) guess=(read,tcheck) s
 table=(opt,rrhf)
 ----------------------------------------------------------------------
 -----
 title
 -----
 Symbolic Z-matrix:
 Charge =  0 Multiplicity = 1

 SCF Done:  E(RHF) =  -879.616705776     A.U. after   14 cycles
 Normal termination of Gaussian 16 at Tue Apr  8 23:53:39 2025.
 Gaussian 16:  ES64L-G16RevC.01  3-Jul-2019

 ----------------------------------------------------------------------
 #t hf aug-cc-pvdz iop(5/13=1,5/36=2,99/5=2) pseudo=read geom=check gue
 ss=(read,tcheck) scf=(maxcycle=1)
 ----------------------------------------------------------------------
 -----
 title
 -----
 Structure from the checkpoint file:  "BDE49_nonexpt_1944_mol1.chk"
 Charge =  0 Multiplicity = 1

                         Standard orientation:
 ---------------------------------------------------------------------
 Center     Atomic      Atomic             Coordinates (Angstroms)
 Number     Number       Type             X           Y           Z
 ---------------------------------------------------------------------
      1         14           0        2.505690   -0.079031   -0.443033
      2          6           0        1.124723   -0.304764    0.848014
      3          6           0       -0.167780    0.337208    0.409140
      4          8           0       -0.321248    1.527349    0.280365
      5         16           0       -1.478156   -0.842856    0.052927
      6          1           0        2.052160   -0.592044   -1.754778
      7          1           0        3.685067   -0.855993    0.003109
      8          1           0        2.868244    1.347884   -0.562249
      9          6           0       -2.764998    0.312491   -0.512761
     10          1           0       -3.663321   -0.279688   -0.685472
     11          1           0       -2.452799    0.799796   -1.434885
     12          1           0       -2.947781    1.061781    0.255005
     13          1           0        1.451881    0.191429    1.767217
     14          1           0        0.995694   -1.369453    1.058407
 ---------------------------------------------------------------------

 SCF Done:  E(RHF) =  -879.908043111     A.U. after    2 cycles

 The electronic state is 1-A.
 Alpha  occ. eigenvalues --  -93.96510 -69.54134 -20.54669 -11.37712 -11.27134
 Alpha  occ. eigenvalues --  -11.25151  -8.24720  -6.22532  -6.22358  -6.22172
 Alpha  occ. eigenvalues --   -6.21176  -3.96560  -3.96546  -3.96533  -1.48818
 Alpha  occ. eigenvalues --   -1.09434  -1.02578  -0.90622  -0.76309  -0.72597
 Alpha  occ. eigenvalues --   -0.66599  -0.64799  -0.61063  -0.59897  -0.57189
 Alpha  occ. eigenvalues --   -0.54676  -0.50072  -0.49123  -0.48610  -0.46803
 Alpha  occ. eigenvalues --   -0.40606  -0.37770
 Alpha virt. eigenvalues --    0.03512   0.03737   0.04146   0.04651   0.05793
 Alpha virt. eigenvalues --    0.06230   0.07003   0.08088   0.08601   0.09691
 Alpha virt. eigenvalues --    0.09897   0.10656   0.11836   0.12569   0.13615

 Mulliken charges:
               1
     1  Si   0.996425
     2  C   -0.852344
     3  C    1.138691
     4  O   -1.314188
     5  S    0.327999
     6  H   -0.174133
     7  H   -0.190875
     8  H   -0.146262
     9  C   -0.682161
    10  H    0.135019
    11  H    0.220131
    12  H    0.233445
    13  H    0.179233
    14  H    0.129021
 Sum of Mulliken charges =  -0.00000

 Dipole moment (field-independent basis, Debye):
    X=             -0.1105    Y=             -1.2082    Z=              0.1706  Tot=              1.2252

 Test job not archived.
 1\1\GINC-SE335\SP\RHF\Aug-CC-pVDZ\C3H8O1S1Si1\OHZDE\08-Apr-2025\0\\#t
 hf aug-cc-pvdz iop(5/13=1,5/36=2,99/5=2) pseudo=read geom=check guess=
 (read,tcheck) scf=(maxcycle=1)\\title\\0,1\Si,0,2.50569,-0.079031,-0.4
 43033\C,0,1.124723,-0.304764,0.848014\C,0,-0.16778,0.337208,0.40914\O,
 0,-0.321248,1.527349,0.280365\S,0,-1.478156,-0.842856,0.052927\H,0,2.0
 5216,-0.592044,-1.754778\H,0,3.685067,-0.855993,0.003109\H,0,2.868244,
 1.347884,-0.562249\C,0,-2.764998,0.312491,-0.512761\H,0,-3.663321,-0.2
 79688,-0.685472\H,0,-2.452799,0.799796,-1.434885\H,0,-2.947781,1.06178

 Normal termination of Gaussian 16 at Tue Apr  8 23:53:43 2025.
