 Gaussian 16, Revision C.01,

 ----------------------------------------------------------------------
 #t hf aug-cc-pvdz symm=none int=(grid=ultrafine) guess=(read,tcheck) s
 table=(opt,rrhf)
 ----------------------------------------------------------------------
 -----
 title
 -----
 Symbolic Z-matrix:
 Charge =  0 Multiplicity = 1

 SCF Done:  E(RHF) =  -518.624875336     A.U. after   16 cycles
 Normal termination of Gaussian 16 at Wed Apr  9 00:41:15 2025.
 Gaussian 16:  ES64L-G16RevC.01  3-Jul-2019

 ----------------------------------------------------------------------
 #t hf aug-cc-pvdz iop(5/13=1,5/36=2,99/5=2) pseudo=read geom=check gue
 ss=(read,tcheck) scf=(maxcycle=1)
 ----------------------------------------------------------------------
 -----
 title
 -----
 Structure from the checkpoint file:  "BDE49_nonexpt_637_mol1.chk"
 Charge =  0 Multiplicity = 1

                         Standard orientation:
 ---------------------------------------------------------------------
 Center     Atomic      Atomic             Coordinates (Angstroms)
 Number     Number       Type             X           Y           Z
 ---------------------------------------------------------------------
      1          5           0       -2.212190   -0.509950    0.000006
      2          8           0       -2.392478   -1.866532    0.000004
      3          8           0       -3.325459    0.278992   -0.000002
      4          8           0        2.932298   -1.877237    0.000022
      5          6           0       -0.808086    0.195018    0.000001
      6          6           0        0.388794   -0.523417   -0.000007
      7          6           0        1.629875    0.122771   -0.000011
      8          6           0        1.681714    1.519160   -0.000006
      9          6           0        0.501862    2.258186    0.000001
     10          6           0       -0.724903    1.600850    0.000005
     11          6           0        2.881276   -0.668371   -0.000021
     12          1           0        0.408283   -1.609707   -0.000012
     13          1           0        2.645041    2.020342   -0.000009
     14          1           0        0.538167    3.341576    0.000005
     15          1           0       -1.643985    2.175532    0.000011
     16          1           0        3.812150   -0.060709    0.000023
     17          1           0       -1.581853   -2.381379    0.000006
     18          1           0       -4.134928   -0.242872   -0.000002
 ---------------------------------------------------------------------

 SCF Done:  E(RHF) =  -519.142526493     A.U. after    2 cycles

 The electronic state is 1-A.
 Alpha  occ. eigenvalues --  -20.56630 -20.55948 -20.54878 -11.34972 -11.27592
 Alpha  occ. eigenvalues --  -11.27087 -11.26783 -11.26084 -11.25935 -11.23931
 Alpha  occ. eigenvalues --   -7.65069  -1.48836  -1.47874  -1.44522  -1.17710
 Alpha  occ. eigenvalues --   -1.05549  -1.03971  -0.90576  -0.86503  -0.80879
 Alpha  occ. eigenvalues --   -0.77914  -0.75375  -0.71594  -0.68747  -0.67050
 Alpha  occ. eigenvalues --   -0.63828  -0.63040  -0.62123  -0.58157  -0.56786
 Alpha  occ. eigenvalues --   -0.56496  -0.56114  -0.53249  -0.50807  -0.49835
 Alpha  occ. eigenvalues --   -0.49669  -0.42831  -0.36858  -0.36285
 Alpha virt. eigenvalues --    0.02901   0.03489   0.03871   0.04675   0.04851
 Alpha virt. eigenvalues --    0.05238   0.05450   0.06704   0.07050   0.08064
 Alpha virt. eigenvalues --    0.08649   0.09260   0.09969   0.11017   0.12808

 Mulliken charges:
               1
     1  B    1.342993
     2  O   -1.495824
     3  O   -1.391800
     4  O   -1.313701
     5  C    0.976229
     6  C   -0.376411
     7  C    1.517437
     8  C    0.426892
     9  C    0.070712
    10  C   -0.306562
    11  C    0.704080
    12  H   -0.420112
    13  H   -0.285746
    14  H   -0.218018
    15  H   -0.351602
    16  H   -0.033176
    17  H    0.660028
    18  H    0.494581
 Sum of Mulliken charges =  -0.00000

 Dipole moment (field-independent basis, Debye):
    X=             -0.4214    Y=              2.3322    Z=             -0.0000  Tot=              2.3700

 Test job not archived.
 1\1\GINC-SE419\SP\RHF\Aug-CC-pVDZ\C7H7B1O3\OHZDE\09-Apr-2025\0\\#t hf
 aug-cc-pvdz iop(5/13=1,5/36=2,99/5=2) pseudo=read geom=check guess=(re
 ad,tcheck) scf=(maxcycle=1)\\title\\0,1\B,0,-2.21219,-0.50995,0.000006
 \O,0,-2.392478,-1.866532,0.000004\O,0,-3.325459,0.278992,-0.000002\O,0
 ,2.932298,-1.877237,0.000022\C,0,-0.808086,0.195018,0.000001\C,0,0.388
 794,-0.523417,-0.000007\C,0,1.629875,0.122771,-0.000011\C,0,1.681714,1
 .51916,-0.000006\C,0,0.501862,2.258186,0.000001\C,0,-0.724903,1.60085,
 0.000005\C,0,2.881276,-0.668371,-0.000021\H,0,0.408283,-1.609707,-0.00

 Normal termination of Gaussian 16 at Wed Apr  9 00:41:25 2025.
