 Gaussian 16, Revision C.01,

 ----------------------------------------------------------------------
 #t hf aug-cc-pvdz symm=none int=(grid=ultrafine) guess=(read,tcheck) s
 table=(opt,rrhf)
 ----------------------------------------------------------------------
 -----
 title
 -----
 Symbolic Z-matrix:
 Charge =  0 Multiplicity = 1

 SCF Done:  E(RHF) =  -808.006903874     A.U. after   14 cycles
 Normal termination of Gaussian 16 at Wed Apr  9 00:10:54 2025.
 Gaussian 16:  ES64L-G16RevC.01  3-Jul-2019

 ----------------------------------------------------------------------
 #t hf aug-cc-pvdz iop(5/13=1,5/36=2,99/5=2) pseudo=read geom=check gue
 ss=(read,tcheck) scf=(maxcycle=1)
 ----------------------------------------------------------------------
 -----
 title
 -----
 Structure from the checkpoint file:  "BDE49_nonexpt_2356_mol1.chk"
 Charge =  0 Multiplicity = 1

                         Standard orientation:
 ---------------------------------------------------------------------
 Center     Atomic      Atomic             Coordinates (Angstroms)
 Number     Number       Type             X           Y           Z
 ---------------------------------------------------------------------
      1         14           0        0.829316    0.856571   -0.550437
      2         14           0        2.411705   -0.700036    0.246309
      3          6           0       -0.900520    0.421178    0.174300
      4          8           0       -1.304248    0.815755    1.241071
      5          1           0        0.789957    0.836847   -2.030511
      6          1           0        1.153720    2.217760   -0.071819
      7          8           0       -1.598758   -0.418082   -0.625222
      8          1           0        3.759089   -0.331866   -0.251765
      9          1           0        2.078722   -2.060628   -0.237827
     10          1           0        2.430107   -0.703642    1.727499
     11          6           0       -2.890633   -0.837264   -0.131070
     12          1           0       -3.288738   -1.505238   -0.890912
     13          1           0       -3.543252    0.026200    0.004336
     14          1           0       -2.782932   -1.355788    0.822612
 ---------------------------------------------------------------------

 SCF Done:  E(RHF) =  -808.301437940     A.U. after    2 cycles

 The electronic state is 1-A.
 Alpha  occ. eigenvalues --  -69.54474 -69.53627 -20.59423 -20.54326 -11.37818
 Alpha  occ. eigenvalues --  -11.29958  -6.21687  -6.20830  -3.97038  -3.97004
 Alpha  occ. eigenvalues --   -3.97001  -3.96184  -3.96180  -3.96176  -1.54140
 Alpha  occ. eigenvalues --   -1.45191  -0.98518  -0.83131  -0.77563  -0.73137
 Alpha  occ. eigenvalues --   -0.68180  -0.67082  -0.65118  -0.57406  -0.55683
 Alpha  occ. eigenvalues --   -0.52679  -0.51261  -0.49900  -0.48652  -0.45850
 Alpha  occ. eigenvalues --   -0.43618  -0.40965
 Alpha virt. eigenvalues --    0.03567   0.03651   0.04185   0.05256   0.05797
 Alpha virt. eigenvalues --    0.06365   0.06610   0.07486   0.08072   0.08675
 Alpha virt. eigenvalues --    0.09180   0.09486   0.09797   0.10653   0.11786

 Mulliken charges:
               1
     1  Si   0.450401
     2  Si   0.307559
     3  C    1.317029
     4  O   -1.033018
     5  H   -0.060691
     6  H   -0.103288
     7  O   -1.151050
     8  H   -0.133895
     9  H   -0.097052
    10  H   -0.074170
    11  C    0.270308
    12  H   -0.006300
    13  H    0.160710
    14  H    0.153456
 Sum of Mulliken charges =  -0.00000

 Dipole moment (field-independent basis, Debye):
    X=             -0.0314    Y=             -1.0828    Z=             -1.4350  Tot=              1.7979

 Test job not archived.
 1\1\GINC-SE252\SP\RHF\Aug-CC-pVDZ\C2H8O2Si2\OHZDE\09-Apr-2025\0\\#t hf
  aug-cc-pvdz iop(5/13=1,5/36=2,99/5=2) pseudo=read geom=check guess=(r
 ead,tcheck) scf=(maxcycle=1)\\title\\0,1\Si,0,0.829316,0.856571,-0.550
 437\Si,0,2.411705,-0.700036,0.246309\C,0,-0.90052,0.421178,0.1743\O,0,
 -1.304248,0.815755,1.241071\H,0,0.789957,0.836847,-2.030511\H,0,1.1537
 2,2.21776,-0.071819\O,0,-1.598758,-0.418082,-0.625222\H,0,3.759089,-0.
 331866,-0.251765\H,0,2.078722,-2.060628,-0.237827\H,0,2.430107,-0.7036
 42,1.727499\C,0,-2.890633,-0.837264,-0.13107\H,0,-3.288738,-1.505238,-

 Normal termination of Gaussian 16 at Wed Apr  9 00:10:59 2025.
