 Gaussian 16, Revision C.01,

 ----------------------------------------------------------------------
 #t hf aug-cc-pvdz symm=none int=(grid=ultrafine) guess=(read,tcheck) s
 table=(opt,rrhf)
 ----------------------------------------------------------------------
 -----
 title
 -----
 Symbolic Z-matrix:
 Charge =  0 Multiplicity = 1

 SCF Done:  E(RHF) =  -360.827745060     A.U. after   15 cycles
 Normal termination of Gaussian 16 at Tue Apr  8 22:38:59 2025.
 Gaussian 16:  ES64L-G16RevC.01  3-Jul-2019

 ----------------------------------------------------------------------
 #t hf aug-cc-pvdz iop(5/13=1,5/36=2,99/5=2) pseudo=read geom=check gue
 ss=(read,tcheck) scf=(maxcycle=1)
 ----------------------------------------------------------------------
 -----
 title
 -----
 Structure from the checkpoint file:  "BDE49_expt_1246_mol1.chk"
 Charge =  0 Multiplicity = 1

                         Standard orientation:
 ---------------------------------------------------------------------
 Center     Atomic      Atomic             Coordinates (Angstroms)
 Number     Number       Type             X           Y           Z
 ---------------------------------------------------------------------
      1          6           0       -0.009307    0.615349   -0.445979
      2          7           0       -0.822578   -0.593097    0.018106
      3          8           0       -1.122746   -0.642296    1.201480
      4          8           0       -1.109187   -1.433641   -0.819460
      5          6           0        1.350339    0.586347    0.257808
      6          6           0        2.184489   -0.663781   -0.033221
      7          1           0        1.181455    0.689972    1.333212
      8          1           0        1.891682    1.480572   -0.068315
      9          1           0        2.358163   -0.787910   -1.105824
     10          1           0        1.693774   -1.569032    0.332926
     11          6           0       -0.815733    1.878860   -0.165161
     12          1           0        0.103614    0.447434   -1.517016
     13          1           0       -0.264324    2.747415   -0.532115
     14          1           0       -0.983868    1.994999    0.906283
     15          1           0       -1.783294    1.851184   -0.671061
     16          1           0        3.157582   -0.596110    0.458334
 ---------------------------------------------------------------------

 SCF Done:  E(RHF) =  -361.196281462     A.U. after    2 cycles

 The electronic state is 1-A.
 Alpha  occ. eigenvalues --  -20.58825 -20.58471 -15.77655 -11.31586 -11.26058
 Alpha  occ. eigenvalues --  -11.25745 -11.24153  -1.66362  -1.50219  -1.15516
 Alpha  occ. eigenvalues --   -1.03250  -0.97931  -0.88881  -0.83116  -0.76266
 Alpha  occ. eigenvalues --   -0.74000  -0.73396  -0.64492  -0.62086  -0.61303
 Alpha  occ. eigenvalues --   -0.58768  -0.55470  -0.52972  -0.51485  -0.51024
 Alpha  occ. eigenvalues --   -0.48191  -0.47264  -0.44558
 Alpha virt. eigenvalues --    0.03096   0.03561   0.04021   0.04597   0.05794
 Alpha virt. eigenvalues --    0.05974   0.06174   0.07927   0.08339   0.09454
 Alpha virt. eigenvalues --    0.11381   0.12539   0.13848   0.14307   0.14647

 Mulliken charges:
               1
     1  C   -1.110531
     2  N    2.842090
     3  O   -1.479195
     4  O   -1.371451
     5  C   -0.160893
     6  C   -0.293263
     7  H    0.207096
     8  H    0.179617
     9  H    0.178976
    10  H    0.193641
    11  C   -0.062350
    12  H    0.079674
    13  H    0.216939
    14  H    0.282620
    15  H    0.166936
    16  H    0.130093
 Sum of Mulliken charges =  -0.00000

 Dipole moment (field-independent basis, Debye):
    X=              2.3914    Y=              3.2987    Z=             -0.9312  Tot=              4.1793

 Test job not archived.
 1\1\GINC-SE082\SP\RHF\Aug-CC-pVDZ\C4H9N1O2\OHZDE\08-Apr-2025\0\\#t hf
 aug-cc-pvdz iop(5/13=1,5/36=2,99/5=2) pseudo=read geom=check guess=(re
 ad,tcheck) scf=(maxcycle=1)\\title\\0,1\C,0,-0.009307,0.615349,-0.4459
 79\N,0,-0.822578,-0.593097,0.018106\O,0,-1.122746,-0.642297,1.20148\O,
 0,-1.109186,-1.433642,-0.81946\C,0,1.350339,0.586348,0.257808\C,0,2.18
 4489,-0.66378,-0.033221\H,0,1.181455,0.689973,1.333212\H,0,1.891681,1.
 480573,-0.068315\H,0,2.358163,-0.787909,-1.105824\H,0,1.693775,-1.5690
 31,0.332926\C,0,-0.815734,1.87886,-0.165161\H,0,0.103614,0.447434,-1.5

 Normal termination of Gaussian 16 at Tue Apr  8 22:39:04 2025.
