 Gaussian 16, Revision C.01,

 ----------------------------------------------------------------------
 #t hf aug-cc-pvdz symm=none int=(grid=ultrafine) guess=(read,tcheck) s
 table=opt
 ----------------------------------------------------------------------
 -----
 title
 -----
 Symbolic Z-matrix:
 Charge =  0 Multiplicity = 2

 SCF Done:  E(UHF) =  -817.515873245     A.U. after   18 cycles
 Normal termination of Gaussian 16 at Wed Apr  9 00:16:40 2025.
 Gaussian 16:  ES64L-G16RevC.01  3-Jul-2019

 ----------------------------------------------------------------------
 #t hf aug-cc-pvdz iop(5/13=1,5/36=2,99/5=2) pseudo=read geom=check gue
 ss=(read,tcheck) scf=(maxcycle=1)
 ----------------------------------------------------------------------
 -----
 title
 -----
 Structure from the checkpoint file:  "BDE49_nonexpt_2536_mol2.chk"
 Charge =  0 Multiplicity = 2

                         Standard orientation:
 ---------------------------------------------------------------------
 Center     Atomic      Atomic             Coordinates (Angstroms)
 Number     Number       Type             X           Y           Z
 ---------------------------------------------------------------------
      1         16           0       -0.169679   -1.646501   -0.000000
      2         15           0        0.430411    0.242808    0.000000
      3          6           0       -0.169679    1.198665    1.456034
      4          6           0       -0.169679    1.198665   -1.456034
      5          1           0        0.141082    0.683864    2.365157
      6          1           0       -1.259907    1.274450    1.442453
      7          1           0        0.266251    2.200644    1.441883
      8          1           0        0.141082    0.683864   -2.365157
      9          1           0        0.266251    2.200644   -1.441883
     10          1           0       -1.259907    1.274450   -1.442453
 ---------------------------------------------------------------------

 SCF Done:  E(UHF) =  -817.710259492     A.U. after    2 cycles

 The electronic state is 2-A'.
 Alpha  occ. eigenvalues --  -93.92907 -84.32823 -11.26080 -11.26075  -8.21119
 Alpha  occ. eigenvalues --   -6.79746  -6.19616  -6.18654  -6.18380  -4.31962
 Alpha  occ. eigenvalues --   -4.31875  -4.31754  -1.06874  -0.96893  -0.96685
 Alpha  occ. eigenvalues --   -0.73824  -0.61700  -0.61145  -0.59129  -0.58642
 Alpha  occ. eigenvalues --   -0.50158  -0.48514  -0.42721  -0.36686  -0.32178
 Alpha virt. eigenvalues --    0.03189   0.04237   0.04695   0.05619   0.07080
 Alpha virt. eigenvalues --    0.07212   0.08438   0.08721   0.12413   0.12568
 Alpha virt. eigenvalues --    0.14309   0.15002   0.15167   0.16369   0.16428

  Beta  occ. eigenvalues --  -93.92372 -84.32455 -11.25957 -11.25953  -8.20509
  Beta  occ. eigenvalues --   -6.79239  -6.18434  -6.18030  -6.17194  -4.31673
  Beta  occ. eigenvalues --   -4.31663  -4.30215  -1.05092  -0.96486  -0.93615
  Beta  occ. eigenvalues --   -0.69766  -0.60906  -0.60839  -0.58965  -0.58236
  Beta  occ. eigenvalues --   -0.49357  -0.46112  -0.35381  -0.33953
  Beta virt. eigenvalues --    0.01137   0.03935   0.04273   0.04921   0.05655
  Beta virt. eigenvalues --    0.07085   0.07223   0.08769   0.08904   0.12695
  Beta virt. eigenvalues --    0.13154   0.14475   0.15188   0.15265   0.16468

 Mulliken charges and spin densities:
               1          2
     1  S   -0.705198   0.598991
     2  P    1.633657   0.320213
     3  C   -0.912856   0.038511
     4  C   -0.912856   0.038511
     5  H    0.140618  -0.007261
     6  H    0.170240   0.018402
     7  H    0.137768  -0.009255
     8  H    0.140618  -0.007261
     9  H    0.137768  -0.009255
    10  H    0.170240   0.018402
 Sum of Mulliken charges =  -0.00000   1.00000

 Dipole moment (field-independent basis, Debye):
    X=              0.0015    Y=              4.1744    Z=              0.0000  Tot=              4.1744
                          Isotropic Fermi Contact Couplings
        Atom                 a.u.       MegaHertz       Gauss      10(-4) cm-1
     1  S(33)              0.11479      39.42570      14.06807      13.15100
     2  P(31)              0.37657     682.00145     243.35508     227.49120
     3  C(13)              0.02797      31.44836      11.22156      10.49004
     4  C(13)              0.02797      31.44836      11.22156      10.49004
     5  H(1)              -0.00080      -3.56824      -1.27324      -1.19024
     6  H(1)               0.00612      27.36000       9.76273       9.12631
     7  H(1)              -0.00065      -2.89428      -1.03275      -0.96543
     8  H(1)              -0.00080      -3.56824      -1.27324      -1.19024

 Normal termination of Gaussian 16 at Wed Apr  9 00:16:43 2025.
