 Gaussian 16, Revision C.01,

 ----------------------------------------------------------------------
 #t hf aug-cc-pvdz symm=none int=(grid=ultrafine) guess=(read,tcheck) s
 table=(opt,rrhf)
 ----------------------------------------------------------------------
 -----
 title
 -----
 Symbolic Z-matrix:
 Charge =  0 Multiplicity = 1

 SCF Done:  E(RHF) =  -764.355651124     A.U. after   14 cycles
 Normal termination of Gaussian 16 at Wed Apr  9 00:23:36 2025.
 Gaussian 16:  ES64L-G16RevC.01  3-Jul-2019

 ----------------------------------------------------------------------
 #t hf aug-cc-pvdz iop(5/13=1,5/36=2,99/5=2) pseudo=read geom=check gue
 ss=(read,tcheck) scf=(maxcycle=1)
 ----------------------------------------------------------------------
 -----
 title
 -----
 Structure from the checkpoint file:  "BDE49_nonexpt_2680_mol1.chk"
 Charge =  0 Multiplicity = 1

                         Standard orientation:
 ---------------------------------------------------------------------
 Center     Atomic      Atomic             Coordinates (Angstroms)
 Number     Number       Type             X           Y           Z
 ---------------------------------------------------------------------
      1          9           0       -2.335337   -0.257420    0.468224
      2         16           0       -1.083364   -0.962541   -0.394609
      3          6           0        0.329230   -0.122576    0.442926
      4          8           0        0.199651    1.233641    0.639542
      5          8           0        1.347214   -0.501669   -0.444025
      6          6           0       -0.108800    2.031757   -0.513099
      7          1           0        0.095659    3.060388   -0.220504
      8          1           0       -1.163483    1.926430   -0.775381
      9          1           0        0.518096    1.755689   -1.363027
     10          6           0        2.636436   -0.631262    0.162386
     11          1           0        3.333467   -0.864526   -0.640829
     12          1           0        2.643688   -1.444131    0.897069
     13          1           0        2.932680    0.304572    0.644910
     14          1           0        0.475642   -0.544279    1.440066
 ---------------------------------------------------------------------

 SCF Done:  E(RHF) =  -764.778180425     A.U. after    2 cycles

 The electronic state is 1-A.
 Alpha  occ. eigenvalues --  -94.02860 -26.46215 -20.58236 -20.57320 -11.39274
 Alpha  occ. eigenvalues --  -11.30621 -11.28953  -8.30190  -6.27979  -6.27652
 Alpha  occ. eigenvalues --   -6.27381  -1.56154  -1.53092  -1.46496  -1.05234
 Alpha  occ. eigenvalues --   -0.96778  -0.94902  -0.83738  -0.72882  -0.71289
 Alpha  occ. eigenvalues --   -0.70407  -0.64901  -0.64134  -0.62928  -0.61958
 Alpha  occ. eigenvalues --   -0.60361  -0.58569  -0.54401  -0.53548  -0.48340
 Alpha  occ. eigenvalues --   -0.46196  -0.43530  -0.38415
 Alpha virt. eigenvalues --    0.03249   0.04119   0.04375   0.05362   0.06658
 Alpha virt. eigenvalues --    0.06756   0.07161   0.08460   0.09200   0.11557
 Alpha virt. eigenvalues --    0.12660   0.13933   0.14444   0.15310   0.15529

 Mulliken charges:
               1
     1  F   -0.689440
     2  S    0.884020
     3  C    1.248679
     4  O   -1.355632
     5  O   -1.188604
     6  C    0.118244
     7  H    0.002708
     8  H    0.183121
     9  H    0.182445
    10  C    0.169711
    11  H    0.006138
    12  H    0.137250
    13  H    0.199277
    14  H    0.102083
 Sum of Mulliken charges =  -0.00000

 Dipole moment (field-independent basis, Debye):
    X=              3.0418    Y=              0.3658    Z=             -0.0762  Tot=              3.0647

 Test job not archived.
 1\1\GINC-SE127\SP\RHF\Aug-CC-pVDZ\C3H7F1O2S1\OHZDE\09-Apr-2025\0\\#t h
 f aug-cc-pvdz iop(5/13=1,5/36=2,99/5=2) pseudo=read geom=check guess=(
 read,tcheck) scf=(maxcycle=1)\\title\\0,1\F,0,-2.335337,-0.257421,0.46
 8224\S,0,-1.083364,-0.962541,-0.394609\C,0,0.32923,-0.122576,0.442926\
 O,0,0.199651,1.233641,0.639542\O,0,1.347214,-0.501669,-0.444025\C,0,-0
 .108801,2.031757,-0.513099\H,0,0.095658,3.060388,-0.220504\H,0,-1.1634
 83,1.92643,-0.775381\H,0,0.518096,1.755689,-1.363027\C,0,2.636436,-0.6
 31261,0.162386\H,0,3.333467,-0.864525,-0.640829\H,0,2.643688,-1.44413,

 Normal termination of Gaussian 16 at Wed Apr  9 00:23:41 2025.
