 Gaussian 16, Revision C.01,

 ----------------------------------------------------------------------
 #t hf aug-cc-pvdz symm=none int=(grid=ultrafine) guess=(read,tcheck) s
 table=(opt,rrhf)
 ----------------------------------------------------------------------
 -----
 title
 -----
 Symbolic Z-matrix:
 Charge =  0 Multiplicity = 1

 SCF Done:  E(RHF) =  -282.879343930     A.U. after   14 cycles
 Normal termination of Gaussian 16 at Tue Apr  8 22:36:26 2025.
 Gaussian 16:  ES64L-G16RevC.01  3-Jul-2019

 ----------------------------------------------------------------------
 #t hf aug-cc-pvdz iop(5/13=1,5/36=2,99/5=2) pseudo=read geom=check gue
 ss=(read,tcheck) scf=(maxcycle=1)
 ----------------------------------------------------------------------
 -----
 title
 -----
 Structure from the checkpoint file:  "BDE49_expt_1110_mol1.chk"
 Charge =  0 Multiplicity = 1

                         Standard orientation:
 ---------------------------------------------------------------------
 Center     Atomic      Atomic             Coordinates (Angstroms)
 Number     Number       Type             X           Y           Z
 ---------------------------------------------------------------------
      1          6           0        0.640804   -0.794890    0.091927
      2          6           0       -0.695652   -0.038700    0.003948
      3          8           0       -1.754561   -0.598525   -0.074581
      4          8           0       -0.558107    1.293299    0.047838
      5          1           0        0.411527    1.447163    0.094755
      6          7           0        1.778853    0.121942   -0.065620
      7          1           0        0.611794   -1.609421   -0.636820
      8          1           0        0.669998   -1.256193    1.082212
      9          1           0        2.147215    0.103946   -1.009580
     10          1           0        2.537929   -0.095743    0.567461
 ---------------------------------------------------------------------

 SCF Done:  E(RHF) =  -283.165690267     A.U. after    2 cycles

 The electronic state is 1-A.
 Alpha  occ. eigenvalues --  -20.58618 -20.52520 -15.53435 -11.38572 -11.30101
 Alpha  occ. eigenvalues --   -1.53444  -1.44763  -1.22309  -0.98844  -0.81427
 Alpha  occ. eigenvalues --   -0.75629  -0.73002  -0.70103  -0.63793  -0.63211
 Alpha  occ. eigenvalues --   -0.56557  -0.56043  -0.50139  -0.46012  -0.42831
 Alpha virt. eigenvalues --    0.01937   0.04300   0.04791   0.05782   0.06748
 Alpha virt. eigenvalues --    0.09376   0.10814   0.11362   0.11870   0.14130
 Alpha virt. eigenvalues --    0.16113   0.16580   0.17101   0.17613   0.18758

 Mulliken charges:
               1
     1  C   -0.886484
     2  C    1.992312
     3  O   -1.243877
     4  O   -1.236192
     5  H    0.493659
     6  N    0.018411
     7  H    0.196204
     8  H    0.219212
     9  H    0.228345
    10  H    0.218410
 Sum of Mulliken charges =  -0.00000

 Dipole moment (field-independent basis, Debye):
    X=              5.6778    Y=             -0.8411    Z=              0.0182  Tot=              5.7398

 Test job not archived.
 1\1\GINC-SE126\SP\RHF\Aug-CC-pVDZ\C2H5N1O2\OHZDE\08-Apr-2025\0\\#t hf
 aug-cc-pvdz iop(5/13=1,5/36=2,99/5=2) pseudo=read geom=check guess=(re
 ad,tcheck) scf=(maxcycle=1)\\title\\0,1\C,0,0.640804,-0.79489,0.091927
 \C,0,-0.695652,-0.0387,0.003948\O,0,-1.754561,-0.598525,-0.074581\O,0,
 -0.558107,1.293299,0.047838\H,0,0.411527,1.447163,0.094755\N,0,1.77885
 3,0.121942,-0.06562\H,0,0.611794,-1.609421,-0.63682\H,0,0.669998,-1.25
 6193,1.082212\H,0,2.147215,0.103946,-1.00958\H,0,2.537929,-0.095743,0.
 567461\\Version=ES64L-G16RevC.01\State=1-A\HF=-283.1656903\RMSD=1.309e

 Normal termination of Gaussian 16 at Tue Apr  8 22:36:29 2025.
