 Gaussian 16, Revision C.01,

 ----------------------------------------------------------------------
 #t hf aug-cc-pvdz symm=none int=(grid=ultrafine) guess=(read,tcheck) s
 table=(opt,rrhf)
 ----------------------------------------------------------------------
 -----
 title
 -----
 Symbolic Z-matrix:
 Charge =  0 Multiplicity = 1

 SCF Done:  E(RHF) =  -800.244489938     A.U. after   13 cycles
 Normal termination of Gaussian 16 at Tue Apr  8 22:37:15 2025.
 Gaussian 16:  ES64L-G16RevC.01  3-Jul-2019

 ----------------------------------------------------------------------
 #t hf aug-cc-pvdz iop(5/13=1,5/36=2,99/5=2) pseudo=read geom=check gue
 ss=(read,tcheck) scf=(maxcycle=1)
 ----------------------------------------------------------------------
 -----
 title
 -----
 Structure from the checkpoint file:  "BDE49_expt_1131_mol1.chk"
 Charge =  0 Multiplicity = 1

                         Standard orientation:
 ---------------------------------------------------------------------
 Center     Atomic      Atomic             Coordinates (Angstroms)
 Number     Number       Type             X           Y           Z
 ---------------------------------------------------------------------
      1          6           0       -1.138215    0.475473   -0.158429
      2          8           0       -1.665057    1.243970   -0.908730
      3          8           0       -1.684197   -0.600398    0.400876
      4          6           0        0.332717    0.623924    0.310432
      5          6           0       -3.065646   -0.856482    0.055374
      6          1           0       -3.324690   -1.773786    0.576421
      7          1           0       -3.164352   -0.978375   -1.023357
      8          1           0       -3.691971   -0.028864    0.388725
      9          6           0        1.268642   -0.505291   -0.195070
     10          9           0        0.384423    0.636996    1.667629
     11          9           0        0.814600    1.793727   -0.150635
     12          9           0        2.545196   -0.190883    0.041568
     13          9           0        0.995924   -1.664345    0.410362
     14          9           0        1.103197   -0.663638   -1.519236
 ---------------------------------------------------------------------

 SCF Done:  E(RHF) =  -800.988991459     A.U. after    2 cycles

 The electronic state is 1-A.
 Alpha  occ. eigenvalues --  -26.53675 -26.53440 -26.53358 -26.52550 -26.52144
 Alpha  occ. eigenvalues --  -20.63116 -20.58250 -11.55725 -11.48722 -11.43841
 Alpha  occ. eigenvalues --  -11.32602  -1.74774  -1.69259  -1.64616  -1.64397
 Alpha  occ. eigenvalues --   -1.62431  -1.58703  -1.49981  -1.10021  -1.01856
 Alpha  occ. eigenvalues --   -0.95107  -0.88637  -0.85264  -0.84581  -0.82790
 Alpha  occ. eigenvalues --   -0.80124  -0.78672  -0.71993  -0.71623  -0.71195
 Alpha  occ. eigenvalues --   -0.71074  -0.70806  -0.68418  -0.67950  -0.66292
 Alpha  occ. eigenvalues --   -0.66191  -0.64732  -0.64164  -0.62063  -0.59072
 Alpha  occ. eigenvalues --   -0.58140  -0.55633  -0.49227  -0.48627
 Alpha virt. eigenvalues --    0.03063   0.05058   0.05189   0.07288   0.08167
 Alpha virt. eigenvalues --    0.08772   0.10067   0.11388   0.11985   0.12209
 Alpha virt. eigenvalues --    0.13344   0.13732   0.14404   0.14785   0.15873

 Mulliken charges:
               1
     1  C    1.466561
     2  O   -1.166602
     3  O   -1.243897
     4  C    2.000139
     5  C    0.197251
     6  H    0.027956
     7  H    0.177015
     8  H    0.175557
     9  C    2.328235
    10  F   -0.840668
    11  F   -0.882587
    12  F   -0.740215
    13  F   -0.733341
    14  F   -0.765404
 Sum of Mulliken charges =  -0.00000

 Dipole moment (field-independent basis, Debye):
    X=             -2.3856    Y=             -1.9203    Z=              0.5614  Tot=              3.1135

 Test job not archived.
 1\1\GINC-SE250\SP\RHF\Aug-CC-pVDZ\C4H3F5O2\OHZDE\08-Apr-2025\0\\#t hf
 aug-cc-pvdz iop(5/13=1,5/36=2,99/5=2) pseudo=read geom=check guess=(re
 ad,tcheck) scf=(maxcycle=1)\\title\\0,1\C,0,-1.138215,0.475473,-0.1584
 29\O,0,-1.665057,1.24397,-0.90873\O,0,-1.684197,-0.600398,0.400876\C,0
 ,0.332717,0.623924,0.310432\C,0,-3.065646,-0.856482,0.055374\H,0,-3.32
 469,-1.773786,0.576421\H,0,-3.164352,-0.978375,-1.023357\H,0,-3.691971
 ,-0.028864,0.388725\C,0,1.268642,-0.505291,-0.19507\F,0,0.384423,0.636
 996,1.667629\F,0,0.8146,1.793727,-0.150635\F,0,2.545196,-0.190883,0.04

 Normal termination of Gaussian 16 at Tue Apr  8 22:37:21 2025.
