 Gaussian 16, Revision C.01,

 ----------------------------------------------------------------------
 #t hf aug-cc-pvdz symm=none int=(grid=ultrafine) guess=(read,tcheck) s
 table=(opt,rrhf)
 ----------------------------------------------------------------------
 -----
 title
 -----
 Symbolic Z-matrix:
 Charge =  0 Multiplicity = 1

 SCF Done:  E(RHF) =  -844.962260561     A.U. after   13 cycles
 Normal termination of Gaussian 16 at Wed Apr  9 00:16:11 2025.
 Gaussian 16:  ES64L-G16RevC.01  3-Jul-2019

 ----------------------------------------------------------------------
 #t hf aug-cc-pvdz iop(5/13=1,5/36=2,99/5=2) pseudo=read geom=check gue
 ss=(read,tcheck) scf=(maxcycle=1)
 ----------------------------------------------------------------------
 -----
 title
 -----
 Structure from the checkpoint file:  "BDE49_nonexpt_2522_mol1.chk"
 Charge =  0 Multiplicity = 1

                         Standard orientation:
 ---------------------------------------------------------------------
 Center     Atomic      Atomic             Coordinates (Angstroms)
 Number     Number       Type             X           Y           Z
 ---------------------------------------------------------------------
      1         16           0       -0.466422   -1.025978    0.000003
      2          6           0        1.036540    0.122305    0.000004
      3          6           0        2.236537   -0.836476   -0.000213
      4          1           0        3.165797   -0.257547   -0.000337
      5          1           0        2.233831   -1.476198   -0.885682
      6          1           0        2.234097   -1.476245    0.885224
      7          6           0        1.052185    0.987715   -1.264303
      8          1           0        0.208002    1.680115   -1.295953
      9          1           0        1.019239    0.371022   -2.164473
     10          1           0        1.970924    1.584446   -1.289703
     11         14           0       -2.208097    0.236239    0.000009
     12          6           0        1.052422    0.987422    1.264495
     13          1           0        1.019606    0.370541    2.164541
     14          1           0        0.208268    1.679842    1.296434
     15          1           0        1.971186    1.584117    1.289876
     16          1           0       -3.332455   -0.723536   -0.000067
     17          1           0       -2.294209    1.103021   -1.198499
     18          1           0       -2.294273    1.102934    1.198575
 ---------------------------------------------------------------------

 SCF Done:  E(RHF) =  -845.234427954     A.U. after    2 cycles

 The electronic state is 1-A.
 Alpha  occ. eigenvalues --  -93.92677 -69.55039 -11.29013 -11.23564 -11.23550
 Alpha  occ. eigenvalues --  -11.23475  -8.20959  -6.21893  -6.18752  -6.18601
 Alpha  occ. eigenvalues --   -6.18428  -3.97301  -3.97231  -3.97197  -1.12211
 Alpha  occ. eigenvalues --   -0.96357  -0.94816  -0.94739  -0.76831  -0.71349
 Alpha  occ. eigenvalues --   -0.62851  -0.62099  -0.61834  -0.56291  -0.56071
 Alpha  occ. eigenvalues --   -0.53343  -0.50765  -0.49913  -0.49489  -0.49478
 Alpha  occ. eigenvalues --   -0.45035  -0.41631  -0.35885
 Alpha virt. eigenvalues --    0.03496   0.03715   0.04187   0.04235   0.05682
 Alpha virt. eigenvalues --    0.06293   0.06312   0.06780   0.07011   0.08567
 Alpha virt. eigenvalues --    0.09244   0.09733   0.10267   0.11048   0.11681

 Mulliken charges:
               1
     1  S   -0.421864
     2  C   -1.537740
     3  C    0.097942
     4  H    0.215633
     5  H    0.182243
     6  H    0.182285
     7  C   -0.049318
     8  H    0.104321
     9  H    0.170819
    10  H    0.223156
    11  Si   0.869194
    12  C   -0.049382
    13  H    0.170794
    14  H    0.104361
    15  H    0.223189
    16  H   -0.199706
    17  H   -0.142966
    18  H   -0.142960
 Sum of Mulliken charges =  -0.00000

 Dipole moment (field-independent basis, Debye):
    X=              1.1081    Y=              1.6035    Z=             -0.0000  Tot=              1.9492

 Test job not archived.
 1\1\GINC-SE333\SP\RHF\Aug-CC-pVDZ\C4H12S1Si1\OHZDE\09-Apr-2025\0\\#t h
 f aug-cc-pvdz iop(5/13=1,5/36=2,99/5=2) pseudo=read geom=check guess=(
 read,tcheck) scf=(maxcycle=1)\\title\\0,1\S,0,0.466422,-1.025978,-0.00
 0003\C,0,-1.03654,0.122305,-0.000004\C,0,-2.236537,-0.836476,0.000213\
 H,0,-3.165797,-0.257547,0.000337\H,0,-2.233831,-1.476198,0.885682\H,0,
 -2.234097,-1.476245,-0.885224\C,0,-1.052185,0.987715,1.264303\H,0,-0.2
 08002,1.680115,1.295953\H,0,-1.019239,0.371022,2.164473\H,0,-1.970924,
 1.584446,1.289703\Si,0,2.208097,0.236239,-0.000009\C,0,-1.052422,0.987

 Normal termination of Gaussian 16 at Wed Apr  9 00:16:17 2025.
