 Gaussian 16, Revision C.01,

 ----------------------------------------------------------------------
 #t hf aug-cc-pvdz symm=none int=(grid=ultrafine) guess=(read,tcheck) s
 table=(opt,rrhf)
 ----------------------------------------------------------------------
 -----
 title
 -----
 Symbolic Z-matrix:
 Charge =  0 Multiplicity = 1

 SCF Done:  E(RHF) =  -529.459524779     A.U. after   14 cycles
 Normal termination of Gaussian 16 at Tue Apr  8 22:46:39 2025.
 Gaussian 16:  ES64L-G16RevC.01  3-Jul-2019

 ----------------------------------------------------------------------
 #t hf aug-cc-pvdz iop(5/13=1,5/36=2,99/5=2) pseudo=read geom=check gue
 ss=(read,tcheck) scf=(maxcycle=1)
 ----------------------------------------------------------------------
 -----
 title
 -----
 Structure from the checkpoint file:  "BDE49_expt_1605_mol1.chk"
 Charge =  0 Multiplicity = 1

                         Standard orientation:
 ---------------------------------------------------------------------
 Center     Atomic      Atomic             Coordinates (Angstroms)
 Number     Number       Type             X           Y           Z
 ---------------------------------------------------------------------
      1          6           0        1.500691    0.807160   -0.000000
      2         16           0        0.460113   -0.705232   -0.000003
      3          1           0        1.315361    1.393031    0.897716
      4          1           0        1.315351    1.393067   -0.897691
      5          1           0        2.528766    0.443832   -0.000018
      6          6           0       -1.080370    0.005785    0.000085
      7          7           0       -2.149029    0.453731   -0.000066
 ---------------------------------------------------------------------

 SCF Done:  E(RHF) =  -529.649815872     A.U. after    2 cycles

 The electronic state is 1-A.
 Alpha  occ. eigenvalues --  -94.01491 -15.52593 -11.30699 -11.30581  -8.29507
 Alpha  occ. eigenvalues --   -6.27363  -6.27130  -6.26907  -1.24374  -1.12453
 Alpha  occ. eigenvalues --   -0.95389  -0.70078  -0.63905  -0.62695  -0.60045
 Alpha  occ. eigenvalues --   -0.55371  -0.54675  -0.48234  -0.40212
 Alpha virt. eigenvalues --    0.02537   0.04688   0.04926   0.06161   0.08877
 Alpha virt. eigenvalues --    0.10149   0.11660   0.11921   0.12992   0.13314
 Alpha virt. eigenvalues --    0.15863   0.16056   0.16268   0.16740   0.17476

 Mulliken charges:
               1
     1  C   -0.638903
     2  S    0.717841
     3  H    0.238261
     4  H    0.238266
     5  H    0.162944
     6  C   -1.352189
     7  N    0.633779
 Sum of Mulliken charges =  -0.00000

 Dipole moment (field-independent basis, Debye):
    X=              5.0678    Y=              0.1128    Z=              0.0002  Tot=              5.0691

 Test job not archived.
 1\1\GINC-SE029\SP\RHF\Aug-CC-pVDZ\C2H3N1S1\OHZDE\08-Apr-2025\0\\#t hf
 aug-cc-pvdz iop(5/13=1,5/36=2,99/5=2) pseudo=read geom=check guess=(re
 ad,tcheck) scf=(maxcycle=1)\\title\\0,1\C,0,-1.500691,0.80716,0.\S,0,-
 0.460113,-0.705232,0.000003\H,0,-1.315361,1.393031,-0.897716\H,0,-1.31
 5351,1.393067,0.897691\H,0,-2.528766,0.443832,0.000018\C,0,1.08037,0.0
 05785,-0.000085\N,0,2.149029,0.453731,0.000066\\Version=ES64L-G16RevC.
 01\State=1-A\HF=-529.6498159\RMSD=1.227e-02\Dipole=-1.9938289,0.044365
 7,-0.0000871\Quadrupole=-2.5961327,1.7685924,0.8275403,-2.9864408,-0.0

 Normal termination of Gaussian 16 at Tue Apr  8 22:46:41 2025.
