 Gaussian 16, Revision C.01,

 ----------------------------------------------------------------------
 #t hf aug-cc-pvdz symm=none int=(grid=ultrafine) guess=(read,tcheck) s
 table=(opt,rrhf)
 ----------------------------------------------------------------------
 -----
 title
 -----
 Symbolic Z-matrix:
 Charge =  0 Multiplicity = 1

 SCF Done:  E(RHF) =  -613.230808931     A.U. after   14 cycles
 Normal termination of Gaussian 16 at Tue Apr  8 23:04:16 2025.
 Gaussian 16:  ES64L-G16RevC.01  3-Jul-2019

 ----------------------------------------------------------------------
 #t hf aug-cc-pvdz iop(5/13=1,5/36=2,99/5=2) pseudo=read geom=check gue
 ss=(read,tcheck) scf=(maxcycle=1)
 ----------------------------------------------------------------------
 -----
 title
 -----
 Structure from the checkpoint file:  "BDE49_expt_187_mol1.chk"
 Charge =  0 Multiplicity = 1

                         Standard orientation:
 ---------------------------------------------------------------------
 Center     Atomic      Atomic             Coordinates (Angstroms)
 Number     Number       Type             X           Y           Z
 ---------------------------------------------------------------------
      1          6           0        2.823755    0.971082    0.279931
      2          6           0        4.008708    0.366956    0.688730
      3          6           0        4.306743   -0.935712    0.288336
      4          6           0        3.408860   -1.631291   -0.516789
      5          6           0        2.218490   -1.026156   -0.918570
      6          6           0        1.916546    0.280752   -0.531038
      7          6           0        0.646106    0.959285   -1.007459
      8          8           0        0.000000    1.733699    0.000000
      9          1           0        3.629478   -2.647005   -0.826130
     10          1           0        1.516400   -1.576307   -1.537511
     11          1           0        2.585640    1.981070    0.594233
     12          1           0       -0.041312    0.214885   -1.428262
     13          1           0        0.880558    1.675721   -1.799915
     14          6           0       -0.646106    0.959285    1.007459
     15          1           0        4.703137    0.912680    1.318185
     16          1           0        5.230961   -1.405340    0.605988
     17          6           0       -1.916546    0.280752    0.531038
     18          1           0       -0.880558    1.675722    1.799915
     19          1           0        0.041312    0.214886    1.428262
     20          6           0       -2.823755    0.971082   -0.279931
     21          6           0       -4.008708    0.366956   -0.688730
     22          6           0       -4.306743   -0.935712   -0.288336
     23          6           0       -3.408860   -1.631291    0.516789
     24          6           0       -2.218490   -1.026156    0.918570
     25          1           0       -1.516399   -1.576307    1.537511
     26          1           0       -5.230961   -1.405340   -0.605988
     27          1           0       -3.629478   -2.647005    0.826131
     28          1           0       -2.585641    1.981070   -0.594233
     29          1           0       -4.703138    0.912680   -1.318185
 ---------------------------------------------------------------------

 SCF Done:  E(RHF) =  -613.862761799     A.U. after    2 cycles

 The electronic state is 1-A.
 Alpha  occ. eigenvalues --  -20.54765 -11.28893 -11.28813 -11.24585 -11.24581
 Alpha  occ. eigenvalues --  -11.24444 -11.24443 -11.24378 -11.24377 -11.24246
 Alpha  occ. eigenvalues --  -11.24246 -11.24218 -11.24218 -11.23894 -11.23894
 Alpha  occ. eigenvalues --   -1.45951  -1.15862  -1.15489  -1.05101  -1.03330
 Alpha  occ. eigenvalues --   -1.01646  -1.01590  -0.95243  -0.89597  -0.83862
 Alpha  occ. eigenvalues --   -0.83446  -0.81862  -0.79478  -0.72062  -0.70501
 Alpha  occ. eigenvalues --   -0.67880  -0.67006  -0.65387  -0.64585  -0.63466
 Alpha  occ. eigenvalues --   -0.61553  -0.61324  -0.59812  -0.59663  -0.57995
 Alpha  occ. eigenvalues --   -0.55597  -0.52346  -0.52230  -0.50719  -0.50281
 Alpha  occ. eigenvalues --   -0.50008  -0.49990  -0.46642  -0.42671  -0.34750
 Alpha  occ. eigenvalues --   -0.34598  -0.34045  -0.34024
 Alpha virt. eigenvalues --    0.03004   0.03126   0.03696   0.03759   0.04221
 Alpha virt. eigenvalues --    0.04520   0.05228   0.05405   0.06236   0.06328
 Alpha virt. eigenvalues --    0.08077   0.08250   0.08895   0.09363   0.09860

 Mulliken charges:
               1
     1  C    0.143502
     2  C   -0.056801
     3  C    0.232178
     4  C    0.069265
     5  C    0.415974
     6  C    1.075499
     7  C   -0.018022
     8  O   -1.437558
     9  H   -0.249276
    10  H   -0.326475
    11  H   -0.333391
    12  H    0.134487
    13  H    0.093577
    14  C   -0.018022
    15  H   -0.240464
    16  H   -0.221275
    17  C    1.075501
    18  H    0.093579
    19  H    0.134484
    20  C    0.143507
    21  C   -0.056807
    22  C    0.232180
    23  C    0.069266
    24  C    0.415969
    25  H   -0.326473
    26  H   -0.221275
    27  H   -0.249275
    28  H   -0.333392
    29  H   -0.240463
 Sum of Mulliken charges =  -0.00000

 Dipole moment (field-independent basis, Debye):
    X=             -0.0000    Y=             -1.0929    Z=              0.0000  Tot=              1.0929

 Test job not archived.
 1\1\GINC-SE100\SP\RHF\Aug-CC-pVDZ\C14H14O1\OHZDE\08-Apr-2025\0\\#t hf
 aug-cc-pvdz iop(5/13=1,5/36=2,99/5=2) pseudo=read geom=check guess=(re
 ad,tcheck) scf=(maxcycle=1)\\title\\0,1\C,0,2.823755,0.971082,0.279931
 \C,0,4.008708,0.366956,0.68873\C,0,4.306743,-0.935712,0.288336\C,0,3.4
 0886,-1.631291,-0.516789\C,0,2.21849,-1.026156,-0.91857\C,0,1.916546,0
 .280752,-0.531038\C,0,0.646106,0.959285,-1.007459\O,0,0.,1.733699,0.\H
 ,0,3.629478,-2.647005,-0.82613\H,0,1.5164,-1.576307,-1.537511\H,0,2.58
 564,1.98107,0.594233\H,0,-0.041312,0.214885,-1.428262\H,0,0.880558,1.6

 Normal termination of Gaussian 16 at Tue Apr  8 23:04:49 2025.
