 Gaussian 16, Revision C.01,

 ----------------------------------------------------------------------
 #t hf aug-cc-pvdz symm=none int=(grid=ultrafine) guess=(read,tcheck) s
 table=opt
 ----------------------------------------------------------------------
 -----
 title
 -----
 Symbolic Z-matrix:
 Charge =  0 Multiplicity = 2

 SCF Done:  E(UHF) =  -647.069611498     a.u. after   12 cycles

 1\1\GINC-SE218\Stability\UHF\Aug-CC-pVDZ\C1Cl1O2\OHZDE\08-Apr-2025\0\\
 #t hf aug-cc-pvdz symm=none int=(grid=ultrafine) guess=(read,tcheck) s
 table=opt\\title\\0,2\O,0,-1.123193,-1.076847,0.000056\C,0,-0.52322,-0
 .000002,-0.000043\O,0,-1.123185,1.076851,0.000056\Cl,0,1.241785,-0.000
 001,-0.000038\\Version=ES64L-G16RevC.01\HF=-647.0696115\S2=0.762304\S2
 -1=0.\S2A=0.750122\RMSD=6.568e-09\Dipole=0.4847029,-0.7462251,-0.00008
 87\Quadrupole=0.3510605,-1.4388306,1.0877701,1.7738073,0.0002001,-0.00
 00324\PG=Unknown\\@

 Normal termination of Gaussian 16 at Tue Apr  8 23:17:53 2025.
 Gaussian 16:  ES64L-G16RevC.01  3-Jul-2019

 ----------------------------------------------------------------------
 #t hf aug-cc-pvdz iop(5/13=1,5/36=2,99/5=2) pseudo=read geom=check gue
 ss=(read,tcheck) scf=(maxcycle=1)
 ----------------------------------------------------------------------
 -----
 title
 -----
 Structure from the checkpoint file:  "BDE49_nonexpt_1047_mol2.chk"
 Charge =  0 Multiplicity = 2

                         Standard orientation:
 ---------------------------------------------------------------------
 Center     Atomic      Atomic             Coordinates (Angstroms)
 Number     Number       Type             X           Y           Z
 ---------------------------------------------------------------------
      1          8           0       -1.123194   -1.076846    0.000056
      2          6           0       -0.523220   -0.000002   -0.000043
      3          8           0       -1.123184    1.076852    0.000056
      4         17           0        1.241785   -0.000002   -0.000038
 ---------------------------------------------------------------------

 SCF Done:  E(UHF) =  -647.316061564     A.U. after    2 cycles

 The electronic state is 2-A.
 Alpha  occ. eigenvalues -- -105.63174 -20.73997 -20.58458 -11.49001 -10.67975
 Alpha  occ. eigenvalues --   -7.85035  -7.84481  -7.84456  -1.68825  -1.49892
 Alpha  occ. eigenvalues --   -1.14274  -0.87964  -0.82146  -0.74537  -0.74120
 Alpha  occ. eigenvalues --   -0.62657  -0.55383  -0.54454  -0.49935  -0.48827
 Alpha virt. eigenvalues --    0.06179   0.08397   0.09593   0.09963   0.11082
 Alpha virt. eigenvalues --    0.12386   0.14857   0.15336   0.19521   0.21016
 Alpha virt. eigenvalues --    0.21576   0.24302   0.26917   0.28811   0.29861

  Beta  occ. eigenvalues -- -105.63090 -20.69928 -20.58033 -11.49367 -10.67893
  Beta  occ. eigenvalues --   -7.84756  -7.84418  -7.84338  -1.58464  -1.45887
  Beta  occ. eigenvalues --   -1.13201  -0.83900  -0.73492  -0.71793  -0.68202
  Beta  occ. eigenvalues --   -0.53735  -0.52852  -0.49380  -0.47515
  Beta virt. eigenvalues --   -0.01524   0.06479   0.08609   0.09614   0.10122
  Beta virt. eigenvalues --    0.11257   0.12488   0.14911   0.15288   0.19914
  Beta virt. eigenvalues --    0.21704   0.21793   0.25627   0.26977   0.29582

 Mulliken charges and spin densities:
               1          2
     1  O   -0.510147   1.044007
     2  C    1.310638  -0.178036
     3  O   -0.850763   0.073308
     4  Cl   0.050272   0.060721
 Sum of Mulliken charges =  -0.00000   1.00000

 Dipole moment (field-independent basis, Debye):
    X=              1.0864    Y=             -1.8143    Z=             -0.0002  Tot=              2.1147
                          Isotropic Fermi Contact Couplings
        Atom                 a.u.       MegaHertz       Gauss      10(-4) cm-1
     1  O(17)              0.24845    -150.61065     -53.74162     -50.23830
     2  C(13)             -0.06026     -67.74067     -24.17156     -22.59586
     3  O(17)              0.02525     -15.30474      -5.46111      -5.10511
     4  Cl(35)            -0.00727      -3.18577      -1.13676      -1.06266
 --------------------------------------------------------
       Center         ----  Spin Dipole Couplings  ----
                      3XX-RR        3YY-RR        3ZZ-RR
 --------------------------------------------------------

 Normal termination of Gaussian 16 at Tue Apr  8 23:17:54 2025.
