 Gaussian 16, Revision C.01,

 ----------------------------------------------------------------------
 #t hf aug-cc-pvdz symm=none int=(grid=ultrafine) guess=(read,tcheck) s
 table=(opt,rrhf)
 ----------------------------------------------------------------------
 -----
 title
 -----
 Symbolic Z-matrix:
 Charge =  0 Multiplicity = 1

 SCF Done:  E(RHF) =  -803.483796957     A.U. after   16 cycles
 Normal termination of Gaussian 16 at Tue Apr  8 23:19:49 2025.
 Gaussian 16:  ES64L-G16RevC.01  3-Jul-2019

 ----------------------------------------------------------------------
 #t hf aug-cc-pvdz iop(5/13=1,5/36=2,99/5=2) pseudo=read geom=check gue
 ss=(read,tcheck) scf=(maxcycle=1)
 ----------------------------------------------------------------------
 -----
 title
 -----
 Structure from the checkpoint file:  "BDE49_nonexpt_1093_mol1.chk"
 Charge =  0 Multiplicity = 1

                         Standard orientation:
 ---------------------------------------------------------------------
 Center     Atomic      Atomic             Coordinates (Angstroms)
 Number     Number       Type             X           Y           Z
 ---------------------------------------------------------------------
      1          6           0        0.762330   -0.990685    0.586940
      2          6           0        2.019528   -1.343584    0.108775
      3          6           0        2.855436   -0.374693   -0.446969
      4          6           0        2.424052    0.946410   -0.529620
      5          6           0        1.159886    1.296860   -0.058837
      6          6           0       -1.026644    0.722906    1.057321
      7          6           0        0.322733    0.334587    0.507617
      8          8           0       -2.079345   -0.205973    0.772936
      9         17           0       -2.489029   -0.211196   -0.922719
     10          1           0       -1.309117    1.731313    0.739639
     11          1           0       -1.025346    0.697024    2.154242
     12          1           0        0.106675   -1.742860    1.010989
     13          1           0        2.349658   -2.374514    0.169724
     14          1           0        3.836143   -0.650798   -0.817608
     15          1           0        3.065599    1.702220   -0.968433
     16          1           0        0.820717    2.324941   -0.137179
 ---------------------------------------------------------------------

 SCF Done:  E(RHF) =  -803.908816208     A.U. after    2 cycles

 The electronic state is 1-A.
 Alpha  occ. eigenvalues -- -105.61250 -20.62818 -11.31437 -11.25533 -11.25122
 Alpha  occ. eigenvalues --  -11.25005 -11.24940 -11.24873 -11.24735 -10.65482
 Alpha  occ. eigenvalues --   -7.82459  -7.81941  -7.81916  -1.47916  -1.16485
 Alpha  occ. eigenvalues --   -1.06161  -1.02489  -1.02060  -0.92412  -0.84476
 Alpha  occ. eigenvalues --   -0.81687  -0.72429  -0.68290  -0.66566  -0.65577
 Alpha  occ. eigenvalues --   -0.62726  -0.62561  -0.60485  -0.55547  -0.53645
 Alpha  occ. eigenvalues --   -0.51277  -0.50822  -0.50225  -0.46568  -0.43479
 Alpha  occ. eigenvalues --   -0.35303  -0.34851
 Alpha virt. eigenvalues --    0.03295   0.03559   0.03900   0.04880   0.05171
 Alpha virt. eigenvalues --    0.06487   0.06710   0.07801   0.09491   0.10028
 Alpha virt. eigenvalues --    0.10647   0.11308   0.11988   0.12853   0.13783

 Mulliken charges:
               1
     1  C   -0.030707
     2  C    0.149334
     3  C    0.061208
     4  C    0.104501
     5  C    0.291595
     6  C    0.191170
     7  C    1.162160
     8  O   -1.064932
     9  Cl   0.227587
    10  H   -0.003618
    11  H    0.140154
    12  H   -0.279055
    13  H   -0.228179
    14  H   -0.213957
    15  H   -0.232496
    16  H   -0.274764
 Sum of Mulliken charges =  -0.00000

 Dipole moment (field-independent basis, Debye):
    X=              1.6970    Y=              0.9580    Z=              0.5539  Tot=              2.0259

 Test job not archived.
 1\1\GINC-SE069\SP\RHF\Aug-CC-pVDZ\C7H7Cl1O1\OHZDE\08-Apr-2025\0\\#t hf
  aug-cc-pvdz iop(5/13=1,5/36=2,99/5=2) pseudo=read geom=check guess=(r
 ead,tcheck) scf=(maxcycle=1)\\title\\0,1\C,0,-0.76233,0.990685,0.58694
 \C,0,-2.019528,1.343584,0.108775\C,0,-2.855436,0.374693,-0.446969\C,0,
 -2.424052,-0.94641,-0.52962\C,0,-1.159886,-1.29686,-0.058837\C,0,1.026
 644,-0.722906,1.057321\C,0,-0.322733,-0.334587,0.507617\O,0,2.079345,0
 .205973,0.772936\Cl,0,2.489029,0.211196,-0.922719\H,0,1.309117,-1.7313
 13,0.739639\H,0,1.025346,-0.697024,2.154242\H,0,-0.106675,1.74286,1.01

 Normal termination of Gaussian 16 at Tue Apr  8 23:19:57 2025.
