 Gaussian 16, Revision C.01,

 ----------------------------------------------------------------------
 #t hf aug-cc-pvdz symm=none int=(grid=ultrafine) guess=(read,tcheck) s
 table=(opt,rrhf)
 ----------------------------------------------------------------------
 -----
 title
 -----
 Symbolic Z-matrix:
 Charge =  0 Multiplicity = 1

 SCF Done:  E(RHF) =  -637.972450916     A.U. after   14 cycles
 Normal termination of Gaussian 16 at Tue Apr  8 23:08:48 2025.
 Gaussian 16:  ES64L-G16RevC.01  3-Jul-2019

 ----------------------------------------------------------------------
 #t hf aug-cc-pvdz iop(5/13=1,5/36=2,99/5=2) pseudo=read geom=check gue
 ss=(read,tcheck) scf=(maxcycle=1)
 ----------------------------------------------------------------------
 -----
 title
 -----
 Structure from the checkpoint file:  "BDE49_expt_398_mol1.chk"
 Charge =  0 Multiplicity = 1

                         Standard orientation:
 ---------------------------------------------------------------------
 Center     Atomic      Atomic             Coordinates (Angstroms)
 Number     Number       Type             X           Y           Z
 ---------------------------------------------------------------------
      1          6           0        0.425416    0.020327   -0.000000
      2         14           0       -1.465438    0.005060   -0.000002
      3          6           0       -2.079338   -0.897567   -1.537071
      4          1           0       -1.752325   -0.389999   -2.449234
      5          1           0       -3.172835   -0.947314   -1.553120
      6          1           0       -1.700721   -1.923333   -1.576711
      7          6           0       -2.079342   -0.897481    1.537116
      8          1           0       -1.700723   -1.923245    1.576815
      9          1           0       -3.172839   -0.947229    1.553163
     10          1           0       -1.752334   -0.389862    2.449251
     11          6           0       -2.125689    1.769082   -0.000053
     12          1           0       -1.801585    2.324814   -0.884935
     13          1           0       -1.801588    2.324863    0.884800
     14          1           0       -3.220190    1.761520   -0.000054
     15          6           0        1.145159   -1.187262    0.000036
     16          6           0        1.167042    1.211973   -0.000033
     17          6           0        2.537344   -1.206121    0.000038
     18          6           0        3.250195   -0.008174    0.000005
     19          6           0        2.561573    1.201805   -0.000031
     20          1           0        3.109141    2.138272   -0.000057
     21          1           0        0.653614    2.167889   -0.000061
     22          1           0        3.066556   -2.153060    0.000066
     23          1           0        4.334641   -0.019115    0.000007
     24          1           0        0.613144   -2.134535    0.000062
 ---------------------------------------------------------------------

 SCF Done:  E(RHF) =  -638.378979159     A.U. after    2 cycles

 The electronic state is 1-A.
 Alpha  occ. eigenvalues --  -69.51097 -11.24250 -11.24219 -11.24159 -11.24005
 Alpha  occ. eigenvalues --  -11.23957 -11.22277 -11.20945 -11.20685 -11.20677
 Alpha  occ. eigenvalues --   -6.18090  -3.93444  -3.93429  -3.93418  -1.14765
 Alpha  occ. eigenvalues --   -1.01521  -1.01208  -0.96992  -0.92710  -0.92427
 Alpha  occ. eigenvalues --   -0.82745  -0.82444  -0.71884  -0.65888  -0.63552
 Alpha  occ. eigenvalues --   -0.62355  -0.59574  -0.58271  -0.56756  -0.56306
 Alpha  occ. eigenvalues --   -0.54626  -0.54476  -0.53928  -0.53471  -0.50638
 Alpha  occ. eigenvalues --   -0.50009  -0.44034  -0.44017  -0.43762  -0.34265
 Alpha  occ. eigenvalues --   -0.33969
 Alpha virt. eigenvalues --    0.03105   0.03363   0.03411   0.04198   0.04675
 Alpha virt. eigenvalues --    0.04880   0.06034   0.06468   0.07206   0.07437
 Alpha virt. eigenvalues --    0.07440   0.09216   0.09432   0.09713   0.10158

 Mulliken charges:
               1
     1  C   -1.100491
     2  Si   2.652537
     3  C   -0.506776
     4  H   -0.083523
     5  H   -0.001259
     6  H   -0.021554
     7  C   -0.506775
     8  H   -0.021551
     9  H   -0.001258
    10  H   -0.083528
    11  C   -0.582057
    12  H   -0.018367
    13  H   -0.018364
    14  H   -0.114181
    15  C    0.636945
    16  C    0.412233
    17  C    0.129566
    18  C    0.446190
    19  C    0.256188
    20  H   -0.248437
    21  H   -0.374864
    22  H   -0.235566
    23  H   -0.218963
    24  H   -0.396145
 Sum of Mulliken charges =  -0.00000

 Dipole moment (field-independent basis, Debye):
    X=             -0.0922    Y=              0.0388    Z=              0.0000  Tot=              0.1000

 Test job not archived.
 1\1\GINC-SE273\SP\RHF\Aug-CC-pVDZ\C9H14Si1\OHZDE\08-Apr-2025\0\\#t hf
 aug-cc-pvdz iop(5/13=1,5/36=2,99/5=2) pseudo=read geom=check guess=(re
 ad,tcheck) scf=(maxcycle=1)\\title\\0,1\C,0,0.425416,0.020327,0.\Si,0,
 -1.465438,0.00506,-0.000002\C,0,-2.079338,-0.897567,-1.537071\H,0,-1.7
 52325,-0.389999,-2.449234\H,0,-3.172835,-0.947314,-1.55312\H,0,-1.7007
 21,-1.923333,-1.576711\C,0,-2.079342,-0.897481,1.537116\H,0,-1.700723,
 -1.923245,1.576815\H,0,-3.172839,-0.947229,1.553163\H,0,-1.752334,-0.3
 89862,2.449251\C,0,-2.125689,1.769082,-0.000053\H,0,-1.801585,2.324814

 Normal termination of Gaussian 16 at Tue Apr  8 23:09:06 2025.
