 Gaussian 16, Revision C.01,

 ----------------------------------------------------------------------
 #t hf aug-cc-pvdz symm=none int=(grid=ultrafine) guess=(read,tcheck) s
 table=(opt,rrhf)
 ----------------------------------------------------------------------
 -----
 title
 -----
 Symbolic Z-matrix:
 Charge =  0 Multiplicity = 1

 SCF Done:  E(RHF) =  -794.680132139     A.U. after   15 cycles
 Normal termination of Gaussian 16 at Tue Apr  8 23:26:43 2025.
 Gaussian 16:  ES64L-G16RevC.01  3-Jul-2019

 ----------------------------------------------------------------------
 #t hf aug-cc-pvdz iop(5/13=1,5/36=2,99/5=2) pseudo=read geom=check gue
 ss=(read,tcheck) scf=(maxcycle=1)
 ----------------------------------------------------------------------
 -----
 title
 -----
 Structure from the checkpoint file:  "BDE49_nonexpt_1275_mol1.chk"
 Charge =  0 Multiplicity = 1

                         Standard orientation:
 ---------------------------------------------------------------------
 Center     Atomic      Atomic             Coordinates (Angstroms)
 Number     Number       Type             X           Y           Z
 ---------------------------------------------------------------------
      1          8           0       -1.255166   -1.062935    0.050504
      2          6           0       -2.574643   -0.755121    0.061105
      3          6           0       -0.573147    0.123565   -0.021723
      4          6           0       -2.759866    0.591918   -0.000187
      5          6           0       -1.454078    1.166158   -0.053422
      6          1           0       -3.705189    1.110063   -0.009049
      7          1           0       -3.249577   -1.593119    0.113378
      8          1           0       -1.186583    2.208598   -0.113136
      9         15           0        1.202350    0.142359   -0.033313
     10          8           0        1.719181   -0.727122    1.224911
     11          8           0        1.742286    1.504596   -0.076510
     12          1           0        1.936877   -0.157231    1.972504
     13          8           0        1.531338   -0.872218   -1.220547
     14          1           0        2.438512   -1.201366   -1.205500
 ---------------------------------------------------------------------

 SCF Done:  E(RHF) =  -795.175350396     A.U. after    2 cycles

 The electronic state is 1-A.
 Alpha  occ. eigenvalues --  -84.43705 -20.62846 -20.59491 -20.59476 -20.50310
 Alpha  occ. eigenvalues --  -11.32132 -11.30443 -11.26713 -11.25427  -6.88891
 Alpha  occ. eigenvalues --   -4.43063  -4.42296  -4.41993  -1.56349  -1.53676
 Alpha  occ. eigenvalues --   -1.47380  -1.39011  -1.11412  -1.03506  -0.88503
 Alpha  occ. eigenvalues --   -0.83091  -0.79315  -0.75890  -0.74163  -0.67207
 Alpha  occ. eigenvalues --   -0.65077  -0.64206  -0.61932  -0.60121  -0.58875
 Alpha  occ. eigenvalues --   -0.57179  -0.56596  -0.54852  -0.51264  -0.46041
 Alpha  occ. eigenvalues --   -0.45704  -0.41836  -0.35199
 Alpha virt. eigenvalues --    0.03088   0.03819   0.04118   0.05018   0.05752
 Alpha virt. eigenvalues --    0.08432   0.08675   0.09744   0.10064   0.12018
 Alpha virt. eigenvalues --    0.12502   0.13090   0.13245   0.13781   0.14347

 Mulliken charges:
               1
     1  O   -1.529970
     2  C    0.727673
     3  C    0.019381
     4  C    0.416376
     5  C    0.126285
     6  H   -0.127255
     7  H   -0.149022
     8  H   -0.200865
     9  P    4.252238
    10  O   -1.323848
    11  O   -1.492719
    12  H    0.299710
    13  O   -1.391868
    14  H    0.373885
 Sum of Mulliken charges =  -0.00000

 Dipole moment (field-independent basis, Debye):
    X=             -1.7166    Y=             -1.6860    Z=              1.1999  Tot=              2.6887

 Test job not archived.
 1\1\GINC-SE162\SP\RHF\Aug-CC-pVDZ\C4H5O4P1\OHZDE\08-Apr-2025\0\\#t hf
 aug-cc-pvdz iop(5/13=1,5/36=2,99/5=2) pseudo=read geom=check guess=(re
 ad,tcheck) scf=(maxcycle=1)\\title\\0,1\O,0,-1.255166,-1.062935,0.0505
 04\C,0,-2.574643,-0.755121,0.061105\C,0,-0.573147,0.123565,-0.021723\C
 ,0,-2.759866,0.591918,-0.000187\C,0,-1.454078,1.166158,-0.053422\H,0,-
 3.705189,1.110063,-0.009049\H,0,-3.249577,-1.593119,0.113378\H,0,-1.18
 6583,2.208598,-0.113136\P,0,1.20235,0.142359,-0.033313\O,0,1.719181,-0
 .727122,1.224911\O,0,1.742286,1.504596,-0.07651\H,0,1.936877,-0.157231

 Normal termination of Gaussian 16 at Tue Apr  8 23:26:49 2025.
