 Gaussian 16, Revision C.01,

 ----------------------------------------------------------------------
 #t hf aug-cc-pvdz symm=none int=(grid=ultrafine) guess=(read,tcheck) s
 table=(opt,rrhf)
 ----------------------------------------------------------------------
 -----
 title
 -----
 Symbolic Z-matrix:
 Charge =  0 Multiplicity = 1

 SCF Done:  E(RHF) =  -952.346975646     A.U. after   13 cycles
 Normal termination of Gaussian 16 at Tue Apr  8 23:58:34 2025.
 Gaussian 16:  ES64L-G16RevC.01  3-Jul-2019

 ----------------------------------------------------------------------
 #t hf aug-cc-pvdz iop(5/13=1,5/36=2,99/5=2) pseudo=read geom=check gue
 ss=(read,tcheck) scf=(maxcycle=1)
 ----------------------------------------------------------------------
 -----
 title
 -----
 Structure from the checkpoint file:  "BDE49_nonexpt_2058_mol1.chk"
 Charge =  0 Multiplicity = 1

                         Standard orientation:
 ---------------------------------------------------------------------
 Center     Atomic      Atomic             Coordinates (Angstroms)
 Number     Number       Type             X           Y           Z
 ---------------------------------------------------------------------
      1         14           0        1.961832   -0.568758   -0.000007
      2         16           0       -0.037676    0.429637    0.000003
      3          8           0       -0.265384    1.126393   -1.248733
      4          8           0       -0.918762   -0.953340   -0.000003
      5          6           0       -2.359958   -0.796069   -0.000001
      6          1           0       -2.756817   -1.808770   -0.000007
      7          1           0       -2.680738   -0.264318   -0.897021
      8          1           0       -2.680737   -0.264328    0.897025
      9          8           0       -0.265377    1.126378    1.248749
     10          1           0        2.051789   -1.377058   -1.227585
     11          1           0        2.051793   -1.377073    1.227560
     12          1           0        2.907813    0.560919   -0.000002
 ---------------------------------------------------------------------

 SCF Done:  E(RHF) =  -952.707305753     A.U. after    2 cycles

 The electronic state is 1-A.
 Alpha  occ. eigenvalues --  -94.21301 -69.59166 -20.60461 -20.54571 -20.54562
 Alpha  occ. eigenvalues --  -11.31184  -8.46367  -6.44425  -6.44322  -6.44108
 Alpha  occ. eigenvalues --   -6.26174  -4.01588  -4.01465  -4.01461  -1.59273
 Alpha  occ. eigenvalues --   -1.47710  -1.44386  -1.00688  -0.88973  -0.79450
 Alpha  occ. eigenvalues --   -0.71937  -0.68795  -0.68778  -0.63567  -0.61865
 Alpha  occ. eigenvalues --   -0.57774  -0.54402  -0.53821  -0.51789  -0.49491
 Alpha  occ. eigenvalues --   -0.48682  -0.45281  -0.43789
 Alpha virt. eigenvalues --    0.02753   0.03680   0.05137   0.05271   0.05870
 Alpha virt. eigenvalues --    0.06751   0.06991   0.08398   0.08830   0.10267
 Alpha virt. eigenvalues --    0.11855   0.13159   0.14087   0.14800   0.14945

 Mulliken charges:
               1
     1  Si   0.979996
     2  S    3.221242
     3  O   -1.459554
     4  O   -1.432200
     5  C    0.195216
     6  H    0.021130
     7  H    0.174883
     8  H    0.174883
     9  O   -1.459554
    10  H   -0.132637
    11  H   -0.132636
    12  H   -0.150767
 Sum of Mulliken charges =  -0.00000

 Dipole moment (field-independent basis, Debye):
    X=              1.1279    Y=             -3.5694    Z=             -0.0000  Tot=              3.7434

 Test job not archived.
 1\1\GINC-SE249\SP\RHF\Aug-CC-pVDZ\C1H6O3S1Si1\OHZDE\08-Apr-2025\0\\#t
 hf aug-cc-pvdz iop(5/13=1,5/36=2,99/5=2) pseudo=read geom=check guess=
 (read,tcheck) scf=(maxcycle=1)\\title\\0,1\Si,0,1.961832,-0.568758,-0.
 000007\S,0,-0.037676,0.429637,0.000003\O,0,-0.265384,1.126393,-1.24873
 3\O,0,-0.918762,-0.95334,-0.000003\C,0,-2.359958,-0.796069,-0.000001\H
 ,0,-2.756817,-1.80877,-0.000007\H,0,-2.680738,-0.264318,-0.897021\H,0,
 -2.680737,-0.264328,0.897025\O,0,-0.265377,1.126378,1.248749\H,0,2.051
 789,-1.377058,-1.227585\H,0,2.051793,-1.377073,1.22756\H,0,2.907813,0.

 Normal termination of Gaussian 16 at Tue Apr  8 23:58:38 2025.
