 Gaussian 16, Revision C.01,

 ----------------------------------------------------------------------
 #t hf aug-cc-pvdz symm=none int=(grid=ultrafine) guess=(read,tcheck) s
 table=(opt,rrhf)
 ----------------------------------------------------------------------
 -----
 title
 -----
 Symbolic Z-matrix:
 Charge =  0 Multiplicity = 1

 SCF Done:  E(RHF) =  -839.597676858     A.U. after   16 cycles
 Normal termination of Gaussian 16 at Tue Apr  8 23:31:14 2025.
 Gaussian 16:  ES64L-G16RevC.01  3-Jul-2019

 ----------------------------------------------------------------------
 #t hf aug-cc-pvdz iop(5/13=1,5/36=2,99/5=2) pseudo=read geom=check gue
 ss=(read,tcheck) scf=(maxcycle=1)
 ----------------------------------------------------------------------
 -----
 title
 -----
 Structure from the checkpoint file:  "BDE49_nonexpt_1358_mol1.chk"
 Charge =  0 Multiplicity = 1

                         Standard orientation:
 ---------------------------------------------------------------------
 Center     Atomic      Atomic             Coordinates (Angstroms)
 Number     Number       Type             X           Y           Z
 ---------------------------------------------------------------------
      1          9           0        3.862449    0.535127    0.012469
      2          7           0        0.313759   -0.978199   -0.030816
      3         15           0        2.946120   -0.828325   -0.077028
      4          6           0        1.265868   -0.070264   -0.018776
      5          6           0        1.034241    1.327938   -0.009358
      6          1           0        1.873613    2.011138   -0.003260
      7          6           0       -0.264858    1.767262   -0.000913
      8          1           0       -0.492448    2.828572    0.008708
      9          6           0       -2.694893    1.199645    0.013405
     10          1           0       -2.953524    2.253407    0.022065
     11          6           0       -3.676559    0.238716    0.015632
     12          1           0       -4.720933    0.528702    0.025908
     13          6           0       -3.333723   -1.134664    0.004283
     14          1           0       -4.120992   -1.879996    0.005761
     15          6           0       -2.017588   -1.527338   -0.009480
     16          1           0       -1.730383   -2.571646   -0.020096
     17          6           0       -0.982402   -0.559052   -0.011190
     18          6           0       -1.326707    0.828643    0.001156
     19          1           0        2.974246   -1.139363    1.311282
 ---------------------------------------------------------------------

 SCF Done:  E(RHF) =  -840.133231205     A.U. after    2 cycles

 The electronic state is 1-A.
 Alpha  occ. eigenvalues --  -84.34682 -26.45930 -15.51780 -11.30032 -11.29037
 Alpha  occ. eigenvalues --  -11.27843 -11.26381 -11.26036 -11.25918 -11.25887
 Alpha  occ. eigenvalues --  -11.25589 -11.25053  -6.81017  -4.33920  -4.33341
 Alpha  occ. eigenvalues --   -4.32485  -1.56821  -1.27666  -1.15825  -1.10563
 Alpha  occ. eigenvalues --   -1.04152  -1.02333  -0.92376  -0.89004  -0.84382
 Alpha  occ. eigenvalues --   -0.83629  -0.75340  -0.72859  -0.70726  -0.66130
 Alpha  occ. eigenvalues --   -0.65588  -0.64682  -0.63400  -0.61982  -0.61291
 Alpha  occ. eigenvalues --   -0.59592  -0.59240  -0.55396  -0.53867  -0.50947
 Alpha  occ. eigenvalues --   -0.49154  -0.45009  -0.43760  -0.37877  -0.33779
 Alpha  occ. eigenvalues --   -0.32751
 Alpha virt. eigenvalues --    0.02982   0.03264   0.03734   0.04047   0.04780
 Alpha virt. eigenvalues --    0.05143   0.06742   0.06939   0.07623   0.08024
 Alpha virt. eigenvalues --    0.08913   0.09388   0.10202   0.10751   0.11796

 Mulliken charges:
               1
     1  F   -0.853872
     2  N    1.860249
     3  P    0.966512
     4  C   -1.383071
     5  C   -0.628776
     6  H   -0.260036
     7  C    0.382664
     8  H   -0.270390
     9  C    0.532551
    10  H   -0.299835
    11  C    0.188392
    12  H   -0.249771
    13  C    0.120042
    14  H   -0.226145
    15  C    1.459222
    16  H   -0.277976
    17  C   -2.692578
    18  C    1.377839
    19  H    0.254981
 Sum of Mulliken charges =  -0.00000

 Dipole moment (field-independent basis, Debye):
    X=             -2.3529    Y=              1.6626    Z=              0.4705  Tot=              2.9192

 Test job not archived.
 1\1\GINC-SE435\SP\RHF\Aug-CC-pVDZ\C9H7F1N1P1\OHZDE\08-Apr-2025\0\\#t h
 f aug-cc-pvdz iop(5/13=1,5/36=2,99/5=2) pseudo=read geom=check guess=(
 read,tcheck) scf=(maxcycle=1)\\title\\0,1\F,0,3.862449,0.535127,0.0124
 69\N,0,0.313759,-0.978199,-0.030816\P,0,2.94612,-0.828325,-0.077028\C,
 0,1.265868,-0.070264,-0.018776\C,0,1.034241,1.327938,-0.009358\H,0,1.8
 73613,2.011138,-0.00326\C,0,-0.264858,1.767262,-0.000913\H,0,-0.492448
 ,2.828572,0.008708\C,0,-2.694893,1.199645,0.013405\H,0,-2.953524,2.253
 407,0.022065\C,0,-3.676559,0.238716,0.015632\H,0,-4.720933,0.528702,0.

 Normal termination of Gaussian 16 at Tue Apr  8 23:31:27 2025.
