 Gaussian 16, Revision C.01,

 ----------------------------------------------------------------------
 #t hf aug-cc-pvdz symm=none int=(grid=ultrafine) guess=(read,tcheck) s
 table=(opt,rrhf)
 ----------------------------------------------------------------------
 -----
 title
 -----
 Symbolic Z-matrix:
 Charge =  0 Multiplicity = 1

 SCF Done:  E(RHF) =  -1153.01622231     A.U. after   14 cycles
 Normal termination of Gaussian 16 at Wed Apr  9 00:10:25 2025.
 Gaussian 16:  ES64L-G16RevC.01  3-Jul-2019

 ----------------------------------------------------------------------
 #t hf aug-cc-pvdz iop(5/13=1,5/36=2,99/5=2) pseudo=read geom=check gue
 ss=(read,tcheck) scf=(maxcycle=1)
 ----------------------------------------------------------------------
 -----
 title
 -----
 Structure from the checkpoint file:  "BDE49_nonexpt_2347_mol1.chk"
 Charge =  0 Multiplicity = 1

                         Standard orientation:
 ---------------------------------------------------------------------
 Center     Atomic      Atomic             Coordinates (Angstroms)
 Number     Number       Type             X           Y           Z
 ---------------------------------------------------------------------
      1         14           0        0.636165    0.856443    0.675283
      2         14           0        2.232569   -0.534054   -0.369355
      3          6           0       -1.062844    0.604060   -0.192215
      4          8           0       -1.667846    1.319357   -0.901611
      5          1           0        3.561638   -0.184720    0.185124
      6          1           0        2.225948   -0.281846   -1.827687
      7          1           0        0.959619    2.292866    0.528242
      8          1           0        0.434283    0.507846    2.096155
      9          1           0        1.931115   -1.954070   -0.093175
     10         17           0       -1.738533   -1.121927    0.187914
 ---------------------------------------------------------------------

 SCF Done:  E(RHF) =  -1153.26750550     A.U. after    2 cycles

 The electronic state is 1-A.
 Alpha  occ. eigenvalues -- -105.56358 -69.57112 -69.55219 -20.60654 -11.41521
 Alpha  occ. eigenvalues --  -10.61194  -7.78083  -7.77763  -7.77752  -6.24270
 Alpha  occ. eigenvalues --   -6.22417  -3.99645  -3.99564  -3.99554  -3.97784
 Alpha  occ. eigenvalues --   -3.97764  -3.97757  -1.54996  -1.06281  -0.86409
 Alpha  occ. eigenvalues --   -0.77946  -0.72986  -0.66292  -0.63375  -0.60574
 Alpha  occ. eigenvalues --   -0.53663  -0.51453  -0.50506  -0.46700  -0.46419
 Alpha  occ. eigenvalues --   -0.44947  -0.41991
 Alpha virt. eigenvalues --    0.03149   0.03350   0.05121   0.05576   0.06515
 Alpha virt. eigenvalues --    0.06700   0.07057   0.07230   0.08284   0.08508
 Alpha virt. eigenvalues --    0.09314   0.09783   0.10555   0.12480   0.12952

 Mulliken charges:
               1
     1  Si   0.788380
     2  Si   0.318311
     3  C    0.488061
     4  O   -0.890517
     5  H   -0.112950
     6  H   -0.079026
     7  H   -0.125455
     8  H   -0.100096
     9  H   -0.082688
    10  Cl  -0.204022
 Sum of Mulliken charges =   0.00000

 Dipole moment (field-independent basis, Debye):
    X=              3.2145    Y=              0.6398    Z=              0.9840  Tot=              3.4221

 Test job not archived.
 1\1\GINC-SE105\SP\RHF\Aug-CC-pVDZ\C1H5Cl1O1Si2\OHZDE\09-Apr-2025\0\\#t
  hf aug-cc-pvdz iop(5/13=1,5/36=2,99/5=2) pseudo=read geom=check guess
 =(read,tcheck) scf=(maxcycle=1)\\title\\0,1\Si,0,0.636165,0.856443,0.6
 75283\Si,0,2.232569,-0.534054,-0.369355\C,0,-1.062844,0.60406,-0.19221
 5\O,0,-1.667846,1.319357,-0.901611\H,0,3.561638,-0.18472,0.185124\H,0,
 2.225948,-0.281846,-1.827687\H,0,0.959619,2.292866,0.528242\H,0,0.4342
 83,0.507846,2.096155\H,0,1.931115,-1.95407,-0.093175\Cl,0,-1.738533,-1
 .121927,0.187914\\Version=ES64L-G16RevC.01\State=1-A\HF=-1153.2675055\

 Normal termination of Gaussian 16 at Wed Apr  9 00:10:28 2025.
