 Gaussian 16, Revision C.01,

 ----------------------------------------------------------------------
 #t hf aug-cc-pvdz symm=none int=(grid=ultrafine) guess=(read,tcheck) s
 table=opt
 ----------------------------------------------------------------------
 -----
 title
 -----
 Symbolic Z-matrix:
 Charge =  0 Multiplicity = 2

 SCF Done:  E(UHF) =  -103.868092171     A.U. after   13 cycles
 Normal termination of Gaussian 16 at Tue Apr  8 23:56:20 2025.
 Gaussian 16:  ES64L-G16RevC.01  3-Jul-2019

 ----------------------------------------------------------------------
 #t hf aug-cc-pvdz iop(5/13=1,5/36=2,99/5=2) pseudo=read geom=check gue
 ss=(read,tcheck) scf=(maxcycle=1)
 ----------------------------------------------------------------------
 -----
 title
 -----
 Structure from the checkpoint file:  "BDE49_nonexpt_1_mol2.chk"
 Charge =  0 Multiplicity = 2

                         Standard orientation:
 ---------------------------------------------------------------------
 Center     Atomic      Atomic             Coordinates (Angstroms)
 Number     Number       Type             X           Y           Z
 ---------------------------------------------------------------------
      1          5           0       -0.000000    0.561277    0.000000
      2          6           0       -1.402784   -0.098296    0.011466
      3          1           0       -1.415653   -1.111174    0.439447
      4          1           0       -1.691817   -0.202910   -1.047018
      5          1           0       -2.186736    0.500665    0.481426
      6          6           0        1.402784   -0.098296   -0.011466
      7          1           0        1.691817   -0.202909    1.047018
      8          1           0        2.186736    0.500664   -0.481426
      9          1           0        1.415653   -1.111175   -0.439447
 ---------------------------------------------------------------------

 SCF Done:  E(UHF) =  -103.982465739     A.U. after    2 cycles

 The electronic state is 2-A.
 Alpha  occ. eigenvalues --  -11.21140 -11.21137  -7.60195  -0.98091  -0.93784
 Alpha  occ. eigenvalues --   -0.62976  -0.58468  -0.56807  -0.55318  -0.53992
 Alpha  occ. eigenvalues --   -0.48625  -0.30475
 Alpha virt. eigenvalues --    0.03649   0.04091   0.04292   0.04469   0.07112
 Alpha virt. eigenvalues --    0.07417   0.07814   0.08193   0.10072   0.10488
 Alpha virt. eigenvalues --    0.12618   0.15652   0.16706   0.16730   0.17212

  Beta  occ. eigenvalues --  -11.21115 -11.21111  -7.58478  -0.96940  -0.93463
  Beta  occ. eigenvalues --   -0.59790  -0.56557  -0.56030  -0.54483  -0.53877
  Beta  occ. eigenvalues --   -0.47676
  Beta virt. eigenvalues --    0.03185   0.04199   0.04347   0.04521   0.07144
  Beta virt. eigenvalues --    0.07410   0.07901   0.08578   0.09153   0.10297
  Beta virt. eigenvalues --    0.13823   0.14172   0.16722   0.16783   0.16868

 Mulliken charges and spin densities:
               1          2
     1  B    0.095696   1.064214
     2  C   -0.278691  -0.040636
     3  H    0.035363   0.031194
     4  H    0.120154  -0.010670
     5  H    0.075326  -0.011995
     6  C   -0.278692  -0.040636
     7  H    0.120154  -0.010670
     8  H    0.075325  -0.011995
     9  H    0.035365   0.031194
 Sum of Mulliken charges =   0.00000   1.00000

 Dipole moment (field-independent basis, Debye):
    X=              0.0000    Y=             -0.9423    Z=              0.0000  Tot=              0.9423
                          Isotropic Fermi Contact Couplings
        Atom                 a.u.       MegaHertz       Gauss      10(-4) cm-1
     1  B(11)              0.23130     331.77211     118.38454     110.66726
     2  C(13)              0.02123      23.87087       8.51772       7.96246
     3  H(1)               0.01163      51.99037      18.55146      17.34212
     4  H(1)              -0.00101      -4.51894      -1.61247      -1.50736
     5  H(1)               0.00548      24.50319       8.74335       8.17338
     6  C(13)              0.02123      23.87091       8.51774       7.96248
     7  H(1)              -0.00101      -4.51893      -1.61247      -1.50735
     8  H(1)               0.00548      24.50313       8.74333       8.17336

 Normal termination of Gaussian 16 at Tue Apr  8 23:56:22 2025.
