 Gaussian 16, Revision C.01,

 ----------------------------------------------------------------------
 #t hf aug-cc-pvdz symm=none int=(grid=ultrafine) guess=(read,tcheck) s
 table=(opt,rrhf)
 ----------------------------------------------------------------------
 -----
 title
 -----
 Symbolic Z-matrix:
 Charge =  0 Multiplicity = 1

 SCF Done:  E(RHF) =  -174.761317358     A.U. after   13 cycles
 Normal termination of Gaussian 16 at Tue Apr  8 22:56:33 2025.
 Gaussian 16:  ES64L-G16RevC.01  3-Jul-2019

 ----------------------------------------------------------------------
 #t hf aug-cc-pvdz iop(5/13=1,5/36=2,99/5=2) pseudo=read geom=check gue
 ss=(read,tcheck) scf=(maxcycle=1)
 ----------------------------------------------------------------------
 -----
 title
 -----
 Structure from the checkpoint file:  "BDE49_expt_1901_mol1.chk"
 Charge =  0 Multiplicity = 1

                         Standard orientation:
 ---------------------------------------------------------------------
 Center     Atomic      Atomic             Coordinates (Angstroms)
 Number     Number       Type             X           Y           Z
 ---------------------------------------------------------------------
      1          8           0        0.053346    0.709146    0.000000
      2          9           0        0.053346   -0.724763    0.000000
      3          1           0       -0.906885    0.849694    0.000000
 ---------------------------------------------------------------------

 SCF Done:  E(RHF) =  -174.924381807     A.U. after    2 cycles

 The electronic state is 1-A'.
 Alpha  occ. eigenvalues --  -26.51660 -20.68866  -1.66883  -1.35689  -0.76727
 Alpha  occ. eigenvalues --   -0.70283  -0.66923  -0.59167  -0.53008
 Alpha virt. eigenvalues --    0.03617   0.10952   0.16677   0.19202   0.22050
 Alpha virt. eigenvalues --    0.24814   0.26452   0.29319   0.29896   0.34206
 Alpha virt. eigenvalues --    0.38133   0.46148   0.52182   0.61977   0.84770

 Mulliken charges:
               1
     1  O   -0.163580
     2  F   -0.342274
     3  H    0.505854
 Sum of Mulliken charges =  -0.00000

 Dipole moment (field-independent basis, Debye):
    X=             -1.8006    Y=              1.0751    Z=              0.0000  Tot=              2.0971

 Test job not archived.
 1\1\GINC-SE338\SP\RHF\Aug-CC-pVDZ\F1H1O1\OHZDE\08-Apr-2025\0\\#t hf au
 g-cc-pvdz iop(5/13=1,5/36=2,99/5=2) pseudo=read geom=check guess=(read
 ,tcheck) scf=(maxcycle=1)\\title\\0,1\O,0,0.053346,0.709146,0.\F,0,0.0
 53346,-0.724763,0.\H,0,-0.906885,0.849694,0.\\Version=ES64L-G16RevC.01
 \State=1-A'\HF=-174.9243818\RMSD=6.338e-03\Dipole=-0.7084061,0.4229607
 ,0.\Quadrupole=0.8732706,0.0107214,-0.883992,-1.29151,0.,0.\PG=CS [SG(
 F1H1O1)]\\@

 Normal termination of Gaussian 16 at Tue Apr  8 22:56:34 2025.
