 Gaussian 16, Revision C.01,

 ----------------------------------------------------------------------
 #t hf aug-cc-pvdz symm=none int=(grid=ultrafine) guess=(read,tcheck) s
 table=(opt,rrhf)
 ----------------------------------------------------------------------
 -----
 title
 -----
 Symbolic Z-matrix:
 Charge =  0 Multiplicity = 1

 SCF Done:  E(RHF) =  -901.765051012     A.U. after   16 cycles
 Normal termination of Gaussian 16 at Wed Apr  9 00:02:55 2025.
 Gaussian 16:  ES64L-G16RevC.01  3-Jul-2019

 ----------------------------------------------------------------------
 #t hf aug-cc-pvdz iop(5/13=1,5/36=2,99/5=2) pseudo=read geom=check gue
 ss=(read,tcheck) scf=(maxcycle=1)
 ----------------------------------------------------------------------
 -----
 title
 -----
 Structure from the checkpoint file:  "BDE49_nonexpt_2157_mol1.chk"
 Charge =  0 Multiplicity = 1

                         Standard orientation:
 ---------------------------------------------------------------------
 Center     Atomic      Atomic             Coordinates (Angstroms)
 Number     Number       Type             X           Y           Z
 ---------------------------------------------------------------------
      1         14           0       -0.000005    0.000001   -0.636792
      2          7           0        1.442042   -0.908666    0.052303
      3          7           0        0.065876    1.703176    0.052347
      4          7           0       -1.507946   -0.794525    0.052328
      5          8           0       -2.479478   -0.271499   -0.502635
      6          8           0       -0.659749    2.149089    0.915173
      7          8           0        1.474727   -2.011600   -0.502577
      8          8           0        1.004870    2.282880   -0.502324
      9          8           0        2.190979   -0.503266    0.915195
     10          8           0       -1.531315   -1.645594    0.915449
     11          1           0       -0.000005    0.000023   -2.090003
 ---------------------------------------------------------------------

 SCF Done:  E(RHF) =  -902.369725172     A.U. after    2 cycles

 The electronic state is 1-A.
 Alpha  occ. eigenvalues --  -69.74579 -20.65697 -20.65695 -20.65695 -20.64946
 Alpha  occ. eigenvalues --  -20.64946 -20.64946 -15.82227 -15.82227 -15.82209
 Alpha  occ. eigenvalues --   -6.40755  -4.16077  -4.16077  -4.15896  -1.72049
 Alpha  occ. eigenvalues --   -1.71784  -1.71784  -1.56425  -1.56425  -1.56310
 Alpha  occ. eigenvalues --   -1.11453  -1.03777  -1.03777  -0.89359  -0.85597
 Alpha  occ. eigenvalues --   -0.85597  -0.80257  -0.79764  -0.79764  -0.78828
 Alpha  occ. eigenvalues --   -0.78524  -0.78524  -0.68959  -0.55986  -0.55985
 Alpha  occ. eigenvalues --   -0.55486  -0.54203  -0.51698  -0.51698  -0.50563
 Alpha  occ. eigenvalues --   -0.49681  -0.49681
 Alpha virt. eigenvalues --   -0.01161  -0.00784  -0.00784   0.03059   0.04997
 Alpha virt. eigenvalues --    0.04997   0.06707   0.09327   0.10354   0.10354
 Alpha virt. eigenvalues --    0.11008   0.13384   0.13384   0.14433   0.14433

 Mulliken charges:
               1
     1  Si   1.380924
     2  N    1.892208
     3  N    1.892224
     4  N    1.892203
     5  O   -1.195578
     6  O   -1.163619
     7  O   -1.195614
     8  O   -1.195627
     9  O   -1.163625
    10  O   -1.163646
    11  H    0.020150
 Sum of Mulliken charges =  -0.00000

 Dipole moment (field-independent basis, Debye):
    X=              0.0000    Y=              0.0001    Z=             -2.8280  Tot=              2.8280

 Test job not archived.
 1\1\GINC-SE393\SP\RHF\Aug-CC-pVDZ\H1N3O6Si1\OHZDE\09-Apr-2025\0\\#t hf
  aug-cc-pvdz iop(5/13=1,5/36=2,99/5=2) pseudo=read geom=check guess=(r
 ead,tcheck) scf=(maxcycle=1)\\title\\0,1\Si,0,0.000005,-0.000001,-0.63
 6792\N,0,-1.44277,0.907509,0.052303\N,0,-0.06451,-1.703228,0.052347\N,
 0,1.507308,0.795734,0.052328\O,0,2.47926,0.273487,-0.502635\O,0,0.6614
 72,-2.148559,0.915173\O,0,-1.476339,2.010417,-0.502577\O,0,-1.003039,-
 2.283685,-0.502324\O,0,-2.191382,0.501509,0.915195\O,0,1.529995,1.6468
 21,0.915449\H,0,0.000005,-0.000023,-2.090003\\Version=ES64L-G16RevC.01

 Normal termination of Gaussian 16 at Wed Apr  9 00:03:01 2025.
