 Gaussian 16, Revision C.01,

 ----------------------------------------------------------------------
 #t hf aug-cc-pvdz symm=none int=(grid=ultrafine) guess=(read,tcheck) s
 table=(opt,rrhf)
 ----------------------------------------------------------------------
 -----
 title
 -----
 Symbolic Z-matrix:
 Charge =  0 Multiplicity = 1

 SCF Done:  E(RHF) =  -784.647749897     A.U. after   15 cycles
 Normal termination of Gaussian 16 at Wed Apr  9 00:05:40 2025.
 Gaussian 16:  ES64L-G16RevC.01  3-Jul-2019

 ----------------------------------------------------------------------
 #t hf aug-cc-pvdz iop(5/13=1,5/36=2,99/5=2) pseudo=read geom=check gue
 ss=(read,tcheck) scf=(maxcycle=1)
 ----------------------------------------------------------------------
 -----
 title
 -----
 Structure from the checkpoint file:  "BDE49_nonexpt_2179_mol1.chk"
 Charge =  0 Multiplicity = 1

                         Standard orientation:
 ---------------------------------------------------------------------
 Center     Atomic      Atomic             Coordinates (Angstroms)
 Number     Number       Type             X           Y           Z
 ---------------------------------------------------------------------
      1          8           0        0.434180   -0.746741   -0.371308
      2         14           0        1.872223   -0.005747    0.010449
      3          6           0       -0.868079   -0.351786   -0.203435
      4          8           0        2.083106    1.410113   -0.789658
      5          6           0       -1.828794   -1.346249   -0.010586
      6          6           0       -1.250910    0.991371   -0.247466
      7          6           0       -2.593783    1.328485   -0.088458
      8          6           0       -3.556658    0.341670    0.108124
      9          6           0       -3.166466   -0.996551    0.143092
     10          1           0       -3.906708   -1.774736    0.292614
     11          1           0       -1.509563   -2.381202    0.014874
     12          1           0       -2.884999    2.372465   -0.123300
     13          1           0       -4.599275    0.610921    0.229123
     14          1           0       -0.503677    1.756503   -0.421073
     15          6           0        1.969965    0.384595    1.814172
     16          1           0        1.794626   -0.511160    2.415070
     17          1           0        1.223921    1.133210    2.092611
     18          1           0        2.956865    0.780466    2.066260
     19          1           0        2.275915    1.369821   -1.729893
     20          8           0        2.988478   -1.090962   -0.506184
     21          1           0        2.664008   -1.964314   -0.738021
 ---------------------------------------------------------------------

 SCF Done:  E(RHF) =  -785.182840938     A.U. after    2 cycles

 The electronic state is 1-A.
 Alpha  occ. eigenvalues --  -69.59826 -20.55666 -20.55019 -20.54858 -11.31218
 Alpha  occ. eigenvalues --  -11.24842 -11.24820 -11.23870 -11.23829 -11.23721
 Alpha  occ. eigenvalues --  -11.21711  -6.25859  -4.01378  -4.01347  -4.01149
 Alpha  occ. eigenvalues --   -1.48276  -1.44457  -1.42843  -1.15087  -1.02128
 Alpha  occ. eigenvalues --   -1.01035  -0.95896  -0.85125  -0.83803  -0.77003
 Alpha  occ. eigenvalues --   -0.73267  -0.70637  -0.68635  -0.66556  -0.62697
 Alpha  occ. eigenvalues --   -0.61253  -0.60340  -0.58104  -0.56731  -0.55779
 Alpha  occ. eigenvalues --   -0.55396  -0.54554  -0.52814  -0.52024  -0.51570
 Alpha  occ. eigenvalues --   -0.49395  -0.47648  -0.46409  -0.35053  -0.32608
 Alpha virt. eigenvalues --    0.03100   0.03650   0.03676   0.04676   0.04926
 Alpha virt. eigenvalues --    0.05121   0.06614   0.06748   0.07615   0.07764
 Alpha virt. eigenvalues --    0.08263   0.09902   0.10217   0.11015   0.11541

 Mulliken charges:
               1
     1  O   -2.684962
     2  Si   4.079601
     3  C    1.930236
     4  O   -1.537086
     5  C   -0.344479
     6  C   -0.043790
     7  C    0.502498
     8  C    0.090397
     9  C    0.656905
    10  H   -0.212887
    11  H   -0.294397
    12  H   -0.227260
    13  H   -0.225006
    14  H   -0.356389
    15  C   -0.701629
    16  H    0.035679
    17  H    0.092452
    18  H   -0.004863
    19  H    0.429944
    20  O   -1.627107
    21  H    0.442142
 Sum of Mulliken charges =   0.00000

 Dipole moment (field-independent basis, Debye):
    X=             -0.6201    Y=             -0.6382    Z=             -0.2175  Tot=              0.9160

 Test job not archived.
 1\1\GINC-SE097\SP\RHF\Aug-CC-pVDZ\C7H10O3Si1\OHZDE\09-Apr-2025\0\\#t h
 f aug-cc-pvdz iop(5/13=1,5/36=2,99/5=2) pseudo=read geom=check guess=(
 read,tcheck) scf=(maxcycle=1)\\title\\0,1\O,0,0.43418,-0.746741,-0.371
 308\Si,0,1.872223,-0.005747,0.010449\C,0,-0.868079,-0.351786,-0.203435
 \O,0,2.083106,1.410113,-0.789658\C,0,-1.828794,-1.346249,-0.010586\C,0
 ,-1.25091,0.991371,-0.247466\C,0,-2.593783,1.328485,-0.088458\C,0,-3.5
 56658,0.34167,0.108124\C,0,-3.166466,-0.996551,0.143092\H,0,-3.906708,
 -1.774736,0.292614\H,0,-1.509563,-2.381202,0.014874\H,0,-2.884999,2.37

 Normal termination of Gaussian 16 at Wed Apr  9 00:05:54 2025.
