 Gaussian 16, Revision C.01,

 ----------------------------------------------------------------------
 #t hf aug-cc-pvdz symm=none int=(grid=ultrafine) guess=(read,tcheck) s
 table=(opt,rrhf)
 ----------------------------------------------------------------------
 -----
 title
 -----
 Symbolic Z-matrix:
 Charge =  0 Multiplicity = 1

 SCF Done:  E(RHF) =  -884.013405727     A.U. after   13 cycles
 Normal termination of Gaussian 16 at Wed Apr  9 00:15:44 2025.
 Gaussian 16:  ES64L-G16RevC.01  3-Jul-2019

 ----------------------------------------------------------------------
 #t hf aug-cc-pvdz iop(5/13=1,5/36=2,99/5=2) pseudo=read geom=check gue
 ss=(read,tcheck) scf=(maxcycle=1)
 ----------------------------------------------------------------------
 -----
 title
 -----
 Structure from the checkpoint file:  "BDE49_nonexpt_2491_mol1.chk"
 Charge =  0 Multiplicity = 1

                         Standard orientation:
 ---------------------------------------------------------------------
 Center     Atomic      Atomic             Coordinates (Angstroms)
 Number     Number       Type             X           Y           Z
 ---------------------------------------------------------------------
      1          6           0        2.029784    1.927666    0.003443
      2         14           0        2.364358    0.080117    0.007356
      3          1           0        2.948236    2.471581    0.247983
      4          1           0        1.272486    2.200576    0.742763
      5          1           0        1.685145    2.260753   -0.978555
      6         16           0        0.699149   -1.159631   -0.577963
      7          6           0       -0.427707   -1.031466    0.893515
      8          6           0       -1.496297    0.060041    0.799620
      9          1           0        0.189646   -0.902248    1.784458
     10          1           0       -0.895123   -2.016316    0.968314
     11          6           0       -2.527375   -0.154394   -0.313086
     12          1           0       -1.015790    1.036036    0.670620
     13          1           0       -2.015246    0.096826    1.767333
     14          6           0       -3.589028    0.947705   -0.362128
     15          1           0       -3.014217   -1.126500   -0.166533
     16          1           0       -2.010643   -0.210842   -1.276159
     17          1           0       -4.142804    1.010769    0.580010
     18          1           0       -4.312979    0.765612   -1.160676
     19          1           0       -3.134387    1.926438   -0.544495
     20          1           0        2.806889   -0.329126    1.363993
     21          1           0        3.415128   -0.248426   -0.982825
 ---------------------------------------------------------------------

 SCF Done:  E(RHF) =  -884.331533468     A.U. after    2 cycles

 The electronic state is 1-A.
 Alpha  occ. eigenvalues --  -93.92587 -69.54647 -11.27254 -11.23759 -11.22825
 Alpha  occ. eigenvalues --  -11.22468 -11.22405  -8.20863  -6.21465  -6.18658
 Alpha  occ. eigenvalues --   -6.18524  -6.18343  -3.96859  -3.96783  -3.96748
 Alpha  occ. eigenvalues --   -1.09663  -1.02731  -0.96326  -0.93849  -0.85081
 Alpha  occ. eigenvalues --   -0.79296  -0.70004  -0.64700  -0.61726  -0.60066
 Alpha  occ. eigenvalues --   -0.57770  -0.56983  -0.56539  -0.53758  -0.50161
 Alpha  occ. eigenvalues --   -0.49823  -0.48172  -0.48089  -0.47446  -0.45467
 Alpha  occ. eigenvalues --   -0.41472  -0.35519
 Alpha virt. eigenvalues --    0.03289   0.03533   0.03632   0.03995   0.05106
 Alpha virt. eigenvalues --    0.05509   0.05754   0.06402   0.07321   0.07981
 Alpha virt. eigenvalues --    0.08401   0.08718   0.09017   0.10292   0.10669

 Mulliken charges:
               1
     1  C   -0.600079
     2  Si   1.419953
     3  H    0.011162
     4  H    0.074353
     5  H    0.068932
     6  S   -0.358875
     7  C   -0.269375
     8  C   -0.367060
     9  H    0.037749
    10  H    0.225613
    11  C   -0.425865
    12  H    0.078972
    13  H    0.154923
    14  C   -0.391650
    15  H    0.118186
    16  H    0.169215
    17  H    0.169758
    18  H    0.113002
    19  H    0.162251
    20  H   -0.141957
    21  H   -0.249210
 Sum of Mulliken charges =   0.00000

 Dipole moment (field-independent basis, Debye):
    X=             -0.6012    Y=              1.3481    Z=              1.4112  Tot=              2.0422

 Test job not archived.
 1\1\GINC-SE071\SP\RHF\Aug-CC-pVDZ\C5H14S1Si1\OHZDE\09-Apr-2025\0\\#t h
 f aug-cc-pvdz iop(5/13=1,5/36=2,99/5=2) pseudo=read geom=check guess=(
 read,tcheck) scf=(maxcycle=1)\\title\\0,1\C,0,2.029784,1.927666,0.0034
 43\Si,0,2.364358,0.080117,0.007356\H,0,2.948236,2.471581,0.247983\H,0,
 1.272486,2.200576,0.742763\H,0,1.685145,2.260753,-0.978555\S,0,0.69914
 9,-1.159631,-0.577963\C,0,-0.427707,-1.031466,0.893515\C,0,-1.496297,0
 .060041,0.79962\H,0,0.189646,-0.902248,1.784458\H,0,-0.895123,-2.01631
 6,0.968314\C,0,-2.527375,-0.154394,-0.313086\H,0,-1.01579,1.036036,0.6

 Normal termination of Gaussian 16 at Wed Apr  9 00:15:54 2025.
