 Gaussian 16, Revision C.01,

 ----------------------------------------------------------------------
 #t hf aug-cc-pvdz symm=none int=(grid=ultrafine) guess=(read,tcheck) s
 table=(opt,rrhf)
 ----------------------------------------------------------------------
 -----
 title
 -----
 Symbolic Z-matrix:
 Charge =  0 Multiplicity = 1

 SCF Done:  E(RHF) =  -784.861984190     A.U. after   13 cycles
 Normal termination of Gaussian 16 at Wed Apr  9 00:12:06 2025.
 Gaussian 16:  ES64L-G16RevC.01  3-Jul-2019

 ----------------------------------------------------------------------
 #t hf aug-cc-pvdz iop(5/13=1,5/36=2,99/5=2) pseudo=read geom=check gue
 ss=(read,tcheck) scf=(maxcycle=1)
 ----------------------------------------------------------------------
 -----
 title
 -----
 Structure from the checkpoint file:  "BDE49_nonexpt_2404_mol1.chk"
 Charge =  0 Multiplicity = 1

                         Standard orientation:
 ---------------------------------------------------------------------
 Center     Atomic      Atomic             Coordinates (Angstroms)
 Number     Number       Type             X           Y           Z
 ---------------------------------------------------------------------
      1         14           0       -2.077038    0.291558   -0.000017
      2         14           0       -0.096197   -0.977076    0.000015
      3          7           0        1.333890    0.245636   -0.000003
      4          8           0        1.065995    1.446976    0.000016
      5          1           0       -3.225288   -0.646594   -0.000017
      6          1           0       -2.120752    1.127915   -1.217501
      7          1           0        0.141234   -1.789202   -1.209894
      8          1           0        0.141226   -1.789148    1.209962
      9          8           0        2.468059   -0.216115   -0.000009
     10          1           0       -2.120775    1.127942    1.217446
 ---------------------------------------------------------------------

 SCF Done:  E(RHF) =  -785.123709119     A.U. after    2 cycles

 The electronic state is 1-A.
 Alpha  occ. eigenvalues --  -69.59684 -69.55626 -20.59209 -20.59188 -15.75591
 Alpha  occ. eigenvalues --   -6.26628  -6.22808  -4.02011  -4.01862  -4.01845
 Alpha  occ. eigenvalues --   -3.98182  -3.98154  -3.98148  -1.65527  -1.49752
 Alpha  occ. eigenvalues --   -0.99717  -0.83177  -0.77150  -0.73937  -0.72567
 Alpha  occ. eigenvalues --   -0.68645  -0.54320  -0.52002  -0.51113  -0.50013
 Alpha  occ. eigenvalues --   -0.46916  -0.44652  -0.44635
 Alpha virt. eigenvalues --    0.03027   0.03422   0.04613   0.04798   0.05390
 Alpha virt. eigenvalues --    0.06220   0.07006   0.07622   0.08191   0.08527
 Alpha virt. eigenvalues --    0.09426   0.09529   0.10491   0.12369   0.13829

 Mulliken charges:
               1
     1  Si   0.351572
     2  Si   0.799491
     3  N    1.673868
     4  O   -1.081751
     5  H   -0.144806
     6  H   -0.074459
     7  H   -0.125736
     8  H   -0.125741
     9  O   -1.197981
    10  H   -0.074456
 Sum of Mulliken charges =  -0.00000

 Dipole moment (field-independent basis, Debye):
    X=             -3.8173    Y=             -2.2475    Z=              0.0000  Tot=              4.4298

 Test job not archived.
 1\1\GINC-SE099\SP\RHF\Aug-CC-pVDZ\H5N1O2Si2\OHZDE\09-Apr-2025\0\\#t hf
  aug-cc-pvdz iop(5/13=1,5/36=2,99/5=2) pseudo=read geom=check guess=(r
 ead,tcheck) scf=(maxcycle=1)\\title\\0,1\Si,0,-2.077038,0.291558,-0.00
 0017\Si,0,-0.096197,-0.977076,0.000015\N,0,1.33389,0.245636,-0.000003\
 O,0,1.065995,1.446976,0.000016\H,0,-3.225288,-0.646594,-0.000017\H,0,-
 2.120752,1.127915,-1.217501\H,0,0.141234,-1.789202,-1.209894\H,0,0.141
 226,-1.789148,1.209962\O,0,2.468059,-0.216115,-0.000009\H,0,-2.120775,
 1.127942,1.217446\\Version=ES64L-G16RevC.01\State=1-A\HF=-785.1237091\

 Normal termination of Gaussian 16 at Wed Apr  9 00:12:10 2025.
