 Gaussian 16, Revision C.01,

 ----------------------------------------------------------------------
 #t hf aug-cc-pvdz symm=none int=(grid=ultrafine) guess=(read,tcheck) s
 table=(opt,rrhf)
 ----------------------------------------------------------------------
 -----
 title
 -----
 Symbolic Z-matrix:
 Charge =  0 Multiplicity = 1

 SCF Done:  E(RHF) =  -776.367319233     A.U. after   17 cycles
 Normal termination of Gaussian 16 at Wed Apr  9 00:01:12 2025.
 Gaussian 16:  ES64L-G16RevC.01  3-Jul-2019

 ----------------------------------------------------------------------
 #t hf aug-cc-pvdz iop(5/13=1,5/36=2,99/5=2) pseudo=read geom=check gue
 ss=(read,tcheck) scf=(maxcycle=1)
 ----------------------------------------------------------------------
 -----
 title
 -----
 Structure from the checkpoint file:  "BDE49_nonexpt_2114_mol1.chk"
 Charge =  0 Multiplicity = 1

                         Standard orientation:
 ---------------------------------------------------------------------
 Center     Atomic      Atomic             Coordinates (Angstroms)
 Number     Number       Type             X           Y           Z
 ---------------------------------------------------------------------
      1         14           0        0.020316    0.043810   -0.807914
      2          7           0        1.058673   -1.144689    0.168896
      3          7           0       -1.664385   -0.097987   -0.026864
      4          8           0        0.703120   -1.658834    1.214216
      5          8           0        2.165834   -1.279432   -0.360137
      6          8           0       -2.109370    0.858971    0.601137
      7          8           0       -2.243896   -1.163414   -0.202844
      8          6           0        0.730832    1.742477   -0.618114
      9          6           0        1.073391    2.170847    0.822163
     10          1           0        0.002263    2.431624   -1.061880
     11          1           0        1.619303    1.776960   -1.259066
     12          1           0        0.189189    2.149315    1.460432
     13          1           0        1.468768    3.188725    0.825845
     14          1           0        1.833050    1.520734    1.261904
     15          1           0       -0.107862   -0.520235   -2.153938
 ---------------------------------------------------------------------

 SCF Done:  E(RHF) =  -776.871455593     A.U. after    2 cycles

 The electronic state is 1-A.
 Alpha  occ. eigenvalues --  -69.65772 -20.62091 -20.61433 -20.61365 -20.61351
 Alpha  occ. eigenvalues --  -15.78269 -15.77969 -11.28304 -11.26589  -6.32409
 Alpha  occ. eigenvalues --   -4.07767  -4.07674  -4.07544  -1.68233  -1.67682
 Alpha  occ. eigenvalues --   -1.52478  -1.52051  -1.08670  -1.03890  -0.99655
 Alpha  occ. eigenvalues --   -0.90168  -0.84564  -0.81602  -0.76414  -0.76144
 Alpha  occ. eigenvalues --   -0.75236  -0.74631  -0.67111  -0.65740  -0.62889
 Alpha  occ. eigenvalues --   -0.56671  -0.54812  -0.52814  -0.52025  -0.50690
 Alpha  occ. eigenvalues --   -0.48752  -0.48270  -0.46964  -0.46293
 Alpha virt. eigenvalues --    0.02076   0.02530   0.03109   0.03836   0.04175
 Alpha virt. eigenvalues --    0.04312   0.06392   0.06936   0.07111   0.08036
 Alpha virt. eigenvalues --    0.09754   0.11249   0.11571   0.11770   0.13126

 Mulliken charges:
               1
     1  Si   1.448017
     2  N    1.820436
     3  N    2.006866
     4  O   -1.191198
     5  O   -1.251459
     6  O   -1.192979
     7  O   -1.289270
     8  C   -0.615341
     9  C   -0.342761
    10  H    0.115461
    11  H    0.144366
    12  H    0.173417
    13  H    0.118923
    14  H    0.152356
    15  H   -0.096834
 Sum of Mulliken charges =  -0.00000

 Dipole moment (field-independent basis, Debye):
    X=              1.5731    Y=              3.9003    Z=             -2.9151  Tot=              5.1171

 Test job not archived.
 1\1\GINC-SE341\SP\RHF\Aug-CC-pVDZ\C2H6N2O4Si1\OHZDE\09-Apr-2025\0\\#t
 hf aug-cc-pvdz iop(5/13=1,5/36=2,99/5=2) pseudo=read geom=check guess=
 (read,tcheck) scf=(maxcycle=1)\\title\\0,1\Si,0,0.020316,0.04381,-0.80
 7914\N,0,1.058673,-1.144689,0.168896\N,0,-1.664385,-0.097987,-0.026864
 \O,0,0.70312,-1.658834,1.214216\O,0,2.165834,-1.279432,-0.360137\O,0,-
 2.10937,0.858971,0.601137\O,0,-2.243896,-1.163414,-0.202844\C,0,0.7308
 32,1.742477,-0.618114\C,0,1.073391,2.170847,0.822163\H,0,0.002263,2.43
 1624,-1.06188\H,0,1.619303,1.77696,-1.259066\H,0,0.189189,2.149315,1.4

 Normal termination of Gaussian 16 at Wed Apr  9 00:01:18 2025.
