 Gaussian 16, Revision C.01,

 ----------------------------------------------------------------------
 #t hf aug-cc-pvdz symm=none int=(grid=ultrafine) guess=(read,tcheck) s
 table=(opt,rrhf)
 ----------------------------------------------------------------------
 -----
 title
 -----
 Symbolic Z-matrix:
 Charge =  0 Multiplicity = 1

 SCF Done:  E(RHF) =  -1707.03846969     A.U. after   12 cycles
 Normal termination of Gaussian 16 at Tue Apr  8 23:57:25 2025.
 Gaussian 16:  ES64L-G16RevC.01  3-Jul-2019

 ----------------------------------------------------------------------
 #t hf aug-cc-pvdz iop(5/13=1,5/36=2,99/5=2) pseudo=read geom=check gue
 ss=(read,tcheck) scf=(maxcycle=1)
 ----------------------------------------------------------------------
 -----
 title
 -----
 Structure from the checkpoint file:  "BDE49_nonexpt_2026_mol1.chk"
 Charge =  0 Multiplicity = 1

                         Standard orientation:
 ---------------------------------------------------------------------
 Center     Atomic      Atomic             Coordinates (Angstroms)
 Number     Number       Type             X           Y           Z
 ---------------------------------------------------------------------
      1         14           0       -1.878092    0.000110   -0.000150
      2          6           0        0.041784    0.000019   -0.000021
      3         17           0        0.646671   -0.339821    1.663166
      4         17           0        0.647004    1.610184   -0.537250
      5         17           0        0.646865   -1.270481   -1.125754
      6          1           0       -2.315545    1.054507    0.933705
      7          1           0       -2.315601   -1.335826    0.446012
      8          1           0       -2.315444    0.281682   -1.380235
 ---------------------------------------------------------------------

 SCF Done:  E(RHF) =  -1707.33841634     A.U. after    2 cycles

 The electronic state is 1-A.
 Alpha  occ. eigenvalues -- -105.59681-105.59681-105.59680 -69.56810 -11.43107
 Alpha  occ. eigenvalues --  -10.64484 -10.64468 -10.64467  -7.81417  -7.81417
 Alpha  occ. eigenvalues --   -7.81413  -7.80998  -7.80998  -7.80998  -7.80997
 Alpha  occ. eigenvalues --   -7.80993  -7.80993  -6.23825  -3.99212  -3.99160
 Alpha  occ. eigenvalues --   -3.99160  -1.20020  -1.06631  -1.06630  -0.86417
 Alpha  occ. eigenvalues --   -0.75147  -0.63355  -0.63354  -0.60908  -0.52793
 Alpha  occ. eigenvalues --   -0.52793  -0.50727  -0.50727  -0.47111  -0.47110
 Alpha  occ. eigenvalues --   -0.46001  -0.44142
 Alpha virt. eigenvalues --    0.03357   0.05415   0.05415   0.05712   0.07769
 Alpha virt. eigenvalues --    0.08168   0.08168   0.10461   0.10461   0.11227
 Alpha virt. eigenvalues --    0.13805   0.14340   0.14340   0.16415   0.17594

 Mulliken charges:
               1
     1  Si   1.222850
     2  C   -1.011823
     3  Cl   0.068192
     4  Cl   0.068191
     5  Cl   0.068188
     6  H   -0.138533
     7  H   -0.138532
     8  H   -0.138533
 Sum of Mulliken charges =  -0.00000

 Dipole moment (field-independent basis, Debye):
    X=             -1.8100    Y=              0.0002    Z=             -0.0002  Tot=              1.8100

 Test job not archived.
 1\1\GINC-SE109\SP\RHF\Aug-CC-pVDZ\C1H3Cl3Si1\OHZDE\08-Apr-2025\0\\#t h
 f aug-cc-pvdz iop(5/13=1,5/36=2,99/5=2) pseudo=read geom=check guess=(
 read,tcheck) scf=(maxcycle=1)\\title\\0,1\Si,0,1.878092,0.000111,0.000
 155\C,0,-0.041784,0.000019,0.000021\Cl,0,-0.646666,-0.341761,-1.66277\
 Cl,0,-0.647006,1.610809,0.53537\Cl,0,-0.646867,-1.269168,1.127233\H,0,
 2.315547,1.053419,-0.934928\H,0,2.315603,-1.336344,-0.444448\H,0,2.315
 44,0.283293,1.379911\\Version=ES64L-G16RevC.01\State=1-A\HF=-1707.3384
 163\RMSD=3.959e-03\Dipole=0.7120899,0.0000708,0.0000803\Quadrupole=1.6

 Normal termination of Gaussian 16 at Tue Apr  8 23:57:28 2025.
