 Gaussian 16, Revision C.01,

 ----------------------------------------------------------------------
 #t hf aug-cc-pvdz symm=none int=(grid=ultrafine) guess=(read,tcheck) s
 table=(opt,rrhf)
 ----------------------------------------------------------------------
 -----
 title
 -----
 Symbolic Z-matrix:
 Charge =  0 Multiplicity = 1

 SCF Done:  E(RHF) =  -391.427601976     A.U. after   11 cycles
 Normal termination of Gaussian 16 at Wed Apr  9 00:46:54 2025.
 Gaussian 16:  ES64L-G16RevC.01  3-Jul-2019

 ----------------------------------------------------------------------
 #t hf aug-cc-pvdz iop(5/13=1,5/36=2,99/5=2) pseudo=read geom=check gue
 ss=(read,tcheck) scf=(maxcycle=1)
 ----------------------------------------------------------------------
 -----
 title
 -----
 Structure from the checkpoint file:  "BDE49_nonexpt_840_mol1.chk"
 Charge =  0 Multiplicity = 1

                         Standard orientation:
 ---------------------------------------------------------------------
 Center     Atomic      Atomic             Coordinates (Angstroms)
 Number     Number       Type             X           Y           Z
 ---------------------------------------------------------------------
      1         14           0        1.171548   -0.064745   -0.000000
      2          5           0       -0.763372    0.554755    0.000004
      3          8           0       -1.746536   -0.374801   -0.000001
      4          1           0       -1.050026    1.721477   -0.000000
      5          1           0       -2.635026   -0.001126   -0.000003
      6          1           0        1.322118   -1.540775   -0.000004
      7          1           0        1.875204    0.475739    1.193773
      8          1           0        1.875201    0.475745   -1.193772
 ---------------------------------------------------------------------

 SCF Done:  E(RHF) =  -391.564119382     A.U. after    2 cycles

 The electronic state is 1-A.
 Alpha  occ. eigenvalues --  -69.50819 -20.57931  -7.62829  -6.18138  -3.93506
 Alpha  occ. eigenvalues --   -3.93497  -3.93460  -1.47711  -0.79313  -0.72102
 Alpha  occ. eigenvalues --   -0.66079  -0.54725  -0.54603  -0.47728  -0.47643
 Alpha  occ. eigenvalues --   -0.41078
 Alpha virt. eigenvalues --    0.03046   0.04491   0.04676   0.05239   0.07122
 Alpha virt. eigenvalues --    0.07602   0.07822   0.09239   0.09288   0.10440
 Alpha virt. eigenvalues --    0.11095   0.11588   0.13368   0.16823   0.18198

 Mulliken charges:
               1
     1  Si   0.531809
     2  B    0.327232
     3  O   -0.895243
     4  H    0.033250
     5  H    0.486578
     6  H   -0.138865
     7  H   -0.172380
     8  H   -0.172380
 Sum of Mulliken charges =  -0.00000

 Dipole moment (field-independent basis, Debye):
    X=             -1.8621    Y=              0.9034    Z=              0.0000  Tot=              2.0697

 Test job not archived.
 1\1\GINC-SE071\SP\RHF\Aug-CC-pVDZ\B1H5O1Si1\OHZDE\09-Apr-2025\0\\#t hf
  aug-cc-pvdz iop(5/13=1,5/36=2,99/5=2) pseudo=read geom=check guess=(r
 ead,tcheck) scf=(maxcycle=1)\\title\\0,1\Si,0,1.171548,-0.064745,0.\B,
 0,-0.763372,0.554755,0.000004\O,0,-1.746536,-0.374801,-0.000001\H,0,-1
 .050026,1.721477,0.\H,0,-2.635026,-0.001125,-0.000003\H,0,1.322117,-1.
 540775,-0.000004\H,0,1.875204,0.475739,1.193773\H,0,1.875201,0.475745,
 -1.193772\\Version=ES64L-G16RevC.01\State=1-A\HF=-391.5641194\RMSD=8.3
 86e-03\Dipole=-0.7326017,0.355427,0.0000011\Quadrupole=2.5677341,-2.09

 Normal termination of Gaussian 16 at Wed Apr  9 00:46:56 2025.
