 Gaussian 16, Revision C.01,

 ----------------------------------------------------------------------
 #t hf aug-cc-pvdz symm=none int=(grid=ultrafine) guess=(read,tcheck) s
 table=(opt,rrhf)
 ----------------------------------------------------------------------
 -----
 title
 -----
 Symbolic Z-matrix:
 Charge =  0 Multiplicity = 1

 SCF Done:  E(RHF) =  -152.917415234     A.U. after   13 cycles
 Normal termination of Gaussian 16 at Tue Apr  8 22:45:27 2025.
 Gaussian 16:  ES64L-G16RevC.01  3-Jul-2019

 ----------------------------------------------------------------------
 #t hf aug-cc-pvdz iop(5/13=1,5/36=2,99/5=2) pseudo=read geom=check gue
 ss=(read,tcheck) scf=(maxcycle=1)
 ----------------------------------------------------------------------
 -----
 title
 -----
 Structure from the checkpoint file:  "BDE49_expt_153_mol1.chk"
 Charge =  0 Multiplicity = 1

                         Standard orientation:
 ---------------------------------------------------------------------
 Center     Atomic      Atomic             Coordinates (Angstroms)
 Number     Number       Type             X           Y           Z
 ---------------------------------------------------------------------
      1          6           0       -0.035718    0.411122    0.000001
      2          8           0        1.134081   -0.295580   -0.000003
      3          1           0        1.873972    0.316125   -0.000016
      4          6           0       -1.225661   -0.178944    0.000003
      5          1           0        0.064240    1.494383    0.000005
      6          1           0       -1.316658   -1.258017    0.000000
      7          1           0       -2.125928    0.419079    0.000010
 ---------------------------------------------------------------------

 SCF Done:  E(RHF) =  -153.076028650     A.U. after    2 cycles

 The electronic state is 1-A.
 Alpha  occ. eigenvalues --  -20.57984 -11.30534 -11.22169  -1.49039  -1.02940
 Alpha  occ. eigenvalues --   -0.79934  -0.74543  -0.63068  -0.57838  -0.57195
 Alpha  occ. eigenvalues --   -0.52206  -0.35126
 Alpha virt. eigenvalues --    0.03139   0.04684   0.05163   0.06850   0.10997
 Alpha virt. eigenvalues --    0.11766   0.12547   0.12928   0.15601   0.17613
 Alpha virt. eigenvalues --    0.19640   0.20346   0.21106   0.22539   0.23588

 Mulliken charges:
               1
     1  C    1.199340
     2  O   -1.225850
     3  H    0.381132
     4  C   -0.151631
     5  H   -0.083308
     6  H   -0.056054
     7  H   -0.063629
 Sum of Mulliken charges =  -0.00000

 Dipole moment (field-independent basis, Debye):
    X=              0.8103    Y=              1.7282    Z=             -0.0000  Tot=              1.9087

 Test job not archived.
 1\1\GINC-SE051\SP\RHF\Aug-CC-pVDZ\C2H4O1\OHZDE\08-Apr-2025\0\\#t hf au
 g-cc-pvdz iop(5/13=1,5/36=2,99/5=2) pseudo=read geom=check guess=(read
 ,tcheck) scf=(maxcycle=1)\\title\\0,1\C,0,0.035718,0.411122,-0.000001\
 O,0,-1.134081,-0.29558,0.000003\H,0,-1.873972,0.316125,0.000016\C,0,1.
 225661,-0.178944,-0.000003\H,0,-0.06424,1.494383,-0.000005\H,0,1.31665
 8,-1.258017,0.\H,0,2.125928,0.419079,-0.00001\\Version=ES64L-G16RevC.0
 1\State=1-A\HF=-153.0760287\RMSD=1.300e-02\Dipole=-0.3187942,0.6799216
 ,0.0000062\Quadrupole=2.14483,0.4542637,-2.5990937,-2.0361994,-0.00005

 Normal termination of Gaussian 16 at Tue Apr  8 22:45:29 2025.
