 Gaussian 16, Revision C.01,

 ----------------------------------------------------------------------
 #t hf aug-cc-pvdz symm=none int=(grid=ultrafine) guess=(read,tcheck) s
 table=(opt,rrhf)
 ----------------------------------------------------------------------
 -----
 title
 -----
 Symbolic Z-matrix:
 Charge =  0 Multiplicity = 1

 SCF Done:  E(RHF) =  -1255.14259776     A.U. after   14 cycles

 1\1\GINC-SE335\Stability\RHF\Aug-CC-pVDZ\Cl1H1S2\OHZDE\09-Apr-2025\0\\
 #t hf aug-cc-pvdz symm=none int=(grid=ultrafine) guess=(read,tcheck) s
 table=(opt,rrhf)\\title\\0,1\Cl,0,-1.683895,-0.389492,-0.003626\S,0,1.
 64857,-0.39229,-0.088636\S,0,0.027235,0.846489,0.01572\H,0,1.813319,-0
 .645815,1.228308\\Version=ES64L-G16RevC.01\HF=-1255.1425978\RMSD=6.618
 e-09\Dipole=0.6181789,-0.0196862,0.3627258\Quadrupole=0.4211705,-0.201
 8339,-0.2193366,-0.9698523,1.4811883,-0.7052429\PG=Unknown\\@
 The archive entry for this job was punched.

 Normal termination of Gaussian 16 at Wed Apr  9 00:15:32 2025.
 Gaussian 16:  ES64L-G16RevC.01  3-Jul-2019

 ----------------------------------------------------------------------
 #t hf aug-cc-pvdz iop(5/13=1,5/36=2,99/5=2) pseudo=read geom=check gue
 ss=(read,tcheck) scf=(maxcycle=1)
 ----------------------------------------------------------------------
 -----
 title
 -----
 Structure from the checkpoint file:  "BDE49_nonexpt_2524_mol1.chk"
 Charge =  0 Multiplicity = 1

                         Standard orientation:
 ---------------------------------------------------------------------
 Center     Atomic      Atomic             Coordinates (Angstroms)
 Number     Number       Type             X           Y           Z
 ---------------------------------------------------------------------
      1         17           0       -1.683895   -0.389492   -0.003626
      2         16           0        1.648570   -0.392290   -0.088636
      3         16           0        0.027235    0.846489    0.015720
      4          1           0        1.813319   -0.645815    1.228308
 ---------------------------------------------------------------------

 SCF Done:  E(RHF) =  -1255.34016436     A.U. after    2 cycles

 The electronic state is 1-A.
 Alpha  occ. eigenvalues -- -105.58913 -94.04679 -94.01301 -10.63601  -8.32240
 Alpha  occ. eigenvalues --   -8.29304  -7.80530  -7.80087  -7.80057  -6.29977
 Alpha  occ. eigenvalues --   -6.29768  -6.29428  -6.27119  -6.26915  -6.26694
 Alpha  occ. eigenvalues --   -1.15158  -1.04942  -0.89113  -0.62451  -0.56746
 Alpha  occ. eigenvalues --   -0.54606  -0.51040  -0.46033  -0.41735  -0.39213
 Alpha virt. eigenvalues --    0.03022   0.03650   0.06013   0.09888   0.10411
 Alpha virt. eigenvalues --    0.11352   0.12596   0.13638   0.14328   0.14561
 Alpha virt. eigenvalues --    0.16075   0.17743   0.18529   0.21451   0.24618

 Mulliken charges:
               1
     1  Cl  -0.245633
     2  S   -0.321814
     3  S    0.129220
     4  H    0.438228
 Sum of Mulliken charges =  -0.00000

 Dipole moment (field-independent basis, Debye):
    X=              1.6002    Y=             -0.0853    Z=              0.9632  Tot=              1.8696

 Test job not archived.
 1\1\GINC-SE335\SP\RHF\Aug-CC-pVDZ\Cl1H1S2\OHZDE\09-Apr-2025\0\\#t hf a
 ug-cc-pvdz iop(5/13=1,5/36=2,99/5=2) pseudo=read geom=check guess=(rea
 d,tcheck) scf=(maxcycle=1)\\title\\0,1\Cl,0,-1.683895,-0.389492,-0.003
 626\S,0,1.64857,-0.39229,-0.088636\S,0,0.027235,0.846489,0.01572\H,0,1
 .813319,-0.645815,1.228308\\Version=ES64L-G16RevC.01\State=1-A\HF=-125
 5.3401644\RMSD=3.442e-03\Dipole=0.6295486,-0.033541,0.3789398\Quadrupo
 le=0.5112737,-0.2339061,-0.2773677,-1.039711,1.5398013,-0.7303342\PG=C
 01 [X(Cl1H1S2)]\\@

 Normal termination of Gaussian 16 at Wed Apr  9 00:15:33 2025.
