 Gaussian 16, Revision C.01,

 ----------------------------------------------------------------------
 #t hf aug-cc-pvdz symm=none int=(grid=ultrafine) guess=(read,tcheck) s
 table=(opt,rrhf)
 ----------------------------------------------------------------------
 -----
 title
 -----
 Symbolic Z-matrix:
 Charge =  0 Multiplicity = 1

 SCF Done:  E(RHF) =  -1138.87669834     A.U. after   15 cycles
 Normal termination of Gaussian 16 at Tue Apr  8 23:42:45 2025.
 Gaussian 16:  ES64L-G16RevC.01  3-Jul-2019

 ----------------------------------------------------------------------
 #t hf aug-cc-pvdz iop(5/13=1,5/36=2,99/5=2) pseudo=read geom=check gue
 ss=(read,tcheck) scf=(maxcycle=1)
 ----------------------------------------------------------------------
 -----
 title
 -----
 Structure from the checkpoint file:  "BDE49_nonexpt_1645_mol1.chk"
 Charge =  0 Multiplicity = 1

                         Standard orientation:
 ---------------------------------------------------------------------
 Center     Atomic      Atomic             Coordinates (Angstroms)
 Number     Number       Type             X           Y           Z
 ---------------------------------------------------------------------
      1         14           0        0.531500    0.167309   -0.857703
      2          7           0        1.477302   -1.240514   -0.003346
      3         15           0       -1.510398    0.063736    0.144513
      4          8           0        0.853263   -2.156317    0.547079
      5          8           0        2.696554   -1.193764   -0.061433
      6          8           0       -1.556537    0.813395    1.411635
      7          8           0       -1.871543   -1.489536    0.151893
      8          6           0        1.487195    1.741149   -0.572888
      9          6           0        1.716434    2.107716    0.906480
     10          1           0        0.930665    2.535851   -1.086120
     11          1           0        2.439090    1.641604   -1.104819
     12          1           0        0.774480    2.169548    1.454295
     13          1           0        2.223986    3.072037    0.983440
     14          1           0        2.347033    1.363764    1.398205
     15          8           0       -2.543486    0.591016   -0.971184
     16          1           0       -3.086273    1.312467   -0.628087
     17          1           0       -1.112755   -2.012572    0.475846
     18          1           0        0.509864   -0.309016   -2.254650
 ---------------------------------------------------------------------

 SCF Done:  E(RHF) =  -1139.45515654     A.U. after    2 cycles

 The electronic state is 1-A.
 Alpha  occ. eigenvalues --  -84.44065 -69.61350 -20.61647 -20.60939 -20.60851
 Alpha  occ. eigenvalues --  -20.59546 -20.51839 -15.77586 -11.26698 -11.25035
 Alpha  occ. eigenvalues --   -6.89375  -6.28281  -4.43489  -4.42828  -4.41799
 Alpha  occ. eigenvalues --   -4.03635  -4.03490  -4.03446  -1.67586  -1.54435
 Alpha  occ. eigenvalues --   -1.51647  -1.48187  -1.39977  -1.06407  -1.01145
 Alpha  occ. eigenvalues --   -0.89202  -0.87098  -0.83791  -0.76097  -0.74463
 Alpha  occ. eigenvalues --   -0.73372  -0.71179  -0.67765  -0.64785  -0.64220
 Alpha  occ. eigenvalues --   -0.61413  -0.59400  -0.58258  -0.55969  -0.55028
 Alpha  occ. eigenvalues --   -0.53244  -0.51272  -0.51163  -0.48897  -0.48243
 Alpha  occ. eigenvalues --   -0.46817  -0.46764  -0.42625
 Alpha virt. eigenvalues --    0.02297   0.03269   0.03737   0.04395   0.04512
 Alpha virt. eigenvalues --    0.05796   0.06469   0.06955   0.07191   0.08090
 Alpha virt. eigenvalues --    0.08792   0.09420   0.10052   0.11195   0.12261

 Mulliken charges:
               1
     1  Si   1.200571
     2  N    1.827200
     3  P    3.531084
     4  O   -1.234749
     5  O   -1.218803
     6  O   -1.607793
     7  O   -1.585401
     8  C   -0.667997
     9  C   -0.269051
    10  H    0.103093
    11  H    0.126740
    12  H    0.149815
    13  H    0.118468
    14  H    0.150711
    15  O   -1.327017
    16  H    0.340853
    17  H    0.584470
    18  H   -0.222193
 Sum of Mulliken charges =  -0.00000

 Dipole moment (field-independent basis, Debye):
    X=              0.1067    Y=              3.1530    Z=             -3.3146  Tot=              4.5759

 Test job not archived.
 1\1\GINC-SE120\SP\RHF\Aug-CC-pVDZ\C2H8N1O5P1Si1\OHZDE\08-Apr-2025\0\\#
 t hf aug-cc-pvdz iop(5/13=1,5/36=2,99/5=2) pseudo=read geom=check gues
 s=(read,tcheck) scf=(maxcycle=1)\\title\\0,1\Si,0,0.5315,0.167309,-0.8
 57703\N,0,1.477302,-1.240514,-0.003346\P,0,-1.510398,0.063736,0.144513
 \O,0,0.853263,-2.156317,0.547079\O,0,2.696554,-1.193764,-0.061433\O,0,
 -1.556537,0.813395,1.411635\O,0,-1.871543,-1.489536,0.151893\C,0,1.487
 195,1.741149,-0.572888\C,0,1.716434,2.107716,0.90648\H,0,0.930665,2.53
 5851,-1.08612\H,0,2.43909,1.641604,-1.104819\H,0,0.77448,2.169548,1.45

 Normal termination of Gaussian 16 at Tue Apr  8 23:42:56 2025.
