 Gaussian 16, Revision C.01,

 ----------------------------------------------------------------------
 #t hf aug-cc-pvdz symm=none int=(grid=ultrafine) guess=(read,tcheck) s
 table=(opt,rrhf)
 ----------------------------------------------------------------------
 -----
 title
 -----
 Symbolic Z-matrix:
 Charge =  0 Multiplicity = 1

 SCF Done:  E(RHF) =  -390.177171319     A.U. after   10 cycles

 1\1\GINC-SE424\Stability\RHF\Aug-CC-pVDZ\F1H3Si1\OHZDE\08-Apr-2025\0\\
 #t hf aug-cc-pvdz symm=none int=(grid=ultrafine) guess=(read,tcheck) s
 table=(opt,rrhf)\\title\\0,1\Si,0,-0.504038,-0.000003,-0.000001\F,0,1.
 106723,0.000007,-0.000003\H,0,-0.968051,0.882662,-1.088519\H,0,-0.9679
 8,0.501371,1.308683\H,0,-0.967941,-1.384057,-0.22012\\Version=ES64L-G1
 6RevC.01\HF=-390.1771713\RMSD=4.292e-09\Dipole=-0.6163956,0.000005,-0.
 0000261\Quadrupole=-0.7480922,0.3740474,0.3740448,0.0000167,0.000021,-
 0.0000178\PG=Unknown\\@

 Normal termination of Gaussian 16 at Tue Apr  8 22:57:34 2025.
 Gaussian 16:  ES64L-G16RevC.01  3-Jul-2019

 ----------------------------------------------------------------------
 #t hf aug-cc-pvdz iop(5/13=1,5/36=2,99/5=2) pseudo=read geom=check gue
 ss=(read,tcheck) scf=(maxcycle=1)
 ----------------------------------------------------------------------
 -----
 title
 -----
 Structure from the checkpoint file:  "BDE49_expt_1928_mol1.chk"
 Charge =  0 Multiplicity = 1

                         Standard orientation:
 ---------------------------------------------------------------------
 Center     Atomic      Atomic             Coordinates (Angstroms)
 Number     Number       Type             X           Y           Z
 ---------------------------------------------------------------------
      1         14           0        0.504038    0.000003   -0.000001
      2          9           0       -1.106723   -0.000007   -0.000003
      3          1           0        0.968052   -0.882947   -1.088288
      4          1           0        0.967980   -0.501029    1.308814
      5          1           0        0.967941    1.383999   -0.220482
 ---------------------------------------------------------------------

 SCF Done:  E(RHF) =  -390.303592623     A.U. after    2 cycles

 The electronic state is 1-A.
 Alpha  occ. eigenvalues --  -69.58663 -26.45163  -6.25236  -4.00709  -4.00484
 Alpha  occ. eigenvalues --   -4.00484  -1.56259  -0.78111  -0.64473  -0.64472
 Alpha  occ. eigenvalues --   -0.63633  -0.49596  -0.49596
 Alpha virt. eigenvalues --    0.04015   0.04940   0.05798   0.05799   0.09105
 Alpha virt. eigenvalues --    0.09105   0.15029   0.15688   0.18540   0.18540
 Alpha virt. eigenvalues --    0.21272   0.25605   0.25605   0.28730   0.32033

 Mulliken charges:
               1
     1  Si   1.583273
     2  F   -0.815021
     3  H   -0.256081
     4  H   -0.256086
     5  H   -0.256085
 Sum of Mulliken charges =  -0.00000

 Dipole moment (field-independent basis, Debye):
    X=              1.4314    Y=             -0.0000    Z=             -0.0001  Tot=              1.4314

 Test job not archived.
 1\1\GINC-SE424\SP\RHF\Aug-CC-pVDZ\F1H3Si1\OHZDE\08-Apr-2025\0\\#t hf a
 ug-cc-pvdz iop(5/13=1,5/36=2,99/5=2) pseudo=read geom=check guess=(rea
 d,tcheck) scf=(maxcycle=1)\\title\\0,1\Si,0,-0.504038,-0.000003,-0.000
 001\F,0,1.106723,0.000007,-0.000003\H,0,-0.968051,0.882662,-1.088519\H
 ,0,-0.96798,0.501371,1.308683\H,0,-0.967941,-1.384057,-0.22012\\Versio
 n=ES64L-G16RevC.01\State=1-A\HF=-390.3035926\RMSD=4.753e-03\Dipole=-0.
 5631623,0.0000049,-0.000025\Quadrupole=-0.6905691,0.3452884,0.3452806,
 0.0000104,0.0000237,-0.000018\PG=C01 [X(F1H3Si1)]\\@

 Normal termination of Gaussian 16 at Tue Apr  8 22:57:35 2025.
