 Gaussian 16, Revision C.01,

 ----------------------------------------------------------------------
 #t hf aug-cc-pvdz symm=none int=(grid=ultrafine) guess=(read,tcheck) s
 table=(opt,rrhf)
 ----------------------------------------------------------------------
 -----
 title
 -----
 Symbolic Z-matrix:
 Charge =  0 Multiplicity = 1

 SCF Done:  E(RHF) =  -495.406519228     A.U. after   16 cycles
 Normal termination of Gaussian 16 at Tue Apr  8 23:21:24 2025.
 Gaussian 16:  ES64L-G16RevC.01  3-Jul-2019

 ----------------------------------------------------------------------
 #t hf aug-cc-pvdz iop(5/13=1,5/36=2,99/5=2) pseudo=read geom=check gue
 ss=(read,tcheck) scf=(maxcycle=1)
 ----------------------------------------------------------------------
 -----
 title
 -----
 Structure from the checkpoint file:  "BDE49_nonexpt_1173_mol1.chk"
 Charge =  0 Multiplicity = 1

                         Standard orientation:
 ---------------------------------------------------------------------
 Center     Atomic      Atomic             Coordinates (Angstroms)
 Number     Number       Type             X           Y           Z
 ---------------------------------------------------------------------
      1          9           0        2.612804    0.108070    0.818028
      2          8           0        2.080762    0.127074   -0.550911
      3          8           0        0.816956    0.624257   -0.451055
      4          6           0       -0.129863   -0.434900   -0.173189
      5          8           0        0.183093   -1.587478   -0.184138
      6          7           0       -1.337867    0.121298    0.059756
      7          6           0       -1.620223    1.555203    0.060551
      8          1           0       -0.701103    2.127543    0.132191
      9          1           0       -2.250391    1.790965    0.922180
     10          1           0       -2.152934    1.847499   -0.850893
     11          6           0       -2.480456   -0.771507    0.227634
     12          1           0       -2.970428   -0.573565    1.185417
     13          1           0       -2.132406   -1.800729    0.206992
     14          1           0       -3.206135   -0.617035   -0.577575
 ---------------------------------------------------------------------

 SCF Done:  E(RHF) =  -495.890480766     A.U. after    2 cycles

 The electronic state is 1-A.
 Alpha  occ. eigenvalues --  -26.51347 -20.75512 -20.68109 -20.54393 -15.55927
 Alpha  occ. eigenvalues --  -11.43877 -11.29591 -11.28891  -1.73506  -1.55384
 Alpha  occ. eigenvalues --   -1.49498  -1.30630  -1.23970  -1.00858  -0.99078
 Alpha  occ. eigenvalues --   -0.82865  -0.78098  -0.74199  -0.73909  -0.69520
 Alpha  occ. eigenvalues --   -0.69348  -0.67419  -0.63878  -0.60944  -0.59957
 Alpha  occ. eigenvalues --   -0.59217  -0.58962  -0.57119  -0.52971  -0.51538
 Alpha  occ. eigenvalues --   -0.47087  -0.43131
 Alpha virt. eigenvalues --    0.02834   0.04200   0.04251   0.05574   0.06439
 Alpha virt. eigenvalues --    0.07314   0.08248   0.09571   0.11468   0.12567
 Alpha virt. eigenvalues --    0.13417   0.13645   0.15217   0.15497   0.16234

 Mulliken charges:
               1
     1  F   -0.380781
     2  O    0.251446
     3  O   -0.777099
     4  C    1.029373
     5  O   -0.988341
     6  N    0.612670
     7  C   -0.285064
     8  H    0.059401
     9  H    0.162482
    10  H    0.185297
    11  C   -0.293864
    12  H    0.180863
    13  H    0.015342
    14  H    0.228277
 Sum of Mulliken charges =  -0.00000

 Dipole moment (field-independent basis, Debye):
    X=             -4.3079    Y=              2.3133    Z=             -0.0387  Tot=              4.8898

 Test job not archived.
 1\1\GINC-SE435\SP\RHF\Aug-CC-pVDZ\C3H6F1N1O3\OHZDE\08-Apr-2025\0\\#t h
 f aug-cc-pvdz iop(5/13=1,5/36=2,99/5=2) pseudo=read geom=check guess=(
 read,tcheck) scf=(maxcycle=1)\\title\\0,1\F,0,2.612804,0.10807,0.81802
 8\O,0,2.080762,0.127074,-0.550911\O,0,0.816956,0.624257,-0.451055\C,0,
 -0.129863,-0.4349,-0.173189\O,0,0.183093,-1.587478,-0.184138\N,0,-1.33
 7867,0.121298,0.059756\C,0,-1.620223,1.555203,0.060551\H,0,-0.701103,2
 .127543,0.132191\H,0,-2.250391,1.790965,0.92218\H,0,-2.152934,1.847499
 ,-0.850893\C,0,-2.480456,-0.771507,0.227634\H,0,-2.970428,-0.573565,1.

 Normal termination of Gaussian 16 at Tue Apr  8 23:21:29 2025.
