 Gaussian 16, Revision C.01,

 ----------------------------------------------------------------------
 #t hf aug-cc-pvdz symm=none int=(grid=ultrafine) guess=(read,tcheck) s
 table=(opt,rrhf)
 ----------------------------------------------------------------------
 -----
 title
 -----
 Symbolic Z-matrix:
 Charge =  0 Multiplicity = 1

 SCF Done:  E(RHF) =  -65.4478017649     A.U. after   11 cycles
 Normal termination of Gaussian 16 at Wed Apr  9 00:28:38 2025.
 Gaussian 16:  ES64L-G16RevC.01  3-Jul-2019

 ----------------------------------------------------------------------
 #t hf aug-cc-pvdz iop(5/13=1,5/36=2,99/5=2) pseudo=read geom=check gue
 ss=(read,tcheck) scf=(maxcycle=1)
 ----------------------------------------------------------------------
 -----
 title
 -----
 Structure from the checkpoint file:  "BDE49_nonexpt_310_mol1.chk"
 Charge =  0 Multiplicity = 1

                         Standard orientation:
 ---------------------------------------------------------------------
 Center     Atomic      Atomic             Coordinates (Angstroms)
 Number     Number       Type             X           Y           Z
 ---------------------------------------------------------------------
      1          6           0        0.682140    0.000005   -0.016388
      2          5           0       -0.872035    0.000002   -0.020890
      3          1           0        1.145809   -0.896006   -0.436242
      4          1           0        0.948246   -0.000098    1.057062
      5          1           0        1.145824    0.896074   -0.436095
      6          1           0       -1.486263   -1.024300    0.009024
      7          1           0       -1.486283    1.024292    0.009026
 ---------------------------------------------------------------------

 SCF Done:  E(RHF) =  -65.5237485854     A.U. after    2 cycles

 The electronic state is 1-A.
 Alpha  occ. eigenvalues --  -11.20913  -7.59351  -0.95871  -0.68011  -0.57891
 Alpha  occ. eigenvalues --   -0.55181  -0.48378  -0.46546
 Alpha virt. eigenvalues --    0.03879   0.03927   0.04074   0.04897   0.07165
 Alpha virt. eigenvalues --    0.08270   0.08639   0.11825   0.12120   0.12701
 Alpha virt. eigenvalues --    0.16343   0.16454   0.17838   0.18390   0.24361

 Mulliken charges:
               1
     1  C   -0.369797
     2  B   -0.032584
     3  H    0.029080
     4  H    0.076064
     5  H    0.029064
     6  H    0.134080
     7  H    0.134093
 Sum of Mulliken charges =  -0.00000

 Dipole moment (field-independent basis, Debye):
    X=              0.5421    Y=             -0.0000    Z=              0.0609  Tot=              0.5455

 Test job not archived.
 1\1\GINC-SE332\SP\RHF\Aug-CC-pVDZ\C1H5B1\OHZDE\09-Apr-2025\0\\#t hf au
 g-cc-pvdz iop(5/13=1,5/36=2,99/5=2) pseudo=read geom=check guess=(read
 ,tcheck) scf=(maxcycle=1)\\title\\0,1\C,0,0.68214,0.000005,-0.016388\B
 ,0,-0.872035,0.000002,-0.02089\H,0,1.145809,-0.896006,-0.436242\H,0,0.
 948246,-0.000098,1.057062\H,0,1.145824,0.896074,-0.436095\H,0,-1.48626
 3,-1.0243,0.009024\H,0,-1.486283,1.024292,0.009026\\Version=ES64L-G16R
 evC.01\State=1-A\HF=-65.5237486\RMSD=6.004e-03\Dipole=0.2132637,-0.000
 0067,0.0239639\Quadrupole=-0.901281,-0.3262858,1.2275668,-0.0000179,0.

 Normal termination of Gaussian 16 at Wed Apr  9 00:28:40 2025.
