 Gaussian 16, Revision C.01,

 ----------------------------------------------------------------------
 #t hf aug-cc-pvdz symm=none int=(grid=ultrafine) guess=(read,tcheck) s
 table=(opt,rrhf)
 ----------------------------------------------------------------------
 -----
 title
 -----
 Symbolic Z-matrix:
 Charge =  0 Multiplicity = 1

 SCF Done:  E(RHF) =  -400.115038300     A.U. after   12 cycles

 1\1\GINC-SE103\Stability\RHF\Aug-CC-pVDZ\H4N2Si1\OHZDE\08-Apr-2025\0\\
 #t hf aug-cc-pvdz symm=none int=(grid=ultrafine) guess=(read,tcheck) s
 table=(opt,rrhf)\\title\\0,1\Si,0,-1.005228,0.064027,0.000005\N,0,0.69
 408,-0.525804,0.000004\N,0,1.583376,0.346617,-0.000018\H,0,2.501825,-0
 .142975,0.000004\H,0,-1.627143,-0.519709,1.207463\H,0,-1.627198,-0.519
 861,-1.207351\H,0,-1.116487,1.540477,-0.000086\\Version=ES64L-G16RevC.
 01\HF=-400.1150383\RMSD=8.771e-09\Dipole=-0.0587136,-0.0268988,0.00000
 76\Quadrupole=2.8157686,-2.5148528,-0.3009158,-0.9325607,0.0000355,0.0

 Normal termination of Gaussian 16 at Tue Apr  8 23:59:21 2025.
 Gaussian 16:  ES64L-G16RevC.01  3-Jul-2019

 ----------------------------------------------------------------------
 #t hf aug-cc-pvdz iop(5/13=1,5/36=2,99/5=2) pseudo=read geom=check gue
 ss=(read,tcheck) scf=(maxcycle=1)
 ----------------------------------------------------------------------
 -----
 title
 -----
 Structure from the checkpoint file:  "BDE49_nonexpt_2077_mol1.chk"
 Charge =  0 Multiplicity = 1

                         Standard orientation:
 ---------------------------------------------------------------------
 Center     Atomic      Atomic             Coordinates (Angstroms)
 Number     Number       Type             X           Y           Z
 ---------------------------------------------------------------------
      1         14           0       -1.005228    0.064027    0.000005
      2          7           0        0.694080   -0.525804    0.000004
      3          7           0        1.583376    0.346617   -0.000018
      4          1           0        2.501825   -0.142975    0.000004
      5          1           0       -1.627143   -0.519709    1.207463
      6          1           0       -1.627198   -0.519861   -1.207351
      7          1           0       -1.116487    1.540477   -0.000086
 ---------------------------------------------------------------------

 SCF Done:  E(RHF) =  -400.256587683     A.U. after    2 cycles

 The electronic state is 1-A.
 Alpha  occ. eigenvalues --  -69.55558 -15.57958 -15.55217  -6.22526  -3.97915
 Alpha  occ. eigenvalues --   -3.97847  -3.97839  -1.35113  -0.95658  -0.76782
 Alpha  occ. eigenvalues --   -0.70431  -0.63138  -0.57870  -0.50165  -0.49438
 Alpha  occ. eigenvalues --   -0.41949
 Alpha virt. eigenvalues --    0.03577   0.04694   0.05416   0.05992   0.06516
 Alpha virt. eigenvalues --    0.06664   0.08606   0.08693   0.13226   0.14809
 Alpha virt. eigenvalues --    0.16256   0.17708   0.18266   0.19466   0.20127

 Mulliken charges:
               1
     1  Si   0.892487
     2  N   -0.472655
     3  N    0.054907
     4  H    0.061019
     5  H   -0.208672
     6  H   -0.208671
     7  H   -0.118414
 Sum of Mulliken charges =  -0.00000

 Dipole moment (field-independent basis, Debye):
    X=             -0.3310    Y=             -0.0472    Z=              0.0000  Tot=              0.3343

 Test job not archived.
 1\1\GINC-SE103\SP\RHF\Aug-CC-pVDZ\H4N2Si1\OHZDE\08-Apr-2025\0\\#t hf a
 ug-cc-pvdz iop(5/13=1,5/36=2,99/5=2) pseudo=read geom=check guess=(rea
 d,tcheck) scf=(maxcycle=1)\\title\\0,1\Si,0,-1.005228,0.064027,0.00000
 5\N,0,0.69408,-0.525804,0.000004\N,0,1.583376,0.346617,-0.000018\H,0,2
 .501825,-0.142975,0.000004\H,0,-1.627143,-0.519709,1.207463\H,0,-1.627
 198,-0.519861,-1.207351\H,0,-1.116487,1.540477,-0.000086\\Version=ES64
 L-G16RevC.01\State=1-A\HF=-400.2565877\RMSD=3.395e-02\Dipole=-0.130226
 4,-0.0185645,0.0000091\Quadrupole=3.1054697,-2.5726581,-0.5328116,-0.8

 Normal termination of Gaussian 16 at Tue Apr  8 23:59:24 2025.
