 Gaussian 16, Revision C.01,

 ----------------------------------------------------------------------
 #t hf aug-cc-pvdz symm=none int=(grid=ultrafine) guess=(read,tcheck) s
 table=(opt,rrhf)
 ----------------------------------------------------------------------
 -----
 title
 -----
 Symbolic Z-matrix:
 Charge =  0 Multiplicity = 1

 SCF Done:  E(RHF) =  -454.184068974     A.U. after   13 cycles
 Normal termination of Gaussian 16 at Wed Apr  9 00:41:29 2025.
 Gaussian 16:  ES64L-G16RevC.01  3-Jul-2019

 ----------------------------------------------------------------------
 #t hf aug-cc-pvdz iop(5/13=1,5/36=2,99/5=2) pseudo=read geom=check gue
 ss=(read,tcheck) scf=(maxcycle=1)
 ----------------------------------------------------------------------
 -----
 title
 -----
 Structure from the checkpoint file:  "BDE49_nonexpt_679_mol1.chk"
 Charge =  0 Multiplicity = 1

                         Standard orientation:
 ---------------------------------------------------------------------
 Center     Atomic      Atomic             Coordinates (Angstroms)
 Number     Number       Type             X           Y           Z
 ---------------------------------------------------------------------
      1          5           0       -1.645134   -0.049959   -0.037392
      2          8           0       -0.575648   -0.639047    0.514466
      3          9           0       -1.782113    1.275480   -0.120115
      4          9           0       -2.628875   -0.801562   -0.515680
      5          6           0        0.543799    0.131986    1.009461
      6          6           0        1.681090    0.115838    0.019961
      7          6           0        2.157843    1.257798   -0.474471
      8          6           0        2.226469   -1.239363   -0.342141
      9          1           0        2.991148    1.272146   -1.168687
     10          1           0        1.732839    2.217398   -0.200445
     11          1           0        3.026463   -1.164298   -1.080074
     12          1           0        2.620647   -1.749736    0.544245
     13          1           0        1.435816   -1.877280   -0.746880
     14          1           0        0.838585   -0.353037    1.944154
     15          1           0        0.229039    1.154160    1.224213
 ---------------------------------------------------------------------

 SCF Done:  E(RHF) =  -454.628979314     A.U. after    2 cycles

 The electronic state is 1-A.
 Alpha  occ. eigenvalues --  -26.47742 -26.47040 -20.57513 -11.31433 -11.25994
 Alpha  occ. eigenvalues --  -11.24267 -11.23968  -7.73812  -1.62846  -1.58707
 Alpha  occ. eigenvalues --   -1.49080  -1.10654  -0.96184  -0.94815  -0.80231
 Alpha  occ. eigenvalues --   -0.76548  -0.75416  -0.73939  -0.70070  -0.65838
 Alpha  occ. eigenvalues --   -0.65517  -0.64017  -0.63117  -0.61481  -0.60244
 Alpha  occ. eigenvalues --   -0.57620  -0.55322  -0.53817  -0.51269  -0.47954
 Alpha  occ. eigenvalues --   -0.38056
 Alpha virt. eigenvalues --    0.03409   0.03662   0.04039   0.04866   0.05799
 Alpha virt. eigenvalues --    0.06112   0.06816   0.07115   0.08614   0.09419
 Alpha virt. eigenvalues --    0.10650   0.11164   0.12328   0.14338   0.14468

 Mulliken charges:
               1
     1  B    1.624381
     2  O   -1.144082
     3  F   -0.516313
     4  F   -0.760878
     5  C    0.439913
     6  C    0.419783
     7  C    0.261533
     8  C   -0.710789
     9  H   -0.146817
    10  H   -0.149563
    11  H    0.100405
    12  H    0.250109
    13  H    0.263323
    14  H    0.073828
    15  H   -0.004833
 Sum of Mulliken charges =  -0.00000

 Dipole moment (field-independent basis, Debye):
    X=              2.2416    Y=              0.4147    Z=              0.8313  Tot=              2.4264

 Test job not archived.
 1\1\GINC-SE250\SP\RHF\Aug-CC-pVDZ\C4H7B1F2O1\OHZDE\09-Apr-2025\0\\#t h
 f aug-cc-pvdz iop(5/13=1,5/36=2,99/5=2) pseudo=read geom=check guess=(
 read,tcheck) scf=(maxcycle=1)\\title\\0,1\B,0,-1.645134,-0.049959,-0.0
 37392\O,0,-0.575648,-0.639047,0.514466\F,0,-1.782113,1.27548,-0.120115
 \F,0,-2.628875,-0.801562,-0.51568\C,0,0.543799,0.131986,1.009461\C,0,1
 .68109,0.115838,0.019961\C,0,2.157843,1.257798,-0.474471\C,0,2.226469,
 -1.239363,-0.342141\H,0,2.991148,1.272146,-1.168687\H,0,1.732839,2.217
 398,-0.200445\H,0,3.026463,-1.164298,-1.080074\H,0,2.620647,-1.749736,

 Normal termination of Gaussian 16 at Wed Apr  9 00:41:35 2025.
