 Gaussian 16, Revision C.01,

 ----------------------------------------------------------------------
 #t hf aug-cc-pvdz symm=none int=(grid=ultrafine) guess=(read,tcheck) s
 table=(opt,rrhf)
 ----------------------------------------------------------------------
 -----
 title
 -----
 Symbolic Z-matrix:
 Charge =  0 Multiplicity = 1

 SCF Done:  E(RHF) =  -1108.53616265     A.U. after   14 cycles

 1\1\GINC-SE118\Stability\RHF\Aug-CC-pVDZ\C8H18S2\OHZDE\08-Apr-2025\0\\
 #t hf aug-cc-pvdz symm=none int=(grid=ultrafine) guess=(read,tcheck) s
 table=(opt,rrhf)\\title\\0,1\S,0,-0.198518,-1.951213,-0.647876\S,0,0.9
 56152,-1.403149,0.996855\C,0,2.554785,-0.858471,0.252194\C,0,-1.247628
 ,-0.477404,-1.00043\C,0,-2.310021,-0.184713,0.055863\H,0,-1.711567,-0.
 733139,-1.960048\H,0,-0.599712,0.384608,-1.168729\C,0,2.55117,0.485636
 ,-0.475289\H,0,2.892542,-1.661157,-0.404589\H,0,3.229268,-0.83397,1.11
 5994\C,0,2.275063,1.70043,0.416328\H,0,1.826554,0.447052,-1.296225\H,0

 Normal termination of Gaussian 16 at Tue Apr  8 23:03:42 2025.
 Gaussian 16:  ES64L-G16RevC.01  3-Jul-2019

 ----------------------------------------------------------------------
 #t hf aug-cc-pvdz iop(5/13=1,5/36=2,99/5=2) pseudo=read geom=check gue
 ss=(read,tcheck) scf=(maxcycle=1)
 ----------------------------------------------------------------------
 -----
 title
 -----
 Structure from the checkpoint file:  "BDE49_expt_1959_mol1.chk"
 Charge =  0 Multiplicity = 1

                         Standard orientation:
 ---------------------------------------------------------------------
 Center     Atomic      Atomic             Coordinates (Angstroms)
 Number     Number       Type             X           Y           Z
 ---------------------------------------------------------------------
      1         16           0       -0.198518   -1.951213   -0.647876
      2         16           0        0.956152   -1.403149    0.996855
      3          6           0        2.554785   -0.858471    0.252194
      4          6           0       -1.247628   -0.477404   -1.000430
      5          6           0       -2.310021   -0.184713    0.055863
      6          1           0       -1.711567   -0.733139   -1.960048
      7          1           0       -0.599712    0.384608   -1.168729
      8          6           0        2.551170    0.485636   -0.475289
      9          1           0        2.892542   -1.661157   -0.404589
     10          1           0        3.229268   -0.833970    1.115994
     11          6           0        2.275063    1.700430    0.416328
     12          1           0        1.826554    0.447052   -1.296225
     13          1           0        3.534049    0.604747   -0.950298
     14          6           0       -3.185155    1.023995   -0.304137
     15          1           0       -1.818144   -0.006206    1.017939
     16          1           0       -2.938460   -1.072285    0.186974
     17          6           0       -4.253312    1.320290    0.752683
     18          1           0       -3.668737    0.848012   -1.272679
     19          1           0       -2.548402    1.906872   -0.437079
     20          1           0       -4.926933    0.467962    0.883219
     21          1           0       -4.861098    2.184704    0.472379
     22          1           0       -3.798509    1.533913    1.724678
     23          6           0        2.290420    3.022596   -0.355824
     24          1           0        3.025261    1.735313    1.215882
     25          1           0        1.307661    1.574094    0.912659
     26          1           0        3.258460    3.191048   -0.837968
     27          1           0        2.097259    3.871286    0.305570
     28          1           0        1.526426    3.032785   -1.139668
 ---------------------------------------------------------------------

 SCF Done:  E(RHF) =  -1109.00922779     A.U. after    2 cycles

 The electronic state is 1-A.
 Alpha  occ. eigenvalues --  -93.96242 -93.96176 -11.26990 -11.26959 -11.23784
 Alpha  occ. eigenvalues --  -11.23360 -11.23303 -11.23133 -11.22763 -11.22610
 Alpha  occ. eigenvalues --   -8.24133  -8.24070  -6.21945  -6.21873  -6.21727
 Alpha  occ. eigenvalues --   -6.21670  -6.21519  -6.21462  -1.12069  -1.09230
 Alpha  occ. eigenvalues --   -1.05713  -1.01485  -0.96708  -0.91259  -0.85965
 Alpha  occ. eigenvalues --   -0.82120  -0.80178  -0.77331  -0.66118  -0.64904
 Alpha  occ. eigenvalues --   -0.62244  -0.60613  -0.60377  -0.59596  -0.57408
 Alpha  occ. eigenvalues --   -0.56725  -0.54088  -0.52972  -0.52184  -0.50399
 Alpha  occ. eigenvalues --   -0.49844  -0.49396  -0.48348  -0.47921  -0.47475
 Alpha  occ. eigenvalues --   -0.45851  -0.43508  -0.35813  -0.35093
 Alpha virt. eigenvalues --    0.03046   0.03125   0.03488   0.04054   0.04775
 Alpha virt. eigenvalues --    0.04895   0.05163   0.06298   0.06359   0.07275
 Alpha virt. eigenvalues --    0.07504   0.07675   0.08234   0.09057   0.09791

 Mulliken charges:
               1
     1  S    0.151277
     2  S    0.126229
     3  C   -0.470190
     4  C   -0.323126
     5  C   -0.582148
     6  H    0.242192
     7  H    0.089678
     8  C   -0.209535
     9  H    0.153259
    10  H    0.233836
    11  C   -0.470648
    12  H    0.186873
    13  H    0.138058
    14  C   -0.251145
    15  H    0.196208
    16  H    0.180365
    17  C   -0.423374
    18  H    0.121996
    19  H    0.126339
    20  H    0.158086
    21  H    0.116886
    22  H    0.166727
    23  C   -0.376765
    24  H    0.134172
    25  H    0.149064
    26  H    0.158202
    27  H    0.119464
    28  H    0.158022
 Sum of Mulliken charges =  -0.00000

 Dipole moment (field-independent basis, Debye):
    X=              0.3661    Y=              2.1505    Z=             -0.8717  Tot=              2.3492

 Test job not archived.
 1\1\GINC-SE118\SP\RHF\Aug-CC-pVDZ\C8H18S2\OHZDE\08-Apr-2025\0\\#t hf a
 ug-cc-pvdz iop(5/13=1,5/36=2,99/5=2) pseudo=read geom=check guess=(rea
 d,tcheck) scf=(maxcycle=1)\\title\\0,1\S,0,-0.198518,-1.951213,-0.6478
 76\S,0,0.956152,-1.403149,0.996855\C,0,2.554785,-0.858471,0.252194\C,0
 ,-1.247628,-0.477404,-1.00043\C,0,-2.310021,-0.184713,0.055863\H,0,-1.
 711567,-0.733139,-1.960048\H,0,-0.599712,0.384608,-1.168729\C,0,2.5511
 7,0.485636,-0.475289\H,0,2.892542,-1.661157,-0.404589\H,0,3.229268,-0.
 83397,1.115994\C,0,2.275063,1.70043,0.416328\H,0,1.826554,0.447052,-1.

 Normal termination of Gaussian 16 at Tue Apr  8 23:04:04 2025.
