 Gaussian 16, Revision C.01,

 ----------------------------------------------------------------------
 #t hf aug-cc-pvdz symm=none int=(grid=ultrafine) guess=(read,tcheck) s
 table=opt
 ----------------------------------------------------------------------
 -----
 title
 -----
 Symbolic Z-matrix:
 Charge =  0 Multiplicity = 2

 SCF Done:  E(UHF) =  -634.483236351     A.U. after   16 cycles
 Normal termination of Gaussian 16 at Wed Apr  9 00:01:04 2025.
 Gaussian 16:  ES64L-G16RevC.01  3-Jul-2019

 ----------------------------------------------------------------------
 #t hf aug-cc-pvdz iop(5/13=1,5/36=2,99/5=2) pseudo=read geom=check gue
 ss=(read,tcheck) scf=(maxcycle=1)
 ----------------------------------------------------------------------
 -----
 title
 -----
 Structure from the checkpoint file:  "BDE49_nonexpt_2085_mol2.chk"
 Charge =  0 Multiplicity = 2

                         Standard orientation:
 ---------------------------------------------------------------------
 Center     Atomic      Atomic             Coordinates (Angstroms)
 Number     Number       Type             X           Y           Z
 ---------------------------------------------------------------------
      1         14           0        0.000000    1.797590   -0.208140
      2          8           0        1.325333    0.839906    0.034014
      3          8           0       -1.325333    0.839906    0.034012
      4          6           0       -0.000000   -1.220790   -0.143020
      5          6           0       -1.283650   -0.559141    0.373562
      6          6           0        1.283650   -0.559141    0.373562
      7          6           0        2.545352   -1.210607   -0.172873
      8          1           0        2.555212   -1.163608   -1.265004
      9          1           0        2.606438   -2.258659    0.134136
     10          1           0        3.427306   -0.686071    0.199412
     11          1           0        1.292969   -0.622712    1.470967
     12          1           0       -0.000000   -1.198429   -1.240241
     13          1           0       -0.000000   -2.273254    0.159855
     14          6           0       -2.545352   -1.210607   -0.172872
     15          1           0       -1.292969   -0.622711    1.470967
     16          1           0       -2.555213   -1.163609   -1.265003
     17          1           0       -3.427306   -0.686071    0.199412
     18          1           0       -2.606439   -2.258659    0.134137
     19          1           0        0.000000    2.890743    0.820962
 ---------------------------------------------------------------------

 SCF Done:  E(UHF) =  -634.870809135     A.U. after    2 cycles

 The electronic state is 2-A.
 Alpha  occ. eigenvalues --  -69.57999 -20.53547 -20.53546 -11.30208 -11.30203
 Alpha  occ. eigenvalues --  -11.24172 -11.22972 -11.22966  -6.24268  -3.99964
 Alpha  occ. eigenvalues --   -3.99485  -3.99218  -1.45640  -1.42465  -1.08594
 Alpha  occ. eigenvalues --   -1.02025  -0.94730  -0.83319  -0.82738  -0.73307
 Alpha  occ. eigenvalues --   -0.66400  -0.66010  -0.65309  -0.60961  -0.58194
 Alpha  occ. eigenvalues --   -0.56699  -0.55841  -0.55415  -0.53748  -0.52681
 Alpha  occ. eigenvalues --   -0.51151  -0.50648  -0.46246  -0.45096  -0.43769
 Alpha  occ. eigenvalues --   -0.32321
 Alpha virt. eigenvalues --    0.03425   0.03663   0.03808   0.04192   0.05634
 Alpha virt. eigenvalues --    0.05887   0.06018   0.06245   0.07899   0.08293
 Alpha virt. eigenvalues --    0.08984   0.09320   0.09641   0.10198   0.12924

  Beta  occ. eigenvalues --  -69.57476 -20.53219 -20.53217 -11.30202 -11.30198
  Beta  occ. eigenvalues --  -11.24172 -11.22975 -11.22968  -6.23406  -3.99142
  Beta  occ. eigenvalues --   -3.98964  -3.98146  -1.44825  -1.41640  -1.08459
  Beta  occ. eigenvalues --   -1.01946  -0.94714  -0.83129  -0.81826  -0.72409
  Beta  occ. eigenvalues --   -0.65953  -0.65815  -0.65126  -0.59241  -0.56928
  Beta  occ. eigenvalues --   -0.56410  -0.55462  -0.54797  -0.53676  -0.52281
  Beta  occ. eigenvalues --   -0.50439  -0.49711  -0.44012  -0.43782  -0.43574
  Beta virt. eigenvalues --    0.02966   0.03528   0.03822   0.04119   0.05421
  Beta virt. eigenvalues --    0.05898   0.05919   0.06068   0.06598   0.08470
  Beta virt. eigenvalues --    0.08910   0.09212   0.09346   0.10066   0.10737

 Mulliken charges and spin densities:
               1          2
     1  Si   1.407170   0.871438
     2  O   -1.656313  -0.031975
     3  O   -1.656312  -0.031976
     4  C   -0.629335  -0.056347
     5  C    0.790068   0.028806
     6  C    0.790069   0.028806
     7  C   -0.324936   0.006073
     8  H    0.202983   0.001676
     9  H    0.192663   0.000231
    10  H    0.155642   0.000482
    11  H    0.100844   0.003707
    12  H    0.145416   0.000538
    13  H    0.152336  -0.001745
    14  C   -0.324935   0.006073
    15  H    0.100844   0.003707
    16  H    0.202982   0.001676
    17  H    0.155640   0.000482
    18  H    0.192663   0.000231
    19  H    0.002511   0.168116
 Sum of Mulliken charges =  -0.00000   1.00000

 Dipole moment (field-independent basis, Debye):
    X=             -0.0000    Y=             -2.3852    Z=              0.4931  Tot=              2.4356
                          Isotropic Fermi Contact Couplings
        Atom                 a.u.       MegaHertz       Gauss      10(-4) cm-1
     1  Si(29)             0.81249    -722.07840    -257.65553    -240.85943
     2  O(17)              0.06690     -40.55598     -14.47138     -13.52802
     3  O(17)              0.06690     -40.55606     -14.47141     -13.52804
     4  C(13)              0.00006       0.06502       0.02320       0.02169
     5  C(13)              0.00173       1.94531       0.69414       0.64889
     6  C(13)              0.00173       1.94526       0.69412       0.64887
     7  C(13)             -0.00074      -0.83513      -0.29800      -0.27857
     8  H(1)              -0.00001      -0.03732      -0.01332      -0.01245

 Normal termination of Gaussian 16 at Wed Apr  9 00:01:14 2025.
