 Gaussian 16, Revision C.01,

 ----------------------------------------------------------------------
 #t hf aug-cc-pvdz symm=none int=(grid=ultrafine) guess=(read,tcheck) s
 table=opt
 ----------------------------------------------------------------------
 -----
 title
 -----
 Symbolic Z-matrix:
 Charge =  0 Multiplicity = 2

 SCF Done:  E(UHF) =  -100.702601124     A.U. after   14 cycles
 Normal termination of Gaussian 16 at Wed Apr  9 00:29:40 2025.
 Gaussian 16:  ES64L-G16RevC.01  3-Jul-2019

 ----------------------------------------------------------------------
 #t hf aug-cc-pvdz iop(5/13=1,5/36=2,99/5=2) pseudo=read geom=check gue
 ss=(read,tcheck) scf=(maxcycle=1)
 ----------------------------------------------------------------------
 -----
 title
 -----
 Structure from the checkpoint file:  "BDE49_nonexpt_328_mol3.chk"
 Charge =  0 Multiplicity = 2

                         Standard orientation:
 ---------------------------------------------------------------------
 Center     Atomic      Atomic             Coordinates (Angstroms)
 Number     Number       Type             X           Y           Z
 ---------------------------------------------------------------------
      1          5           0       -0.748367    0.245212    0.000001
      2          8           0        0.526400   -0.154112   -0.000001
      3          1           0       -1.640923   -0.554147    0.000001
      4          1           0        1.171560    0.560985   -0.000001
 ---------------------------------------------------------------------

 SCF Done:  E(UHF) =  -100.799166198     A.U. after    2 cycles

 The electronic state is 2-A.
 Alpha  occ. eigenvalues --  -20.58522  -7.64708  -1.48842  -0.79167  -0.64071
 Alpha  occ. eigenvalues --   -0.59026  -0.55007  -0.33985
 Alpha virt. eigenvalues --    0.03560   0.04532   0.05652   0.05810   0.09394
 Alpha virt. eigenvalues --    0.11657   0.13031   0.18215   0.22015   0.23161
 Alpha virt. eigenvalues --    0.25008   0.26146   0.27381   0.30866   0.32570

  Beta  occ. eigenvalues --  -20.58386  -7.62925  -1.48186  -0.77883  -0.59997
  Beta  occ. eigenvalues --   -0.55402  -0.55365
  Beta virt. eigenvalues --    0.03209   0.04905   0.05284   0.05706   0.08645
  Beta virt. eigenvalues --    0.09761   0.15823   0.16079   0.18880   0.22043
  Beta virt. eigenvalues --    0.23818   0.25790   0.27538   0.28520   0.31584

 Mulliken charges and spin densities:
               1          2
     1  B    0.095936   0.975412
     2  O   -0.794515  -0.019647
     3  H    0.148884   0.056547
     4  H    0.549695  -0.012312
 Sum of Mulliken charges =   0.00000   1.00000

 Dipole moment (field-independent basis, Debye):
    X=              1.0251    Y=              0.8083    Z=             -0.0000  Tot=              1.3055
                          Isotropic Fermi Contact Couplings
        Atom                 a.u.       MegaHertz       Gauss      10(-4) cm-1
     1  B(11)              0.28404     407.42063     145.37781     135.90089
     2  O(17)             -0.00750       4.54678       1.62241       1.51664
     3  H(1)               0.02828     126.38991      45.09906      42.15914
     4  H(1)               0.00744      33.26576      11.87005      11.09626
 --------------------------------------------------------
       Center         ----  Spin Dipole Couplings  ----
                      3XX-RR        3YY-RR        3ZZ-RR
 --------------------------------------------------------

 Normal termination of Gaussian 16 at Wed Apr  9 00:29:41 2025.
