 Gaussian 16, Revision C.01,

 ----------------------------------------------------------------------
 #t hf aug-cc-pvdz symm=none int=(grid=ultrafine) guess=(read,tcheck) s
 table=(opt,rrhf)
 ----------------------------------------------------------------------
 -----
 title
 -----
 Symbolic Z-matrix:
 Charge =  0 Multiplicity = 1

 SCF Done:  E(RHF) =  -588.307248662     A.U. after   15 cycles
 Normal termination of Gaussian 16 at Tue Apr  8 23:37:29 2025.
 Gaussian 16:  ES64L-G16RevC.01  3-Jul-2019

 ----------------------------------------------------------------------
 #t hf aug-cc-pvdz iop(5/13=1,5/36=2,99/5=2) pseudo=read geom=check gue
 ss=(read,tcheck) scf=(maxcycle=1)
 ----------------------------------------------------------------------
 -----
 title
 -----
 Structure from the checkpoint file:  "BDE49_nonexpt_1549_mol1.chk"
 Charge =  0 Multiplicity = 1

                         Standard orientation:
 ---------------------------------------------------------------------
 Center     Atomic      Atomic             Coordinates (Angstroms)
 Number     Number       Type             X           Y           Z
 ---------------------------------------------------------------------
      1          6           0        1.827884    0.055648    0.075500
      2          7           0       -0.999763   -0.113823   -0.203623
      3          6           0       -1.856379   -0.215750    0.977554
      4          1           0       -1.776497   -1.214524    1.409758
      5          1           0       -2.900654   -0.050212    0.690576
      6          1           0       -1.591854    0.517600    1.751300
      7          6           0       -1.077216    1.175803   -0.889508
      8          1           0       -2.127944    1.428979   -1.064485
      9          1           0       -0.580756    1.110545   -1.859655
     10          1           0       -0.610342    1.983599   -0.313876
     11          8           0        1.751335    1.072811    0.720507
     12         15           0        0.384346   -1.082534   -0.263964
     13          1           0        2.811447   -0.314528   -0.311286
     14          1           0        0.633335   -1.103385   -1.662847
 ---------------------------------------------------------------------

 SCF Done:  E(RHF) =  -588.605503925     A.U. after    2 cycles

 The electronic state is 1-A.
 Alpha  occ. eigenvalues --  -84.30533 -20.55612 -15.50444 -11.34465 -11.26677
 Alpha  occ. eigenvalues --  -11.26446  -6.77360  -4.30411  -4.29643  -4.29323
 Alpha  occ. eigenvalues --   -1.48298  -1.22165  -0.97228  -0.95217  -0.86160
 Alpha  occ. eigenvalues --   -0.76919  -0.67331  -0.65860  -0.64851  -0.64023
 Alpha  occ. eigenvalues --   -0.58099  -0.56434  -0.54235  -0.53798  -0.52114
 Alpha  occ. eigenvalues --   -0.44086  -0.38933  -0.34262
 Alpha virt. eigenvalues --    0.03563   0.04298   0.04917   0.05554   0.05872
 Alpha virt. eigenvalues --    0.06326   0.06602   0.07506   0.08899   0.09678
 Alpha virt. eigenvalues --    0.10563   0.11460   0.13458   0.14400   0.15036

 Mulliken charges:
               1
     1  C    0.406686
     2  N    0.352905
     3  C   -0.494397
     4  H    0.057711
     5  H    0.112760
     6  H    0.208624
     7  C   -0.486586
     8  H    0.075703
     9  H    0.037249
    10  H    0.233264
    11  O   -1.023455
    12  P    0.103919
    13  H    0.086323
    14  H    0.329293
 Sum of Mulliken charges =  -0.00000

 Dipole moment (field-independent basis, Debye):
    X=             -0.9133    Y=             -0.9402    Z=             -1.2246  Tot=              1.7938

 Test job not archived.
 1\1\GINC-SE082\SP\RHF\Aug-CC-pVDZ\C3H8N1O1P1\OHZDE\08-Apr-2025\0\\#t h
 f aug-cc-pvdz iop(5/13=1,5/36=2,99/5=2) pseudo=read geom=check guess=(
 read,tcheck) scf=(maxcycle=1)\\title\\0,1\C,0,1.827884,0.055648,0.0755
 \N,0,-0.999763,-0.113823,-0.203623\C,0,-1.856379,-0.21575,0.977554\H,0
 ,-1.776497,-1.214524,1.409758\H,0,-2.900654,-0.050212,0.690576\H,0,-1.
 591854,0.5176,1.7513\C,0,-1.077216,1.175803,-0.889508\H,0,-2.127944,1.
 428979,-1.064485\H,0,-0.580756,1.110545,-1.859655\H,0,-0.610342,1.9835
 99,-0.313876\O,0,1.751335,1.072811,0.720507\P,0,0.384346,-1.082534,-0.

 Normal termination of Gaussian 16 at Tue Apr  8 23:37:33 2025.
