 Gaussian 16, Revision C.01,

 ----------------------------------------------------------------------
 #t hf aug-cc-pvdz symm=none int=(grid=ultrafine) guess=(read,tcheck) s
 table=opt
 ----------------------------------------------------------------------
 -----
 title
 -----
 Symbolic Z-matrix:
 Charge =  0 Multiplicity = 2

 SCF Done:  E(UHF) =  -824.171896308     A.U. after   27 cycles
 Normal termination of Gaussian 16 at Wed Apr  9 00:06:09 2025.
 Gaussian 16:  ES64L-G16RevC.01  3-Jul-2019

 ----------------------------------------------------------------------
 #t hf aug-cc-pvdz iop(5/13=1,5/36=2,99/5=2) pseudo=read geom=check gue
 ss=(read,tcheck) scf=(maxcycle=1)
 ----------------------------------------------------------------------
 -----
 title
 -----
 Structure from the checkpoint file:  "BDE49_nonexpt_222_mol2.chk"
 Charge =  0 Multiplicity = 2

                         Standard orientation:
 ---------------------------------------------------------------------
 Center     Atomic      Atomic             Coordinates (Angstroms)
 Number     Number       Type             X           Y           Z
 ---------------------------------------------------------------------
      1          5           0        1.643110    0.192260   -0.610315
      2         17           0        3.078151   -0.491139    0.018641
      3          6           0        0.297087    0.580500    0.053897
      4          8           0        0.125604    1.640816    0.591941
      5          8           0       -0.667445   -0.411558   -0.070279
      6          6           0       -2.043265   -0.111094   -0.126486
      7          8           0       -2.462636    0.940185   -0.488983
      8          6           0       -2.831438   -1.320814    0.286946
      9          1           0       -2.638727   -1.535379    1.341164
     10          1           0       -2.512119   -2.192140   -0.288085
     11          1           0       -3.891754   -1.131512    0.134028
 ---------------------------------------------------------------------

 SCF Done:  E(UHF) =  -824.596442707     A.U. after    2 cycles

 The electronic state is 2-A.
 Alpha  occ. eigenvalues -- -105.61147 -20.62251 -20.57636 -20.56427 -11.41970
 Alpha  occ. eigenvalues --  -11.40530 -11.27185 -10.66150  -7.83055  -7.82779
 Alpha  occ. eigenvalues --   -7.82698  -7.71554  -1.58089  -1.51515  -1.47702
 Alpha  occ. eigenvalues --   -1.12366  -1.05763  -0.93719  -0.80509  -0.74956
 Alpha  occ. eigenvalues --   -0.71700  -0.69718  -0.67513  -0.64122  -0.62608
 Alpha  occ. eigenvalues --   -0.60352  -0.58837  -0.55726  -0.54175  -0.53298
 Alpha  occ. eigenvalues --   -0.49633  -0.48786  -0.45662  -0.37273
 Alpha virt. eigenvalues --    0.02810   0.03686   0.04430   0.04546   0.05439
 Alpha virt. eigenvalues --    0.06051   0.06491   0.07182   0.10317   0.11321
 Alpha virt. eigenvalues --    0.11970   0.12762   0.13062   0.14453   0.14592

  Beta  occ. eigenvalues -- -105.61086 -20.62317 -20.56806 -20.56435 -11.41957
  Beta  occ. eigenvalues --  -11.40756 -11.27184 -10.66080  -7.83010  -7.82738
  Beta  occ. eigenvalues --   -7.82491  -7.69560  -1.58004  -1.50690  -1.46986
  Beta  occ. eigenvalues --   -1.11470  -1.05721  -0.93008  -0.79019  -0.74604
  Beta  occ. eigenvalues --   -0.71508  -0.69444  -0.66442  -0.63345  -0.61666
  Beta  occ. eigenvalues --   -0.60232  -0.57996  -0.53945  -0.53362  -0.51653
  Beta  occ. eigenvalues --   -0.48429  -0.47615  -0.44412
  Beta virt. eigenvalues --    0.02512   0.03330   0.04442   0.04690   0.05479
  Beta virt. eigenvalues --    0.06158   0.06431   0.07353   0.07988   0.10717
  Beta virt. eigenvalues --    0.11815   0.12759   0.12927   0.14000   0.14591

 Mulliken charges and spin densities:
               1          2
     1  B    0.152570   0.953588
     2  Cl  -0.175132   0.012466
     3  C    1.510999  -0.162214
     4  O   -0.982279   0.206633
     5  O   -1.236786  -0.016286
     6  C    1.779347   0.004427
     7  O   -1.116249   0.000438
     8  C   -0.616645   0.000754
     9  H    0.249590  -0.000167
    10  H    0.241109   0.000529
    11  H    0.193475  -0.000169
 Sum of Mulliken charges =  -0.00000   1.00000

 Dipole moment (field-independent basis, Debye):
    X=              0.1724    Y=             -3.9128    Z=              0.1446  Tot=              3.9193
                          Isotropic Fermi Contact Couplings
        Atom                 a.u.       MegaHertz       Gauss      10(-4) cm-1
     1  B(11)              0.30916     443.44936     158.23376     147.91879
     2  Cl(35)             0.05724      25.09842       8.95574       8.37193
     3  C(13)              0.00523       5.87859       2.09763       1.96089
     4  O(17)              0.06119     -37.09167     -13.23523     -12.37245
     5  O(17)             -0.00672       4.07190       1.45295       1.35824
     6  C(13)              0.00143       1.60649       0.57323       0.53587
     7  O(17)             -0.00036       0.21762       0.07765       0.07259
     8  C(13)              0.00009       0.10098       0.03603       0.03368

 1\1\GINC-SE072\SP\UHF\Aug-CC-pVDZ\C3H3B1Cl1O3(2)\OHZDE\09-Apr-2025\0\\
 #t hf aug-cc-pvdz iop(5/13=1,5/36=2,99/5=2) pseudo=read geom=check gue
 ss=(read,tcheck) scf=(maxcycle=1)\\title\\0,2\B,0,1.64311,0.19226,-0.6
 10315\Cl,0,3.078151,-0.491139,0.018641\C,0,0.297087,0.5805,0.053897\O,
 0,0.125604,1.640816,0.591941\O,0,-0.667445,-0.411558,-0.070279\C,0,-2.
 043265,-0.111094,-0.126486\O,0,-2.462636,0.940185,-0.488983\C,0,-2.831
 438,-1.320814,0.286946\H,0,-2.638727,-1.535379,1.341164\H,0,-2.512119,
 -2.19214,-0.288085\H,0,-3.891754,-1.131512,0.134028\\Version=ES64L-G16

 Normal termination of Gaussian 16 at Wed Apr  9 00:06:15 2025.
