 Gaussian 16, Revision C.01,

 ----------------------------------------------------------------------
 #t hf aug-cc-pvdz symm=none int=(grid=ultrafine) guess=(read,tcheck) s
 table=(opt,rrhf)
 ----------------------------------------------------------------------
 -----
 title
 -----
 Symbolic Z-matrix:
 Charge =  0 Multiplicity = 1

 SCF Done:  E(RHF) =  -951.210196654     A.U. after   14 cycles
 Normal termination of Gaussian 16 at Tue Apr  8 23:05:09 2025.
 Gaussian 16:  ES64L-G16RevC.01  3-Jul-2019

 ----------------------------------------------------------------------
 #t hf aug-cc-pvdz iop(5/13=1,5/36=2,99/5=2) pseudo=read geom=check gue
 ss=(read,tcheck) scf=(maxcycle=1)
 ----------------------------------------------------------------------
 -----
 title
 -----
 Structure from the checkpoint file:  "BDE49_expt_378_mol1.chk"
 Charge =  0 Multiplicity = 1

                         Standard orientation:
 ---------------------------------------------------------------------
 Center     Atomic      Atomic             Coordinates (Angstroms)
 Number     Number       Type             X           Y           Z
 ---------------------------------------------------------------------
      1         16           0       -0.123349   -1.509447   -0.156367
      2          6           0       -1.690007   -0.578474    0.035410
      3          6           0       -1.359893    0.777594    0.641302
      4          1           0       -2.330378   -1.169239    0.695535
      5          1           0       -2.178542   -0.465847   -0.933134
      6         16           0        0.011555    1.487833   -0.336109
      7          1           0       -1.074225    0.685871    1.690545
      8          1           0       -2.198848    1.472898    0.561095
      9          6           0        1.007264   -0.060350   -0.422578
     10          6           0        2.173585   -0.096456    0.561830
     11          1           0        1.374423   -0.110530   -1.448171
     12          1           0        1.821655    0.007595    1.589459
     13          1           0        2.874137    0.715428    0.348565
     14          1           0        2.714789   -1.044230    0.479923
 ---------------------------------------------------------------------

 SCF Done:  E(RHF) =  -951.500316129     A.U. after    2 cycles

 The electronic state is 1-A.
 Alpha  occ. eigenvalues --  -93.94846 -93.94602 -11.30388 -11.28072 -11.27897
 Alpha  occ. eigenvalues --  -11.23870  -8.22928  -8.22680  -6.20735  -6.20599
 Alpha  occ. eigenvalues --   -6.20491  -6.20371  -6.20350  -6.20126  -1.15193
 Alpha  occ. eigenvalues --   -1.04777  -1.00566  -0.92736  -0.81555  -0.78110
 Alpha  occ. eigenvalues --   -0.66350  -0.63756  -0.60977  -0.58612  -0.55839
 Alpha  occ. eigenvalues --   -0.55341  -0.49349  -0.48678  -0.47947  -0.42134
 Alpha  occ. eigenvalues --   -0.35787  -0.35143
 Alpha virt. eigenvalues --    0.03466   0.04003   0.04199   0.04873   0.05998
 Alpha virt. eigenvalues --    0.06138   0.06335   0.08367   0.09313   0.10608
 Alpha virt. eigenvalues --    0.11621   0.13487   0.13811   0.13908   0.14835

 Mulliken charges:
               1
     1  S    0.475858
     2  C   -0.615598
     3  C   -0.698962
     4  H    0.218723
     5  H    0.196129
     6  S    0.461056
     7  H    0.161024
     8  H    0.186145
     9  C   -0.742788
    10  C   -0.342111
    11  H    0.179425
    12  H    0.191707
    13  H    0.161784
    14  H    0.167607
 Sum of Mulliken charges =   0.00000

 Dipole moment (field-independent basis, Debye):
    X=             -0.7896    Y=              0.1989    Z=              0.7482  Tot=              1.1058

 Test job not archived.
 1\1\GINC-SE099\SP\RHF\Aug-CC-pVDZ\C4H8S2\OHZDE\08-Apr-2025\0\\#t hf au
 g-cc-pvdz iop(5/13=1,5/36=2,99/5=2) pseudo=read geom=check guess=(read
 ,tcheck) scf=(maxcycle=1)\\title\\0,1\S,0,-0.123351,-1.509447,-0.15636
 7\C,0,-1.690008,-0.578472,0.03541\C,0,-1.359892,0.777596,0.641302\H,0,
 -2.330379,-1.169236,0.695535\H,0,-2.178542,-0.465844,-0.933134\S,0,0.0
 11557,1.487833,-0.336109\H,0,-1.074224,0.685872,1.690545\H,0,-2.198846
 ,1.472901,0.561095\C,0,1.007264,-0.060351,-0.422578\C,0,2.173585,-0.09
 6458,0.56183\H,0,1.374423,-0.110531,-1.448171\H,0,1.821655,0.007593,1.

 Normal termination of Gaussian 16 at Tue Apr  8 23:05:15 2025.
