 Gaussian 16, Revision C.01,

 ----------------------------------------------------------------------
 #t hf aug-cc-pvdz symm=none int=(grid=ultrafine) guess=(read,tcheck) s
 table=(opt,rrhf)
 ----------------------------------------------------------------------
 -----
 title
 -----
 Symbolic Z-matrix:
 Charge =  0 Multiplicity = 1

 SCF Done:  E(RHF) =  -662.991509271     A.U. after   11 cycles
 Normal termination of Gaussian 16 at Wed Apr  9 00:08:28 2025.
 Gaussian 16:  ES64L-G16RevC.01  3-Jul-2019

 ----------------------------------------------------------------------
 #t hf aug-cc-pvdz iop(5/13=1,5/36=2,99/5=2) pseudo=read geom=check gue
 ss=(read,tcheck) scf=(maxcycle=1)
 ----------------------------------------------------------------------
 -----
 title
 -----
 Structure from the checkpoint file:  "BDE49_nonexpt_2295_mol1.chk"
 Charge =  0 Multiplicity = 1

                         Standard orientation:
 ---------------------------------------------------------------------
 Center     Atomic      Atomic             Coordinates (Angstroms)
 Number     Number       Type             X           Y           Z
 ---------------------------------------------------------------------
      1         14           0       -0.004038    0.009046   -0.000000
      2          8           0       -1.601434    0.164392    0.000009
      3          9           0        0.525743   -0.772655   -1.266665
      4          9           0        0.525760   -0.772628    1.266675
      5          9           0        0.620442    1.451920   -0.000019
      6          1           0       -2.179500   -0.601524    0.000013
 ---------------------------------------------------------------------

 SCF Done:  E(RHF) =  -663.366197456     A.U. after    2 cycles

 The electronic state is 1-A.
 Alpha  occ. eigenvalues --  -69.70444 -26.48949 -26.48942 -26.48941 -20.59826
 Alpha  occ. eigenvalues --   -6.36083  -4.11442  -4.11395  -4.11383  -1.63219
 Alpha  occ. eigenvalues --   -1.59779  -1.59589  -1.49204  -0.84287  -0.77105
 Alpha  occ. eigenvalues --   -0.74276  -0.73990  -0.68736  -0.67895  -0.67483
 Alpha  occ. eigenvalues --   -0.65257  -0.64997  -0.63227  -0.59109  -0.55948
 Alpha virt. eigenvalues --    0.03020   0.06165   0.06165   0.06306   0.09816
 Alpha virt. eigenvalues --    0.16741   0.18684   0.19353   0.20726   0.21086
 Alpha virt. eigenvalues --    0.24692   0.25927   0.25955   0.26612   0.28313

 Mulliken charges:
               1
     1  Si   3.499800
     2  O   -1.290489
     3  F   -0.858255
     4  F   -0.858255
     5  F   -0.885126
     6  H    0.392325
 Sum of Mulliken charges =  -0.00000

 Dipole moment (field-independent basis, Debye):
    X=             -1.8143    Y=             -1.2651    Z=              0.0000  Tot=              2.2118

 Test job not archived.
 1\1\GINC-SE423\SP\RHF\Aug-CC-pVDZ\F3H1O1Si1\OHZDE\09-Apr-2025\0\\#t hf
  aug-cc-pvdz iop(5/13=1,5/36=2,99/5=2) pseudo=read geom=check guess=(r
 ead,tcheck) scf=(maxcycle=1)\\title\\0,1\Si,0,-0.004038,0.009046,0.\O,
 0,-1.601434,0.164387,0.000009\F,0,0.525745,-0.772653,-1.266665\F,0,0.5
 25762,-0.772626,1.266675\F,0,0.620438,1.451922,-0.000019\H,0,-2.179498
 ,-0.601531,0.000013\\Version=ES64L-G16RevC.01\State=1-A\HF=-663.366197
 5\RMSD=4.014e-03\Dipole=-0.7138099,-0.4977265,0.0000036\Quadrupole=2.3
 577453,-0.7812038,-1.5765415,2.638061,-0.0000286,-0.0000151\PG=C01 [X(

 Normal termination of Gaussian 16 at Wed Apr  9 00:08:30 2025.
