 Gaussian 16, Revision C.01,

 ----------------------------------------------------------------------
 #t hf aug-cc-pvdz symm=none int=(grid=ultrafine) guess=(read,tcheck) s
 table=opt
 ----------------------------------------------------------------------
 -----
 title
 -----
 Symbolic Z-matrix:
 Charge =  0 Multiplicity = 2

 SCF Done:  E(UHF) =  -950.594681304     A.U. after   18 cycles
 Normal termination of Gaussian 16 at Tue Apr  8 23:05:20 2025.
 Gaussian 16:  ES64L-G16RevC.01  3-Jul-2019

 ----------------------------------------------------------------------
 #t hf aug-cc-pvdz iop(5/13=1,5/36=2,99/5=2) pseudo=read geom=check gue
 ss=(read,tcheck) scf=(maxcycle=1)
 ----------------------------------------------------------------------
 -----
 title
 -----
 Structure from the checkpoint file:  "BDE49_expt_378_mol2.chk"
 Charge =  0 Multiplicity = 2

                         Standard orientation:
 ---------------------------------------------------------------------
 Center     Atomic      Atomic             Coordinates (Angstroms)
 Number     Number       Type             X           Y           Z
 ---------------------------------------------------------------------
      1         16           0        0.023775   -1.473973   -0.153754
      2          6           0        1.602959   -0.702121    0.359359
      3          6           0        1.640416    0.698029   -0.247224
      4          1           0        2.420433   -1.323463   -0.010602
      5          1           0        1.638826   -0.662920    1.449149
      6         16           0        0.002930    1.488011    0.019067
      7          1           0        1.833821    0.654667   -1.320049
      8          1           0        2.397233    1.322676    0.231041
      9          6           0       -0.905903   -0.020131    0.151710
     10          6           0       -2.394049   -0.009350    0.032679
     11          1           0       -2.740071    0.046356   -1.010322
     12          1           0       -2.816396    0.851855    0.559618
     13          1           0       -2.821655   -0.912349    0.477003
 ---------------------------------------------------------------------

 SCF Done:  E(UHF) =  -950.878435078     A.U. after    2 cycles

 The electronic state is 2-A.
 Alpha  occ. eigenvalues --  -93.95734 -93.95537 -11.28748 -11.28521 -11.28399
 Alpha  occ. eigenvalues --  -11.24348  -8.23837  -8.23645  -6.21601  -6.21477
 Alpha  occ. eigenvalues --   -6.21424  -6.21378  -6.21282  -6.21190  -1.17109
 Alpha  occ. eigenvalues --   -1.05365  -1.02069  -0.93862  -0.82623  -0.74881
 Alpha  occ. eigenvalues --   -0.66812  -0.63858  -0.60858  -0.59376  -0.56497
 Alpha  occ. eigenvalues --   -0.53705  -0.50260  -0.49087  -0.46989  -0.43732
 Alpha  occ. eigenvalues --   -0.36938  -0.27791
 Alpha virt. eigenvalues --    0.03346   0.04143   0.04448   0.04806   0.06280
 Alpha virt. eigenvalues --    0.06380   0.06765   0.08288   0.10634   0.10963
 Alpha virt. eigenvalues --    0.12384   0.13074   0.13337   0.14245   0.15085

  Beta  occ. eigenvalues --  -93.95727 -93.95502 -11.28494 -11.28404 -11.26100
  Beta  occ. eigenvalues --  -11.24648  -8.23831  -8.23602  -6.21731  -6.21550
  Beta  occ. eigenvalues --   -6.21507  -6.21321  -6.21129  -6.20878  -1.15404
  Beta  occ. eigenvalues --   -1.03189  -1.01658  -0.93637  -0.82418  -0.70440
  Beta  occ. eigenvalues --   -0.66392  -0.63545  -0.58991  -0.57169  -0.56195
  Beta  occ. eigenvalues --   -0.52385  -0.49373  -0.48562  -0.43575  -0.40235
  Beta  occ. eigenvalues --   -0.34818
  Beta virt. eigenvalues --    0.03338   0.04166   0.04390   0.04826   0.06253
  Beta virt. eigenvalues --    0.06295   0.06790   0.08391   0.10735   0.10888
  Beta virt. eigenvalues --    0.11140   0.12593   0.13292   0.13557   0.14305

 Mulliken charges and spin densities:
               1          2
     1  S    0.442382  -0.024628
     2  C   -0.482078  -0.012638
     3  C   -0.647086  -0.022163
     4  H    0.187756  -0.001510
     5  H    0.198976  -0.000801
     6  S    0.477605   0.002516
     7  H    0.202811  -0.006331
     8  H    0.214545   0.001166
     9  C   -0.667178   1.218438
    10  C   -0.552379  -0.216530
    11  H    0.269653   0.042966
    12  H    0.173996   0.010766
    13  H    0.180998   0.008751
 Sum of Mulliken charges =  -0.00000   1.00000

 Dipole moment (field-independent basis, Debye):
    X=              1.4245    Y=             -0.0956    Z=              0.1930  Tot=              1.4407
                          Isotropic Fermi Contact Couplings
        Atom                 a.u.       MegaHertz       Gauss      10(-4) cm-1
     1  S(33)              0.00372       1.27826       0.45611       0.42638
     2  C(13)              0.00261       2.93417       1.04699       0.97874
     3  C(13)             -0.00055      -0.61554      -0.21964      -0.20532
     4  H(1)              -0.00102      -4.56449      -1.62873      -1.52255
     5  H(1)               0.00032       1.44488       0.51557       0.48196
     6  S(33)              0.02996      10.28961       3.67159       3.43224
     7  H(1)               0.00105       4.68478       1.67165       1.56268
     8  H(1)              -0.00066      -2.95377      -1.05398      -0.98527

 Normal termination of Gaussian 16 at Tue Apr  8 23:05:25 2025.
