 Gaussian 16, Revision C.01,

 ----------------------------------------------------------------------
 #t hf aug-cc-pvdz symm=none int=(grid=ultrafine) guess=(read,tcheck) s
 table=(opt,rrhf)
 ----------------------------------------------------------------------
 -----
 title
 -----
 Symbolic Z-matrix:
 Charge =  0 Multiplicity = 1

 SCF Done:  E(RHF) =  -653.685569988     A.U. after   13 cycles
 Normal termination of Gaussian 16 at Wed Apr  9 00:22:02 2025.
 Gaussian 16:  ES64L-G16RevC.01  3-Jul-2019

 ----------------------------------------------------------------------
 #t hf aug-cc-pvdz iop(5/13=1,5/36=2,99/5=2) pseudo=read geom=check gue
 ss=(read,tcheck) scf=(maxcycle=1)
 ----------------------------------------------------------------------
 -----
 title
 -----
 Structure from the checkpoint file:  "BDE49_nonexpt_2637_mol1.chk"
 Charge =  0 Multiplicity = 1

                         Standard orientation:
 ---------------------------------------------------------------------
 Center     Atomic      Atomic             Coordinates (Angstroms)
 Number     Number       Type             X           Y           Z
 ---------------------------------------------------------------------
      1          9           0       -1.999060    0.508230   -0.000244
      2         16           0       -0.965418   -0.817593    0.000076
      3          6           0        0.639496    0.082860    0.000038
      4          6           0        1.679900   -1.049698    0.000015
      5          1           0        1.592346   -1.680579    0.888570
      6          1           0        2.681977   -0.611121   -0.000018
      7          1           0        1.592295   -1.680591   -0.888527
      8          6           0        0.748691    0.942562   -1.265498
      9          1           0        1.691899    1.498906   -1.259959
     10          1           0       -0.071258    1.661279   -1.313031
     11          1           0        0.714554    0.324814   -2.165087
     12          6           0        0.748748    0.942561    1.265569
     13          1           0        0.714651    0.324813    2.165161
     14          1           0       -0.071198    1.661279    1.313141
     15          1           0        1.691956    1.498904    1.259987
 ---------------------------------------------------------------------

 SCF Done:  E(RHF) =  -654.009151181     A.U. after    2 cycles

 The electronic state is 1-A.
 Alpha  occ. eigenvalues --  -94.01879 -26.45688 -11.29421 -11.25045 -11.23782
 Alpha  occ. eigenvalues --  -11.23762  -8.29189  -6.26998  -6.26659  -6.26406
 Alpha  occ. eigenvalues --   -1.55488  -1.13486  -0.96434  -0.95660  -0.95177
 Alpha  occ. eigenvalues --   -0.76217  -0.66905  -0.64870  -0.64415  -0.62681
 Alpha  occ. eigenvalues --   -0.60354  -0.58395  -0.56335  -0.55931  -0.53886
 Alpha  occ. eigenvalues --   -0.50385  -0.50065  -0.44858  -0.37045
 Alpha virt. eigenvalues --    0.03313   0.03960   0.04113   0.05096   0.06543
 Alpha virt. eigenvalues --    0.06713   0.06955   0.07468   0.08319   0.09743
 Alpha virt. eigenvalues --    0.10269   0.12532   0.14043   0.14086   0.15345

 Mulliken charges:
               1
     1  F   -0.716820
     2  S    0.796790
     3  C   -1.820242
     4  C    0.134724
     5  H    0.171708
     6  H    0.245951
     7  H    0.171713
     8  C   -0.051153
     9  H    0.197765
    10  H    0.195274
    11  H    0.166235
    12  C   -0.051188
    13  H    0.166249
    14  H    0.195224
    15  H    0.197770
 Sum of Mulliken charges =  -0.00000

 Dipole moment (field-independent basis, Debye):
    X=              2.8384    Y=              0.0370    Z=              0.0002  Tot=              2.8386

 Test job not archived.
 1\1\GINC-SE250\SP\RHF\Aug-CC-pVDZ\C4H9F1S1\OHZDE\09-Apr-2025\0\\#t hf
 aug-cc-pvdz iop(5/13=1,5/36=2,99/5=2) pseudo=read geom=check guess=(re
 ad,tcheck) scf=(maxcycle=1)\\title\\0,1\F,0,-1.99906,0.508231,-0.00024
 4\S,0,-0.965418,-0.817593,0.000076\C,0,0.639496,0.08286,0.000038\C,0,1
 .6799,-1.049698,0.000015\H,0,1.592346,-1.680579,0.88857\H,0,2.681977,-
 0.611122,-0.000018\H,0,1.592295,-1.680591,-0.888527\C,0,0.748691,0.942
 562,-1.265498\H,0,1.691899,1.498906,-1.259959\H,0,-0.071258,1.661279,-
 1.313031\H,0,0.714554,0.324814,-2.165087\C,0,0.748748,0.942561,1.26556

 Normal termination of Gaussian 16 at Wed Apr  9 00:22:07 2025.
