 Gaussian 16, Revision C.01,

 ----------------------------------------------------------------------
 #t hf aug-cc-pvdz symm=none int=(grid=ultrafine) guess=(read,tcheck) s
 table=(opt,rrhf)
 ----------------------------------------------------------------------
 -----
 title
 -----
 Symbolic Z-matrix:
 Charge =  0 Multiplicity = 1

 SCF Done:  E(RHF) =  -388.322648062     A.U. after   12 cycles

 1\1\GINC-SE093\Stability\RHF\Aug-CC-pVDZ\C8H18O1\OHZDE\08-Apr-2025\0\\
 #t hf aug-cc-pvdz symm=none int=(grid=ultrafine) guess=(read,tcheck) s
 table=(opt,rrhf)\\title\\0,1\O,0,0.,0.,0.687615\C,0,-1.299503,0.000921
 ,0.052885\C,0,-2.222014,0.422855,1.206071\H,0,-1.955769,1.423565,1.552
 678\H,0,-2.109218,-0.267702,2.044307\C,0,1.299503,-0.000921,0.052885\C
 ,0,2.222014,-0.422856,1.20607\H,0,1.955769,-1.423566,1.552677\H,0,2.10
 9218,0.267701,2.044307\C,0,-1.445195,1.004767,-1.100955\H,0,-2.485787,
 1.018649,-1.437134\H,0,-0.828833,0.742648,-1.962585\H,0,-1.182886,2.01

 Normal termination of Gaussian 16 at Tue Apr  8 22:44:43 2025.
 Gaussian 16:  ES64L-G16RevC.01  3-Jul-2019

 ----------------------------------------------------------------------
 #t hf aug-cc-pvdz iop(5/13=1,5/36=2,99/5=2) pseudo=read geom=check gue
 ss=(read,tcheck) scf=(maxcycle=1)
 ----------------------------------------------------------------------
 -----
 title
 -----
 Structure from the checkpoint file:  "BDE49_expt_1389_mol1.chk"
 Charge =  0 Multiplicity = 1

                         Standard orientation:
 ---------------------------------------------------------------------
 Center     Atomic      Atomic             Coordinates (Angstroms)
 Number     Number       Type             X           Y           Z
 ---------------------------------------------------------------------
      1          8           0       -0.000000    0.000000    0.687615
      2          6           0       -1.299503    0.000921    0.052885
      3          6           0       -2.222014    0.422855    1.206071
      4          1           0       -1.955769    1.423565    1.552678
      5          1           0       -2.109218   -0.267702    2.044307
      6          6           0        1.299503   -0.000921    0.052885
      7          6           0        2.222014   -0.422856    1.206070
      8          1           0        1.955769   -1.423566    1.552677
      9          1           0        2.109218    0.267701    2.044307
     10          6           0       -1.445195    1.004767   -1.100955
     11          1           0       -2.485787    1.018649   -1.437134
     12          1           0       -0.828833    0.742648   -1.962585
     13          1           0       -1.182886    2.013792   -0.776870
     14          6           0        1.445195   -1.004766   -1.100956
     15          1           0        2.485787   -1.018648   -1.437135
     16          1           0        0.828833   -0.742647   -1.962585
     17          1           0        1.182886   -2.013791   -0.776871
     18          6           0       -1.688788   -1.415278   -0.409057
     19          1           0       -1.509832   -2.129526    0.397791
     20          1           0       -1.125047   -1.735919   -1.285178
     21          1           0       -2.751272   -1.448959   -0.667453
     22          6           0        1.688788    1.415278   -0.409057
     23          1           0        1.509833    2.129526    0.397792
     24          1           0        1.125047    1.735919   -1.285177
     25          1           0        2.751272    1.448959   -0.667453
     26          1           0       -3.268691    0.424885    0.890328
     27          1           0        3.268691   -0.424886    0.890328
 ---------------------------------------------------------------------

 SCF Done:  E(RHF) =  -388.747973262     A.U. after    2 cycles

 The electronic state is 1-A.
 Alpha  occ. eigenvalues --  -20.52062 -11.28973 -11.28936 -11.22253 -11.22244
 Alpha  occ. eigenvalues --  -11.21732 -11.21730 -11.21411 -11.21411  -1.43016
 Alpha  occ. eigenvalues --   -1.09536  -1.04479  -0.94578  -0.93790  -0.92719
 Alpha  occ. eigenvalues --   -0.92676  -0.79852  -0.72329  -0.64940  -0.63808
 Alpha  occ. eigenvalues --   -0.63617  -0.60568  -0.59473  -0.58575  -0.56035
 Alpha  occ. eigenvalues --   -0.55630  -0.54307  -0.53428  -0.51964  -0.51747
 Alpha  occ. eigenvalues --   -0.51213  -0.51150  -0.50816  -0.47420  -0.45805
 Alpha  occ. eigenvalues --   -0.42926  -0.39890
 Alpha virt. eigenvalues --    0.03543   0.03606   0.03675   0.04031   0.05416
 Alpha virt. eigenvalues --    0.05555   0.05592   0.06163   0.06295   0.08363
 Alpha virt. eigenvalues --    0.08435   0.08581   0.09169   0.09303   0.09705

 Mulliken charges:
               1
     1  O   -1.724560
     2  C   -1.288514
     3  C    0.151555
     4  H    0.211415
     5  H    0.204543
     6  C   -1.288515
     7  C    0.151554
     8  H    0.211415
     9  H    0.204545
    10  C    0.079591
    11  H    0.107867
    12  H    0.236040
    13  H    0.263492
    14  C    0.079593
    15  H    0.107867
    16  H    0.236037
    17  H    0.263492
    18  C    0.113962
    19  H    0.229813
    20  H    0.160877
    21  H    0.193692
    22  C    0.113963
    23  H    0.229815
    24  H    0.160875
    25  H    0.193692
    26  H    0.197948
    27  H    0.197946
 Sum of Mulliken charges =  -0.00000

 Dipole moment (field-independent basis, Debye):
    X=             -0.0000    Y=             -0.0000    Z=             -1.1496  Tot=              1.1496

 Test job not archived.
 1\1\GINC-SE093\SP\RHF\Aug-CC-pVDZ\C8H18O1\OHZDE\08-Apr-2025\0\\#t hf a
 ug-cc-pvdz iop(5/13=1,5/36=2,99/5=2) pseudo=read geom=check guess=(rea
 d,tcheck) scf=(maxcycle=1)\\title\\0,1\O,0,0.,0.,0.687615\C,0,-1.29950
 3,0.000921,0.052885\C,0,-2.222014,0.422855,1.206071\H,0,-1.955769,1.42
 3565,1.552678\H,0,-2.109218,-0.267702,2.044307\C,0,1.299503,-0.000921,
 0.052885\C,0,2.222014,-0.422856,1.20607\H,0,1.955769,-1.423566,1.55267
 7\H,0,2.109218,0.267701,2.044307\C,0,-1.445195,1.004767,-1.100955\H,0,
 -2.485787,1.018649,-1.437134\H,0,-0.828833,0.742648,-1.962585\H,0,-1.1

 Normal termination of Gaussian 16 at Tue Apr  8 22:45:02 2025.
