 Gaussian 16, Revision C.01,

 ----------------------------------------------------------------------
 #t hf aug-cc-pvdz symm=none int=(grid=ultrafine) guess=(read,tcheck) s
 table=(opt,rrhf)
 ----------------------------------------------------------------------
 -----
 title
 -----
 Symbolic Z-matrix:
 Charge =  0 Multiplicity = 1

 SCF Done:  E(RHF) =  -581.340695512     A.U. after    9 cycles
 Normal termination of Gaussian 16 at Tue Apr  8 22:57:39 2025.
 Gaussian 16:  ES64L-G16RevC.01  3-Jul-2019

 ----------------------------------------------------------------------
 #t hf aug-cc-pvdz iop(5/13=1,5/36=2,99/5=2) pseudo=read geom=check gue
 ss=(read,tcheck) scf=(maxcycle=1)
 ----------------------------------------------------------------------
 -----
 title
 -----
 Structure from the checkpoint file:  "BDE49_expt_1938_mol1.chk"
 Charge =  0 Multiplicity = 1

                         Standard orientation:
 ---------------------------------------------------------------------
 Center     Atomic      Atomic             Coordinates (Angstroms)
 Number     Number       Type             X           Y           Z
 ---------------------------------------------------------------------
      1         14           0        1.178156    0.000000   -0.000001
      2         14           0       -1.178156   -0.000000    0.000001
      3          1           0        1.693928    1.270461   -0.565073
      4          1           0        1.693928   -1.124613   -0.817693
      5          1           0        1.693898   -0.145853    1.382799
      6          1           0       -1.693902    0.145852   -1.382798
      7          1           0       -1.693926    1.124613    0.817693
      8          1           0       -1.693926   -1.270460    0.565075
 ---------------------------------------------------------------------

 SCF Done:  E(RHF) =  -581.413449887     A.U. after    2 cycles

 The electronic state is 1-A.
 Alpha  occ. eigenvalues --  -69.52895 -69.52894  -6.20125  -6.20114  -3.95510
 Alpha  occ. eigenvalues --   -3.95472  -3.95472  -3.95463  -3.95463  -3.95425
 Alpha  occ. eigenvalues --   -0.78481  -0.70178  -0.50797  -0.50797  -0.47893
 Alpha  occ. eigenvalues --   -0.47893  -0.41518
 Alpha virt. eigenvalues --    0.03739   0.03986   0.05996   0.05996   0.07302
 Alpha virt. eigenvalues --    0.07302   0.07387   0.08947   0.08947   0.10282
 Alpha virt. eigenvalues --    0.10282   0.10419   0.13508   0.15692   0.15692

 Mulliken charges:
               1
     1  Si   0.435426
     2  Si   0.435426
     3  H   -0.145143
     4  H   -0.145143
     5  H   -0.145140
     6  H   -0.145141
     7  H   -0.145142
     8  H   -0.145142
 Sum of Mulliken charges =  -0.00000

 Dipole moment (field-independent basis, Debye):
    X=             -0.0000    Y=             -0.0000    Z=             -0.0000  Tot=              0.0000

 Test job not archived.
 1\1\GINC-SE221\SP\RHF\Aug-CC-pVDZ\H6Si2\OHZDE\08-Apr-2025\0\\#t hf aug
 -cc-pvdz iop(5/13=1,5/36=2,99/5=2) pseudo=read geom=check guess=(read,
 tcheck) scf=(maxcycle=1)\\title\\0,1\Si,0,1.178156,0.,-0.000001\Si,0,-
 1.178156,0.,0.000001\H,0,1.693928,1.26476,-0.577719\H,0,1.693928,-1.13
 2715,-0.806433\H,0,1.693898,-0.132051,1.384185\H,0,-1.693902,0.13205,-
 1.384184\H,0,-1.693926,1.132715,0.806433\H,0,-1.693926,-1.264759,0.577
 721\\Version=ES64L-G16RevC.01\State=1-A\HF=-581.4134499\RMSD=4.494e-03
 \Dipole=0.,0.,-0.0000004\Quadrupole=-0.3419426,0.1709941,0.1709485,0.0

 Normal termination of Gaussian 16 at Tue Apr  8 22:57:41 2025.
