 Gaussian 16, Revision C.01,

 ----------------------------------------------------------------------
 #t hf aug-cc-pvdz symm=none int=(grid=ultrafine) guess=(read,tcheck) s
 table=(opt,rrhf)
 ----------------------------------------------------------------------
 -----
 title
 -----
 Symbolic Z-matrix:
 Charge =  0 Multiplicity = 1

 SCF Done:  E(RHF) =  -1060.65670702     A.U. after   14 cycles
 Normal termination of Gaussian 16 at Tue Apr  8 22:33:11 2025.
 Gaussian 16:  ES64L-G16RevC.01  3-Jul-2019

 ----------------------------------------------------------------------
 #t hf aug-cc-pvdz iop(5/13=1,5/36=2,99/5=2) pseudo=read geom=check gue
 ss=(read,tcheck) scf=(maxcycle=1)
 ----------------------------------------------------------------------
 -----
 title
 -----
 Structure from the checkpoint file:  "BDE49_expt_1043_mol1.chk"
 Charge =  0 Multiplicity = 1

                         Standard orientation:
 ---------------------------------------------------------------------
 Center     Atomic      Atomic             Coordinates (Angstroms)
 Number     Number       Type             X           Y           Z
 ---------------------------------------------------------------------
      1          6           0        0.670787    0.059334    0.000000
      2          6           0       -0.007286   -1.163608    0.000001
      3          6           0       -1.392400   -1.229729    0.000001
      4          6           0       -2.133266   -0.052397    0.000000
      5          6           0       -1.483816    1.174173   -0.000001
      6          6           0       -0.092354    1.227906   -0.000001
      7          9           0        0.465402    2.438094   -0.000002
      8          9           0       -3.461651   -0.103397    0.000000
      9          9           0       -2.194805    2.302046   -0.000002
     10          9           0        0.677438   -2.308702    0.000002
     11          9           0       -2.014222   -2.408487    0.000002
     12          6           0        2.185730    0.037694    0.000000
     13          9           0        2.722750    1.263715   -0.000003
     14          9           0        2.653412   -0.609429   -1.085343
     15          9           0        2.653412   -0.609423    1.085346
 ---------------------------------------------------------------------

 SCF Done:  E(RHF) =  -1061.63084133     A.U. after    2 cycles

 The electronic state is 1-A.
 Alpha  occ. eigenvalues --  -26.54068 -26.53468 -26.53326 -26.53279 -26.53193
 Alpha  occ. eigenvalues --  -26.52798 -26.52456 -26.52453 -11.55816 -11.41492
 Alpha  occ. eigenvalues --  -11.41397 -11.41204 -11.39998 -11.39932 -11.33350
 Alpha  occ. eigenvalues --   -1.73718  -1.68318  -1.67488  -1.66998  -1.65810
 Alpha  occ. eigenvalues --   -1.65309  -1.63488  -1.63181  -1.24286  -1.12697
 Alpha  occ. eigenvalues --   -1.09127  -1.00540  -0.94075  -0.93642  -0.86793
 Alpha  occ. eigenvalues --   -0.85189  -0.83110  -0.82885  -0.82127  -0.79145
 Alpha  occ. eigenvalues --   -0.77133  -0.77083  -0.76861  -0.75291  -0.74027
 Alpha  occ. eigenvalues --   -0.73022  -0.71163  -0.70681  -0.70534  -0.70002
 Alpha  occ. eigenvalues --   -0.68439  -0.68167  -0.66306  -0.65515  -0.65384
 Alpha  occ. eigenvalues --   -0.64222  -0.63771  -0.60967  -0.59016  -0.55672
 Alpha  occ. eigenvalues --   -0.41771  -0.39854
 Alpha virt. eigenvalues --    0.05035   0.05413   0.06907   0.07061   0.07832
 Alpha virt. eigenvalues --    0.08143   0.08289   0.08705   0.10291   0.10968
 Alpha virt. eigenvalues --    0.11686   0.11869   0.12910   0.14339   0.15109

 Mulliken charges:
               1
     1  C   -0.783565
     2  C    1.016450
     3  C    0.578915
     4  C    1.275749
     5  C    0.663492
     6  C    2.002941
     7  F   -1.021764
     8  F   -0.974640
     9  F   -0.948472
    10  F   -1.022259
    11  F   -0.947729
    12  C    2.455685
    13  F   -0.815268
    14  F   -0.739767
    15  F   -0.739767
 Sum of Mulliken charges =   0.00000

 Dipole moment (field-independent basis, Debye):
    X=             -0.9788    Y=              0.1090    Z=              0.0000  Tot=              0.9848

 Test job not archived.
 1\1\GINC-SE364\SP\RHF\Aug-CC-pVDZ\C7F8\OHZDE\08-Apr-2025\0\\#t hf aug-
 cc-pvdz iop(5/13=1,5/36=2,99/5=2) pseudo=read geom=check guess=(read,t
 check) scf=(maxcycle=1)\\title\\0,1\C,0,0.670787,0.059334,0.\C,0,-0.00
 7286,-1.163608,0.000001\C,0,-1.3924,-1.229729,0.000001\C,0,-2.133266,-
 0.052397,0.\C,0,-1.483816,1.174173,-0.000001\C,0,-0.092354,1.227906,-0
 .000001\F,0,0.465401,2.438094,-0.000002\F,0,-3.461651,-0.103398,0.\F,0
 ,-2.194806,2.302046,-0.000002\F,0,0.677438,-2.308702,0.000002\F,0,-2.0
 14222,-2.408487,0.000002\C,0,2.18573,0.037694,0.\F,0,2.72275,1.263715,

 Normal termination of Gaussian 16 at Tue Apr  8 22:33:22 2025.
