 Gaussian 16, Revision C.01,

 ----------------------------------------------------------------------
 #t hf aug-cc-pvdz symm=none int=(grid=ultrafine) guess=(read,tcheck) s
 table=(opt,rrhf)
 ----------------------------------------------------------------------
 -----
 title
 -----
 Symbolic Z-matrix:
 Charge =  0 Multiplicity = 1

 SCF Done:  E(RHF) =  -507.517654001     A.U. after   13 cycles
 Normal termination of Gaussian 16 at Tue Apr  8 23:38:08 2025.
 Gaussian 16:  ES64L-G16RevC.01  3-Jul-2019

 ----------------------------------------------------------------------
 #t hf aug-cc-pvdz iop(5/13=1,5/36=2,99/5=2) pseudo=read geom=check gue
 ss=(read,tcheck) scf=(maxcycle=1)
 ----------------------------------------------------------------------
 -----
 title
 -----
 Structure from the checkpoint file:  "BDE49_nonexpt_1582_mol1.chk"
 Charge =  0 Multiplicity = 1

                         Standard orientation:
 ---------------------------------------------------------------------
 Center     Atomic      Atomic             Coordinates (Angstroms)
 Number     Number       Type             X           Y           Z
 ---------------------------------------------------------------------
      1          7           0        0.388781    0.003226   -0.303055
      2         15           0       -1.313724   -0.167939   -0.022612
      3          7           0        1.077007   -1.187778    0.047911
      4          7           0        1.081567    1.189233    0.083346
      5          1           0        0.680321    1.573951    0.940514
      6          1           0        0.963834    1.880530   -0.650906
      7          1           0        1.426405   -1.114529    1.004248
      8          1           0        1.888150   -1.262145   -0.559276
      9          1           0       -1.672158    1.109515   -0.530313
     10          1           0       -1.412178    0.298994    1.337490
 ---------------------------------------------------------------------

 SCF Done:  E(RHF) =  -507.738466535     A.U. after    2 cycles

 The electronic state is 1-A.
 Alpha  occ. eigenvalues --  -84.29593 -15.54770 -15.52770 -15.52004  -6.76324
 Alpha  occ. eigenvalues --   -4.29200  -4.28443  -4.28064  -1.31387  -1.16324
 Alpha  occ. eigenvalues --   -1.00531  -0.84150  -0.74382  -0.72386  -0.68472
 Alpha  occ. eigenvalues --   -0.63392  -0.52172  -0.48527  -0.47378  -0.42892
 Alpha  occ. eigenvalues --   -0.35334
 Alpha virt. eigenvalues --    0.03128   0.05401   0.05869   0.05916   0.06575
 Alpha virt. eigenvalues --    0.07363   0.08818   0.09975   0.11345   0.14765
 Alpha virt. eigenvalues --    0.15586   0.17444   0.18425   0.18832   0.19840

 Mulliken charges:
               1
     1  N   -0.682694
     2  P   -0.239949
     3  N   -0.118993
     4  N   -0.059840
     5  H    0.175061
     6  H    0.114042
     7  H    0.156713
     8  H    0.140594
     9  H    0.252653
    10  H    0.262413
 Sum of Mulliken charges =  -0.00000

 Dipole moment (field-independent basis, Debye):
    X=              0.1507    Y=              1.6906    Z=              0.8708  Tot=              1.9076

 Test job not archived.
 1\1\GINC-SE457\SP\RHF\Aug-CC-pVDZ\H6N3P1\OHZDE\08-Apr-2025\0\\#t hf au
 g-cc-pvdz iop(5/13=1,5/36=2,99/5=2) pseudo=read geom=check guess=(read
 ,tcheck) scf=(maxcycle=1)\\title\\0,1\N,0,0.388781,0.003226,-0.303055\
 P,0,-1.313724,-0.167939,-0.022612\N,0,1.077007,-1.187778,0.047911\N,0,
 1.081567,1.189233,0.083346\H,0,0.680321,1.573951,0.940514\H,0,0.963834
 ,1.88053,-0.650906\H,0,1.426405,-1.114529,1.004248\H,0,1.88815,-1.2621
 45,-0.559276\H,0,-1.672158,1.109515,-0.530313\H,0,-1.412178,0.298994,1
 .33749\\Version=ES64L-G16RevC.01\State=1-A\HF=-507.7384665\RMSD=2.931e

 Normal termination of Gaussian 16 at Tue Apr  8 23:38:11 2025.
