 Gaussian 16, Revision C.01,

 ----------------------------------------------------------------------
 #t hf aug-cc-pvdz symm=none int=(grid=ultrafine) guess=(read,tcheck) s
 table=(opt,rrhf)
 ----------------------------------------------------------------------
 -----
 title
 -----
 Symbolic Z-matrix:
 Charge =  0 Multiplicity = 1

 SCF Done:  E(RHF) =  -474.710939906     A.U. after   10 cycles
 Normal termination of Gaussian 16 at Tue Apr  8 22:28:18 2025.
 Gaussian 16:  ES64L-G16RevC.01  3-Jul-2019

 ----------------------------------------------------------------------
 #t hf aug-cc-pvdz iop(5/13=1,5/36=2,99/5=2) pseudo=read geom=check gue
 ss=(read,tcheck) scf=(maxcycle=1)
 ----------------------------------------------------------------------
 -----
 title
 -----
 Structure from the checkpoint file:  "BDE49_expt_1002_mol1.chk"
 Charge =  0 Multiplicity = 1

                         Standard orientation:
 ---------------------------------------------------------------------
 Center     Atomic      Atomic             Coordinates (Angstroms)
 Number     Number       Type             X           Y           Z
 ---------------------------------------------------------------------
      1          6           0        0.245502    0.721848   -0.000000
      2          6           0       -0.245502   -0.721848   -0.000000
      3          1           0        1.336026    0.785375    0.000000
      4          9           0       -0.245502    1.348725    1.102884
      5          9           0       -0.245502    1.348725   -1.102884
      6          9           0        0.245502   -1.348725    1.102884
      7          9           0        0.245502   -1.348725   -1.102884
      8          1           0       -1.336026   -0.785375    0.000000
 ---------------------------------------------------------------------

 SCF Done:  E(RHF) =  -475.150200345     A.U. after    2 cycles

 The electronic state is 1-AG.
 Alpha  occ. eigenvalues --  -26.50494 -26.50494 -26.50492 -26.50492 -11.45012
 Alpha  occ. eigenvalues --  -11.44996  -1.68120  -1.66088  -1.60940  -1.59844
 Alpha  occ. eigenvalues --   -1.06068  -0.92588  -0.82004  -0.80979  -0.78980
 Alpha  occ. eigenvalues --   -0.76477  -0.74539  -0.68586  -0.66706  -0.66296
 Alpha  occ. eigenvalues --   -0.63494  -0.62224  -0.62024  -0.60061  -0.52822
 Alpha virt. eigenvalues --    0.03878   0.04266   0.08060   0.08875   0.11454
 Alpha virt. eigenvalues --    0.11946   0.11999   0.14574   0.17267   0.19448
 Alpha virt. eigenvalues --    0.21372   0.22925   0.25306   0.25664   0.28523

 Mulliken charges:
               1
     1  C    1.295438
     2  C    1.295438
     3  H    0.091025
     4  F   -0.693232
     5  F   -0.693232
     6  F   -0.693232
     7  F   -0.693232
     8  H    0.091025
 Sum of Mulliken charges =   0.00000

 Dipole moment (field-independent basis, Debye):
    X=              0.0000    Y=              0.0000    Z=             -0.0000  Tot=              0.0000

 Test job not archived.
 1\1\GINC-SE364\SP\RHF\Aug-CC-pVDZ\C2H2F4\OHZDE\08-Apr-2025\0\\#t hf au
 g-cc-pvdz iop(5/13=1,5/36=2,99/5=2) pseudo=read geom=check guess=(read
 ,tcheck) scf=(maxcycle=1)\\title\\0,1\C,0,0.245502,0.721848,0.\C,0,-0.
 245502,-0.721848,0.\H,0,1.336026,0.785375,0.\F,0,-0.245502,1.348725,1.
 102884\F,0,-0.245502,1.348725,-1.102884\F,0,0.245502,-1.348725,1.10288
 4\F,0,0.245502,-1.348725,-1.102884\H,0,-1.336026,-0.785375,0.\\Version
 =ES64L-G16RevC.01\State=1-AG\HF=-475.1502003\RMSD=5.613e-03\Dipole=0.,
 0.,0.\Quadrupole=3.5460955,-1.5609408,-1.9851548,2.351355,0.,0.\PG=C02

 Normal termination of Gaussian 16 at Tue Apr  8 22:28:21 2025.
