 Gaussian 16, Revision C.01,

 ----------------------------------------------------------------------
 #t hf aug-cc-pvdz symm=none int=(grid=ultrafine) guess=(read,tcheck) s
 table=(opt,rrhf)
 ----------------------------------------------------------------------
 -----
 title
 -----
 Symbolic Z-matrix:
 Charge =  0 Multiplicity = 1

 SCF Done:  E(RHF) =  -971.398973213     A.U. after   18 cycles
 Normal termination of Gaussian 16 at Tue Apr  8 23:15:48 2025.
 Gaussian 16:  ES64L-G16RevC.01  3-Jul-2019

 ----------------------------------------------------------------------
 #t hf aug-cc-pvdz iop(5/13=1,5/36=2,99/5=2) pseudo=read geom=check gue
 ss=(read,tcheck) scf=(maxcycle=1)
 ----------------------------------------------------------------------
 -----
 title
 -----
 Structure from the checkpoint file:  "BDE49_nonexpt_1017_mol1.chk"
 Charge =  0 Multiplicity = 1

                         Standard orientation:
 ---------------------------------------------------------------------
 Center     Atomic      Atomic             Coordinates (Angstroms)
 Number     Number       Type             X           Y           Z
 ---------------------------------------------------------------------
      1         17           0        1.864291    0.279176   -0.112947
      2         16           0       -1.053100   -0.602886   -0.267685
      3          8           0        0.232875   -0.624050    0.626716
      4          6           0       -1.805031    0.996503    0.112559
      5          1           0       -2.773150    1.017183   -0.394066
      6          1           0       -1.168174    1.791439   -0.280760
      7          1           0       -1.934824    1.104939    1.188790
 ---------------------------------------------------------------------

 SCF Done:  E(RHF) =  -971.646874610     A.U. after    2 cycles

 The electronic state is 1-A.
 Alpha  occ. eigenvalues -- -105.59499 -94.03848 -20.67713 -11.28946 -10.63722
 Alpha  occ. eigenvalues --   -8.31439  -7.80620  -7.80174  -7.80162  -6.29324
 Alpha  occ. eigenvalues --   -6.28972  -6.28810  -1.51011  -1.07413  -1.00834
 Alpha  occ. eigenvalues --   -0.88109  -0.65941  -0.65511  -0.63913  -0.58700
 Alpha  occ. eigenvalues --   -0.57681  -0.48777  -0.46818  -0.44993  -0.36804
 Alpha virt. eigenvalues --   -0.01251   0.03182   0.04983   0.05578   0.07285
 Alpha virt. eigenvalues --    0.09751   0.11641   0.12503   0.14268   0.14410
 Alpha virt. eigenvalues --    0.15328   0.16235   0.17542   0.17926   0.21376

 Mulliken charges:
               1
     1  Cl  -0.042329
     2  S    1.115242
     3  O   -0.928069
     4  C   -0.776287
     5  H    0.219174
     6  H    0.213107
     7  H    0.199162
 Sum of Mulliken charges =  -0.00000

 Dipole moment (field-independent basis, Debye):
    X=             -3.1351    Y=              1.2265    Z=             -0.1249  Tot=              3.3687

 Test job not archived.
 1\1\GINC-SE366\SP\RHF\Aug-CC-pVDZ\C1H3Cl1O1S1\OHZDE\08-Apr-2025\0\\#t
 hf aug-cc-pvdz iop(5/13=1,5/36=2,99/5=2) pseudo=read geom=check guess=
 (read,tcheck) scf=(maxcycle=1)\\title\\0,1\Cl,0,1.864291,0.279176,-0.1
 12947\S,0,-1.0531,-0.602886,-0.267685\O,0,0.232875,-0.62405,0.626716\C
 ,0,-1.805031,0.996503,0.112559\H,0,-2.77315,1.017183,-0.394066\H,0,-1.
 168174,1.791439,-0.28076\H,0,-1.934824,1.104939,1.18879\\Version=ES64L
 -G16RevC.01\State=1-A\HF=-971.6468746\RMSD=4.848e-03\Dipole=-1.2334247
 ,0.4825384,-0.0491287\Quadrupole=1.3317477,-0.1222177,-1.20953,-1.5237

 Normal termination of Gaussian 16 at Tue Apr  8 23:15:50 2025.
