 Gaussian 16, Revision C.01,

 ----------------------------------------------------------------------
 #t hf aug-cc-pvdz symm=none int=(grid=ultrafine) guess=(read,tcheck) s
 table=(opt,rrhf)
 ----------------------------------------------------------------------
 -----
 title
 -----
 Symbolic Z-matrix:
 Charge =  0 Multiplicity = 1

 SCF Done:  E(RHF) =  -1208.13982836     A.U. after   13 cycles
 Normal termination of Gaussian 16 at Tue Apr  8 23:39:52 2025.
 Gaussian 16:  ES64L-G16RevC.01  3-Jul-2019

 ----------------------------------------------------------------------
 #t hf aug-cc-pvdz iop(5/13=1,5/36=2,99/5=2) pseudo=read geom=check gue
 ss=(read,tcheck) scf=(maxcycle=1)
 ----------------------------------------------------------------------
 -----
 title
 -----
 Structure from the checkpoint file:  "BDE49_nonexpt_1591_mol1.chk"
 Charge =  0 Multiplicity = 1

                         Standard orientation:
 ---------------------------------------------------------------------
 Center     Atomic      Atomic             Coordinates (Angstroms)
 Number     Number       Type             X           Y           Z
 ---------------------------------------------------------------------
      1         15           0       -1.383319    0.056986   -0.007992
      2          8           0       -0.000002   -0.000002    0.854152
      3         15           0        1.383319   -0.056986   -0.007986
      4          8           0       -1.344198    1.219129   -0.909492
      5          8           0       -1.509522   -1.385975   -0.617694
      6          8           0        1.344202   -1.219125   -0.909491
      7          8           0        1.509525    1.385977   -0.617681
      8          1           0        0.645464    1.688989   -0.965714
      9          1           0       -0.645459   -1.688984   -0.965724
     10          8           0        2.519905   -0.043260    1.082321
     11          1           0        2.898790   -0.918657    1.227864
     12          8           0       -2.519910    0.043256    1.082309
     13          1           0       -2.898795    0.918652    1.227854
 ---------------------------------------------------------------------

 SCF Done:  E(RHF) =  -1208.74346160     A.U. after    2 cycles

 The electronic state is 1-A.
 Alpha  occ. eigenvalues --  -84.49385 -84.49361 -20.62752 -20.62752 -20.62055
 Alpha  occ. eigenvalues --  -20.60805 -20.60803 -20.53878 -20.53878  -6.94261
 Alpha  occ. eigenvalues --   -6.94105  -4.48339  -4.48298  -4.47843  -4.47827
 Alpha  occ. eigenvalues --   -4.47708  -4.47454  -1.60829  -1.57201  -1.51270
 Alpha  occ. eigenvalues --   -1.50393  -1.49300  -1.42960  -1.41749  -0.92443
 Alpha  occ. eigenvalues --   -0.87188  -0.78559  -0.75324  -0.73153  -0.72454
 Alpha  occ. eigenvalues --   -0.69476  -0.68434  -0.67590  -0.62968  -0.61183
 Alpha  occ. eigenvalues --   -0.60870  -0.58994  -0.57876  -0.55569  -0.55402
 Alpha  occ. eigenvalues --   -0.55225  -0.49524  -0.49467  -0.49174  -0.48415
 Alpha virt. eigenvalues --    0.03100   0.03693   0.06056   0.06818   0.08546
 Alpha virt. eigenvalues --    0.08797   0.09781   0.09920   0.12036   0.13214
 Alpha virt. eigenvalues --    0.13968   0.16117   0.17842   0.19028   0.19524

 Mulliken charges:
               1
     1  P    4.240120
     2  O   -1.986302
     3  P    4.240120
     4  O   -1.415844
     5  O   -1.404225
     6  O   -1.415844
     7  O   -1.404225
     8  H    0.475143
     9  H    0.475143
    10  O   -1.269047
    11  H    0.367004
    12  O   -1.269047
    13  H    0.367003
 Sum of Mulliken charges =  -0.00000

 Dipole moment (field-independent basis, Debye):
    X=             -0.0000    Y=             -0.0000    Z=              2.8151  Tot=              2.8151

 Test job not archived.
 1\1\GINC-SE048\SP\RHF\Aug-CC-pVDZ\H4O7P2\OHZDE\08-Apr-2025\0\\#t hf au
 g-cc-pvdz iop(5/13=1,5/36=2,99/5=2) pseudo=read geom=check guess=(read
 ,tcheck) scf=(maxcycle=1)\\title\\0,1\P,0,-1.383319,0.056986,-0.007992
 \O,0,-0.000002,-0.000002,0.854152\P,0,1.383319,-0.056986,-0.007986\O,0
 ,-1.344198,1.219129,-0.909492\O,0,-1.509522,-1.385975,-0.617694\O,0,1.
 344202,-1.219125,-0.909491\O,0,1.509525,1.385977,-0.617681\H,0,0.64546
 4,1.688989,-0.965714\H,0,-0.645459,-1.688984,-0.965724\O,0,2.519905,-0
 .04326,1.082321\H,0,2.89879,-0.918657,1.227864\O,0,-2.51991,0.043256,1

 Normal termination of Gaussian 16 at Tue Apr  8 23:39:58 2025.
