 Gaussian 16, Revision C.01,

 ----------------------------------------------------------------------
 #t hf aug-cc-pvdz symm=none int=(grid=ultrafine) guess=(read,tcheck) s
 table=(opt,rrhf)
 ----------------------------------------------------------------------
 -----
 title
 -----
 Symbolic Z-matrix:
 Charge =  0 Multiplicity = 1

 SCF Done:  E(RHF) =  -403.813411384     A.U. after   13 cycles
 Normal termination of Gaussian 16 at Wed Apr  9 00:27:06 2025.
 Gaussian 16:  ES64L-G16RevC.01  3-Jul-2019

 ----------------------------------------------------------------------
 #t hf aug-cc-pvdz iop(5/13=1,5/36=2,99/5=2) pseudo=read geom=check gue
 ss=(read,tcheck) scf=(maxcycle=1)
 ----------------------------------------------------------------------
 -----
 title
 -----
 Structure from the checkpoint file:  "BDE49_nonexpt_275_mol1.chk"
 Charge =  0 Multiplicity = 1

                         Standard orientation:
 ---------------------------------------------------------------------
 Center     Atomic      Atomic             Coordinates (Angstroms)
 Number     Number       Type             X           Y           Z
 ---------------------------------------------------------------------
      1          8           0       -0.808827   -1.034253    0.000005
      2          6           0       -2.125376   -0.714215   -0.000040
      3          6           0       -0.089653    0.151050   -0.000011
      4          6           0       -2.290526    0.636428    0.000053
      5          6           0       -0.975540    1.192328   -0.000039
      6          1           0       -3.229899    1.166050    0.000103
      7          1           0       -2.814448   -1.542526   -0.000058
      8          1           0       -0.708187    2.237340   -0.000062
      9          5           0        1.454243    0.023010   -0.000019
     10          8           0        2.209671    1.157509    0.000002
     11          8           0        2.071079   -1.198408    0.000027
     12          1           0        1.440936   -1.925869    0.000039
     13          1           0        3.151558    0.957622    0.000023
 ---------------------------------------------------------------------

 SCF Done:  E(RHF) =  -404.216650825     A.U. after    2 cycles

 The electronic state is 1-A.
 Alpha  occ. eigenvalues --  -20.61388 -20.55870 -20.55451 -11.30811 -11.27238
 Alpha  occ. eigenvalues --  -11.24887 -11.24335  -7.64521  -1.54414  -1.48008
 Alpha  occ. eigenvalues --   -1.43978  -1.09724  -1.01119  -0.81809  -0.81060
 Alpha  occ. eigenvalues --   -0.76760  -0.75063  -0.71314  -0.63757  -0.62179
 Alpha  occ. eigenvalues --   -0.60108  -0.58175  -0.56684  -0.56070  -0.55478
 Alpha  occ. eigenvalues --   -0.51593  -0.49241  -0.40528  -0.33451
 Alpha virt. eigenvalues --    0.03340   0.03880   0.04265   0.05259   0.05628
 Alpha virt. eigenvalues --    0.05703   0.07827   0.08781   0.09232   0.09961
 Alpha virt. eigenvalues --    0.12471   0.13068   0.13892   0.13912   0.14850

 Mulliken charges:
               1
     1  O   -1.373412
     2  C    0.668758
     3  C    0.786167
     4  C    0.343262
     5  C    0.294041
     6  H   -0.126064
     7  H   -0.161886
     8  H   -0.186298
     9  B    1.478964
    10  O   -1.344737
    11  O   -1.499584
    12  H    0.651636
    13  H    0.469153
 Sum of Mulliken charges =  -0.00000

 Dipole moment (field-independent basis, Debye):
    X=             -1.1880    Y=             -0.5980    Z=             -0.0001  Tot=              1.3300

 Test job not archived.
 1\1\GINC-SE344\SP\RHF\Aug-CC-pVDZ\C4H5B1O3\OHZDE\09-Apr-2025\0\\#t hf
 aug-cc-pvdz iop(5/13=1,5/36=2,99/5=2) pseudo=read geom=check guess=(re
 ad,tcheck) scf=(maxcycle=1)\\title\\0,1\O,0,0.808827,-1.034253,-0.0000
 05\C,0,2.125376,-0.714215,0.00004\C,0,0.089653,0.15105,0.000011\C,0,2.
 290526,0.636428,-0.000053\C,0,0.97554,1.192328,0.000039\H,0,3.229899,1
 .16605,-0.000103\H,0,2.814448,-1.542526,0.000058\H,0,0.708187,2.23734,
 0.000062\B,0,-1.454243,0.02301,0.000019\O,0,-2.209671,1.157509,-0.0000
 02\O,0,-2.071079,-1.198408,-0.000027\H,0,-1.440936,-1.925869,-0.000039

 Normal termination of Gaussian 16 at Wed Apr  9 00:27:12 2025.
