 Gaussian 16, Revision C.01,

 ----------------------------------------------------------------------
 #t hf aug-cc-pvdz symm=none int=(grid=ultrafine) guess=(read,tcheck) s
 table=(opt,rrhf)
 ----------------------------------------------------------------------
 -----
 title
 -----
 Symbolic Z-matrix:
 Charge =  0 Multiplicity = 1

 SCF Done:  E(RHF) =  -341.414758694     A.U. after   12 cycles
 Normal termination of Gaussian 16 at Wed Apr  9 00:32:27 2025.
 Gaussian 16:  ES64L-G16RevC.01  3-Jul-2019

 ----------------------------------------------------------------------
 #t hf aug-cc-pvdz iop(5/13=1,5/36=2,99/5=2) pseudo=read geom=check gue
 ss=(read,tcheck) scf=(maxcycle=1)
 ----------------------------------------------------------------------
 -----
 title
 -----
 Structure from the checkpoint file:  "BDE49_nonexpt_369_mol1.chk"
 Charge =  0 Multiplicity = 1

                         Standard orientation:
 ---------------------------------------------------------------------
 Center     Atomic      Atomic             Coordinates (Angstroms)
 Number     Number       Type             X           Y           Z
 ---------------------------------------------------------------------
      1          9           0        1.527061   -1.124989    0.057071
      2          9           0        1.527067    1.124986    0.057058
      3          5           0        0.826992   -0.000001   -0.061762
      4          6           0       -0.709276    0.000002   -0.363601
      5          6           0       -1.416887   -1.279638    0.120131
      6          1           0       -0.925853   -2.179151   -0.257265
      7          1           0       -2.459045   -1.297757   -0.211733
      8          1           0       -1.419287   -1.339438    1.213145
      9          6           0       -1.416883    1.279641    0.120142
     10          1           0       -0.755483    0.000007   -1.466717
     11          1           0       -1.419283    1.339431    1.213157
     12          1           0       -2.459040    1.297765   -0.211723
     13          1           0       -0.925847    2.179156   -0.257246
 ---------------------------------------------------------------------

 SCF Done:  E(RHF) =  -341.752583419     A.U. after    2 cycles

 The electronic state is 1-A.
 Alpha  occ. eigenvalues --  -26.47197 -26.47196 -11.23559 -11.23546 -11.23465
 Alpha  occ. eigenvalues --   -7.70710  -1.62389  -1.58215  -1.07387  -0.94094
 Alpha  occ. eigenvalues --   -0.84334  -0.78720  -0.73472  -0.70388  -0.68656
 Alpha  occ. eigenvalues --   -0.62694  -0.62636  -0.62052  -0.60033  -0.56627
 Alpha  occ. eigenvalues --   -0.54984  -0.49879  -0.49810  -0.46975
 Alpha virt. eigenvalues --    0.03450   0.03726   0.04185   0.04457   0.06704
 Alpha virt. eigenvalues --    0.06718   0.07121   0.07483   0.07566   0.10229
 Alpha virt. eigenvalues --    0.11944   0.13483   0.14699   0.15136   0.15672

 Mulliken charges:
               1
     1  F   -0.743601
     2  F   -0.743601
     3  B    1.696451
     4  C   -0.535776
     5  C   -0.317984
     6  H    0.103352
     7  H    0.145213
     8  H    0.147945
     9  C   -0.317984
    10  H    0.169474
    11  H    0.147945
    12  H    0.145212
    13  H    0.103353
 Sum of Mulliken charges =  -0.00000

 Dipole moment (field-independent basis, Debye):
    X=             -1.7021    Y=              0.0000    Z=             -0.3781  Tot=              1.7436

 Test job not archived.
 1\1\GINC-SE109\SP\RHF\Aug-CC-pVDZ\C3H7B1F2\OHZDE\09-Apr-2025\0\\#t hf
 aug-cc-pvdz iop(5/13=1,5/36=2,99/5=2) pseudo=read geom=check guess=(re
 ad,tcheck) scf=(maxcycle=1)\\title\\0,1\F,0,-1.527061,1.12499,0.057071
 \F,0,-1.527067,-1.124985,0.057058\B,0,-0.826992,0.000001,-0.061762\C,0
 ,0.709276,-0.000002,-0.363601\C,0,1.416887,1.279638,0.120131\H,0,0.925
 854,2.179151,-0.257265\H,0,2.459045,1.297756,-0.211733\H,0,1.419287,1.
 339438,1.213145\C,0,1.416883,-1.279641,0.120142\H,0,0.755483,-0.000007
 ,-1.466717\H,0,1.419283,-1.339431,1.213157\H,0,2.45904,-1.297766,-0.21

 Normal termination of Gaussian 16 at Wed Apr  9 00:32:31 2025.
