 Gaussian 16, Revision C.01,

 ----------------------------------------------------------------------
 #t hf aug-cc-pvdz symm=none int=(grid=ultrafine) guess=(read,tcheck) s
 table=(opt,rrhf)
 ----------------------------------------------------------------------
 -----
 title
 -----
 Symbolic Z-matrix:
 Charge =  0 Multiplicity = 1

 SCF Done:  E(RHF) =  -626.947482123     A.U. after   11 cycles
 Normal termination of Gaussian 16 at Tue Apr  8 23:55:19 2025.
 Gaussian 16:  ES64L-G16RevC.01  3-Jul-2019

 ----------------------------------------------------------------------
 #t hf aug-cc-pvdz iop(5/13=1,5/36=2,99/5=2) pseudo=read geom=check gue
 ss=(read,tcheck) scf=(maxcycle=1)
 ----------------------------------------------------------------------
 -----
 title
 -----
 Structure from the checkpoint file:  "BDE49_nonexpt_1976_mol1.chk"
 Charge =  0 Multiplicity = 1

                         Standard orientation:
 ---------------------------------------------------------------------
 Center     Atomic      Atomic             Coordinates (Angstroms)
 Number     Number       Type             X           Y           Z
 ---------------------------------------------------------------------
      1          6           0        0.827534    0.118003   -0.392207
      2         14           0       -0.870509   -0.522029    0.197489
      3          9           0        1.154804    1.272804    0.281651
      4          1           0        0.940994    0.319081   -1.461538
      5          9           0        1.758305   -0.846508   -0.049635
      6          9           0       -1.991775    0.541649   -0.249207
      7          1           0       -0.849581   -0.622100    1.665952
      8          1           0       -1.161494   -1.808092   -0.461306
 ---------------------------------------------------------------------

 SCF Done:  E(RHF) =  -627.291874595     A.U. after    2 cycles

 The electronic state is 1-A.
 Alpha  occ. eigenvalues --  -69.60563 -26.48640 -26.48438 -26.46953 -11.41281
 Alpha  occ. eigenvalues --   -6.27226  -4.02666  -4.02453  -4.02423  -1.64178
 Alpha  occ. eigenvalues --   -1.58093  -1.57831  -0.95966  -0.80931  -0.76451
 Alpha  occ. eigenvalues --   -0.74015  -0.72452  -0.66353  -0.66080  -0.64601
 Alpha  occ. eigenvalues --   -0.62742  -0.60984  -0.58939  -0.51481  -0.47742
 Alpha virt. eigenvalues --    0.03578   0.04317   0.05237   0.05959   0.07355
 Alpha virt. eigenvalues --    0.08978   0.11319   0.11473   0.13279   0.15067
 Alpha virt. eigenvalues --    0.15889   0.16853   0.19470   0.21322   0.22016

 Mulliken charges:
               1
     1  C    0.935950
     2  Si   1.718015
     3  F   -0.698922
     4  H    0.009115
     5  F   -0.699884
     6  F   -0.827209
     7  H   -0.227103
     8  H   -0.209962
 Sum of Mulliken charges =   0.00000

 Dipole moment (field-independent basis, Debye):
    X=             -0.6852    Y=             -1.1996    Z=             -0.7626  Tot=              1.5780

 Test job not archived.
 1\1\GINC-SE328\SP\RHF\Aug-CC-pVDZ\C1H3F3Si1\OHZDE\08-Apr-2025\0\\#t hf
  aug-cc-pvdz iop(5/13=1,5/36=2,99/5=2) pseudo=read geom=check guess=(r
 ead,tcheck) scf=(maxcycle=1)\\title\\0,1\C,0,0.827534,0.118003,-0.3922
 07\Si,0,-0.870509,-0.522029,0.197489\F,0,1.154804,1.272804,0.281651\H,
 0,0.940994,0.319081,-1.461538\F,0,1.758305,-0.846508,-0.049635\F,0,-1.
 991775,0.541649,-0.249207\H,0,-0.849581,-0.6221,1.665952\H,0,-1.161494
 ,-1.808092,-0.461306\\Version=ES64L-G16RevC.01\State=1-A\HF=-627.29187
 46\RMSD=3.723e-03\Dipole=-0.2695973,-0.4719729,-0.3000149\Quadrupole=-

 Normal termination of Gaussian 16 at Tue Apr  8 23:55:22 2025.
