 Gaussian 16, Revision C.01,

 ----------------------------------------------------------------------
 #t hf aug-cc-pvdz symm=none int=(grid=ultrafine) guess=(read,tcheck) s
 table=opt
 ----------------------------------------------------------------------
 -----
 title
 -----
 Symbolic Z-matrix:
 Charge =  0 Multiplicity = 2

 SCF Done:  E(UHF) =  -515.206981438     A.U. after   24 cycles
 Normal termination of Gaussian 16 at Tue Apr  8 22:45:39 2025.
 Gaussian 16:  ES64L-G16RevC.01  3-Jul-2019

 ----------------------------------------------------------------------
 #t hf aug-cc-pvdz iop(5/13=1,5/36=2,99/5=2) pseudo=read geom=check gue
 ss=(read,tcheck) scf=(maxcycle=1)
 ----------------------------------------------------------------------
 -----
 title
 -----
 Structure from the checkpoint file:  "BDE49_expt_1565_mol2.chk"
 Charge =  0 Multiplicity = 2

                         Standard orientation:
 ---------------------------------------------------------------------
 Center     Atomic      Atomic             Coordinates (Angstroms)
 Number     Number       Type             X           Y           Z
 ---------------------------------------------------------------------
      1         16           0       -1.533525   -0.354911   -0.073421
      2          6           0       -0.215409    0.830188    0.307422
      3          6           0        1.139429    0.567765   -0.354929
      4          1           0       -0.126732    0.873915    1.399740
      5          1           0       -0.620463    1.805965    0.008851
      6          6           0        1.825212   -0.706510    0.140868
      7          1           0        1.783874    1.433385   -0.157454
      8          1           0        1.001347    0.518923   -1.439424
      9          1           0        2.009192   -0.663004    1.219202
     10          1           0        2.787261   -0.853897   -0.355859
     11          1           0        1.206533   -1.585378   -0.060481
 ---------------------------------------------------------------------

 SCF Done:  E(UHF) =  -515.393758753     A.U. after    2 cycles

 The electronic state is 2-A.
 Alpha  occ. eigenvalues --  -93.96226 -11.27391 -11.24178 -11.22883  -8.24278
 Alpha  occ. eigenvalues --   -6.23456  -6.21692  -6.21386  -1.10291  -1.00953
 Alpha  occ. eigenvalues --   -0.89869  -0.79852  -0.64367  -0.63242  -0.58437
 Alpha  occ. eigenvalues --   -0.53198  -0.51671  -0.50257  -0.47053  -0.42965
 Alpha  occ. eigenvalues --   -0.37515
 Alpha virt. eigenvalues --    0.03596   0.04068   0.04209   0.05137   0.06914
 Alpha virt. eigenvalues --    0.07307   0.07533   0.08813   0.11901   0.14417
 Alpha virt. eigenvalues --    0.14712   0.14862   0.15319   0.15894   0.16230

  Beta  occ. eigenvalues --  -93.95333 -11.27520 -11.24175 -11.22878  -8.23252
  Beta  occ. eigenvalues --   -6.21165  -6.20847  -6.19492  -1.08798  -0.97962
  Beta  occ. eigenvalues --   -0.86556  -0.77726  -0.63304  -0.62790  -0.57780
  Beta  occ. eigenvalues --   -0.52605  -0.51098  -0.49864  -0.46127  -0.35326
  Beta virt. eigenvalues --    0.01141   0.03611   0.04142   0.04385   0.05192
  Beta virt. eigenvalues --    0.06934   0.07328   0.07705   0.08979   0.12465
  Beta virt. eigenvalues --    0.14511   0.14774   0.15026   0.15858   0.16110

 Mulliken charges and spin densities:
               1          2
     1  S    0.230189   1.098924
     2  C   -0.707673  -0.122491
     3  C   -0.419360  -0.016770
     4  H    0.227438   0.012943
     5  H    0.226092   0.021304
     6  C   -0.344876   0.011160
     7  H    0.165095   0.002062
     8  H    0.154689  -0.002253
     9  H    0.165306   0.000402
    10  H    0.116621  -0.001503
    11  H    0.186478  -0.003777
 Sum of Mulliken charges =  -0.00000   1.00000

 Dipole moment (field-independent basis, Debye):
    X=              1.4771    Y=              1.1594    Z=              0.2853  Tot=              1.8994
                          Isotropic Fermi Contact Couplings
        Atom                 a.u.       MegaHertz       Gauss      10(-4) cm-1
     1  S(33)              0.17811      61.17759      21.82969      20.40665
     2  C(13)             -0.02578     -28.98171     -10.34139      -9.66726
     3  C(13)             -0.00022      -0.25034      -0.08933      -0.08350
     4  H(1)               0.00959      42.85665      15.29232      14.29544
     5  H(1)               0.01422      63.57774      22.68612      21.20725
     6  C(13)             -0.00044      -0.49736      -0.17747      -0.16590
     7  H(1)              -0.00066      -2.94718      -1.05163      -0.98307
     8  H(1)              -0.00027      -1.22323      -0.43648      -0.40802

 Normal termination of Gaussian 16 at Tue Apr  8 22:45:43 2025.
