 Gaussian 16, Revision C.01,

 ----------------------------------------------------------------------
 #t hf aug-cc-pvdz symm=none int=(grid=ultrafine) guess=(read,tcheck) s
 table=(opt,rrhf)
 ----------------------------------------------------------------------
 -----
 title
 -----
 Symbolic Z-matrix:
 Charge =  0 Multiplicity = 1

 SCF Done:  E(RHF) =  -1030.46044271     A.U. after   14 cycles

 1\1\GINC-SE070\Stability\RHF\Aug-CC-pVDZ\C6H14S2\OHZDE\09-Apr-2025\0\\
 #t hf aug-cc-pvdz symm=none int=(grid=ultrafine) guess=(read,tcheck) s
 table=(opt,rrhf)\\title\\0,1\C,0,-1.848534,0.330015,0.310653\S,0,-0.59
 9816,-0.128234,-0.996565\S,0,0.860367,-1.219857,0.002081\C,0,2.20185,0
 .003327,0.416042\C,0,-2.52058,-0.897425,0.916894\C,0,1.743502,1.09412,
 1.381048\H,0,-1.787358,-1.56725,1.369686\H,0,-3.070667,-1.455248,0.154
 223\H,0,1.299752,0.670428,2.284059\H,0,1.007587,1.746444,0.903665\C,0,
 -2.846261,1.268076,-0.374282\H,0,-2.357803,2.161548,-0.769741\H,0,-3.6

 Normal termination of Gaussian 16 at Wed Apr  9 00:27:16 2025.
 Gaussian 16:  ES64L-G16RevC.01  3-Jul-2019

 ----------------------------------------------------------------------
 #t hf aug-cc-pvdz iop(5/13=1,5/36=2,99/5=2) pseudo=read geom=check gue
 ss=(read,tcheck) scf=(maxcycle=1)
 ----------------------------------------------------------------------
 -----
 title
 -----
 Structure from the checkpoint file:  "BDE49_nonexpt_2736_mol1.chk"
 Charge =  0 Multiplicity = 1

                         Standard orientation:
 ---------------------------------------------------------------------
 Center     Atomic      Atomic             Coordinates (Angstroms)
 Number     Number       Type             X           Y           Z
 ---------------------------------------------------------------------
      1          6           0       -1.848534    0.330015    0.310653
      2         16           0       -0.599816   -0.128234   -0.996565
      3         16           0        0.860367   -1.219857    0.002081
      4          6           0        2.201850    0.003327    0.416042
      5          6           0       -2.520580   -0.897425    0.916894
      6          6           0        1.743502    1.094120    1.381048
      7          1           0       -1.787358   -1.567250    1.369686
      8          1           0       -3.070667   -1.455248    0.154223
      9          1           0        1.299752    0.670428    2.284059
     10          1           0        1.007587    1.746444    0.903665
     11          6           0       -2.846261    1.268076   -0.374282
     12          1           0       -2.357803    2.161548   -0.769741
     13          1           0       -3.606944    1.586061    0.344918
     14          1           0       -3.358715    0.764337   -1.199217
     15          6           0        2.872211    0.565649   -0.836022
     16          1           0        3.243755   -0.233316   -1.480023
     17          1           0        3.715515    1.206219   -0.557128
     18          1           0        2.167252    1.169925   -1.412621
     19          1           0        2.902469   -0.664474    0.932581
     20          1           0        2.594665    1.716683    1.675955
     21          1           0       -1.304701    0.877629    1.082529
     22          1           0       -3.226743   -0.592101    1.696861
 ---------------------------------------------------------------------

 SCF Done:  E(RHF) =  -1030.84573085     A.U. after    2 cycles

 The electronic state is 1-A.
 Alpha  occ. eigenvalues --  -93.95879 -93.95800 -11.27757 -11.27574 -11.23769
 Alpha  occ. eigenvalues --  -11.23470 -11.22995 -11.22915  -8.23786  -8.23709
 Alpha  occ. eigenvalues --   -6.21597  -6.21511  -6.21370  -6.21299  -6.21173
 Alpha  occ. eigenvalues --   -6.21100  -1.12422  -1.09177  -1.01231  -0.94331
 Alpha  occ. eigenvalues --   -0.94222  -0.89707  -0.79820  -0.75847  -0.64434
 Alpha  occ. eigenvalues --   -0.63404  -0.61549  -0.60213  -0.58509  -0.57849
 Alpha  occ. eigenvalues --   -0.55194  -0.55101  -0.51694  -0.50795  -0.50709
 Alpha  occ. eigenvalues --   -0.50500  -0.47614  -0.46069  -0.43510  -0.35572
 Alpha  occ. eigenvalues --   -0.34891
 Alpha virt. eigenvalues --    0.03372   0.03456   0.03729   0.04271   0.05427
 Alpha virt. eigenvalues --    0.05473   0.05797   0.06736   0.06900   0.08082
 Alpha virt. eigenvalues --    0.08366   0.08804   0.09423   0.09879   0.11336

 Mulliken charges:
               1
     1  C   -0.907213
     2  S    0.039688
     3  S    0.044149
     4  C   -0.644482
     5  C   -0.319425
     6  C   -0.303832
     7  H    0.170219
     8  H    0.217287
     9  H    0.143969
    10  H    0.289506
    11  C   -0.097719
    12  H    0.133214
    13  H    0.180052
    14  H    0.217690
    15  C   -0.338546
    16  H    0.165516
    17  H    0.158516
    18  H    0.219652
    19  H    0.224206
    20  H    0.099759
    21  H    0.129368
    22  H    0.178424
 Sum of Mulliken charges =  -0.00000

 Dipole moment (field-independent basis, Debye):
    X=              0.0556    Y=              1.7069    Z=              1.6697  Tot=              2.3884

 Test job not archived.
 1\1\GINC-SE070\SP\RHF\Aug-CC-pVDZ\C6H14S2\OHZDE\09-Apr-2025\0\\#t hf a
 ug-cc-pvdz iop(5/13=1,5/36=2,99/5=2) pseudo=read geom=check guess=(rea
 d,tcheck) scf=(maxcycle=1)\\title\\0,1\C,0,-1.848534,0.330015,0.310653
 \S,0,-0.599816,-0.128234,-0.996565\S,0,0.860367,-1.219857,0.002081\C,0
 ,2.20185,0.003327,0.416042\C,0,-2.52058,-0.897425,0.916894\C,0,1.74350
 2,1.09412,1.381048\H,0,-1.787358,-1.56725,1.369686\H,0,-3.070667,-1.45
 5248,0.154223\H,0,1.299752,0.670428,2.284059\H,0,1.007587,1.746444,0.9
 03665\C,0,-2.846261,1.268076,-0.374282\H,0,-2.357803,2.161548,-0.76974

 Normal termination of Gaussian 16 at Wed Apr  9 00:27:28 2025.
