 Gaussian 16, Revision C.01,

 ----------------------------------------------------------------------
 #t hf aug-cc-pvdz symm=none int=(grid=ultrafine) guess=(read,tcheck) s
 table=(opt,rrhf)
 ----------------------------------------------------------------------
 -----
 title
 -----
 Symbolic Z-matrix:
 Charge =  0 Multiplicity = 1

 SCF Done:  E(RHF) =  -2076.02617482     A.U. after   18 cycles
 Normal termination of Gaussian 16 at Tue Apr  8 23:39:44 2025.
 Gaussian 16:  ES64L-G16RevC.01  3-Jul-2019

 ----------------------------------------------------------------------
 #t hf aug-cc-pvdz iop(5/13=1,5/36=2,99/5=2) pseudo=read geom=check gue
 ss=(read,tcheck) scf=(maxcycle=1)
 ----------------------------------------------------------------------
 -----
 title
 -----
 Structure from the checkpoint file:  "BDE49_nonexpt_1194_mol1.chk"
 Charge =  0 Multiplicity = 1

                         Standard orientation:
 ---------------------------------------------------------------------
 Center     Atomic      Atomic             Coordinates (Angstroms)
 Number     Number       Type             X           Y           Z
 ---------------------------------------------------------------------
      1          6           0       -3.770247    0.180939    0.867517
      2          6           0       -3.826489    1.475291    1.367842
      3          6           0       -2.947968    2.451376    0.900959
      4          6           0       -2.011597    2.111419   -0.070703
      5          6           0       -1.923633    0.818464   -0.572238
      6          6           0       -2.808206   -0.152381   -0.093349
      7          1           0       -4.459670   -0.580690    1.208116
      8          1           0       -4.560964    1.734498    2.121046
      9          6           0       -2.839216   -1.539579   -0.630174
     10          8           0       -3.841715   -2.200971   -0.747772
     11         16           0       -1.364122   -2.406246   -1.202214
     12          8           0        0.009913   -1.488011   -0.758853
     13          6           0        0.433778   -1.547460    0.557911
     14          8           0       -0.214249   -2.035752    1.438834
     15          6           0        1.770736   -0.912198    0.719634
     16          6           0        2.289146   -0.822996    2.015919
     17          6           0        2.502416   -0.425846   -0.369009
     18          6           0        3.747469    0.144724   -0.138936
     19          6           0        3.536221   -0.246696    2.222028
     20          6           0        4.274740    0.241683    1.145896
     21          1           0        1.704420   -1.209318    2.840470
     22          1           0        3.942111   -0.174628    3.223976
     23         17           0       -0.920338    3.341468   -0.681260
     24         17           0        4.675006    0.754182   -1.496972
     25          1           0       -1.190630    0.580763   -1.329284
     26          1           0        2.108710   -0.495544   -1.372374
     27          1           0       -2.989381    3.464640    1.279093
     28          1           0        5.247516    0.691600    1.296869
 ---------------------------------------------------------------------

 SCF Done:  E(RHF) =  -2076.98101727     A.U. after    2 cycles

 The electronic state is 1-A.
 Alpha  occ. eigenvalues -- -105.58622-105.58552 -94.03973 -20.63377 -20.57080
 Alpha  occ. eigenvalues --  -20.56319 -11.42121 -11.39993 -11.32979 -11.32897
 Alpha  occ. eigenvalues --  -11.28805 -11.28632 -11.28597 -11.28518 -11.28442
 Alpha  occ. eigenvalues --  -11.28323 -11.27808 -11.27796 -11.27477 -11.27473
 Alpha  occ. eigenvalues --  -10.63405 -10.63340  -8.31416  -7.80374  -7.80309
 Alpha  occ. eigenvalues --   -7.79974  -7.79955  -7.79907  -7.79888  -6.29235
 Alpha  occ. eigenvalues --   -6.28957  -6.28714  -1.56343  -1.51195  -1.47986
 Alpha  occ. eigenvalues --   -1.20968  -1.20797  -1.12282  -1.11950  -1.08837
 Alpha  occ. eigenvalues --   -1.07007  -1.03824  -1.01130  -1.01094  -0.92620
 Alpha  occ. eigenvalues --   -0.90479  -0.86592  -0.85647  -0.81641  -0.78136
 Alpha  occ. eigenvalues --   -0.76110  -0.73719  -0.72069  -0.70911  -0.69829
 Alpha  occ. eigenvalues --   -0.68758  -0.67086  -0.67056  -0.65451  -0.64396
 Alpha  occ. eigenvalues --   -0.62159  -0.62139  -0.61250  -0.59896  -0.57532
 Alpha  occ. eigenvalues --   -0.56987  -0.56701  -0.56182  -0.54907  -0.54269
 Alpha  occ. eigenvalues --   -0.54106  -0.51406  -0.49319  -0.49045  -0.48427
 Alpha  occ. eigenvalues --   -0.48083  -0.46905  -0.43081  -0.40419  -0.38457
 Alpha  occ. eigenvalues --   -0.38317  -0.36552  -0.36458
 Alpha virt. eigenvalues --    0.02727   0.02950   0.03931   0.04106   0.04265
 Alpha virt. eigenvalues --    0.04361   0.04662   0.05471   0.05810   0.06671
 Alpha virt. eigenvalues --    0.07087   0.07990   0.08223   0.08555   0.08860

 Mulliken charges:
               1
     1  C   -0.312573
     2  C    0.434469
     3  C    0.141355
     4  C   -0.452633
     5  C    0.560179
     6  C    2.120439
     7  H   -0.328410
     8  H   -0.206029
     9  C   -0.135841
    10  O   -1.362680
    11  S    0.794280
    12  O   -1.294764
    13  C    0.859992
    14  O   -1.433024
    15  C    2.131542
    16  C   -0.413750
    17  C    0.663110
    18  C   -0.313709
    19  C    0.466071
    20  C    0.205232
    21  H   -0.339125
    22  H   -0.213786
    23  Cl  -0.319720
    24  Cl  -0.330695
    25  H   -0.275932
    26  H   -0.270897
    27  H   -0.189827
    28  H   -0.183272
 Sum of Mulliken charges =  -0.00000

 Dipole moment (field-independent basis, Debye):
    X=              1.2981    Y=              2.3145    Z=              2.6554  Tot=              3.7541

 Test job not archived.
 1\1\GINC-SE125\SP\RHF\Aug-CC-pVDZ\C14H8Cl2O3S1\OHZDE\08-Apr-2025\0\\#t
  hf aug-cc-pvdz iop(5/13=1,5/36=2,99/5=2) pseudo=read geom=check guess
 =(read,tcheck) scf=(maxcycle=1)\\title\\0,1\C,0,-3.770247,0.180939,0.8
 67517\C,0,-3.826489,1.475291,1.367842\C,0,-2.947968,2.451376,0.900959\
 C,0,-2.011597,2.111419,-0.070703\C,0,-1.923633,0.818464,-0.572238\C,0,
 -2.808206,-0.152381,-0.093349\H,0,-4.45967,-0.58069,1.208116\H,0,-4.56
 0964,1.734498,2.121046\C,0,-2.839216,-1.539579,-0.630174\O,0,-3.841715
 ,-2.200971,-0.747772\S,0,-1.364122,-2.406246,-1.202214\O,0,0.009913,-1

 Normal termination of Gaussian 16 at Tue Apr  8 23:40:34 2025.
