 Gaussian 16, Revision C.01,

 ----------------------------------------------------------------------
 #t hf aug-cc-pvdz symm=none int=(grid=ultrafine) guess=(read,tcheck) s
 table=(opt,rrhf)
 ----------------------------------------------------------------------
 -----
 title
 -----
 Symbolic Z-matrix:
 Charge =  0 Multiplicity = 1

 SCF Done:  E(RHF) =  -852.335347964     A.U. after   18 cycles
 Normal termination of Gaussian 16 at Wed Apr  9 00:52:01 2025.
 Gaussian 16:  ES64L-G16RevC.01  3-Jul-2019

 ----------------------------------------------------------------------
 #t hf aug-cc-pvdz iop(5/13=1,5/36=2,99/5=2) pseudo=read geom=check gue
 ss=(read,tcheck) scf=(maxcycle=1)
 ----------------------------------------------------------------------
 -----
 title
 -----
 Structure from the checkpoint file:  "BDE49_nonexpt_934_mol1.chk"
 Charge =  0 Multiplicity = 1

                         Standard orientation:
 ---------------------------------------------------------------------
 Center     Atomic      Atomic             Coordinates (Angstroms)
 Number     Number       Type             X           Y           Z
 ---------------------------------------------------------------------
      1         17           0        2.614013   -0.744630   -0.000014
      2          7           0        1.199518    0.192674   -0.000002
      3          7           0        1.265115    1.561039    0.000039
      4          7           0        0.060884    2.009275   -0.000023
      5          6           0       -0.094179   -0.253975    0.000003
      6          6           0       -0.822848    0.947629    0.000002
      7          6           0       -2.224162    0.925850    0.000004
      8          1           0       -2.785656    1.851633   -0.000003
      9          6           0       -2.840778   -0.311353    0.000005
     10          1           0       -3.922431   -0.371952    0.000001
     11          6           0       -2.089777   -1.510147    0.000005
     12          1           0       -2.616516   -2.457311    0.000003
     13          6           0       -0.705195   -1.510785    0.000004
     14          1           0       -0.130589   -2.427885    0.000002
 ---------------------------------------------------------------------

 SCF Done:  E(RHF) =  -852.802978882     A.U. after    2 cycles

 The electronic state is 1-A.
 Alpha  occ. eigenvalues -- -105.64455 -15.64157 -15.61807 -15.56348 -11.31100
 Alpha  occ. eigenvalues --  -11.28167 -11.27328 -11.27232 -11.27186 -11.26076
 Alpha  occ. eigenvalues --  -10.68825  -7.85832  -7.85294  -7.85248  -1.45495
 Alpha  occ. eigenvalues --   -1.26940  -1.18696  -1.09411  -1.08254  -1.04266
 Alpha  occ. eigenvalues --   -0.92296  -0.89720  -0.84305  -0.76503  -0.75127
 Alpha  occ. eigenvalues --   -0.72050  -0.68621  -0.65342  -0.64554  -0.60219
 Alpha  occ. eigenvalues --   -0.56736  -0.56661  -0.54702  -0.53143  -0.52412
 Alpha  occ. eigenvalues --   -0.49319  -0.46244  -0.36730  -0.35353
 Alpha virt. eigenvalues --    0.03105   0.03452   0.03962   0.04038   0.05861
 Alpha virt. eigenvalues --    0.06858   0.08189   0.09978   0.10906   0.11396
 Alpha virt. eigenvalues --    0.11493   0.12111   0.12747   0.12872   0.13425

 Mulliken charges:
               1
     1  Cl   0.228194
     2  N    0.732982
     3  N   -0.487800
     4  N    0.419257
     5  C   -1.060968
     6  C   -1.411596
     7  C    1.062943
     8  H   -0.197066
     9  C    0.281750
    10  H   -0.217384
    11  C    0.319791
    12  H   -0.226555
    13  C    0.814153
    14  H   -0.257701
 Sum of Mulliken charges =  -0.00000

 Dipole moment (field-independent basis, Debye):
    X=             -2.2343    Y=             -3.9084    Z=             -0.0000  Tot=              4.5020

 Test job not archived.
 1\1\GINC-SE341\SP\RHF\Aug-CC-pVDZ\C6H4Cl1N3\OHZDE\09-Apr-2025\0\\#t hf
  aug-cc-pvdz iop(5/13=1,5/36=2,99/5=2) pseudo=read geom=check guess=(r
 ead,tcheck) scf=(maxcycle=1)\\title\\0,1\Cl,0,-2.614013,-0.744631,0.00
 0014\N,0,-1.199518,0.192674,0.000002\N,0,-1.265115,1.561039,-0.000039\
 N,0,-0.060884,2.009275,0.000023\C,0,0.094179,-0.253975,-0.000003\C,0,0
 .822848,0.947629,-0.000002\C,0,2.224162,0.92585,-0.000004\H,0,2.785656
 ,1.851633,0.000003\C,0,2.840778,-0.311353,-0.000005\H,0,3.922431,-0.37
 1952,-0.000001\C,0,2.089777,-1.510147,-0.000005\H,0,2.616516,-2.457311

 Normal termination of Gaussian 16 at Wed Apr  9 00:52:08 2025.
