 Gaussian 16, Revision C.01,

 ----------------------------------------------------------------------
 #t hf aug-cc-pvdz symm=none int=(grid=ultrafine) guess=(read,tcheck) s
 table=(opt,rrhf)
 ----------------------------------------------------------------------
 -----
 title
 -----
 Symbolic Z-matrix:
 Charge =  0 Multiplicity = 1

 SCF Done:  E(RHF) =  -598.126156375     A.U. after   13 cycles
 Normal termination of Gaussian 16 at Wed Apr  9 00:35:48 2025.
 Gaussian 16:  ES64L-G16RevC.01  3-Jul-2019

 ----------------------------------------------------------------------
 #t hf aug-cc-pvdz iop(5/13=1,5/36=2,99/5=2) pseudo=read geom=check gue
 ss=(read,tcheck) scf=(maxcycle=1)
 ----------------------------------------------------------------------
 -----
 title
 -----
 Structure from the checkpoint file:  "BDE49_nonexpt_482_mol1.chk"
 Charge =  0 Multiplicity = 1

                         Standard orientation:
 ---------------------------------------------------------------------
 Center     Atomic      Atomic             Coordinates (Angstroms)
 Number     Number       Type             X           Y           Z
 ---------------------------------------------------------------------
      1          1           0       -0.016717    1.622539    1.002595
      2          1           0       -0.016732    1.622595   -1.002504
      3          5           0       -0.081505    0.962336    0.000027
      4          6           0        1.245226    0.132393   -0.000006
      5          8           0        2.203667   -0.457755   -0.000030
      6         17           0       -1.450572   -0.305243    0.000003
 ---------------------------------------------------------------------

 SCF Done:  E(RHF) =  -598.334952203     A.U. after    2 cycles

 The electronic state is 1-A.
 Alpha  occ. eigenvalues -- -105.53956 -20.72922 -11.47153 -10.58836  -7.75731
 Alpha  occ. eigenvalues --   -7.75450  -7.75427  -7.62745  -1.67717  -1.04370
 Alpha  occ. eigenvalues --   -0.91651  -0.82331  -0.71465  -0.71128  -0.60519
 Alpha  occ. eigenvalues --   -0.53671  -0.51939  -0.44494  -0.42669
 Alpha virt. eigenvalues --    0.03735   0.04481   0.04564   0.05188   0.06943
 Alpha virt. eigenvalues --    0.06998   0.09594   0.10488   0.11779   0.12035
 Alpha virt. eigenvalues --    0.12543   0.15462   0.17611   0.18813   0.19170

 Mulliken charges:
               1
     1  H    0.048370
     2  H    0.048372
     3  B    0.442197
     4  C    0.649818
     5  O   -0.662538
     6  Cl  -0.526219
 Sum of Mulliken charges =  -0.00000

 Dipole moment (field-independent basis, Debye):
    X=              3.4626    Y=              0.2552    Z=             -0.0000  Tot=              3.4720

 Test job not archived.
 1\1\GINC-SE328\SP\RHF\Aug-CC-pVDZ\C1H2B1Cl1O1\OHZDE\09-Apr-2025\0\\#t
 hf aug-cc-pvdz iop(5/13=1,5/36=2,99/5=2) pseudo=read geom=check guess=
 (read,tcheck) scf=(maxcycle=1)\\title\\0,1\H,0,-0.016717,1.622539,1.00
 2595\H,0,-0.016732,1.622595,-1.002504\B,0,-0.081505,0.962336,0.000027\
 C,0,1.245226,0.132393,-0.000006\O,0,2.203667,-0.457755,-0.00003\Cl,0,-
 1.450572,-0.305243,0.000003\\Version=ES64L-G16RevC.01\State=1-A\HF=-59
 8.3349522\RMSD=9.531e-03\Dipole=1.3623008,0.1003918,-0.0000082\Quadrup
 ole=0.0053074,-0.2965596,0.2912522,0.268649,0.0000094,-0.00002\PG=C01

 Normal termination of Gaussian 16 at Wed Apr  9 00:35:49 2025.
