 Gaussian 16, Revision C.01,

 ----------------------------------------------------------------------
 #t hf aug-cc-pvdz symm=none int=(grid=ultrafine) guess=(read,tcheck) s
 table=(opt,rrhf)
 ----------------------------------------------------------------------
 -----
 title
 -----
 Symbolic Z-matrix:
 Charge =  0 Multiplicity = 1

 SCF Done:  E(RHF) =  -2064.54129772     A.U. after   14 cycles
 Normal termination of Gaussian 16 at Tue Apr  8 23:10:09 2025.
 Gaussian 16:  ES64L-G16RevC.01  3-Jul-2019

 ----------------------------------------------------------------------
 #t hf aug-cc-pvdz iop(5/13=1,5/36=2,99/5=2) pseudo=read geom=check gue
 ss=(read,tcheck) scf=(maxcycle=1)
 ----------------------------------------------------------------------
 -----
 title
 -----
 Structure from the checkpoint file:  "BDE49_expt_626_mol1.chk"
 Charge =  0 Multiplicity = 1

                         Standard orientation:
 ---------------------------------------------------------------------
 Center     Atomic      Atomic             Coordinates (Angstroms)
 Number     Number       Type             X           Y           Z
 ---------------------------------------------------------------------
      1          6           0       -0.596354    0.090418    0.189401
      2          8           0       -1.146714    1.367090    0.234610
      3          8           0       -1.266085    1.876418   -1.119184
      4          1           0       -2.196037    1.668210   -1.304062
      5          6           0        0.747863    0.051721   -0.587442
      6         17           0       -0.430736   -0.347134    1.897821
      7         17           0        1.491817   -1.569381   -0.583216
      8          1           0        0.543799    0.317330   -1.618108
      9         17           0        1.877190    1.278978    0.053559
     10         17           0       -1.759120   -1.055783   -0.639515
 ---------------------------------------------------------------------

 SCF Done:  E(RHF) =  -2065.06274610     A.U. after    2 cycles

 The electronic state is 1-A.
 Alpha  occ. eigenvalues -- -105.60325-105.59978-105.59459-105.59174 -20.67760
 Alpha  occ. eigenvalues --  -20.66638 -11.47410 -11.40790 -10.65180 -10.64796
 Alpha  occ. eigenvalues --  -10.64274 -10.63983  -7.82140  -7.81731  -7.81691
 Alpha  occ. eigenvalues --   -7.81685  -7.81333  -7.81328  -7.81227  -7.80939
 Alpha  occ. eigenvalues --   -7.80804  -7.80792  -7.80515  -7.80504  -1.64982
 Alpha  occ. eigenvalues --   -1.37117  -1.20492  -1.13349  -1.08022  -1.06267
 Alpha  occ. eigenvalues --   -0.95427  -0.83249  -0.76775  -0.73763  -0.70694
 Alpha  occ. eigenvalues --   -0.67688  -0.64664  -0.60862  -0.57638  -0.54427
 Alpha  occ. eigenvalues --   -0.53234  -0.51890  -0.50568  -0.50041  -0.48773
 Alpha  occ. eigenvalues --   -0.48669  -0.47284  -0.46499  -0.46044
 Alpha virt. eigenvalues --    0.03425   0.05302   0.06781   0.07454   0.08681
 Alpha virt. eigenvalues --    0.09318   0.10458   0.12055   0.12417   0.13009
 Alpha virt. eigenvalues --    0.14217   0.14601   0.15466   0.15821   0.16569

 Mulliken charges:
               1
     1  C    0.920975
     2  O   -0.820902
     3  O   -0.458025
     4  H    0.433809
     5  C   -0.641480
     6  Cl   0.017723
     7  Cl   0.052273
     8  H    0.451122
     9  Cl   0.056059
    10  Cl  -0.011554
 Sum of Mulliken charges =  -0.00000

 Dipole moment (field-independent basis, Debye):
    X=             -1.6199    Y=              0.3003    Z=             -1.5624  Tot=              2.2705

 Test job not archived.
 1\1\GINC-SE060\SP\RHF\Aug-CC-pVDZ\C2H2Cl4O2\OHZDE\08-Apr-2025\0\\#t hf
  aug-cc-pvdz iop(5/13=1,5/36=2,99/5=2) pseudo=read geom=check guess=(r
 ead,tcheck) scf=(maxcycle=1)\\title\\0,1\C,0,-0.596354,0.090418,0.1894
 01\O,0,-1.146713,1.367091,0.23461\O,0,-1.266084,1.876419,-1.119184\H,0
 ,-2.196036,1.668211,-1.304062\C,0,0.747863,0.051721,-0.587442\Cl,0,-0.
 430736,-0.347134,1.897821\Cl,0,1.491816,-1.569382,-0.583216\H,0,0.5437
 99,0.31733,-1.618108\Cl,0,1.877191,1.278977,0.053559\Cl,0,-1.75912,-1.
 055782,-0.639515\\Version=ES64L-G16RevC.01\State=1-A\HF=-2065.0627461\

 Normal termination of Gaussian 16 at Tue Apr  8 23:10:15 2025.
