 Gaussian 16, Revision C.01,

 ----------------------------------------------------------------------
 #t hf aug-cc-pvdz symm=none int=(grid=ultrafine) guess=(read,tcheck) s
 table=(opt,rrhf)
 ----------------------------------------------------------------------
 -----
 title
 -----
 Symbolic Z-matrix:
 Charge =  0 Multiplicity = 1

 SCF Done:  E(RHF) =  -498.735128978     A.U. after   15 cycles
 Normal termination of Gaussian 16 at Wed Apr  9 00:40:36 2025.
 Gaussian 16:  ES64L-G16RevC.01  3-Jul-2019

 ----------------------------------------------------------------------
 #t hf aug-cc-pvdz iop(5/13=1,5/36=2,99/5=2) pseudo=read geom=check gue
 ss=(read,tcheck) scf=(maxcycle=1)
 ----------------------------------------------------------------------
 -----
 title
 -----
 Structure from the checkpoint file:  "BDE49_nonexpt_619_mol1.chk"
 Charge =  0 Multiplicity = 1

                         Standard orientation:
 ---------------------------------------------------------------------
 Center     Atomic      Atomic             Coordinates (Angstroms)
 Number     Number       Type             X           Y           Z
 ---------------------------------------------------------------------
      1          6           0       -3.012297   -0.069186   -0.020960
      2          7           0       -1.639956    0.241032   -0.003647
      3          8           0       -3.465593   -1.167226   -0.137035
      4          8           0       -3.829461    1.014935    0.098083
      5          5           0       -0.585144   -0.714737    0.029362
      6          6           0        0.908138   -0.282725    0.012468
      7          1           0       -3.340123    1.807755    0.342782
      8          6           0        1.896332   -1.283324    0.058419
      9          6           0        1.347098    1.053556   -0.046822
     10          6           0        2.698564    1.376859   -0.059785
     11          6           0        3.655320    0.361943   -0.013212
     12          6           0        3.252708   -0.970126    0.045917
     13          1           0        3.994036   -1.760517    0.081857
     14          1           0        1.587951   -2.322326    0.104051
     15          1           0        0.627015    1.866976   -0.084366
     16          1           0        3.010544    2.414287   -0.106327
     17          1           0        4.710601    0.611573   -0.023382
     18          1           0       -0.888277   -1.859567    0.079816
     19          1           0       -1.411082    1.224614   -0.060246
 ---------------------------------------------------------------------

 SCF Done:  E(RHF) =  -499.236045992     A.U. after    2 cycles

 The electronic state is 1-A.
 Alpha  occ. eigenvalues --  -20.61057 -20.52886 -15.54007 -11.42796 -11.26471
 Alpha  occ. eigenvalues --  -11.26276 -11.25903 -11.25610 -11.25347 -11.23485
 Alpha  occ. eigenvalues --   -7.61177  -1.55321  -1.46236  -1.23457  -1.16489
 Alpha  occ. eigenvalues --   -1.03121  -1.03030  -0.88771  -0.85029  -0.84166
 Alpha  occ. eigenvalues --   -0.80560  -0.78730  -0.73082  -0.66555  -0.66007
 Alpha  occ. eigenvalues --   -0.65411  -0.64958  -0.62151  -0.61246  -0.58823
 Alpha  occ. eigenvalues --   -0.54090  -0.53407  -0.51576  -0.51316  -0.48845
 Alpha  occ. eigenvalues --   -0.46802  -0.46275  -0.36122  -0.35907
 Alpha virt. eigenvalues --    0.01758   0.02937   0.03455   0.04542   0.04713
 Alpha virt. eigenvalues --    0.05535   0.05747   0.06340   0.07024   0.07682
 Alpha virt. eigenvalues --    0.09087   0.09614   0.09792   0.10839   0.12144

 Mulliken charges:
               1
     1  C    1.334151
     2  N    0.759484
     3  O   -1.083714
     4  O   -1.136030
     5  B   -0.313084
     6  C   -0.226893
     7  H    0.385469
     8  C   -0.150215
     9  C    0.820564
    10  C    0.202582
    11  C    0.356151
    12  C    0.235841
    13  H   -0.214081
    14  H   -0.385924
    15  H   -0.398243
    16  H   -0.253849
    17  H   -0.210255
    18  H    0.256506
    19  H    0.021541
 Sum of Mulliken charges =  -0.00000

 Dipole moment (field-independent basis, Debye):
    X=              4.0695    Y=              3.8706    Z=              0.5047  Tot=              5.6388

 Test job not archived.
 1\1\GINC-SE128\SP\RHF\Aug-CC-pVDZ\C7H8B1N1O2\OHZDE\09-Apr-2025\0\\#t h
 f aug-cc-pvdz iop(5/13=1,5/36=2,99/5=2) pseudo=read geom=check guess=(
 read,tcheck) scf=(maxcycle=1)\\title\\0,1\C,0,-3.012297,-0.069186,-0.0
 2096\N,0,-1.639956,0.241032,-0.003647\O,0,-3.465593,-1.167226,-0.13703
 5\O,0,-3.829461,1.014935,0.098083\B,0,-0.585144,-0.714737,0.029362\C,0
 ,0.908138,-0.282725,0.012468\H,0,-3.340123,1.807755,0.342782\C,0,1.896
 332,-1.283324,0.058419\C,0,1.347098,1.053556,-0.046822\C,0,2.698564,1.
 376859,-0.059785\C,0,3.65532,0.361943,-0.013212\C,0,3.252708,-0.970126

 Normal termination of Gaussian 16 at Wed Apr  9 00:40:47 2025.
