 Gaussian 16, Revision C.01,

 ----------------------------------------------------------------------
 #t hf aug-cc-pvdz symm=none int=(grid=ultrafine) guess=(read,tcheck) s
 table=(opt,rrhf)
 ----------------------------------------------------------------------
 -----
 title
 -----
 Symbolic Z-matrix:
 Charge =  0 Multiplicity = 1

 SCF Done:  E(RHF) =  -1277.02501666     A.U. after   14 cycles
 Normal termination of Gaussian 16 at Wed Apr  9 00:16:40 2025.
 Gaussian 16:  ES64L-G16RevC.01  3-Jul-2019

 ----------------------------------------------------------------------
 #t hf aug-cc-pvdz iop(5/13=1,5/36=2,99/5=2) pseudo=read geom=check gue
 ss=(read,tcheck) scf=(maxcycle=1)
 ----------------------------------------------------------------------
 -----
 title
 -----
 Structure from the checkpoint file:  "BDE49_nonexpt_2536_mol1.chk"
 Charge =  0 Multiplicity = 1

                         Standard orientation:
 ---------------------------------------------------------------------
 Center     Atomic      Atomic             Coordinates (Angstroms)
 Number     Number       Type             X           Y           Z
 ---------------------------------------------------------------------
      1         17           0        1.960515    0.000095   -0.669866
      2         16           0        0.740380   -0.000162    1.076174
      3         15           0       -1.271668   -0.000065    0.494825
      4          6           0       -1.434181   -1.430986   -0.661528
      5          6           0       -1.434160    1.431181   -0.661127
      6          1           0       -1.260536   -2.357116   -0.112402
      7          1           0       -0.729579   -1.364257   -1.493044
      8          1           0       -2.454801   -1.443772   -1.054030
      9          1           0       -1.260500    2.357155   -0.111742
     10          1           0       -2.454780    1.444093   -1.053626
     11          1           0       -0.729560    1.364675   -1.492662
 ---------------------------------------------------------------------

 SCF Done:  E(RHF) =  -1277.29845426     A.U. after    2 cycles

 The electronic state is 1-A.
 Alpha  occ. eigenvalues -- -105.57764 -94.00683 -84.31136 -11.25423 -11.25419
 Alpha  occ. eigenvalues --  -10.62400  -8.28469  -7.79328  -7.78912  -7.78883
 Alpha  occ. eigenvalues --   -6.78128  -6.26250  -6.25964  -6.25716  -4.30369
 Alpha  occ. eigenvalues --   -4.30352  -4.29680  -1.10772  -1.03339  -0.96053
 Alpha  occ. eigenvalues --   -0.93836  -0.73858  -0.61449  -0.60989  -0.58584
 Alpha  occ. eigenvalues --   -0.57951  -0.54750  -0.51388  -0.50622  -0.47988
 Alpha  occ. eigenvalues --   -0.43199  -0.37901  -0.34340
 Alpha virt. eigenvalues --    0.02865   0.04175   0.04250   0.05392   0.05632
 Alpha virt. eigenvalues --    0.06972   0.07671   0.08109   0.08934   0.11784
 Alpha virt. eigenvalues --    0.12202   0.13280   0.14417   0.14917   0.16010

 Mulliken charges:
               1
     1  Cl  -0.353098
     2  S   -0.142852
     3  P    1.258408
     4  C   -0.832837
     5  C   -0.832837
     6  H    0.144337
     7  H    0.157277
     8  H    0.149994
     9  H    0.144338
    10  H    0.149995
    11  H    0.157276
 Sum of Mulliken charges =   0.00000

 Dipole moment (field-independent basis, Debye):
    X=             -2.9632    Y=              0.0002    Z=             -1.0100  Tot=              3.1306

 Test job not archived.
 1\1\GINC-SE345\SP\RHF\Aug-CC-pVDZ\C2H6Cl1P1S1\OHZDE\09-Apr-2025\0\\#t
 hf aug-cc-pvdz iop(5/13=1,5/36=2,99/5=2) pseudo=read geom=check guess=
 (read,tcheck) scf=(maxcycle=1)\\title\\0,1\Cl,0,1.960515,0.000095,-0.6
 69866\S,0,0.74038,-0.000162,1.076174\P,0,-1.271668,-0.000065,0.494825\
 C,0,-1.434181,-1.430986,-0.661528\C,0,-1.43416,1.431181,-0.661127\H,0,
 -1.260536,-2.357116,-0.112402\H,0,-0.729579,-1.364257,-1.493044\H,0,-2
 .454801,-1.443772,-1.05403\H,0,-1.2605,2.357155,-0.111742\H,0,-2.45478
 ,1.444093,-1.053626\H,0,-0.72956,1.364675,-1.492662\\Version=ES64L-G16

 Normal termination of Gaussian 16 at Wed Apr  9 00:16:43 2025.
