 Gaussian 16, Revision C.01,

 ----------------------------------------------------------------------
 #t hf aug-cc-pvdz symm=none int=(grid=ultrafine) guess=(read,tcheck) s
 table=(opt,rrhf)
 ----------------------------------------------------------------------
 -----
 title
 -----
 Symbolic Z-matrix:
 Charge =  0 Multiplicity = 1

 SCF Done:  E(RHF) =  -844.977123764     A.U. after   12 cycles
 Normal termination of Gaussian 16 at Wed Apr  9 00:15:11 2025.
 Gaussian 16:  ES64L-G16RevC.01  3-Jul-2019

 ----------------------------------------------------------------------
 #t hf aug-cc-pvdz iop(5/13=1,5/36=2,99/5=2) pseudo=read geom=check gue
 ss=(read,tcheck) scf=(maxcycle=1)
 ----------------------------------------------------------------------
 -----
 title
 -----
 Structure from the checkpoint file:  "BDE49_nonexpt_2492_mol1.chk"
 Charge =  0 Multiplicity = 1

                         Standard orientation:
 ---------------------------------------------------------------------
 Center     Atomic      Atomic             Coordinates (Angstroms)
 Number     Number       Type             X           Y           Z
 ---------------------------------------------------------------------
      1          6           0        1.556295    0.119049    0.328156
      2          6           0        1.942389    1.391214   -0.425546
      3          1           0        2.186982    1.164051   -1.466336
      4          1           0        2.821114    1.850628    0.040687
      5         16           0        0.056297   -0.706500   -0.425245
      6         14           0       -1.566062    0.486245    0.347632
      7          6           0       -3.168771   -0.342468   -0.159781
      8          1           0       -3.249018   -0.407700   -1.247674
      9          1           0       -4.021315    0.235503    0.208686
     10          1           0       -3.236500   -1.352409    0.251144
     11          6           0        2.689579   -0.908302    0.344553
     12          1           0        1.287278    0.365162    1.358398
     13          1           0        2.944237   -1.226143   -0.670615
     14          1           0        2.416752   -1.794437    0.920388
     15          1           0        3.585086   -0.466928    0.793403
     16          1           0        1.136062    2.126863   -0.422487
     17          1           0       -1.516731    1.873583   -0.177994
     18          1           0       -1.446772    0.571425    1.825181
 ---------------------------------------------------------------------

 SCF Done:  E(RHF) =  -845.251239668     A.U. after    2 cycles

 The electronic state is 1-A.
 Alpha  occ. eigenvalues --  -93.92257 -69.54506 -11.27913 -11.23327 -11.23252
 Alpha  occ. eigenvalues --  -11.22295  -8.20563  -6.21335  -6.18352  -6.18224
 Alpha  occ. eigenvalues --   -6.18038  -3.96730  -3.96648  -3.96624  -1.09853
 Alpha  occ. eigenvalues --   -0.97405  -0.94229  -0.94060  -0.78747  -0.70390
 Alpha  occ. eigenvalues --   -0.63415  -0.60734  -0.58268  -0.57358  -0.56614
 Alpha  occ. eigenvalues --   -0.55069  -0.51170  -0.50682  -0.48163  -0.47986
 Alpha  occ. eigenvalues --   -0.44610  -0.41641  -0.35399
 Alpha virt. eigenvalues --    0.03594   0.03673   0.04105   0.04269   0.05733
 Alpha virt. eigenvalues --    0.05848   0.06122   0.07358   0.07428   0.08072
 Alpha virt. eigenvalues --    0.08817   0.09508   0.10592   0.11470   0.11975

 Mulliken charges:
               1
     1  C   -0.915295
     2  C   -0.236204
     3  H    0.211016
     4  H    0.184491
     5  S   -0.319744
     6  Si   1.445899
     7  C   -0.642030
     8  H    0.080092
     9  H   -0.055653
    10  H    0.087651
    11  C   -0.167544
    12  H    0.090500
    13  H    0.222621
    14  H    0.156357
    15  H    0.182517
    16  H    0.085321
    17  H   -0.206183
    18  H   -0.203813
 Sum of Mulliken charges =  -0.00000

 Dipole moment (field-independent basis, Debye):
    X=              0.2158    Y=              0.9284    Z=              0.8040  Tot=              1.2469

 Test job not archived.
 1\1\GINC-SE070\SP\RHF\Aug-CC-pVDZ\C4H12S1Si1\OHZDE\09-Apr-2025\0\\#t h
 f aug-cc-pvdz iop(5/13=1,5/36=2,99/5=2) pseudo=read geom=check guess=(
 read,tcheck) scf=(maxcycle=1)\\title\\0,1\C,0,1.556295,0.119049,0.3281
 56\C,0,1.942389,1.391214,-0.425546\H,0,2.186982,1.164051,-1.466336\H,0
 ,2.821114,1.850628,0.040687\S,0,0.056297,-0.7065,-0.425245\Si,0,-1.566
 062,0.486245,0.347632\C,0,-3.168771,-0.342468,-0.159781\H,0,-3.249018,
 -0.4077,-1.247674\H,0,-4.021315,0.235503,0.208686\H,0,-3.2365,-1.35240
 9,0.251144\C,0,2.689579,-0.908302,0.344553\H,0,1.287278,0.365162,1.358

 Normal termination of Gaussian 16 at Wed Apr  9 00:15:18 2025.
