 Gaussian 16, Revision C.01,

 ----------------------------------------------------------------------
 #t hf aug-cc-pvdz symm=none int=(grid=ultrafine) guess=(read,tcheck) s
 table=opt
 ----------------------------------------------------------------------
 -----
 title
 -----
 Symbolic Z-matrix:
 Charge =  0 Multiplicity = 2

 SCF Done:  E(UHF) =  -598.689316266     a.u. after   12 cycles
 Normal termination of Gaussian 16 at Tue Apr  8 22:56:35 2025.
 Gaussian 16:  ES64L-G16RevC.01  3-Jul-2019

 ----------------------------------------------------------------------
 #t hf aug-cc-pvdz iop(5/13=1,5/36=2,99/5=2) pseudo=read geom=check gue
 ss=(read,tcheck) scf=(maxcycle=1)
 ----------------------------------------------------------------------
 -----
 title
 -----
 Structure from the checkpoint file:  "BDE49_expt_1872_mol2.chk"
 Charge =  0 Multiplicity = 2

                         Standard orientation:
 ---------------------------------------------------------------------
 Center     Atomic      Atomic             Coordinates (Angstroms)
 Number     Number       Type             X           Y           Z
 ---------------------------------------------------------------------
      1          6           0       -0.961447   -0.058417    0.000001
      2          8           0        0.238970   -0.759954    0.000011
      3          9           0       -1.075247    0.706757    1.083645
      4          9           0       -1.923387   -0.966281   -0.000011
      5          9           0       -1.075225    0.706764   -1.083641
      6          6           0        1.416633   -0.088483    0.000020
      7          8           0        2.462969   -0.771847   -0.000011
      8          8           0        1.539764    1.138832   -0.000007
 ---------------------------------------------------------------------

 SCF Done:  E(UHF) =  -599.237306355     A.U. after    2 cycles

 The electronic state is 2-A.
 Alpha  occ. eigenvalues --  -26.55108 -26.54408 -26.54404 -20.73444 -20.68541
 Alpha  occ. eigenvalues --  -20.58255 -11.62215 -11.50656  -1.77875  -1.69701
 Alpha  occ. eigenvalues --   -1.66443  -1.65823  -1.59493  -1.49610  -1.04379
 Alpha  occ. eigenvalues --   -0.93256  -0.87462  -0.87025  -0.85360  -0.77783
 Alpha  occ. eigenvalues --   -0.77421  -0.76743  -0.72263  -0.72041  -0.67817
 Alpha  occ. eigenvalues --   -0.67724  -0.66920  -0.65761  -0.63129  -0.61354
 Alpha  occ. eigenvalues --   -0.51658  -0.51615
 Alpha virt. eigenvalues --    0.06687   0.07830   0.08036   0.09094   0.11217
 Alpha virt. eigenvalues --    0.11399   0.11573   0.15256   0.17782   0.19572
 Alpha virt. eigenvalues --    0.20563   0.22858   0.24615   0.24851   0.26126

  Beta  occ. eigenvalues --  -26.55103 -26.54409 -26.54405 -20.69372 -20.68495
  Beta  occ. eigenvalues --  -20.57708 -11.62198 -11.50936  -1.77838  -1.66481
  Beta  occ. eigenvalues --   -1.65825  -1.64262  -1.54117  -1.45284  -1.03415
  Beta  occ. eigenvalues --   -0.92676  -0.87069  -0.87014  -0.80214  -0.77113
  Beta  occ. eigenvalues --   -0.75717  -0.71882  -0.71495  -0.70277  -0.67659
  Beta  occ. eigenvalues --   -0.67490  -0.65755  -0.62792  -0.59727  -0.50257
  Beta  occ. eigenvalues --   -0.49510
  Beta virt. eigenvalues --   -0.00075   0.06925   0.07872   0.08040   0.09356
  Beta virt. eigenvalues --    0.11437   0.11534   0.11782   0.15298   0.17823
  Beta virt. eigenvalues --    0.19874   0.20548   0.23018   0.24808   0.24992

 Mulliken charges and spin densities:
               1          2
     1  C    2.772464   0.003297
     2  O   -1.257020   0.018585
     3  F   -0.656675   0.000915
     4  F   -0.661106   0.000853
     5  F   -0.656675   0.000915
     6  C    2.143632  -0.170278
     7  O   -0.764700   1.050663
     8  O   -0.919920   0.095052
 Sum of Mulliken charges =  -0.00000   1.00000

 Dipole moment (field-independent basis, Debye):
    X=             -0.2887    Y=             -1.9981    Z=              0.0001  Tot=              2.0189
                          Isotropic Fermi Contact Couplings
        Atom                 a.u.       MegaHertz       Gauss      10(-4) cm-1
     1  C(13)              0.00273       3.06805       1.09476       1.02339
     2  O(17)              0.01529      -9.27011      -3.30781      -3.09218
     3  F(19)             -0.00055      -2.30529      -0.82258      -0.76896
     4  F(19)              0.00024       1.00874       0.35994       0.33648
     5  F(19)             -0.00055      -2.30551      -0.82266      -0.76903
     6  C(13)             -0.04572     -51.39249     -18.33812     -17.14269
     7  O(17)              0.25410    -154.03734     -54.96435     -51.38132
     8  O(17)              0.03846     -23.31532      -8.31949      -7.77715

 Normal termination of Gaussian 16 at Tue Apr  8 22:56:39 2025.
