 Gaussian 16, Revision C.01,

 ----------------------------------------------------------------------
 #t hf aug-cc-pvdz symm=none int=(grid=ultrafine) guess=(read,tcheck) s
 table=(opt,rrhf)
 ----------------------------------------------------------------------
 -----
 title
 -----
 Symbolic Z-matrix:
 Charge =  0 Multiplicity = 1

 SCF Done:  E(RHF) =  -838.247695773     A.U. after   16 cycles
 Normal termination of Gaussian 16 at Wed Apr  9 00:43:40 2025.
 Gaussian 16:  ES64L-G16RevC.01  3-Jul-2019

 ----------------------------------------------------------------------
 #t hf aug-cc-pvdz iop(5/13=1,5/36=2,99/5=2) pseudo=read geom=check gue
 ss=(read,tcheck) scf=(maxcycle=1)
 ----------------------------------------------------------------------
 -----
 title
 -----
 Structure from the checkpoint file:  "BDE49_nonexpt_704_mol1.chk"
 Charge =  0 Multiplicity = 1

                         Standard orientation:
 ---------------------------------------------------------------------
 Center     Atomic      Atomic             Coordinates (Angstroms)
 Number     Number       Type             X           Y           Z
 ---------------------------------------------------------------------
      1         15           0       -0.419244   -0.095818    1.080747
      2          7           0       -0.880700   -1.503876   -0.040747
      3          5           0       -1.107576    1.372497   -0.028214
      4          8           0       -0.099786   -2.427331   -0.177847
      5          8           0       -2.020052   -1.486693   -0.524676
      6          8           0       -0.490352    2.566598    0.176134
      7          8           0       -2.167489    1.237840   -0.847880
      8          6           0        1.415946   -0.059774    0.832503
      9          6           0        1.960455    0.177370   -0.581622
     10          1           0        1.795048   -0.998287    1.246661
     11          1           0        1.747668    0.735525    1.511957
     12          6           0        3.492273    0.156543   -0.621982
     13          1           0        1.596780    1.141759   -0.947694
     14          1           0        1.569568   -0.592691   -1.252241
     15          1           0        3.917593    0.930539    0.024138
     16          1           0        3.857877    0.332337   -1.636986
     17          1           0        3.883952   -0.809370   -0.290028
     18          1           0       -2.463903    0.310914   -0.898353
     19          1           0       -0.903748    3.283054   -0.321600
 ---------------------------------------------------------------------

 SCF Done:  E(RHF) =  -838.786859448     A.U. after    2 cycles

 The electronic state is 1-A.
 Alpha  occ. eigenvalues --  -84.32407 -20.60327 -20.59366 -20.58466 -20.57193
 Alpha  occ. eigenvalues --  -15.77794 -11.27005 -11.25006 -11.23742  -7.68042
 Alpha  occ. eigenvalues --   -6.79458  -4.32308  -4.31870  -4.31191  -1.66878
 Alpha  occ. eigenvalues --   -1.51050  -1.50183  -1.46380  -1.09530  -1.03399
 Alpha  occ. eigenvalues --   -0.95565  -0.85730  -0.82794  -0.80534  -0.75919
 Alpha  occ. eigenvalues --   -0.74816  -0.73547  -0.70028  -0.65671  -0.63438
 Alpha  occ. eigenvalues --   -0.59774  -0.59491  -0.58839  -0.56975  -0.55804
 Alpha  occ. eigenvalues --   -0.51526  -0.51236  -0.50101  -0.49718  -0.46779
 Alpha  occ. eigenvalues --   -0.45988  -0.45197  -0.36549
 Alpha virt. eigenvalues --    0.02969   0.03496   0.03691   0.04564   0.04992
 Alpha virt. eigenvalues --    0.05590   0.06011   0.06377   0.07348   0.07969
 Alpha virt. eigenvalues --    0.08832   0.09140   0.09364   0.10056   0.10318

 Mulliken charges:
               1
     1  P    0.201600
     2  N    2.127533
     3  B    2.174179
     4  O   -1.287715
     5  O   -1.364510
     6  O   -1.263225
     7  O   -1.383870
     8  C   -0.802668
     9  C   -0.190282
    10  H    0.184645
    11  H    0.147010
    12  C   -0.432000
    13  H    0.066445
    14  H    0.120388
    15  H    0.168397
    16  H    0.128205
    17  H    0.166645
    18  H    0.717645
    19  H    0.521579
 Sum of Mulliken charges =  -0.00000

 Dipole moment (field-independent basis, Debye):
    X=              1.9659    Y=              3.1325    Z=              0.8990  Tot=              3.8060

 Test job not archived.
 1\1\GINC-SE109\SP\RHF\Aug-CC-pVDZ\C3H9B1N1O4P1\OHZDE\09-Apr-2025\0\\#t
  hf aug-cc-pvdz iop(5/13=1,5/36=2,99/5=2) pseudo=read geom=check guess
 =(read,tcheck) scf=(maxcycle=1)\\title\\0,1\P,0,-0.419244,-0.095818,1.
 080747\N,0,-0.8807,-1.503876,-0.040747\B,0,-1.107576,1.372497,-0.02821
 4\O,0,-0.099786,-2.427331,-0.177847\O,0,-2.020052,-1.486693,-0.524676\
 O,0,-0.490352,2.566598,0.176134\O,0,-2.167489,1.23784,-0.84788\C,0,1.4
 15946,-0.059774,0.832503\C,0,1.960455,0.17737,-0.581622\H,0,1.795048,-
 0.998287,1.246661\H,0,1.747668,0.735525,1.511957\C,0,3.492273,0.156543

 Normal termination of Gaussian 16 at Wed Apr  9 00:43:51 2025.
