 Gaussian 16, Revision C.01,

 ----------------------------------------------------------------------
 #t hf aug-cc-pvdz symm=none int=(grid=ultrafine) guess=(read,tcheck) s
 table=(opt,rrhf)
 ----------------------------------------------------------------------
 -----
 title
 -----
 Symbolic Z-matrix:
 Charge =  0 Multiplicity = 1

 SCF Done:  E(RHF) =  -1448.86167100     A.U. after   15 cycles
 Normal termination of Gaussian 16 at Tue Apr  8 22:41:30 2025.
 Gaussian 16:  ES64L-G16RevC.01  3-Jul-2019

 ----------------------------------------------------------------------
 #t hf aug-cc-pvdz iop(5/13=1,5/36=2,99/5=2) pseudo=read geom=check gue
 ss=(read,tcheck) scf=(maxcycle=1)
 ----------------------------------------------------------------------
 -----
 title
 -----
 Structure from the checkpoint file:  "BDE49_expt_1047_mol1.chk"
 Charge =  0 Multiplicity = 1

                         Standard orientation:
 ---------------------------------------------------------------------
 Center     Atomic      Atomic             Coordinates (Angstroms)
 Number     Number       Type             X           Y           Z
 ---------------------------------------------------------------------
      1          6           0       -0.589063    1.037483    1.464726
      2          6           0       -0.591190    1.048857    2.852914
      3          6           0       -0.000000    0.000000    3.547795
      4          6           0        0.591190   -1.048857    2.852914
      5          6           0        0.589063   -1.037483    1.464726
      6          6           0       -0.000000    0.000000    0.740340
      7          6           0        0.000000    0.000000   -0.740340
      8          6           0       -0.589063   -1.037483   -1.464726
      9          6           0        0.589063    1.037483   -1.464726
     10          6           0        0.591190    1.048857   -2.852914
     11          6           0        0.000000    0.000000   -3.547795
     12          6           0       -0.591190   -1.048857   -2.852914
     13          9           0       -1.163754   -2.051860   -3.521719
     14          9           0       -1.180781   -2.049075   -0.820436
     15          9           0        1.163754    2.051860   -3.521719
     16          9           0        0.000000   -0.000000   -4.879468
     17          9           0        1.180781    2.049075   -0.820436
     18          9           0       -1.180781    2.049075    0.820436
     19          9           0        1.163754   -2.051860    3.521719
     20          9           0        1.180781   -2.049075    0.820436
     21          9           0       -1.163754    2.051860    3.521719
     22          9           0       -0.000000   -0.000000    4.879468
 ---------------------------------------------------------------------

 SCF Done:  E(RHF) =  -1450.19858070     A.U. after    2 cycles

 The electronic state is 1-A.
 Alpha  occ. eigenvalues --  -26.53296 -26.53295 -26.52951 -26.52950 -26.52950
 Alpha  occ. eigenvalues --  -26.52949 -26.52682 -26.52682 -26.52682 -26.52682
 Alpha  occ. eigenvalues --  -11.40460 -11.40458 -11.40161 -11.40153 -11.40153
 Alpha  occ. eigenvalues --  -11.40137 -11.39355 -11.39351 -11.39348 -11.39342
 Alpha  occ. eigenvalues --  -11.32834 -11.32777  -1.67624  -1.67514  -1.66856
 Alpha  occ. eigenvalues --   -1.66696  -1.66461  -1.66139  -1.65216  -1.65068
 Alpha  occ. eigenvalues --   -1.64725  -1.64616  -1.24661  -1.22354  -1.13417
 Alpha  occ. eigenvalues --   -1.08431  -1.08271  -1.06834  -0.96844  -0.93703
 Alpha  occ. eigenvalues --   -0.92807  -0.91949  -0.86256  -0.84296  -0.83168
 Alpha  occ. eigenvalues --   -0.82422  -0.81279  -0.79366  -0.76590  -0.76471
 Alpha  occ. eigenvalues --   -0.76446  -0.76430  -0.76402  -0.76264  -0.75072
 Alpha  occ. eigenvalues --   -0.74169  -0.73827  -0.72992  -0.72311  -0.72025
 Alpha  occ. eigenvalues --   -0.71690  -0.70599  -0.70093  -0.69946  -0.69788
 Alpha  occ. eigenvalues --   -0.68374  -0.67959  -0.67623  -0.67519  -0.64266
 Alpha  occ. eigenvalues --   -0.63770  -0.63679  -0.60607  -0.60322  -0.60279
 Alpha  occ. eigenvalues --   -0.55733  -0.54367  -0.42871  -0.39365  -0.39211
 Alpha  occ. eigenvalues --   -0.38538
 Alpha virt. eigenvalues --    0.04370   0.04381   0.05031   0.06240   0.06702
 Alpha virt. eigenvalues --    0.07520   0.07635   0.08361   0.08404   0.08606
 Alpha virt. eigenvalues --    0.09424   0.09467   0.09505   0.09591   0.10607

 Mulliken charges:
               1
     1  C    1.654676
     2  C    0.259656
     3  C    1.238646
     4  C    0.259656
     5  C    1.654676
     6  C   -0.036403
     7  C   -0.036403
     8  C    1.654676
     9  C    1.654676
    10  C    0.259656
    11  C    1.238646
    12  C    0.259656
    13  F   -0.957571
    14  F   -1.066440
    15  F   -0.957571
    16  F   -0.982885
    17  F   -1.066440
    18  F   -1.066440
    19  F   -0.957571
    20  F   -1.066440
    21  F   -0.957571
    22  F   -0.982885
 Sum of Mulliken charges =  -0.00000

 Dipole moment (field-independent basis, Debye):
    X=              0.0000    Y=              0.0000    Z=              0.0000  Tot=              0.0000

 Test job not archived.
 1\1\GINC-SE080\SP\RHF\Aug-CC-pVDZ\C12F10\OHZDE\08-Apr-2025\0\\#t hf au
 g-cc-pvdz iop(5/13=1,5/36=2,99/5=2) pseudo=read geom=check guess=(read
 ,tcheck) scf=(maxcycle=1)\\title\\0,1\C,0,0.589063,1.464726,1.037483\C
 ,0,0.59119,2.852914,1.048857\C,0,0.,3.547795,0.\C,0,-0.59119,2.852914,
 -1.048857\C,0,-0.589063,1.464726,-1.037483\C,0,0.,0.74034,0.\C,0,0.,-0
 .74034,0.\C,0,0.589063,-1.464726,-1.037483\C,0,-0.589063,-1.464726,1.0
 37483\C,0,-0.59119,-2.852914,1.048857\C,0,0.,-3.547795,0.\C,0,0.59119,
 -2.852914,-1.048857\F,0,1.163754,-3.521719,-2.05186\F,0,1.180781,-0.82

 Normal termination of Gaussian 16 at Tue Apr  8 22:41:42 2025.
