 Gaussian 16, Revision C.01,

 ----------------------------------------------------------------------
 #t hf aug-cc-pvdz symm=none int=(grid=ultrafine) guess=(read,tcheck) s
 table=(opt,rrhf)
 ----------------------------------------------------------------------
 -----
 title
 -----
 Symbolic Z-matrix:
 Charge =  0 Multiplicity = 1

 SCF Done:  E(RHF) =  -1566.57853909     A.U. after   14 cycles
 Normal termination of Gaussian 16 at Tue Apr  8 23:08:46 2025.
 Gaussian 16:  ES64L-G16RevC.01  3-Jul-2019

 ----------------------------------------------------------------------
 #t hf aug-cc-pvdz iop(5/13=1,5/36=2,99/5=2) pseudo=read geom=check gue
 ss=(read,tcheck) scf=(maxcycle=1)
 ----------------------------------------------------------------------
 -----
 title
 -----
 Structure from the checkpoint file:  "BDE49_expt_619_mol1.chk"
 Charge =  0 Multiplicity = 1

                         Standard orientation:
 ---------------------------------------------------------------------
 Center     Atomic      Atomic             Coordinates (Angstroms)
 Number     Number       Type             X           Y           Z
 ---------------------------------------------------------------------
      1          6           0       -0.110705    0.009287    0.089546
      2          8           0        0.543338   -0.007389    1.301454
      3          8           0        1.967305    0.136924    1.094635
      4          1           0        2.246772   -0.791910    1.139082
      5         17           0       -1.822624   -0.134198    0.546527
      6         17           0        0.172657    1.520128   -0.830464
      7         17           0        0.375398   -1.403582   -0.942243
 ---------------------------------------------------------------------

 SCF Done:  E(RHF) =  -1566.98486278     A.U. after    2 cycles

 The electronic state is 1-A.
 Alpha  occ. eigenvalues -- -105.60814-105.60428-105.60082 -20.67991 -20.66572
 Alpha  occ. eigenvalues --  -11.51039 -10.65678 -10.65268 -10.64934  -7.82631
 Alpha  occ. eigenvalues --   -7.82205  -7.82174  -7.82166  -7.81882  -7.81786
 Alpha  occ. eigenvalues --   -7.81772  -7.81434  -7.81432  -1.65530  -1.37511
 Alpha  occ. eigenvalues --   -1.17842  -1.08377  -1.07820  -0.85595  -0.76799
 Alpha  occ. eigenvalues --   -0.72280  -0.71177  -0.65840  -0.59898  -0.54675
 Alpha  occ. eigenvalues --   -0.53562  -0.51668  -0.51089  -0.50214  -0.48188
 Alpha  occ. eigenvalues --   -0.47884  -0.46720
 Alpha virt. eigenvalues --    0.03737   0.06461   0.08111   0.08571   0.09619
 Alpha virt. eigenvalues --    0.11760   0.12661   0.13614   0.13835   0.14366
 Alpha virt. eigenvalues --    0.15565   0.17137   0.18540   0.18820   0.19002

 Mulliken charges:
               1
     1  C    0.022912
     2  O   -0.637440
     3  O   -0.369961
     4  H    0.427086
     5  Cl   0.197998
     6  Cl   0.205146
     7  Cl   0.154258
 Sum of Mulliken charges =   0.00000

 Dipole moment (field-independent basis, Debye):
    X=              0.9168    Y=             -1.3092    Z=              0.1772  Tot=              1.6080

 Test job not archived.
 1\1\GINC-SE365\SP\RHF\Aug-CC-pVDZ\C1H1Cl3O2\OHZDE\08-Apr-2025\0\\#t hf
  aug-cc-pvdz iop(5/13=1,5/36=2,99/5=2) pseudo=read geom=check guess=(r
 ead,tcheck) scf=(maxcycle=1)\\title\\0,1\C,0,-0.110705,0.009287,0.0895
 46\O,0,0.543338,-0.007389,1.301454\O,0,1.967305,0.136925,1.094635\H,0,
 2.246773,-0.791909,1.139082\Cl,0,-1.822624,-0.134199,0.546527\Cl,0,0.1
 72656,1.520128,-0.830464\Cl,0,0.375399,-1.403582,-0.942243\\Version=ES
 64L-G16RevC.01\State=1-A\HF=-1566.9848628\RMSD=5.623e-03\Dipole=0.3606
 829,-0.5150648,0.0697058\Quadrupole=1.9784725,-0.0684402,-1.9100324,-2

 Normal termination of Gaussian 16 at Tue Apr  8 23:08:49 2025.
