 Gaussian 16, Revision C.01,

 ----------------------------------------------------------------------
 #t hf aug-cc-pvdz symm=none int=(grid=ultrafine) guess=(read,tcheck) s
 table=opt
 ----------------------------------------------------------------------
 -----
 title
 -----
 Symbolic Z-matrix:
 Charge =  0 Multiplicity = 2

 SCF Done:  E(UHF) =  -1416.32525479     A.U. after   15 cycles
 Normal termination of Gaussian 16 at Tue Apr  8 22:28:17 2025.
 Gaussian 16:  ES64L-G16RevC.01  3-Jul-2019

 ----------------------------------------------------------------------
 #t hf aug-cc-pvdz iop(5/13=1,5/36=2,99/5=2) pseudo=read geom=check gue
 ss=(read,tcheck) scf=(maxcycle=1)
 ----------------------------------------------------------------------
 -----
 title
 -----
 Structure from the checkpoint file:  "BDE49_expt_1000_mol2.chk"
 Charge =  0 Multiplicity = 2

                         Standard orientation:
 ---------------------------------------------------------------------
 Center     Atomic      Atomic             Coordinates (Angstroms)
 Number     Number       Type             X           Y           Z
 ---------------------------------------------------------------------
      1          6           0        0.000064    0.000002    0.271415
      2         17           0       -0.841186    1.475277   -0.031938
      3         17           0       -0.857201   -1.466032   -0.031936
      4         17           0        1.698364   -0.009246   -0.031919
 ---------------------------------------------------------------------

 SCF Done:  E(UHF) =  -1416.58554936     A.U. after    2 cycles

 The electronic state is 2-A.
 Alpha  occ. eigenvalues -- -105.61276-105.61275-105.61275 -11.44021 -10.66122
 Alpha  occ. eigenvalues --  -10.66115 -10.66115  -7.83015  -7.83015  -7.83009
 Alpha  occ. eigenvalues --   -7.82720  -7.82720  -7.82714  -7.82614  -7.82612
 Alpha  occ. eigenvalues --   -7.82612  -1.23784  -1.09382  -1.09381  -0.83884
 Alpha  occ. eigenvalues --   -0.66278  -0.66277  -0.65894  -0.52477  -0.52475
 Alpha  occ. eigenvalues --   -0.50081  -0.50080  -0.47454  -0.38700
 Alpha virt. eigenvalues --    0.06016   0.08147   0.08147   0.09248   0.12240
 Alpha virt. eigenvalues --    0.13519   0.13519   0.15150   0.15150   0.16728
 Alpha virt. eigenvalues --    0.18415   0.18415   0.18587   0.20434   0.23324

  Beta  occ. eigenvalues -- -105.61234-105.61233-105.61232 -11.40950 -10.66072
  Beta  occ. eigenvalues --  -10.66066 -10.66066  -7.83145  -7.83144  -7.83134
  Beta  occ. eigenvalues --   -7.82586  -7.82584  -7.82584  -7.82417  -7.82416
  Beta  occ. eigenvalues --   -7.82414  -1.20377  -1.08882  -1.08880  -0.78435
  Beta  occ. eigenvalues --   -0.64927  -0.64926  -0.56897  -0.51414  -0.51412
  Beta  occ. eigenvalues --   -0.49098  -0.49097  -0.47299
  Beta virt. eigenvalues --    0.04950   0.07327   0.08301   0.08301   0.10833
  Beta virt. eigenvalues --    0.12659   0.13790   0.13790   0.15204   0.15204
  Beta virt. eigenvalues --    0.18155   0.18487   0.18487   0.18581   0.21612

 Mulliken charges and spin densities:
               1          2
     1  C   -0.417564   1.039981
     2  Cl   0.139194  -0.013322
     3  Cl   0.139189  -0.013324
     4  Cl   0.139180  -0.013335
 Sum of Mulliken charges =  -0.00000   1.00000

 Dipole moment (field-independent basis, Debye):
    X=              0.0000    Y=              0.0000    Z=              0.0231  Tot=              0.0231
                          Isotropic Fermi Contact Couplings
        Atom                 a.u.       MegaHertz       Gauss      10(-4) cm-1
     1  C(13)              0.42956     482.90892     172.31391     161.08108
     2  Cl(35)             0.04572      20.04576       7.15283       6.68655
     3  Cl(35)             0.04572      20.04582       7.15285       6.68657
     4  Cl(35)             0.04573      20.05192       7.15502       6.68860
 --------------------------------------------------------
       Center         ----  Spin Dipole Couplings  ----
                      3XX-RR        3YY-RR        3ZZ-RR
 --------------------------------------------------------

 Normal termination of Gaussian 16 at Tue Apr  8 22:28:19 2025.
