 Gaussian 16, Revision C.01,

 ----------------------------------------------------------------------
 #t hf aug-cc-pvdz symm=none int=(grid=ultrafine) guess=(read,tcheck) s
 table=(opt,rrhf)
 ----------------------------------------------------------------------
 -----
 title
 -----
 Symbolic Z-matrix:
 Charge =  0 Multiplicity = 1

 SCF Done:  E(RHF) =  -159.613366333     A.U. after   11 cycles
 Normal termination of Gaussian 16 at Wed Apr  9 00:27:15 2025.
 Gaussian 16:  ES64L-G16RevC.01  3-Jul-2019

 ----------------------------------------------------------------------
 #t hf aug-cc-pvdz iop(5/13=1,5/36=2,99/5=2) pseudo=read geom=check gue
 ss=(read,tcheck) scf=(maxcycle=1)
 ----------------------------------------------------------------------
 -----
 title
 -----
 Structure from the checkpoint file:  "BDE49_nonexpt_284_mol1.chk"
 Charge =  0 Multiplicity = 1

                         Standard orientation:
 ---------------------------------------------------------------------
 Center     Atomic      Atomic             Coordinates (Angstroms)
 Number     Number       Type             X           Y           Z
 ---------------------------------------------------------------------
      1          5           0       -0.000000    0.054288   -0.000011
      2          7           0       -0.000000    1.455537    0.000001
      3          6           0        1.378041   -0.729515   -0.000005
      4          6           0       -1.378041   -0.729516    0.000007
      5          1           0       -2.261811   -0.083244    0.000044
      6          1           0       -1.450260   -1.388412    0.873592
      7          1           0       -1.450299   -1.388365   -0.873610
      8          1           0        2.261811   -0.083243   -0.000028
      9          1           0        1.450272   -1.388411   -0.873589
     10          1           0        1.450287   -1.388365    0.873613
     11          1           0        0.844377    2.007012   -0.000000
     12          1           0       -0.844377    2.007012    0.000015
 ---------------------------------------------------------------------

 SCF Done:  E(RHF) =  -159.791457727     A.U. after    2 cycles

 The electronic state is 1-A.
 Alpha  occ. eigenvalues --  -15.48288 -11.19248 -11.19238  -7.56745  -1.15619
 Alpha  occ. eigenvalues --   -0.95210  -0.91742  -0.71774  -0.70360  -0.57713
 Alpha  occ. eigenvalues --   -0.55865  -0.52580  -0.52251  -0.50349  -0.45806
 Alpha  occ. eigenvalues --   -0.44748
 Alpha virt. eigenvalues --    0.03072   0.04665   0.04715   0.04780   0.06422
 Alpha virt. eigenvalues --    0.06556   0.08134   0.08158   0.08554   0.09728
 Alpha virt. eigenvalues --    0.10817   0.10996   0.15957   0.16699   0.16751

 Mulliken charges:
               1
     1  B    0.586964
     2  N    0.190247
     3  C   -0.424908
     4  C   -0.424907
     5  H   -0.072822
     6  H    0.079555
     7  H    0.079572
     8  H   -0.072822
     9  H    0.079557
    10  H    0.079570
    11  H   -0.050002
    12  H   -0.050003
 Sum of Mulliken charges =  -0.00000

 Dipole moment (field-independent basis, Debye):
    X=             -0.0000    Y=              0.9519    Z=              0.0000  Tot=              0.9519

 Test job not archived.
 1\1\GINC-SE109\SP\RHF\Aug-CC-pVDZ\C2H8B1N1\OHZDE\09-Apr-2025\0\\#t hf
 aug-cc-pvdz iop(5/13=1,5/36=2,99/5=2) pseudo=read geom=check guess=(re
 ad,tcheck) scf=(maxcycle=1)\\title\\0,1\B,0,0.,0.054288,0.000011\N,0,0
 .,1.455537,-0.000001\C,0,-1.378041,-0.729515,0.000005\C,0,1.378041,-0.
 729515,-0.000007\H,0,2.261811,-0.083243,-0.000044\H,0,1.45026,-1.38841
 1,-0.873592\H,0,1.450299,-1.388364,0.87361\H,0,-2.261811,-0.083243,0.0
 00028\H,0,-1.450272,-1.388411,0.873589\H,0,-1.450287,-1.388365,-0.8736
 13\H,0,-0.844377,2.007012,0.\H,0,0.844377,2.007012,-0.000015\\Version=

 Normal termination of Gaussian 16 at Wed Apr  9 00:27:18 2025.
