 Gaussian 16, Revision C.01,

 ----------------------------------------------------------------------
 #t hf aug-cc-pvdz symm=none int=(grid=ultrafine) guess=(read,tcheck) s
 table=(opt,rrhf)
 ----------------------------------------------------------------------
 -----
 title
 -----
 Symbolic Z-matrix:
 Charge =  0 Multiplicity = 1

 SCF Done:  E(RHF) =  -1138.89933085     A.U. after   15 cycles
 Normal termination of Gaussian 16 at Tue Apr  8 23:42:49 2025.
 Gaussian 16:  ES64L-G16RevC.01  3-Jul-2019

 ----------------------------------------------------------------------
 #t hf aug-cc-pvdz iop(5/13=1,5/36=2,99/5=2) pseudo=read geom=check gue
 ss=(read,tcheck) scf=(maxcycle=1)
 ----------------------------------------------------------------------
 -----
 title
 -----
 Structure from the checkpoint file:  "BDE49_nonexpt_1648_mol1.chk"
 Charge =  0 Multiplicity = 1

                         Standard orientation:
 ---------------------------------------------------------------------
 Center     Atomic      Atomic             Coordinates (Angstroms)
 Number     Number       Type             X           Y           Z
 ---------------------------------------------------------------------
      1          6           0        1.085269   -1.384164   -1.725573
      2         14           0        0.625879   -0.688169   -0.063570
      3          1           0        0.851789   -0.683095   -2.529864
      4          1           0        0.517891   -2.301469   -1.905577
      5          1           0        2.152275   -1.617560   -1.759503
      6          6           0        1.091908   -1.718159    1.408833
      7          1           0        0.840589   -1.205744    2.339336
      8          1           0        2.163070   -1.931429    1.398623
      9          1           0        0.545122   -2.665162    1.382136
     10         15           0       -1.529643    0.034660   -0.036736
     11          7           0        1.656394    0.905779    0.070955
     12          8           0        1.128936    2.012692   -0.097336
     13          8           0        2.848762    0.756252    0.297806
     14          8           0       -2.516675   -0.941650   -0.519520
     15          8           0       -1.538950    1.406063   -0.859531
     16          8           0       -1.693898    0.448351    1.519035
     17          1           0       -2.608331    0.383560    1.827005
     18          1           0       -0.763290    1.955168   -0.631004
 ---------------------------------------------------------------------

 SCF Done:  E(RHF) =  -1139.47883192     A.U. after    2 cycles

 The electronic state is 1-A.
 Alpha  occ. eigenvalues --  -84.43265 -69.60900 -20.61404 -20.60779 -20.60248
 Alpha  occ. eigenvalues --  -20.59053 -20.51264 -15.77274 -11.26032 -11.26014
 Alpha  occ. eigenvalues --   -6.88629  -6.27805  -4.42724  -4.42089  -4.41028
 Alpha  occ. eigenvalues --   -4.03154  -4.03011  -4.02969  -1.67304  -1.53570
 Alpha  occ. eigenvalues --   -1.51313  -1.47679  -1.39381  -1.04032  -0.98318
 Alpha  occ. eigenvalues --   -0.98086  -0.86519  -0.83181  -0.76025  -0.75101
 Alpha  occ. eigenvalues --   -0.73961  -0.69277  -0.65446  -0.63452  -0.62443
 Alpha  occ. eigenvalues --   -0.60730  -0.60123  -0.59769  -0.59538  -0.55534
 Alpha  occ. eigenvalues --   -0.53070  -0.51201  -0.50778  -0.50312  -0.48331
 Alpha  occ. eigenvalues --   -0.46668  -0.46520  -0.42460
 Alpha virt. eigenvalues --    0.02749   0.03479   0.03666   0.04283   0.04790
 Alpha virt. eigenvalues --    0.05489   0.06369   0.07083   0.07580   0.09045
 Alpha virt. eigenvalues --    0.09450   0.10104   0.10608   0.11353   0.12408

 Mulliken charges:
               1
     1  C   -0.621748
     2  Si   1.676947
     3  H    0.000799
     4  H    0.055505
     5  H    0.038614
     6  C   -0.631996
     7  H    0.011316
     8  H    0.086261
     9  H    0.030052
    10  P    3.419159
    11  N    1.874173
    12  O   -1.216141
    13  O   -1.229629
    14  O   -1.592019
    15  O   -1.493499
    16  O   -1.349225
    17  H    0.369303
    18  H    0.572129
 Sum of Mulliken charges =   0.00000

 Dipole moment (field-independent basis, Debye):
    X=              1.2951    Y=             -2.2807    Z=              1.5320  Tot=              3.0374

 Test job not archived.
 1\1\GINC-SE039\SP\RHF\Aug-CC-pVDZ\C2H8N1O5P1Si1\OHZDE\08-Apr-2025\0\\#
 t hf aug-cc-pvdz iop(5/13=1,5/36=2,99/5=2) pseudo=read geom=check gues
 s=(read,tcheck) scf=(maxcycle=1)\\title\\0,1\C,0,1.085269,1.384164,1.7
 25573\Si,0,0.625879,0.688169,0.06357\H,0,0.851789,0.683095,2.529864\H,
 0,0.517891,2.301469,1.905577\H,0,2.152275,1.61756,1.759503\C,0,1.09190
 8,1.718159,-1.408833\H,0,0.840589,1.205744,-2.339336\H,0,2.16307,1.931
 429,-1.398623\H,0,0.545122,2.665162,-1.382136\P,0,-1.529643,-0.03466,0
 .036736\N,0,1.656394,-0.905779,-0.070955\O,0,1.128936,-2.012692,0.0973

 Normal termination of Gaussian 16 at Tue Apr  8 23:43:02 2025.
