 Gaussian 16, Revision C.01,

 ----------------------------------------------------------------------
 #t hf aug-cc-pvdz symm=none int=(grid=ultrafine) guess=(read,tcheck) s
 table=(opt,rrhf)
 ----------------------------------------------------------------------
 -----
 title
 -----
 Symbolic Z-matrix:
 Charge =  0 Multiplicity = 1

 SCF Done:  E(RHF) =  -249.535896551     A.U. after   15 cycles
 Normal termination of Gaussian 16 at Tue Apr  8 22:54:33 2025.
 Gaussian 16:  ES64L-G16RevC.01  3-Jul-2019

 ----------------------------------------------------------------------
 #t hf aug-cc-pvdz iop(5/13=1,5/36=2,99/5=2) pseudo=read geom=check gue
 ss=(read,tcheck) scf=(maxcycle=1)
 ----------------------------------------------------------------------
 -----
 title
 -----
 Structure from the checkpoint file:  "BDE49_expt_1839_mol1.chk"
 Charge =  0 Multiplicity = 1

                         Standard orientation:
 ---------------------------------------------------------------------
 Center     Atomic      Atomic             Coordinates (Angstroms)
 Number     Number       Type             X           Y           Z
 ---------------------------------------------------------------------
      1          8           0        1.109570   -0.239403   -0.124288
      2          8           0        0.043588    0.596720    0.039304
      3          1           0        1.270541   -0.581362    0.772514
      4          9           0       -1.166201   -0.253019   -0.010294
 ---------------------------------------------------------------------

 SCF Done:  E(RHF) =  -249.769143480     A.U. after    2 cycles

 The electronic state is 1-A.
 Alpha  occ. eigenvalues --  -26.51475 -20.75918 -20.68012  -1.72898  -1.53979
 Alpha  occ. eigenvalues --   -1.25045  -0.80157  -0.73167  -0.72071  -0.65704
 Alpha  occ. eigenvalues --   -0.60578  -0.54358  -0.52608
 Alpha virt. eigenvalues --    0.03672   0.10453   0.13008   0.15559   0.18489
 Alpha virt. eigenvalues --    0.21313   0.23079   0.23601   0.24749   0.27260
 Alpha virt. eigenvalues --    0.29063   0.30893   0.35011   0.38918   0.40774

 Mulliken charges:
               1
     1  O   -0.376385
     2  O    0.261927
     3  H    0.476214
     4  F   -0.361755
 Sum of Mulliken charges =   0.00000

 Dipole moment (field-independent basis, Debye):
    X=              1.5738    Y=             -0.5333    Z=              1.5934  Tot=              2.3022

 Test job not archived.
 1\1\GINC-SE329\SP\RHF\Aug-CC-pVDZ\F1H1O2\OHZDE\08-Apr-2025\0\\#t hf au
 g-cc-pvdz iop(5/13=1,5/36=2,99/5=2) pseudo=read geom=check guess=(read
 ,tcheck) scf=(maxcycle=1)\\title\\0,1\O,0,1.10957,-0.239403,-0.124288\
 O,0,0.043588,0.59672,0.039304\H,0,1.270541,-0.581362,0.772514\F,0,-1.1
 66201,-0.253019,-0.010294\\Version=ES64L-G16RevC.01\State=1-A\HF=-249.
 7691435\RMSD=1.054e-02\Dipole=0.6191689,-0.2098355,0.6269045\Quadrupol
 e=-0.130642,-0.161843,0.2924849,-0.9218516,1.6675086,-0.8478996\PG=C01
  [X(F1H1O2)]\\@

 Normal termination of Gaussian 16 at Tue Apr  8 22:54:34 2025.
