 Gaussian 16, Revision C.01,

 ----------------------------------------------------------------------
 #t hf aug-cc-pvdz symm=none int=(grid=ultrafine) guess=(read,tcheck) s
 table=opt
 ----------------------------------------------------------------------
 -----
 title
 -----
 Symbolic Z-matrix:
 Charge =  0 Multiplicity = 2

 SCF Done:  E(UHF) =  -764.212203089     A.U. after   19 cycles
 Normal termination of Gaussian 16 at Tue Apr  8 22:50:10 2025.
 Gaussian 16:  ES64L-G16RevC.01  3-Jul-2019

 ----------------------------------------------------------------------
 #t hf aug-cc-pvdz iop(5/13=1,5/36=2,99/5=2) pseudo=read geom=check gue
 ss=(read,tcheck) scf=(maxcycle=1)
 ----------------------------------------------------------------------
 -----
 title
 -----
 Structure from the checkpoint file:  "BDE49_expt_1718_mol2.chk"
 Charge =  0 Multiplicity = 2

                         Standard orientation:
 ---------------------------------------------------------------------
 Center     Atomic      Atomic             Coordinates (Angstroms)
 Number     Number       Type             X           Y           Z
 ---------------------------------------------------------------------
      1          6           0       -0.144027    0.931850   -0.000117
      2          8           0        0.251035    2.082504    0.000044
      3          6           0       -1.563312    0.625930    0.000015
      4          8           0        0.651991   -0.152049   -0.000075
      5         17           0       -2.200484   -0.954526    0.000028
      6          1           0       -2.275416    1.436938    0.000144
      7          6           0        2.076785    0.110048   -0.000010
      8          6           0        2.783128   -1.229451    0.000031
      9          1           0        2.322407    0.706113    0.882193
     10          1           0        2.322485    0.706101   -0.882200
     11          1           0        2.516809   -1.809833    0.885813
     12          1           0        3.865410   -1.076425    0.000078
     13          1           0        2.516888   -1.809845   -0.885768
 ---------------------------------------------------------------------

 SCF Done:  E(UHF) =  -764.594327111     A.U. after    2 cycles

 The electronic state is 2-A.
 Alpha  occ. eigenvalues -- -105.59662 -20.59418 -20.55878 -11.39829 -11.33930
 Alpha  occ. eigenvalues --  -11.30495 -11.24013 -10.64462  -7.81283  -7.81228
 Alpha  occ. eigenvalues --   -7.80988  -1.55204  -1.47011  -1.16382  -1.05223
 Alpha  occ. eigenvalues --   -0.97816  -0.87187  -0.79766  -0.71815  -0.70347
 Alpha  occ. eigenvalues --   -0.69657  -0.62531  -0.62350  -0.58581  -0.56011
 Alpha  occ. eigenvalues --   -0.55725  -0.53332  -0.52433  -0.49628  -0.47590
 Alpha  occ. eigenvalues --   -0.45939  -0.39097
 Alpha virt. eigenvalues --    0.03683   0.04148   0.04679   0.04704   0.06255
 Alpha virt. eigenvalues --    0.07816   0.08273   0.11130   0.11322   0.11633
 Alpha virt. eigenvalues --    0.12959   0.13907   0.14346   0.15642   0.16158

  Beta  occ. eigenvalues -- -105.59605 -20.59471 -20.54605 -11.40484 -11.31503
  Beta  occ. eigenvalues --  -11.30500 -11.24012 -10.64402  -7.81519  -7.80950
  Beta  occ. eigenvalues --   -7.80741  -1.54726  -1.44873  -1.13207  -1.05178
  Beta  occ. eigenvalues --   -0.94728  -0.86022  -0.79125  -0.70729  -0.69251
  Beta  occ. eigenvalues --   -0.69136  -0.61453  -0.59341  -0.58199  -0.55962
  Beta  occ. eigenvalues --   -0.52331  -0.52031  -0.49640  -0.49057  -0.44909
  Beta  occ. eigenvalues --   -0.44083
  Beta virt. eigenvalues --    0.03684   0.03880   0.04193   0.04712   0.04730
  Beta virt. eigenvalues --    0.06269   0.07834   0.08429   0.11176   0.11412
  Beta virt. eigenvalues --    0.12216   0.12980   0.13991   0.14759   0.15681

 Mulliken charges and spin densities:
               1          2
     1  C    1.898570  -0.396046
     2  O   -1.178485   0.301509
     3  C   -0.095668   1.158784
     4  O   -1.139051   0.001512
     5  Cl  -0.129703   0.013342
     6  H   -0.078109  -0.072548
     7  C    0.413947  -0.006306
     8  C   -0.477617  -0.000506
     9  H    0.130079   0.000089
    10  H    0.130093   0.000092
    11  H    0.175845   0.000043
    12  H    0.174247  -0.000007
    13  H    0.175853   0.000043
 Sum of Mulliken charges =  -0.00000   1.00000

 Dipole moment (field-independent basis, Debye):
    X=              0.7682    Y=             -1.0020    Z=             -0.0001  Tot=              1.2626
                          Isotropic Fermi Contact Couplings
        Atom                 a.u.       MegaHertz       Gauss      10(-4) cm-1
     1  C(13)             -0.08885     -99.88222     -35.64046     -33.31712
     2  O(17)              0.09692     -58.75290     -20.96450     -19.59786
     3  C(13)              0.21310     239.57027      85.48463      79.91204
     4  O(17)             -0.01426       8.64179       3.08360       2.88259
     5  Cl(35)             0.03347      14.67449       5.23622       4.89488
     6  H(1)              -0.02311    -103.29889     -36.85961     -34.45680
     7  C(13)             -0.00124      -1.39256      -0.49690      -0.46451
     8  C(13)              0.00027       0.30861       0.11012       0.10294

 Normal termination of Gaussian 16 at Tue Apr  8 22:50:15 2025.
