 Gaussian 16, Revision C.01,

 ----------------------------------------------------------------------
 #t hf aug-cc-pvdz symm=none int=(grid=ultrafine) guess=(read,tcheck) s
 table=(opt,rrhf)
 ----------------------------------------------------------------------
 -----
 title
 -----
 Symbolic Z-matrix:
 Charge =  0 Multiplicity = 1

 SCF Done:  E(RHF) =  -1454.78264227     A.U. after   14 cycles
 Normal termination of Gaussian 16 at Tue Apr  8 23:48:02 2025.
 Gaussian 16:  ES64L-G16RevC.01  3-Jul-2019

 ----------------------------------------------------------------------
 #t hf aug-cc-pvdz iop(5/13=1,5/36=2,99/5=2) pseudo=read geom=check gue
 ss=(read,tcheck) scf=(maxcycle=1)
 ----------------------------------------------------------------------
 -----
 title
 -----
 Structure from the checkpoint file:  "BDE49_nonexpt_1792_mol1.chk"
 Charge =  0 Multiplicity = 1

                         Standard orientation:
 ---------------------------------------------------------------------
 Center     Atomic      Atomic             Coordinates (Angstroms)
 Number     Number       Type             X           Y           Z
 ---------------------------------------------------------------------
      1          6           0        2.946277   -0.723188    0.644435
      2          6           0        1.582982   -0.834475    0.911393
      3          7           0        3.455231    0.120350   -0.256643
      4          6           0        2.594562    0.892135   -0.927732
      5          6           0        1.215729    0.859729   -0.735413
      6          6           0        0.681467   -0.026626    0.207037
      7          1           0        3.661530   -1.339518    1.181980
      8          1           0        1.242722   -1.540745    1.661545
      9          1           0        3.029556    1.572858   -1.654070
     10          1           0        0.578009    1.521874   -1.309628
     11         14           0       -1.143914   -0.188725    0.539674
     12         17           0       -1.995363   -1.559784   -0.757029
     13         17           0       -2.087307    1.632718    0.278019
     14          1           0       -1.404331   -0.660101    1.906080
 ---------------------------------------------------------------------

 SCF Done:  E(RHF) =  -1455.21785957     A.U. after    2 cycles

 The electronic state is 1-A.
 Alpha  occ. eigenvalues -- -105.57790-105.57449 -69.63712 -15.52400 -11.29610
 Alpha  occ. eigenvalues --  -11.29507 -11.27519 -11.27287 -11.27006 -10.62804
 Alpha  occ. eigenvalues --  -10.62451  -7.79693  -7.79375  -7.79372  -7.79341
 Alpha  occ. eigenvalues --   -7.79024  -7.79020  -6.29946  -4.05364  -4.05265
 Alpha  occ. eigenvalues --   -4.05156  -1.27505  -1.11587  -1.08486  -1.05607
 Alpha  occ. eigenvalues --   -1.05278  -0.89444  -0.88647  -0.77040  -0.71112
 Alpha  occ. eigenvalues --   -0.70455  -0.67435  -0.62741  -0.58496  -0.57403
 Alpha  occ. eigenvalues --   -0.57164  -0.56551  -0.54962  -0.50098  -0.49387
 Alpha  occ. eigenvalues --   -0.47887  -0.47681  -0.45379  -0.42065  -0.37262
 Alpha virt. eigenvalues --    0.02977   0.03811   0.04252   0.04565   0.05087
 Alpha virt. eigenvalues --    0.05310   0.06442   0.07946   0.08231   0.08634
 Alpha virt. eigenvalues --    0.09132   0.10805   0.11427   0.12045   0.12758

 Mulliken charges:
               1
     1  C   -0.983111
     2  C    1.225465
     3  N    1.032771
     4  C   -1.026016
     5  C    1.337355
     6  C   -0.919240
     7  H   -0.169514
     8  H   -0.315651
     9  H   -0.171000
    10  H   -0.283365
    11  Si   1.488184
    12  Cl  -0.578169
    13  Cl  -0.544172
    14  H   -0.093537
 Sum of Mulliken charges =  -0.00000

 Dipole moment (field-independent basis, Debye):
    X=             -0.3284    Y=             -0.2871    Z=              1.2180  Tot=              1.2937

 Test job not archived.
 1\1\GINC-SE423\SP\RHF\Aug-CC-pVDZ\C5H5Cl2N1Si1\OHZDE\08-Apr-2025\0\\#t
  hf aug-cc-pvdz iop(5/13=1,5/36=2,99/5=2) pseudo=read geom=check guess
 =(read,tcheck) scf=(maxcycle=1)\\title\\0,1\C,0,2.946277,-0.723188,0.6
 44435\C,0,1.582982,-0.834475,0.911393\N,0,3.455231,0.12035,-0.256643\C
 ,0,2.594562,0.892135,-0.927732\C,0,1.215729,0.859729,-0.735413\C,0,0.6
 81467,-0.026626,0.207037\H,0,3.66153,-1.339518,1.18198\H,0,1.242722,-1
 .540745,1.661545\H,0,3.029556,1.572858,-1.65407\H,0,0.578009,1.521874,
 -1.309628\Si,0,-1.143914,-0.188725,0.539674\Cl,0,-1.995363,-1.559784,-

 Normal termination of Gaussian 16 at Tue Apr  8 23:48:09 2025.
