 Gaussian 16, Revision C.01,

 ----------------------------------------------------------------------
 #t hf aug-cc-pvdz symm=none int=(grid=ultrafine) guess=(read,tcheck) s
 table=(opt,rrhf)
 ----------------------------------------------------------------------
 -----
 title
 -----
 Symbolic Z-matrix:
 Charge =  0 Multiplicity = 1

 SCF Done:  E(RHF) =  -305.926018833     A.U. after   13 cycles
 Normal termination of Gaussian 16 at Tue Apr  8 22:36:37 2025.
 Gaussian 16:  ES64L-G16RevC.01  3-Jul-2019

 ----------------------------------------------------------------------
 #t hf aug-cc-pvdz iop(5/13=1,5/36=2,99/5=2) pseudo=read geom=check gue
 ss=(read,tcheck) scf=(maxcycle=1)
 ----------------------------------------------------------------------
 -----
 title
 -----
 Structure from the checkpoint file:  "BDE49_expt_1138_mol1.chk"
 Charge =  0 Multiplicity = 1

                         Standard orientation:
 ---------------------------------------------------------------------
 Center     Atomic      Atomic             Coordinates (Angstroms)
 Number     Number       Type             X           Y           Z
 ---------------------------------------------------------------------
      1          6           0       -1.013060   -0.102960    0.105697
      2          8           0       -1.694186   -1.076356   -0.090995
      3          8           0       -1.254318    1.084122   -0.509762
      4          6           0        0.174177   -0.021487    1.038349
      5          6           0        1.466904    0.472939    0.364852
      6          1           0        0.308126   -1.016526    1.466153
      7          1           0       -0.095702    0.661487    1.851103
      8          1           0       -2.025137    0.943278   -1.079493
      9          6           0        1.967466   -0.452230   -0.747445
     10          1           0        2.235031    0.565846    1.139139
     11          1           0        1.298133    1.477095   -0.032980
     12          1           0        2.150052   -1.463248   -0.371147
     13          1           0        2.902690   -0.079366   -1.172800
     14          1           0        1.241912   -0.528269   -1.562630
 ---------------------------------------------------------------------

 SCF Done:  E(RHF) =  -306.242023233     A.U. after    2 cycles

 The electronic state is 1-A.
 Alpha  occ. eigenvalues --  -20.60011 -20.53861 -11.39340 -11.25503 -11.24614
 Alpha  occ. eigenvalues --  -11.23200  -1.54682  -1.45136  -1.08931  -0.97888
 Alpha  occ. eigenvalues --   -0.85835  -0.80388  -0.70902  -0.68218  -0.65301
 Alpha  occ. eigenvalues --   -0.62912  -0.59448  -0.58075  -0.56212  -0.51414
 Alpha  occ. eigenvalues --   -0.50527  -0.49665  -0.47352  -0.43887
 Alpha virt. eigenvalues --    0.03540   0.03767   0.04026   0.04654   0.06287
 Alpha virt. eigenvalues --    0.07113   0.07493   0.07655   0.10205   0.12972
 Alpha virt. eigenvalues --    0.13673   0.14263   0.14596   0.15308   0.15463

 Mulliken charges:
               1
     1  C    2.201227
     2  O   -1.243371
     3  O   -1.267283
     4  C   -0.510691
     5  C   -0.371411
     6  H    0.155355
     7  H    0.269373
     8  H    0.360477
     9  C   -0.329560
    10  H    0.141583
    11  H    0.145402
    12  H    0.170298
    13  H    0.119629
    14  H    0.158971
 Sum of Mulliken charges =  -0.00000

 Dipole moment (field-independent basis, Debye):
    X=              1.3385    Y=              1.5624    Z=              0.2335  Tot=              2.0706

 Test job not archived.
 1\1\GINC-SE340\SP\RHF\Aug-CC-pVDZ\C4H8O2\OHZDE\08-Apr-2025\0\\#t hf au
 g-cc-pvdz iop(5/13=1,5/36=2,99/5=2) pseudo=read geom=check guess=(read
 ,tcheck) scf=(maxcycle=1)\\title\\0,1\C,0,-1.01306,-0.10296,0.105697\O
 ,0,-1.694186,-1.076356,-0.090995\O,0,-1.254318,1.084122,-0.509762\C,0,
 0.174177,-0.021487,1.038349\C,0,1.466904,0.472939,0.364852\H,0,0.30812
 6,-1.016526,1.466153\H,0,-0.095702,0.661487,1.851103\H,0,-2.025137,0.9
 43278,-1.079493\C,0,1.967466,-0.45223,-0.747445\H,0,2.235031,0.565846,
 1.139139\H,0,1.298133,1.477095,-0.03298\H,0,2.150052,-1.463248,-0.3711

 Normal termination of Gaussian 16 at Tue Apr  8 22:36:41 2025.
