 Gaussian 16, Revision C.01,

 ----------------------------------------------------------------------
 #t hf aug-cc-pvdz symm=none int=(grid=ultrafine) guess=(read,tcheck) s
 table=opt
 ----------------------------------------------------------------------
 -----
 title
 -----
 Symbolic Z-matrix:
 Charge =  0 Multiplicity = 2

 SCF Done:  E(UHF) =  -601.869651958     A.U. after   18 cycles
 Normal termination of Gaussian 16 at Tue Apr  8 23:47:27 2025.
 Gaussian 16:  ES64L-G16RevC.01  3-Jul-2019

 ----------------------------------------------------------------------
 #t hf aug-cc-pvdz iop(5/13=1,5/36=2,99/5=2) pseudo=read geom=check gue
 ss=(read,tcheck) scf=(maxcycle=1)
 ----------------------------------------------------------------------
 -----
 title
 -----
 Structure from the checkpoint file:  "BDE49_nonexpt_179_mol2.chk"
 Charge =  0 Multiplicity = 2

                         Standard orientation:
 ---------------------------------------------------------------------
 Center     Atomic      Atomic             Coordinates (Angstroms)
 Number     Number       Type             X           Y           Z
 ---------------------------------------------------------------------
      1         17           0        2.006703   -0.087229    0.031382
      2          5           0        0.403429   -0.783057    0.056067
      3          6           0       -0.929589   -0.066137   -0.320834
      4          6           0       -2.187901   -0.831826    0.133991
      5          1           0       -2.159898   -1.875875   -0.185383
      6          1           0       -3.092499   -0.372624   -0.276223
      7          1           0       -2.276567   -0.822132    1.224252
      8          6           0       -0.992525    1.426439    0.073323
      9          1           0       -0.893108   -0.115689   -1.426095
     10          1           0       -1.001833    1.542429    1.161020
     11          1           0       -1.907039    1.884688   -0.314750
     12          1           0       -0.140067    1.986535   -0.315534
 ---------------------------------------------------------------------

 SCF Done:  E(UHF) =  -602.099472375     A.U. after    2 cycles

 The electronic state is 2-A.
 Alpha  occ. eigenvalues -- -105.57106 -11.23661 -11.23522 -11.23396 -10.62119
 Alpha  occ. eigenvalues --   -7.79053  -7.78737  -7.78690  -7.66743  -1.09197
 Alpha  occ. eigenvalues --   -1.06047  -0.93895  -0.83409  -0.67570  -0.62824
 Alpha  occ. eigenvalues --   -0.60668  -0.58332  -0.55053  -0.51357  -0.50759
 Alpha  occ. eigenvalues --   -0.50000  -0.48500  -0.47500  -0.33653
 Alpha virt. eigenvalues --    0.03470   0.03725   0.04167   0.04445   0.06156
 Alpha virt. eigenvalues --    0.06643   0.06712   0.07065   0.07564   0.08854
 Alpha virt. eigenvalues --    0.09995   0.12202   0.14560   0.15313   0.15453

  Beta  occ. eigenvalues -- -105.57029 -11.23523 -11.23458 -11.23364 -10.62028
  Beta  occ. eigenvalues --   -7.78914  -7.78700  -7.78497  -7.64798  -1.08249
  Beta  occ. eigenvalues --   -1.05567  -0.93699  -0.82554  -0.65470  -0.62541
  Beta  occ. eigenvalues --   -0.59636  -0.57074  -0.54936  -0.50786  -0.49636
  Beta  occ. eigenvalues --   -0.49125  -0.48318  -0.46033
  Beta virt. eigenvalues --    0.03162   0.03840   0.03956   0.04346   0.06646
  Beta virt. eigenvalues --    0.06680   0.06862   0.07093   0.07570   0.08566
  Beta virt. eigenvalues --    0.09981   0.10708   0.14389   0.14838   0.15463

 Mulliken charges and spin densities:
               1          2
     1  Cl  -0.254621   0.005433
     2  B    0.122122   1.017308
     3  C   -0.376610  -0.030376
     4  C   -0.319522   0.014759
     5  H    0.112798  -0.001605
     6  H    0.154927  -0.003152
     7  H    0.166613  -0.001197
     8  C   -0.342594   0.019116
     9  H    0.278953  -0.017200
    10  H    0.181620  -0.003227
    11  H    0.155735   0.002195
    12  H    0.120581  -0.002054
 Sum of Mulliken charges =  -0.00000   1.00000

 Dipole moment (field-independent basis, Debye):
    X=             -1.4796    Y=              0.4535    Z=             -0.3440  Tot=              1.5853
                          Isotropic Fermi Contact Couplings
        Atom                 a.u.       MegaHertz       Gauss      10(-4) cm-1
     1  Cl(35)             0.08336      36.54994      13.04193      12.19175
     2  B(11)              0.31375     450.02658     160.58067     150.11271
     3  C(13)              0.03616      40.65247      14.50581      13.56020
     4  C(13)              0.01073      12.05887       4.30290       4.02240
     5  H(1)              -0.00021      -0.95045      -0.33914      -0.31704
     6  H(1)              -0.00028      -1.24622      -0.44468      -0.41569
     7  H(1)              -0.00019      -0.85628      -0.30554      -0.28562
     8  C(13)              0.01218      13.69154       4.88548       4.56701

 Normal termination of Gaussian 16 at Tue Apr  8 23:47:31 2025.
