 Gaussian 16, Revision C.01,

 ----------------------------------------------------------------------
 #t hf aug-cc-pvdz symm=none int=(grid=ultrafine) guess=(read,tcheck) s
 table=(opt,rrhf)
 ----------------------------------------------------------------------
 -----
 title
 -----
 Symbolic Z-matrix:
 Charge =  0 Multiplicity = 1

 SCF Done:  E(RHF) =  -842.314103199     A.U. after   18 cycles
 Normal termination of Gaussian 16 at Tue Apr  8 22:51:39 2025.
 Gaussian 16:  ES64L-G16RevC.01  3-Jul-2019

 ----------------------------------------------------------------------
 #t hf aug-cc-pvdz iop(5/13=1,5/36=2,99/5=2) pseudo=read geom=check gue
 ss=(read,tcheck) scf=(maxcycle=1)
 ----------------------------------------------------------------------
 -----
 title
 -----
 Structure from the checkpoint file:  "BDE49_expt_1703_mol1.chk"
 Charge =  0 Multiplicity = 1

                         Standard orientation:
 ---------------------------------------------------------------------
 Center     Atomic      Atomic             Coordinates (Angstroms)
 Number     Number       Type             X           Y           Z
 ---------------------------------------------------------------------
      1          6           0       -2.339256    1.858358    0.000000
      2          6           0       -1.064769    2.468149    0.000000
      3          6           0        0.076388    1.703430    0.000000
      4          6           0       -2.446631    0.490125    0.000000
      5          6           0       -1.292182   -0.335455    0.000000
      6          6           0        0.000000    0.287204    0.000000
      7          1           0       -3.230616    2.475231    0.000000
      8          1           0       -0.987940    3.549407    0.000000
      9          1           0        1.049315    2.176210    0.000000
     10          1           0       -3.421822    0.014961    0.000000
     11          6           0        1.135767   -0.571261    0.000000
     12          6           0        1.017465   -1.938228    0.000000
     13          6           0       -0.263729   -2.531650    0.000000
     14          6           0       -1.391307   -1.750332    0.000000
     15          1           0        1.906755   -2.554948    0.000000
     16          1           0       -0.342913   -3.612445    0.000000
     17          1           0       -2.376078   -2.204395    0.000000
     18         17           0        2.753696    0.121997    0.000000
 ---------------------------------------------------------------------

 SCF Done:  E(RHF) =  -842.779788258     A.U. after    2 cycles

 The electronic state is 1-A'.
 Alpha  occ. eigenvalues -- -105.57262 -11.31398 -11.26686 -11.26345 -11.25945
 Alpha  occ. eigenvalues --  -11.25715 -11.25530 -11.25381 -11.25291 -11.25226
 Alpha  occ. eigenvalues --  -11.25106 -10.62057  -7.79021  -7.78639  -7.78611
 Alpha  occ. eigenvalues --   -1.19986  -1.13569  -1.10013  -1.03193  -1.02460
 Alpha  occ. eigenvalues --   -0.97796  -0.87167  -0.86375  -0.81494  -0.73194
 Alpha  occ. eigenvalues --   -0.71737  -0.70627  -0.64373  -0.63102  -0.61810
 Alpha  occ. eigenvalues --   -0.60130  -0.58886  -0.56892  -0.54907  -0.51992
 Alpha  occ. eigenvalues --   -0.50351  -0.50093  -0.46518  -0.45964  -0.39357
 Alpha  occ. eigenvalues --   -0.34168  -0.30623
 Alpha virt. eigenvalues --    0.03155   0.03204   0.03805   0.04633   0.05167
 Alpha virt. eigenvalues --    0.05684   0.07039   0.07974   0.08368   0.09755
 Alpha virt. eigenvalues --    0.09896   0.11444   0.11847   0.11977   0.12354

 Mulliken charges:
               1
     1  C   -0.028255
     2  C   -0.147329
     3  C    0.146411
     4  C   -0.111477
     5  C    0.679358
     6  C    2.013560
     7  H   -0.237750
     8  H   -0.227888
     9  H   -0.251304
    10  H   -0.312502
    11  C   -0.218014
    12  C   -0.158822
    13  C    0.044377
    14  C   -0.056741
    15  H   -0.202877
    16  H   -0.232047
    17  H   -0.300432
    18  Cl  -0.398269
 Sum of Mulliken charges =  -0.00000

 Dipole moment (field-independent basis, Debye):
    X=             -1.9236    Y=             -0.5080    Z=              0.0000  Tot=              1.9895

 Test job not archived.
 1\1\GINC-SE088\SP\RHF\Aug-CC-pVDZ\C10H7Cl1\OHZDE\08-Apr-2025\0\\#t hf
 aug-cc-pvdz iop(5/13=1,5/36=2,99/5=2) pseudo=read geom=check guess=(re
 ad,tcheck) scf=(maxcycle=1)\\title\\0,1\C,0,-2.339257,1.858357,0.\C,0,
 -1.06477,2.468148,0.\C,0,0.076387,1.70343,0.\C,0,-2.446631,0.490124,0.
 \C,0,-1.292182,-0.335456,0.\C,0,0.,0.287204,0.\H,0,-3.230617,2.47523,0
 .\H,0,-0.987941,3.549407,0.\H,0,1.049314,2.17621,0.\H,0,-3.421822,0.01
 496,0.\C,0,1.135767,-0.571261,0.\C,0,1.017466,-1.938228,0.\C,0,-0.2637
 28,-2.53165,0.\C,0,-1.391306,-1.750333,0.\H,0,1.906756,-2.554947,0.\H,

 Normal termination of Gaussian 16 at Tue Apr  8 22:51:51 2025.
