 Gaussian 16, Revision C.01,

 ----------------------------------------------------------------------
 #t hf aug-cc-pvdz symm=none int=(grid=ultrafine) guess=(read,tcheck) s
 table=(opt,rrhf)
 ----------------------------------------------------------------------
 -----
 title
 -----
 Symbolic Z-matrix:
 Charge =  0 Multiplicity = 1

 SCF Done:  E(RHF) =  -764.320630008     A.U. after   14 cycles
 Normal termination of Gaussian 16 at Tue Apr  8 23:11:47 2025.
 Gaussian 16:  ES64L-G16RevC.01  3-Jul-2019

 ----------------------------------------------------------------------
 #t hf aug-cc-pvdz iop(5/13=1,5/36=2,99/5=2) pseudo=read geom=check gue
 ss=(read,tcheck) scf=(maxcycle=1)
 ----------------------------------------------------------------------
 -----
 title
 -----
 Structure from the checkpoint file:  "BDE49_expt_1882_mol1.chk"
 Charge =  0 Multiplicity = 1

                         Standard orientation:
 ---------------------------------------------------------------------
 Center     Atomic      Atomic             Coordinates (Angstroms)
 Number     Number       Type             X           Y           Z
 ---------------------------------------------------------------------
      1          8           0        0.713441   -0.106929    1.618598
      2          8           0       -0.713368    0.105862    1.618633
      3          6           0       -1.095848    1.027651    0.659695
      4          6           0        1.095950   -1.028221    0.659194
      5          8           0        0.344055   -1.573431   -0.090441
      6          8           0       -0.343921    1.573304   -0.089587
      7          6           0        2.600234   -1.165630    0.713658
      8          6           0        3.244025   -0.476382   -0.494284
      9          1           0        2.820143   -2.237278    0.696967
     10          1           0        2.986896   -0.744607    1.644239
     11          6           0        3.248611    1.075942   -0.571019
     12          6           0        4.794560   -0.445927   -0.586888
     13          1           0        2.819112   -0.897672   -1.409595
     14          6           0        4.686344    0.996860   -1.151831
     15          1           0        5.278960   -1.207284   -1.201693
     16          1           0        5.253445   -0.453327    0.406318
     17          1           0        5.414348    1.730222   -0.801352
     18          1           0        4.683285    1.003198   -2.244237
     19          1           0        3.241427    1.520322    0.428210
     20          1           0        2.467760    1.553304   -1.162698
     21          6           0       -2.600115    1.165182    0.714314
     22          6           0       -3.244035    0.476706   -0.494000
     23          1           0       -2.819918    2.236862    0.698259
     24          1           0       -2.986776    0.743655    1.644667
     25          6           0       -3.248791   -1.075572   -0.571641
     26          6           0       -4.794578    0.446469   -0.586545
     27          1           0       -2.819122    0.898486   -1.409085
     28          6           0       -4.686543   -0.995997   -1.152339
     29          1           0       -5.278927    1.208239   -1.200880
     30          1           0       -5.253413    0.453336    0.406688
     31          1           0       -5.414608   -1.729486   -0.802255
     32          1           0       -4.683536   -1.001696   -2.244749
     33          1           0       -3.241606   -1.520537    0.427328
     34          1           0       -2.468018   -1.552671   -1.163635
 ---------------------------------------------------------------------

 SCF Done:  E(RHF) =  -765.101920688     A.U. after    2 cycles

 The electronic state is 1-A.
 Alpha  occ. eigenvalues --  -20.66239 -20.66239 -20.55049 -20.55047 -11.40326
 Alpha  occ. eigenvalues --  -11.40324 -11.25923 -11.25919 -11.24563 -11.24563
 Alpha  occ. eigenvalues --  -11.23335 -11.23334 -11.22951 -11.22949 -11.22557
 Alpha  occ. eigenvalues --  -11.22556  -1.65243  -1.50877  -1.48841  -1.36249
 Alpha  occ. eigenvalues --   -1.14435  -1.14272  -1.04509  -1.02625  -0.90229
 Alpha  occ. eigenvalues --   -0.90126  -0.89359  -0.87156  -0.83276  -0.77989
 Alpha  occ. eigenvalues --   -0.76017  -0.75752  -0.72271  -0.71896  -0.70665
 Alpha  occ. eigenvalues --   -0.66655  -0.66467  -0.65445  -0.65036  -0.64370
 Alpha  occ. eigenvalues --   -0.61527  -0.61338  -0.60211  -0.57309  -0.55489
 Alpha  occ. eigenvalues --   -0.54729  -0.54712  -0.53212  -0.52894  -0.49863
 Alpha  occ. eigenvalues --   -0.49712  -0.49303  -0.49075  -0.46707  -0.46509
 Alpha  occ. eigenvalues --   -0.46169  -0.45687  -0.44540  -0.44536  -0.43823
 Alpha  occ. eigenvalues --   -0.43363
 Alpha virt. eigenvalues --    0.03506   0.03562   0.03869   0.03901   0.04195
 Alpha virt. eigenvalues --    0.04281   0.04788   0.06043   0.06049   0.06567
 Alpha virt. eigenvalues --    0.06850   0.06894   0.07334   0.07367   0.08935

 Mulliken charges:
               1
     1  O   -0.943559
     2  O   -0.943544
     3  C    2.833858
     4  C    2.833770
     5  O   -1.410839
     6  O   -1.410874
     7  C   -0.961485
     8  C   -0.218781
     9  H    0.314094
    10  H    0.185608
    11  C    0.142695
    12  C    0.019341
    13  H   -0.047845
    14  C   -0.118957
    15  H    0.037098
    16  H    0.055822
    17  H    0.018477
    18  H    0.045114
    19  H    0.022712
    20  H    0.026738
    21  C   -0.961549
    22  C   -0.218808
    23  H    0.314097
    24  H    0.185616
    25  C    0.142678
    26  C    0.019325
    27  H   -0.047832
    28  C   -0.118934
    29  H    0.037102
    30  H    0.055826
    31  H    0.018473
    32  H    0.045112
    33  H    0.022726
    34  H    0.026726
 Sum of Mulliken charges =  -0.00000

 Dipole moment (field-independent basis, Debye):
    X=             -0.0002    Y=             -0.0001    Z=              0.7900  Tot=              0.7900

 Test job not archived.
 1\1\GINC-SE143\SP\RHF\Aug-CC-pVDZ\C12H18O4\OHZDE\08-Apr-2025\0\\#t hf
 aug-cc-pvdz iop(5/13=1,5/36=2,99/5=2) pseudo=read geom=check guess=(re
 ad,tcheck) scf=(maxcycle=1)\\title\\0,1\O,0,-0.713441,0.106929,1.61859
 8\O,0,0.713368,-0.105862,1.618633\C,0,1.095848,-1.027651,0.659695\C,0,
 -1.09595,1.028221,0.659194\O,0,-0.344055,1.573431,-0.090441\O,0,0.3439
 21,-1.573304,-0.089587\C,0,-2.600234,1.16563,0.713658\C,0,-3.244025,0.
 476382,-0.494284\H,0,-2.820143,2.237278,0.696967\H,0,-2.986896,0.74460
 7,1.644239\C,0,-3.248611,-1.075942,-0.571019\C,0,-4.79456,0.445927,-0.

 Normal termination of Gaussian 16 at Tue Apr  8 23:12:32 2025.
