 Gaussian 16, Revision C.01,

 ----------------------------------------------------------------------
 #t hf aug-cc-pvdz symm=none int=(grid=ultrafine) guess=(read,tcheck) s
 table=(opt,rrhf)
 ----------------------------------------------------------------------
 -----
 title
 -----
 Symbolic Z-matrix:
 Charge =  0 Multiplicity = 1

 SCF Done:  E(RHF) =  -800.458936596     A.U. after   16 cycles

 1\1\GINC-SE250\Stability\RHF\Aug-CC-pVDZ\C12H9P1\OHZDE\08-Apr-2025\0\\
 #t hf aug-cc-pvdz symm=none int=(grid=ultrafine) guess=(read,tcheck) s
 table=(opt,rrhf)\\title\\0,1\C,0,-0.919185,-0.00243,2.674367\C,0,0.196
 858,0.012402,3.508609\C,0,1.482192,0.008767,2.961785\C,0,1.66419,-0.00
 403,1.58266\C,0,0.551908,-0.003163,0.734956\C,0,-0.744652,0.002313,1.2
 92432\P,0,-2.04493,-0.096003,0.\C,0,-0.744652,0.002313,-1.292432\H,0,2
 .345679,0.011369,3.617443\H,0,0.066935,0.01863,4.584876\H,0,2.667556,-
 0.011966,1.171621\C,0,0.551908,-0.003163,-0.734956\H,0,-1.915487,-0.01

 Normal termination of Gaussian 16 at Tue Apr  8 23:37:05 2025.
 Gaussian 16:  ES64L-G16RevC.01  3-Jul-2019

 ----------------------------------------------------------------------
 #t hf aug-cc-pvdz iop(5/13=1,5/36=2,99/5=2) pseudo=read geom=check gue
 ss=(read,tcheck) scf=(maxcycle=1)
 ----------------------------------------------------------------------
 -----
 title
 -----
 Structure from the checkpoint file:  "BDE49_nonexpt_1446_mol1.chk"
 Charge =  0 Multiplicity = 1

                         Standard orientation:
 ---------------------------------------------------------------------
 Center     Atomic      Atomic             Coordinates (Angstroms)
 Number     Number       Type             X           Y           Z
 ---------------------------------------------------------------------
      1          6           0       -0.919185   -0.002430    2.674367
      2          6           0        0.196858    0.012402    3.508609
      3          6           0        1.482192    0.008767    2.961785
      4          6           0        1.664190   -0.004030    1.582660
      5          6           0        0.551908   -0.003163    0.734956
      6          6           0       -0.744652    0.002313    1.292432
      7         15           0       -2.044930   -0.096003   -0.000000
      8          6           0       -0.744652    0.002313   -1.292432
      9          1           0        2.345679    0.011369    3.617443
     10          1           0        0.066935    0.018630    4.584876
     11          1           0        2.667556   -0.011966    1.171621
     12          6           0        0.551908   -0.003163   -0.734956
     13          1           0       -1.915487   -0.017223    3.103251
     14          6           0       -0.919185   -0.002430   -2.674367
     15          6           0        0.196858    0.012402   -3.508609
     16          6           0        1.482192    0.008767   -2.961785
     17          6           0        1.664190   -0.004030   -1.582660
     18          1           0       -1.915487   -0.017223   -3.103251
     19          1           0        2.667556   -0.011966   -1.171621
     20          1           0        0.066935    0.018630   -4.584876
     21          1           0        2.345679    0.011369   -3.617443
     22          1           0       -2.431149    1.272109   -0.000000
 ---------------------------------------------------------------------

 SCF Done:  E(RHF) =  -800.968709659     A.U. after    2 cycles

 The electronic state is 1-A'.
 Alpha  occ. eigenvalues --  -84.27831 -11.25707 -11.25667 -11.25200 -11.25192
 Alpha  occ. eigenvalues --  -11.25073 -11.25064 -11.25027 -11.25008 -11.24914
 Alpha  occ. eigenvalues --  -11.24896 -11.24772 -11.24768  -6.74934  -4.28078
 Alpha  occ. eigenvalues --   -4.27913  -4.26890  -1.18787  -1.14820  -1.07108
 Alpha  occ. eigenvalues --   -1.03974  -1.01801  -0.98565  -0.90327  -0.87276
 Alpha  occ. eigenvalues --   -0.81341  -0.80506  -0.79482  -0.71636  -0.68708
 Alpha  occ. eigenvalues --   -0.67287  -0.64428  -0.62411  -0.62128  -0.60715
 Alpha  occ. eigenvalues --   -0.57726  -0.56885  -0.55085  -0.52133  -0.50771
 Alpha  occ. eigenvalues --   -0.50447  -0.48599  -0.46099  -0.39996  -0.38411
 Alpha  occ. eigenvalues --   -0.35416  -0.31357  -0.30592
 Alpha virt. eigenvalues --    0.03168   0.03242   0.03613   0.04085   0.04504
 Alpha virt. eigenvalues --    0.05882   0.06126   0.06507   0.06770   0.08102
 Alpha virt. eigenvalues --    0.08897   0.09428   0.10071   0.10630   0.11057

 Mulliken charges:
               1
     1  C    0.150328
     2  C    0.221167
     3  C   -0.321660
     4  C    0.721479
     5  C   -0.178228
     6  C   -0.183082
     7  P    0.710625
     8  C   -0.183082
     9  H   -0.260767
    10  H   -0.242289
    11  H   -0.288937
    12  C   -0.178228
    13  H   -0.259102
    14  C    0.150328
    15  C    0.221167
    16  C   -0.321660
    17  C    0.721479
    18  H   -0.259102
    19  H   -0.288937
    20  H   -0.242289
    21  H   -0.260767
    22  H    0.571558
 Sum of Mulliken charges =   0.00000

 Dipole moment (field-independent basis, Debye):
    X=              0.6912    Y=              0.3822    Z=             -0.0000  Tot=              0.7898

 Test job not archived.
 1\1\GINC-SE250\SP\RHF\Aug-CC-pVDZ\C12H9P1\OHZDE\08-Apr-2025\0\\#t hf a
 ug-cc-pvdz iop(5/13=1,5/36=2,99/5=2) pseudo=read geom=check guess=(rea
 d,tcheck) scf=(maxcycle=1)\\title\\0,1\C,0,-0.919185,-0.00243,2.674367
 \C,0,0.196858,0.012402,3.508609\C,0,1.482192,0.008767,2.961785\C,0,1.6
 6419,-0.00403,1.58266\C,0,0.551908,-0.003163,0.734956\C,0,-0.744652,0.
 002313,1.292432\P,0,-2.04493,-0.096003,0.\C,0,-0.744652,0.002313,-1.29
 2432\H,0,2.345679,0.011369,3.617443\H,0,0.066935,0.01863,4.584876\H,0,
 2.667556,-0.011966,1.171621\C,0,0.551908,-0.003163,-0.734956\H,0,-1.91

 Normal termination of Gaussian 16 at Tue Apr  8 23:37:16 2025.
