 Gaussian 16, Revision C.01,

 ----------------------------------------------------------------------
 #t hf aug-cc-pvdz symm=none int=(grid=ultrafine) guess=(read,tcheck) s
 table=(opt,rrhf)
 ----------------------------------------------------------------------
 -----
 title
 -----
 Symbolic Z-matrix:
 Charge =  0 Multiplicity = 1

 SCF Done:  E(RHF) =  -886.752674742     A.U. after   14 cycles
 Normal termination of Gaussian 16 at Tue Apr  8 23:36:22 2025.
 Gaussian 16:  ES64L-G16RevC.01  3-Jul-2019

 ----------------------------------------------------------------------
 #t hf aug-cc-pvdz iop(5/13=1,5/36=2,99/5=2) pseudo=read geom=check gue
 ss=(read,tcheck) scf=(maxcycle=1)
 ----------------------------------------------------------------------
 -----
 title
 -----
 Structure from the checkpoint file:  "BDE49_nonexpt_1518_mol1.chk"
 Charge =  0 Multiplicity = 1

                         Standard orientation:
 ---------------------------------------------------------------------
 Center     Atomic      Atomic             Coordinates (Angstroms)
 Number     Number       Type             X           Y           Z
 ---------------------------------------------------------------------
      1          7           0       -1.041777   -0.470254    0.513816
      2          9           0       -2.369777   -0.057968    0.202793
      3          9           0       -1.012525   -1.794233    0.052022
      4         15           0       -0.113519    0.460889   -0.774907
      5          6           0       -0.316830    2.100004    0.017746
      6          1           0       -1.315914    2.467584   -0.218220
      7          1           0        0.421244    2.774995   -0.420593
      8          1           0       -0.178995    2.047151    1.097337
      9          7           0        1.558557    0.195412   -0.191368
     10          9           0        1.877292   -1.137006   -0.491846
     11          9           0        1.622784    0.224853    1.214972
 ---------------------------------------------------------------------

 SCF Done:  E(RHF) =  -887.299330546     A.U. after    2 cycles

 The electronic state is 1-A.
 Alpha  occ. eigenvalues --  -84.38670 -26.52215 -26.52194 -26.52084 -26.51743
 Alpha  occ. eigenvalues --  -15.72268 -15.72071 -11.28369  -6.85231  -4.37978
 Alpha  occ. eigenvalues --   -4.37512  -4.36774  -1.67859  -1.67311  -1.59436
 Alpha  occ. eigenvalues --   -1.59097  -1.17174  -1.10549  -1.02025  -0.87061
 Alpha  occ. eigenvalues --   -0.79416  -0.77752  -0.77591  -0.76671  -0.75073
 Alpha  occ. eigenvalues --   -0.69243  -0.67520  -0.66818  -0.63706  -0.63166
 Alpha  occ. eigenvalues --   -0.62597  -0.61688  -0.60346  -0.57604  -0.52436
 Alpha  occ. eigenvalues --   -0.50319  -0.41740
 Alpha virt. eigenvalues --    0.03302   0.04819   0.05411   0.06903   0.07469
 Alpha virt. eigenvalues --    0.08791   0.10702   0.11923   0.12759   0.13787
 Alpha virt. eigenvalues --    0.14381   0.15039   0.16311   0.17013   0.17545

 Mulliken charges:
               1
     1  N    0.822536
     2  F   -0.592761
     3  F   -0.616064
     4  P    1.145409
     5  C   -0.945776
     6  H    0.169514
     7  H    0.155625
     8  H    0.165436
     9  N    0.936806
    10  F   -0.603684
    11  F   -0.637041
 Sum of Mulliken charges =  -0.00000

 Dipole moment (field-independent basis, Debye):
    X=             -0.6982    Y=              3.2234    Z=             -1.4078  Tot=              3.5861

 Test job not archived.
 1\1\GINC-SE454\SP\RHF\Aug-CC-pVDZ\C1H3F4N2P1\OHZDE\08-Apr-2025\0\\#t h
 f aug-cc-pvdz iop(5/13=1,5/36=2,99/5=2) pseudo=read geom=check guess=(
 read,tcheck) scf=(maxcycle=1)\\title\\0,1\N,0,-1.041777,-0.470254,0.51
 3816\F,0,-2.369777,-0.057967,0.202793\F,0,-1.012526,-1.794233,0.052022
 \P,0,-0.113519,0.460889,-0.774907\C,0,-0.316829,2.100004,0.017746\H,0,
 -1.315913,2.467584,-0.21822\H,0,0.421245,2.774995,-0.420593\H,0,-0.178
 994,2.047151,1.097337\N,0,1.558557,0.195411,-0.191368\F,0,1.877292,-1.
 137007,-0.491846\F,0,1.622784,0.224852,1.214972\\Version=ES64L-G16RevC

 Normal termination of Gaussian 16 at Tue Apr  8 23:36:26 2025.
