 Gaussian 16, Revision C.01,

 ----------------------------------------------------------------------
 #t hf aug-cc-pvdz symm=none int=(grid=ultrafine) guess=(read,tcheck) s
 table=(opt,rrhf)
 ----------------------------------------------------------------------
 -----
 title
 -----
 Symbolic Z-matrix:
 Charge =  0 Multiplicity = 1

 SCF Done:  E(RHF) =  -705.143019457     A.U. after   15 cycles
 Normal termination of Gaussian 16 at Tue Apr  8 23:38:16 2025.
 Gaussian 16:  ES64L-G16RevC.01  3-Jul-2019

 ----------------------------------------------------------------------
 #t hf aug-cc-pvdz iop(5/13=1,5/36=2,99/5=2) pseudo=read geom=check gue
 ss=(read,tcheck) scf=(maxcycle=1)
 ----------------------------------------------------------------------
 -----
 title
 -----
 Structure from the checkpoint file:  "BDE49_nonexpt_1526_mol1.chk"
 Charge =  0 Multiplicity = 1

                         Standard orientation:
 ---------------------------------------------------------------------
 Center     Atomic      Atomic             Coordinates (Angstroms)
 Number     Number       Type             X           Y           Z
 ---------------------------------------------------------------------
      1          7           0       -2.235428   -0.152461    0.134618
      2          6           0       -2.017778   -1.087432    1.231497
      3          6           0        0.555410   -0.024476   -0.504764
      4          6           0       -2.890617    1.086466    0.542982
      5          1           0       -3.060446    1.719364   -0.329543
      6          1           0       -3.862619    0.858402    0.994779
      7          1           0       -2.306241    1.661300    1.278710
      8          1           0       -1.694665   -2.054118    0.840422
      9          1           0       -2.956656   -1.238752    1.775356
     10          1           0       -1.259559   -0.739273    1.949105
     11          6           0        1.107214    1.225457   -0.186654
     12          6           0        1.340710   -1.167544   -0.302876
     13          6           0        2.634651   -1.066263    0.204759
     14          6           0        3.161157    0.181736    0.530952
     15          6           0        2.393518    1.328955    0.335998
     16          1           0        2.802145    2.303773    0.578890
     17          1           0        0.527017    2.126400   -0.361233
     18          1           0        3.229758   -1.961443    0.349579
     19          1           0        4.166680    0.260963    0.928894
     20          1           0        0.939406   -2.145559   -0.547533
     21         15           0       -1.162987   -0.074769   -1.201552
     22          1           0       -1.137606   -1.463701   -1.487840
 ---------------------------------------------------------------------

 SCF Done:  E(RHF) =  -705.569113018     A.U. after    2 cycles

 The electronic state is 1-A.
 Alpha  occ. eigenvalues --  -84.28699 -15.48983 -11.25830 -11.25747 -11.24838
 Alpha  occ. eigenvalues --  -11.24812 -11.24762 -11.24604 -11.24577 -11.24273
 Alpha  occ. eigenvalues --   -6.75362  -4.28478  -4.28058  -4.27536  -1.20927
 Alpha  occ. eigenvalues --   -1.15569  -1.02540  -1.01940  -0.96267  -0.91260
 Alpha  occ. eigenvalues --   -0.83708  -0.83626  -0.77668  -0.70861  -0.65130
 Alpha  occ. eigenvalues --   -0.64830  -0.63918  -0.63395  -0.62252  -0.60214
 Alpha  occ. eigenvalues --   -0.56003  -0.55292  -0.53097  -0.51949  -0.50807
 Alpha  occ. eigenvalues --   -0.50494  -0.48159  -0.39153  -0.36034  -0.34900
 Alpha  occ. eigenvalues --   -0.32300
 Alpha virt. eigenvalues --    0.03416   0.03642   0.03788   0.04619   0.05113
 Alpha virt. eigenvalues --    0.05548   0.05962   0.06493   0.06820   0.07372
 Alpha virt. eigenvalues --    0.08119   0.09034   0.09444   0.10173   0.11125

 Mulliken charges:
               1
     1  N    0.428490
     2  C   -0.519638
     3  C    0.522683
     4  C   -0.536521
     5  H    0.073794
     6  H    0.092226
     7  H    0.196354
     8  H    0.031626
     9  H    0.070363
    10  H    0.195584
    11  C   -0.248167
    12  C   -0.033046
    13  C    0.302080
    14  C    0.229177
    15  C    0.359102
    16  H   -0.218846
    17  H   -0.304118
    18  H   -0.224140
    19  H   -0.210725
    20  H   -0.336130
    21  P   -0.108884
    22  H    0.238735
 Sum of Mulliken charges =  -0.00000

 Dipole moment (field-independent basis, Debye):
    X=              0.6599    Y=             -0.1122    Z=              1.3896  Tot=              1.5424

 Test job not archived.
 1\1\GINC-SE073\SP\RHF\Aug-CC-pVDZ\C8H12N1P1\OHZDE\08-Apr-2025\0\\#t hf
  aug-cc-pvdz iop(5/13=1,5/36=2,99/5=2) pseudo=read geom=check guess=(r
 ead,tcheck) scf=(maxcycle=1)\\title\\0,1\N,0,-2.235428,-0.152461,0.134
 618\C,0,-2.017778,-1.087432,1.231497\C,0,0.55541,-0.024476,-0.504764\C
 ,0,-2.890617,1.086466,0.542982\H,0,-3.060446,1.719364,-0.329543\H,0,-3
 .862619,0.858402,0.994779\H,0,-2.306241,1.6613,1.27871\H,0,-1.694665,-
 2.054118,0.840422\H,0,-2.956656,-1.238752,1.775356\H,0,-1.259559,-0.73
 9273,1.949105\C,0,1.107214,1.225457,-0.186654\C,0,1.34071,-1.167544,-0

 Normal termination of Gaussian 16 at Tue Apr  8 23:38:30 2025.
