 Gaussian 16, Revision C.01,

 ----------------------------------------------------------------------
 #t hf aug-cc-pvdz symm=none int=(grid=ultrafine) guess=(read,tcheck) s
 table=(opt,rrhf)
 ----------------------------------------------------------------------
 -----
 title
 -----
 Symbolic Z-matrix:
 Charge =  0 Multiplicity = 1

 SCF Done:  E(RHF) =  -420.314098212     A.U. after   17 cycles
 Normal termination of Gaussian 16 at Tue Apr  8 23:21:07 2025.
 Gaussian 16:  ES64L-G16RevC.01  3-Jul-2019

 ----------------------------------------------------------------------
 #t hf aug-cc-pvdz iop(5/13=1,5/36=2,99/5=2) pseudo=read geom=check gue
 ss=(read,tcheck) scf=(maxcycle=1)
 ----------------------------------------------------------------------
 -----
 title
 -----
 Structure from the checkpoint file:  "BDE49_nonexpt_1175_mol1.chk"
 Charge =  0 Multiplicity = 1

                         Standard orientation:
 ---------------------------------------------------------------------
 Center     Atomic      Atomic             Coordinates (Angstroms)
 Number     Number       Type             X           Y           Z
 ---------------------------------------------------------------------
      1          9           0        2.572031    0.194825    0.620962
      2          8           0        1.792953   -0.270240   -0.573124
      3          6           0        0.479405   -0.102061   -0.256985
      4          6           0       -0.107036    1.164356   -0.214512
      5          6           0       -0.308048   -1.239000   -0.056785
      6          7           0       -1.624377   -1.175115    0.143015
      7          6           0       -1.472508    1.231444    0.013791
      8          6           0       -2.182063    0.038844    0.183691
      9          1           0        0.504923    2.046819   -0.355218
     10          1           0       -1.987759    2.183250    0.057903
     11          1           0        0.155276   -2.220205   -0.090287
     12          1           0       -3.252208    0.062932    0.367628
 ---------------------------------------------------------------------

 SCF Done:  E(RHF) =  -420.724680342     A.U. after    2 cycles

 The electronic state is 1-A.
 Alpha  occ. eigenvalues --  -26.50187 -20.69618 -15.52897 -11.32546 -11.30958
 Alpha  occ. eigenvalues --  -11.30862 -11.29432 -11.27361  -1.64020  -1.40442
 Alpha  occ. eigenvalues --   -1.28221  -1.11282  -1.05082  -0.90861  -0.89078
 Alpha  occ. eigenvalues --   -0.76651  -0.74644  -0.72685  -0.68115  -0.66131
 Alpha  occ. eigenvalues --   -0.65016  -0.62502  -0.59757  -0.58399  -0.57078
 Alpha  occ. eigenvalues --   -0.53388  -0.47199  -0.42678  -0.37936
 Alpha virt. eigenvalues --    0.02907   0.03798   0.04505   0.04718   0.05438
 Alpha virt. eigenvalues --    0.07102   0.09007   0.10072   0.10500   0.11497
 Alpha virt. eigenvalues --    0.12088   0.12725   0.13085   0.14264   0.14372

 Mulliken charges:
               1
     1  F   -0.393039
     2  O   -1.089869
     3  C    1.580737
     4  C    0.368660
     5  C   -0.567702
     6  N    0.870287
     7  C    0.682855
     8  C   -0.810701
     9  H   -0.172640
    10  H   -0.161966
    11  H   -0.148120
    12  H   -0.158503
 Sum of Mulliken charges =  -0.00000

 Dipole moment (field-independent basis, Debye):
    X=             -1.6674    Y=              2.3146    Z=             -0.4719  Tot=              2.8914

 Test job not archived.
 1\1\GINC-SE461\SP\RHF\Aug-CC-pVDZ\C5H4F1N1O1\OHZDE\08-Apr-2025\0\\#t h
 f aug-cc-pvdz iop(5/13=1,5/36=2,99/5=2) pseudo=read geom=check guess=(
 read,tcheck) scf=(maxcycle=1)\\title\\0,1\F,0,2.572031,0.194825,0.6209
 62\O,0,1.792953,-0.27024,-0.573124\C,0,0.479405,-0.102061,-0.256985\C,
 0,-0.107036,1.164356,-0.214512\C,0,-0.308048,-1.239,-0.056785\N,0,-1.6
 24377,-1.175115,0.143015\C,0,-1.472508,1.231444,0.013791\C,0,-2.182063
 ,0.038844,0.183691\H,0,0.504923,2.046819,-0.355218\H,0,-1.987759,2.183
 25,0.057903\H,0,0.155276,-2.220205,-0.090287\H,0,-3.252208,0.062932,0.

 Normal termination of Gaussian 16 at Tue Apr  8 23:21:12 2025.
