 Gaussian 16, Revision C.01,

 ----------------------------------------------------------------------
 #t hf aug-cc-pvdz symm=none int=(grid=ultrafine) guess=(read,tcheck) s
 table=opt
 ----------------------------------------------------------------------
 -----
 title
 -----
 Symbolic Z-matrix:
 Charge =  0 Multiplicity = 2

 SCF Done:  E(UHF) =  -513.718825014     A.U. after   15 cycles
 Normal termination of Gaussian 16 at Wed Apr  9 00:30:58 2025.
 Gaussian 16:  ES64L-G16RevC.01  3-Jul-2019

 ----------------------------------------------------------------------
 #t hf aug-cc-pvdz iop(5/13=1,5/36=2,99/5=2) pseudo=read geom=check gue
 ss=(read,tcheck) scf=(maxcycle=1)
 ----------------------------------------------------------------------
 -----
 title
 -----
 Structure from the checkpoint file:  "BDE49_nonexpt_360_mol2.chk"
 Charge =  0 Multiplicity = 2

                         Standard orientation:
 ---------------------------------------------------------------------
 Center     Atomic      Atomic             Coordinates (Angstroms)
 Number     Number       Type             X           Y           Z
 ---------------------------------------------------------------------
      1          9           0       -2.221900    0.400667   -0.000008
      2          5           0       -1.275799   -0.491907    0.000008
      3         14           0        0.729895   -0.490213    0.000002
      4          9           0        1.545799    0.910107    0.000001
      5          1           0        1.122688   -1.237228    1.213916
      6          1           0        1.122683   -1.237225   -1.213915
 ---------------------------------------------------------------------

 SCF Done:  E(UHF) =  -513.951130275     A.U. after    2 cycles

 The electronic state is 2-A.
 Alpha  occ. eigenvalues --  -69.58948 -26.51009 -26.45480  -7.70300  -6.25626
 Alpha  occ. eigenvalues --   -4.00975  -4.00913  -4.00797  -1.64343  -1.56496
 Alpha  occ. eigenvalues --   -0.82330  -0.78120  -0.71804  -0.68842  -0.65501
 Alpha  occ. eigenvalues --   -0.64689  -0.64659  -0.52260  -0.50109  -0.34182
 Alpha virt. eigenvalues --    0.03257   0.03842   0.04331   0.05492   0.06977
 Alpha virt. eigenvalues --    0.07418   0.07872   0.08296   0.09677   0.12232
 Alpha virt. eigenvalues --    0.14980   0.16834   0.19300   0.22116   0.22536

  Beta  occ. eigenvalues --  -69.58835 -26.50654 -26.45314  -7.68721  -6.25427
  Beta  occ. eigenvalues --   -4.00950  -4.00694  -4.00575  -1.63437  -1.56026
  Beta  occ. eigenvalues --   -0.80348  -0.77339  -0.68768  -0.68452  -0.64548
  Beta  occ. eigenvalues --   -0.64155  -0.63774  -0.50175  -0.48771
  Beta virt. eigenvalues --    0.02958   0.04096   0.04143   0.04501   0.07455
  Beta virt. eigenvalues --    0.07460   0.07967   0.08577   0.09407   0.10369
  Beta virt. eigenvalues --    0.12865   0.16893   0.17215   0.19938   0.23881

 Mulliken charges and spin densities:
               1          2
     1  F   -0.585669  -0.019434
     2  B    0.225246   0.957503
     3  Si   1.492447   0.075616
     4  F   -0.797564   0.000119
     5  H   -0.167230  -0.006902
     6  H   -0.167230  -0.006902
 Sum of Mulliken charges =  -0.00000   1.00000

 Dipole moment (field-independent basis, Debye):
    X=             -0.3484    Y=             -0.8689    Z=              0.0000  Tot=              0.9361
                          Isotropic Fermi Contact Couplings
        Atom                 a.u.       MegaHertz       Gauss      10(-4) cm-1
     1  F(19)              0.05713     240.38027      85.77366      80.18223
     2  B(11)              0.22376     320.95987     114.52646     107.06069
     3  Si(29)             0.21739    -193.19628     -68.93724     -64.44334
     4  F(19)              0.03557     149.65168      53.39944      49.91843
     5  H(1)              -0.00249     -11.11399      -3.96575      -3.70723
     6  H(1)              -0.00249     -11.11360      -3.96561      -3.70710
 --------------------------------------------------------
       Center         ----  Spin Dipole Couplings  ----

 Normal termination of Gaussian 16 at Wed Apr  9 00:31:00 2025.
