 Gaussian 16, Revision C.01,

 ----------------------------------------------------------------------
 #t hf aug-cc-pvdz symm=none int=(grid=ultrafine) guess=(read,tcheck) s
 table=(opt,rrhf)
 ----------------------------------------------------------------------
 -----
 title
 -----
 Symbolic Z-matrix:
 Charge =  0 Multiplicity = 1

 SCF Done:  E(RHF) =  -405.492862341     A.U. after   17 cycles
 Normal termination of Gaussian 16 at Tue Apr  8 23:21:57 2025.
 Gaussian 16:  ES64L-G16RevC.01  3-Jul-2019

 ----------------------------------------------------------------------
 #t hf aug-cc-pvdz iop(5/13=1,5/36=2,99/5=2) pseudo=read geom=check gue
 ss=(read,tcheck) scf=(maxcycle=1)
 ----------------------------------------------------------------------
 -----
 title
 -----
 Structure from the checkpoint file:  "BDE49_nonexpt_1185_mol1.chk"
 Charge =  0 Multiplicity = 1

                         Standard orientation:
 ---------------------------------------------------------------------
 Center     Atomic      Atomic             Coordinates (Angstroms)
 Number     Number       Type             X           Y           Z
 ---------------------------------------------------------------------
      1          9           0       -2.518816    0.499741   -0.437331
      2          6           0       -0.306086    0.097204    0.263557
      3          6           0       -1.737824   -0.308963    0.387983
      4          1           0       -2.088999   -0.164908    1.414030
      5          1           0       -1.867358   -1.351506    0.092522
      6          7           0        0.552746   -0.766433   -0.102197
      7          8           0        1.793411   -0.631052   -0.242415
      8          9           0        2.295432    0.843298    0.077887
      9          1           0        0.013760    1.113061    0.473903
 ---------------------------------------------------------------------

 SCF Done:  E(RHF) =  -405.879734675     A.U. after    2 cycles

 The electronic state is 1-A.
 Alpha  occ. eigenvalues --  -26.47675 -26.47617 -20.76075 -15.64473 -11.36392
 Alpha  occ. eigenvalues --  -11.33906  -1.67248  -1.59588  -1.47810  -1.23167
 Alpha  occ. eigenvalues --   -1.01287  -0.87373  -0.80267  -0.75441  -0.74819
 Alpha  occ. eigenvalues --   -0.71492  -0.69566  -0.65758  -0.60162  -0.60013
 Alpha  occ. eigenvalues --   -0.56913  -0.55790  -0.50786  -0.46548
 Alpha virt. eigenvalues --    0.03155   0.04444   0.04791   0.06542   0.06868
 Alpha virt. eigenvalues --    0.09026   0.10788   0.12391   0.13382   0.14321
 Alpha virt. eigenvalues --    0.15354   0.16401   0.16870   0.18326   0.18755

 Mulliken charges:
               1
     1  F   -0.666855
     2  C   -0.403196
     3  C    0.464774
     4  H    0.178262
     5  H    0.138782
     6  N    1.353330
     7  O   -0.761278
     8  F   -0.353160
     9  H    0.049339
 Sum of Mulliken charges =  -0.00000

 Dipole moment (field-independent basis, Debye):
    X=             -2.0536    Y=             -0.5310    Z=              1.7105  Tot=              2.7249

 Test job not archived.
 1\1\GINC-SE184\SP\RHF\Aug-CC-pVDZ\C2H3F2N1O1\OHZDE\08-Apr-2025\0\\#t h
 f aug-cc-pvdz iop(5/13=1,5/36=2,99/5=2) pseudo=read geom=check guess=(
 read,tcheck) scf=(maxcycle=1)\\title\\0,1\F,0,-2.518816,0.499741,-0.43
 7331\C,0,-0.306086,0.097204,0.263557\C,0,-1.737824,-0.308963,0.387983\
 H,0,-2.088999,-0.164908,1.41403\H,0,-1.867358,-1.351506,0.092522\N,0,0
 .552746,-0.766433,-0.102197\O,0,1.793411,-0.631052,-0.242415\F,0,2.295
 432,0.843298,0.077887\H,0,0.01376,1.113061,0.473903\\Version=ES64L-G16
 RevC.01\State=1-A\HF=-405.8797347\RMSD=1.530e-02\Dipole=-0.8079418,-0.

 Normal termination of Gaussian 16 at Tue Apr  8 23:22:00 2025.
