 Gaussian 16, Revision C.01,

 ----------------------------------------------------------------------
 #t hf aug-cc-pvdz symm=none int=(grid=ultrafine) guess=(read,tcheck) s
 table=(opt,rrhf)
 ----------------------------------------------------------------------
 -----
 title
 -----
 Symbolic Z-matrix:
 Charge =  0 Multiplicity = 1

 SCF Done:  E(RHF) =  -276.964634002     A.U. after   11 cycles
 Normal termination of Gaussian 16 at Tue Apr  8 22:29:17 2025.
 Gaussian 16:  ES64L-G16RevC.01  3-Jul-2019

 ----------------------------------------------------------------------
 #t hf aug-cc-pvdz iop(5/13=1,5/36=2,99/5=2) pseudo=read geom=check gue
 ss=(read,tcheck) scf=(maxcycle=1)
 ----------------------------------------------------------------------
 -----
 title
 -----
 Structure from the checkpoint file:  "BDE49_expt_1007_mol1.chk"
 Charge =  0 Multiplicity = 1

                         Standard orientation:
 ---------------------------------------------------------------------
 Center     Atomic      Atomic             Coordinates (Angstroms)
 Number     Number       Type             X           Y           Z
 ---------------------------------------------------------------------
      1          6           0       -0.268882    0.703012    0.510554
      2          6           0        0.268882   -0.703012    0.510554
      3          1           0       -1.356771    0.695049    0.401254
      4          9           0        0.268882    1.433480   -0.545598
      5          1           0        0.005411    1.202911    1.445806
      6          1           0       -0.005411   -1.202911    1.445806
      7          1           0        1.356771   -0.695049    0.401254
      8          9           0       -0.268882   -1.433480   -0.545598
 ---------------------------------------------------------------------

 SCF Done:  E(RHF) =  -277.232910013     A.U. after    2 cycles

 The electronic state is 1-A.
 Alpha  occ. eigenvalues --  -26.45376 -26.45376 -11.33565 -11.33539  -1.58111
 Alpha  occ. eigenvalues --   -1.56797  -1.04637  -0.87773  -0.72745  -0.72614
 Alpha  occ. eigenvalues --   -0.69337  -0.66006  -0.65416  -0.60227  -0.53588
 Alpha  occ. eigenvalues --   -0.52856  -0.51031
 Alpha virt. eigenvalues --    0.03214   0.04311   0.04893   0.05929   0.10665
 Alpha virt. eigenvalues --    0.11192   0.12089   0.13719   0.14957   0.16821
 Alpha virt. eigenvalues --    0.16959   0.19711   0.23958   0.26042   0.26734

 Mulliken charges:
               1
     1  C    0.446197
     2  C    0.446197
     3  H    0.125739
     4  F   -0.690789
     5  H    0.118854
     6  H    0.118854
     7  H    0.125739
     8  F   -0.690789
 Sum of Mulliken charges =   0.00000

 Dipole moment (field-independent basis, Debye):
    X=              0.0000    Y=              0.0000    Z=              2.8556  Tot=              2.8556

 Test job not archived.
 1\1\GINC-SE247\SP\RHF\Aug-CC-pVDZ\C2H4F2\OHZDE\08-Apr-2025\0\\#t hf au
 g-cc-pvdz iop(5/13=1,5/36=2,99/5=2) pseudo=read geom=check guess=(read
 ,tcheck) scf=(maxcycle=1)\\title\\0,1\C,0,-0.268882,0.703012,0.510554\
 C,0,0.268882,-0.703012,0.510554\H,0,-1.356771,0.695049,0.401254\F,0,0.
 268882,1.43348,-0.545598\H,0,0.005411,1.202911,1.445806\H,0,-0.005411,
 -1.202911,1.445806\H,0,1.356771,-0.695049,0.401254\F,0,-0.268882,-1.43
 348,-0.545598\\Version=ES64L-G16RevC.01\State=1-A\HF=-277.23291\RMSD=6
 .721e-03\Dipole=0.,0.,1.1234733\Quadrupole=1.3801124,-2.1825364,0.8024

 Normal termination of Gaussian 16 at Tue Apr  8 22:29:18 2025.
