 Gaussian 16, Revision C.01,

 ----------------------------------------------------------------------
 #t hf aug-cc-pvdz symm=none int=(grid=ultrafine) guess=(read,tcheck) s
 table=(opt,rrhf)
 ----------------------------------------------------------------------
 -----
 title
 -----
 Symbolic Z-matrix:
 Charge =  0 Multiplicity = 1

 SCF Done:  E(RHF) =  -880.288261241     A.U. after   14 cycles
 Normal termination of Gaussian 16 at Wed Apr  9 00:40:58 2025.
 Gaussian 16:  ES64L-G16RevC.01  3-Jul-2019

 ----------------------------------------------------------------------
 #t hf aug-cc-pvdz iop(5/13=1,5/36=2,99/5=2) pseudo=read geom=check gue
 ss=(read,tcheck) scf=(maxcycle=1)
 ----------------------------------------------------------------------
 -----
 title
 -----
 Structure from the checkpoint file:  "BDE49_nonexpt_605_mol1.chk"
 Charge =  0 Multiplicity = 1

                         Standard orientation:
 ---------------------------------------------------------------------
 Center     Atomic      Atomic             Coordinates (Angstroms)
 Number     Number       Type             X           Y           Z
 ---------------------------------------------------------------------
      1          6           0       -2.040093   -0.178728    0.041640
      2          6           0       -1.182474   -1.269802   -0.002303
      3          6           0        0.193386   -1.085259   -0.073488
      4          6           0       -1.505129    1.103462    0.015981
      5          6           0       -0.130776    1.271778   -0.035613
      6          6           0        0.763475    0.193310   -0.075244
      7          9           0       -3.363260   -0.359057    0.104131
      8          9           0       -1.684049   -2.508960    0.003908
      9          9           0        0.968768   -2.177353   -0.160437
     10          9           0       -2.312465    2.167813    0.053395
     11          9           0        0.372889    2.521742   -0.060634
     12          5           0        3.249286   -0.340243    0.254096
     13          8           0        4.470002    0.238453    0.055029
     14          1           0        5.197995   -0.311373    0.351875
     15          7           0        2.129978    0.445770   -0.149385
     16          1           0        3.116883   -1.410662    0.745939
     17          1           0        2.341540    1.389010   -0.451946
 ---------------------------------------------------------------------

 SCF Done:  E(RHF) =  -881.115737136     A.U. after    2 cycles

 The electronic state is 1-A.
 Alpha  occ. eigenvalues --  -26.51608 -26.51584 -26.51448 -26.51328 -26.51105
 Alpha  occ. eigenvalues --  -20.57288 -15.53496 -11.38270 -11.38166 -11.37676
 Alpha  occ. eigenvalues --  -11.37493 -11.37422 -11.34277  -7.64435  -1.65873
 Alpha  occ. eigenvalues --   -1.65244  -1.64372  -1.63618  -1.63079  -1.47633
 Alpha  occ. eigenvalues --   -1.26662  -1.19437  -1.06623  -1.05777  -0.92570
 Alpha  occ. eigenvalues --   -0.91871  -0.85065  -0.82336  -0.80213  -0.77922
 Alpha  occ. eigenvalues --   -0.76044  -0.74835  -0.74713  -0.74594  -0.71941
 Alpha  occ. eigenvalues --   -0.71516  -0.70649  -0.69323  -0.68997  -0.68418
 Alpha  occ. eigenvalues --   -0.67107  -0.65998  -0.64735  -0.62184  -0.61113
 Alpha  occ. eigenvalues --   -0.59467  -0.58568  -0.54384  -0.51445  -0.49588
 Alpha  occ. eigenvalues --   -0.38044  -0.35967
 Alpha virt. eigenvalues --    0.03195   0.04021   0.04519   0.04867   0.06758
 Alpha virt. eigenvalues --    0.07642   0.08267   0.09254   0.09596   0.09720
 Alpha virt. eigenvalues --    0.10005   0.10300   0.10816   0.12132   0.12637

 Mulliken charges:
               1
     1  C    1.566921
     2  C    0.655543
     3  C    2.162509
     4  C    0.717807
     5  C    2.202084
     6  C   -3.471383
     7  F   -0.982466
     8  F   -0.984151
     9  F   -1.030930
    10  F   -0.971252
    11  F   -1.085225
    12  B    0.493771
    13  O   -1.042305
    14  H    0.461618
    15  N    1.262833
    16  H    0.000381
    17  H    0.044245
 Sum of Mulliken charges =  -0.00000

 Dipole moment (field-independent basis, Debye):
    X=              2.7777    Y=             -0.3034    Z=              0.3834  Tot=              2.8205

 Test job not archived.
 1\1\GINC-SE273\SP\RHF\Aug-CC-pVDZ\C6H3B1F5N1O1\OHZDE\09-Apr-2025\0\\#t
  hf aug-cc-pvdz iop(5/13=1,5/36=2,99/5=2) pseudo=read geom=check guess
 =(read,tcheck) scf=(maxcycle=1)\\title\\0,1\C,0,-2.040093,-0.178728,0.
 04164\C,0,-1.182474,-1.269802,-0.002303\C,0,0.193386,-1.085259,-0.0734
 88\C,0,-1.505129,1.103462,0.015981\C,0,-0.130776,1.271778,-0.035613\C,
 0,0.763475,0.19331,-0.075244\F,0,-3.36326,-0.359057,0.104131\F,0,-1.68
 4049,-2.50896,0.003908\F,0,0.968768,-2.177353,-0.160437\F,0,-2.312465,
 2.167813,0.053395\F,0,0.372889,2.521742,-0.060634\B,0,3.249286,-0.3402

 Normal termination of Gaussian 16 at Wed Apr  9 00:41:11 2025.
