 Gaussian 16, Revision C.01,

 ----------------------------------------------------------------------
 #t hf aug-cc-pvdz symm=none int=(grid=ultrafine) guess=(read,tcheck) s
 table=(opt,rrhf)
 ----------------------------------------------------------------------
 -----
 title
 -----
 Symbolic Z-matrix:
 Charge =  0 Multiplicity = 1

 SCF Done:  E(RHF) =  -2215.58630622     A.U. after   15 cycles
 Normal termination of Gaussian 16 at Wed Apr  9 00:54:40 2025.
 Gaussian 16:  ES64L-G16RevC.01  3-Jul-2019

 ----------------------------------------------------------------------
 #t hf aug-cc-pvdz iop(5/13=1,5/36=2,99/5=2) pseudo=read geom=check gue
 ss=(read,tcheck) scf=(maxcycle=1)
 ----------------------------------------------------------------------
 -----
 title
 -----
 Structure from the checkpoint file:  "BDE49_nonexpt_927_mol1.chk"
 Charge =  0 Multiplicity = 1

                         Standard orientation:
 ---------------------------------------------------------------------
 Center     Atomic      Atomic             Coordinates (Angstroms)
 Number     Number       Type             X           Y           Z
 ---------------------------------------------------------------------
      1         17           0        2.349314   -1.867854    1.191561
      2         17           0        2.778681   -0.134547   -1.077816
      3          8           0        0.000306    3.378857    0.000085
      4          6           0       -0.623646    2.377598    0.827927
      5          1           0       -1.712453    2.443365    0.795547
      6          1           0       -0.287146    2.437069    1.868687
      7          6           0        0.000018    1.215999   -0.000050
      8          7           0        1.536905   -0.758345    0.054992
      9          6           0        0.962675    0.363249    0.836701
     10          1           0        0.397533   -0.129443    1.630267
     11          1           0        1.736801    0.986908    1.294928
     12          6           0        0.623805    2.377535   -0.828022
     13          1           0        1.712633    2.443038   -0.795915
     14          1           0        0.287048    2.437195   -1.868691
     15          6           0       -0.962684    0.363264   -0.836758
     16          7           0       -1.536978   -0.758256   -0.054988
     17         17           0       -2.349478   -1.867762   -1.191494
     18         17           0       -2.778695   -0.134314    1.077807
     19          1           0       -0.397571   -0.129504   -1.630297
     20          1           0       -1.736776    0.986940   -1.295018
 ---------------------------------------------------------------------

 SCF Done:  E(RHF) =  -2216.26060509     A.U. after    2 cycles

 The electronic state is 1-A.
 Alpha  occ. eigenvalues -- -105.61252-105.61252-105.61153-105.61153 -20.55450
 Alpha  occ. eigenvalues --  -15.65212 -15.65110 -11.30933 -11.30909 -11.30779
 Alpha  occ. eigenvalues --  -11.30690 -11.28491 -10.65780 -10.65779 -10.65648
 Alpha  occ. eigenvalues --  -10.65648  -7.82722  -7.82721  -7.82601  -7.82600
 Alpha  occ. eigenvalues --   -7.82277  -7.82276  -7.82239  -7.82238  -7.82130
 Alpha  occ. eigenvalues --   -7.82129  -7.82101  -7.82098  -1.47864  -1.29571
 Alpha  occ. eigenvalues --   -1.28134  -1.11520  -1.06878  -1.06808  -1.03358
 Alpha  occ. eigenvalues --   -0.99814  -0.96166  -0.90078  -0.87529  -0.77973
 Alpha  occ. eigenvalues --   -0.72257  -0.72150  -0.70087  -0.68043  -0.66985
 Alpha  occ. eigenvalues --   -0.65955  -0.64093  -0.61334  -0.61195  -0.59334
 Alpha  occ. eigenvalues --   -0.56994  -0.56112  -0.53653  -0.51493  -0.50858
 Alpha  occ. eigenvalues --   -0.49456  -0.49266  -0.47937  -0.47011  -0.46912
 Alpha  occ. eigenvalues --   -0.46873  -0.44606  -0.43857  -0.42639
 Alpha virt. eigenvalues --    0.03168   0.03587   0.04049   0.04051   0.04618
 Alpha virt. eigenvalues --    0.04884   0.05956   0.06500   0.06766   0.07368
 Alpha virt. eigenvalues --    0.08091   0.09058   0.10051   0.10834   0.12042

 Mulliken charges:
               1
     1  Cl   0.048782
     2  Cl  -0.014512
     3  O   -1.314563
     4  C    0.988021
     5  H    0.076591
     6  H    0.062906
     7  C   -0.888891
     8  N    0.200198
     9  C   -0.543436
    10  H    0.260798
    11  H    0.022390
    12  C    0.987990
    13  H    0.076652
    14  H    0.062849
    15  C   -0.543373
    16  N    0.200159
    17  Cl   0.048790
    18  Cl  -0.014516
    19  H    0.260791
    20  H    0.022375
 Sum of Mulliken charges =  -0.00000

 Dipole moment (field-independent basis, Debye):
    X=             -0.0003    Y=              0.9325    Z=             -0.0003  Tot=              0.9325

 Test job not archived.
 1\1\GINC-SE099\SP\RHF\Aug-CC-pVDZ\C5H8Cl4N2O1\OHZDE\09-Apr-2025\0\\#t
 hf aug-cc-pvdz iop(5/13=1,5/36=2,99/5=2) pseudo=read geom=check guess=
 (read,tcheck) scf=(maxcycle=1)\\title\\0,1\Cl,0,2.349314,-1.867854,1.1
 91561\Cl,0,2.778681,-0.134547,-1.077816\O,0,0.000306,3.378857,0.000085
 \C,0,-0.623646,2.377598,0.827927\H,0,-1.712453,2.443365,0.795547\H,0,-
 0.287146,2.437069,1.868687\C,0,0.000018,1.215999,-0.00005\N,0,1.536905
 ,-0.758345,0.054992\C,0,0.962675,0.363249,0.836701\H,0,0.397533,-0.129
 443,1.630267\H,0,1.736801,0.986908,1.294928\C,0,0.623805,2.377535,-0.8

 Normal termination of Gaussian 16 at Wed Apr  9 00:54:58 2025.
