 Gaussian 16, Revision C.01,

 ----------------------------------------------------------------------
 #t hf aug-cc-pvdz symm=none int=(grid=ultrafine) guess=(read,tcheck) s
 table=(opt,rrhf)
 ----------------------------------------------------------------------
 -----
 title
 -----
 Symbolic Z-matrix:
 Charge =  0 Multiplicity = 1

 SCF Done:  E(RHF) =  -735.128064080     A.U. after   12 cycles
 Normal termination of Gaussian 16 at Wed Apr  9 00:08:58 2025.
 Gaussian 16:  ES64L-G16RevC.01  3-Jul-2019

 ----------------------------------------------------------------------
 #t hf aug-cc-pvdz iop(5/13=1,5/36=2,99/5=2) pseudo=read geom=check gue
 ss=(read,tcheck) scf=(maxcycle=1)
 ----------------------------------------------------------------------
 -----
 title
 -----
 Structure from the checkpoint file:  "BDE49_nonexpt_2303_mol1.chk"
 Charge =  0 Multiplicity = 1

                         Standard orientation:
 ---------------------------------------------------------------------
 Center     Atomic      Atomic             Coordinates (Angstroms)
 Number     Number       Type             X           Y           Z
 ---------------------------------------------------------------------
      1         14           0        1.053779   -0.933700    0.534799
      2         14           0       -1.053779   -0.933700   -0.534799
      3          6           0       -2.171582    0.494429   -0.059703
      4          1           0       -1.730902   -2.213159   -0.193670
      5          1           0       -0.871099   -0.939590   -2.010867
      6          6           0        2.171582    0.494429    0.059702
      7          1           0        1.730902   -2.213159    0.193670
      8          1           0        0.871100   -0.939588    2.010867
      9          6           0        1.855911    1.486195   -0.776152
     10          6           0       -1.855912    1.486194    0.776153
     11          1           0        3.167451    0.506313    0.504328
     12          1           0        0.885777    1.551062   -1.260539
     13          1           0        2.555179    2.283433   -1.014676
     14          1           0       -3.167450    0.506314   -0.504332
     15          1           0       -0.885779    1.551060    1.260542
     16          1           0       -2.555179    2.283432    1.014677
 ---------------------------------------------------------------------

 SCF Done:  E(RHF) =  -735.361736589     A.U. after    2 cycles

 The electronic state is 1-A.
 Alpha  occ. eigenvalues --  -69.52375 -69.52375 -11.25384 -11.25383 -11.23541
 Alpha  occ. eigenvalues --  -11.23539  -6.19531  -6.19520  -3.94909  -3.94868
 Alpha  occ. eigenvalues --   -3.94866  -3.94861  -3.94855  -3.94822  -1.04541
 Alpha  occ. eigenvalues --   -1.04042  -0.81711  -0.80359  -0.74184  -0.67748
 Alpha  occ. eigenvalues --   -0.64037  -0.63698  -0.58097  -0.56895  -0.49877
 Alpha  occ. eigenvalues --   -0.48776  -0.46600  -0.46017  -0.40256  -0.39024
 Alpha  occ. eigenvalues --   -0.38333
 Alpha virt. eigenvalues --    0.03534   0.03538   0.04298   0.04607   0.05396
 Alpha virt. eigenvalues --    0.06123   0.06462   0.06934   0.07859   0.08259
 Alpha virt. eigenvalues --    0.08820   0.09454   0.09654   0.10132   0.10959

 Mulliken charges:
               1
     1  Si   0.674142
     2  Si   0.674142
     3  C   -0.262424
     4  H   -0.192538
     5  H   -0.071148
     6  C   -0.262423
     7  H   -0.192538
     8  H   -0.071147
     9  C    0.238947
    10  C    0.238948
    11  H   -0.292656
    12  H   -0.010413
    13  H   -0.083912
    14  H   -0.292655
    15  H   -0.010413
    16  H   -0.083913
 Sum of Mulliken charges =   0.00000

 Dipole moment (field-independent basis, Debye):
    X=             -0.0000    Y=              1.2074    Z=              0.0000  Tot=              1.2074

 Test job not archived.
 1\1\GINC-SE334\SP\RHF\Aug-CC-pVDZ\C4H10Si2\OHZDE\09-Apr-2025\0\\#t hf
 aug-cc-pvdz iop(5/13=1,5/36=2,99/5=2) pseudo=read geom=check guess=(re
 ad,tcheck) scf=(maxcycle=1)\\title\\0,1\Si,0,1.053779,-0.9337,0.534799
 \Si,0,-1.053779,-0.9337,-0.534799\C,0,-2.171582,0.494429,-0.059703\H,0
 ,-1.730902,-2.213159,-0.19367\H,0,-0.871099,-0.93959,-2.010867\C,0,2.1
 71582,0.494429,0.059702\H,0,1.730902,-2.213159,0.19367\H,0,0.8711,-0.9
 39588,2.010867\C,0,1.855911,1.486195,-0.776152\C,0,-1.855912,1.486194,
 0.776153\H,0,3.167451,0.506313,0.504328\H,0,0.885777,1.551062,-1.26053

 Normal termination of Gaussian 16 at Wed Apr  9 00:09:03 2025.
