 Gaussian 16, Revision C.01,

 ----------------------------------------------------------------------
 #t hf aug-cc-pvdz symm=none int=(grid=ultrafine) guess=(read,tcheck) s
 table=(opt,rrhf)
 ----------------------------------------------------------------------
 -----
 title
 -----
 Symbolic Z-matrix:
 Charge =  0 Multiplicity = 1

 SCF Done:  E(RHF) =  -1194.58894693     A.U. after   15 cycles
 Normal termination of Gaussian 16 at Tue Apr  8 23:45:54 2025.
 Gaussian 16:  ES64L-G16RevC.01  3-Jul-2019

 ----------------------------------------------------------------------
 #t hf aug-cc-pvdz iop(5/13=1,5/36=2,99/5=2) pseudo=read geom=check gue
 ss=(read,tcheck) scf=(maxcycle=1)
 ----------------------------------------------------------------------
 -----
 title
 -----
 Structure from the checkpoint file:  "BDE49_nonexpt_1721_mol1.chk"
 Charge =  0 Multiplicity = 1

                         Standard orientation:
 ---------------------------------------------------------------------
 Center     Atomic      Atomic             Coordinates (Angstroms)
 Number     Number       Type             X           Y           Z
 ---------------------------------------------------------------------
      1          6           0        2.543459   -0.304269   -0.315141
      2          6           0        1.142398    0.177551    0.033431
      3         16           0       -0.149232   -0.727888   -0.824146
      4          8           0        0.945210    1.079255    0.825521
      5         15           0       -1.956367   -0.024310    0.155975
      6          8           0       -2.433553   -0.966747    1.168095
      7          6           0        3.112881   -1.065386    0.898417
      8          1           0        3.181497   -0.403915    1.764621
      9          1           0        4.113623   -1.435011    0.663369
     10          1           0        2.487457   -1.920297    1.165167
     11          6           0        3.423418    0.891148   -0.711265
     12          1           0        2.466980   -0.996697   -1.158662
     13          1           0        3.479724    1.611621    0.106564
     14          1           0        3.029509    1.403237   -1.592448
     15          1           0        4.433981    0.546340   -0.942155
     16          8           0       -2.945353    0.169660   -1.082874
     17          1           0       -3.672141   -0.464734   -1.044258
     18          8           0       -1.621465    1.459518    0.540669
     19          1           0       -0.679070    1.542568    0.840576
 ---------------------------------------------------------------------

 SCF Done:  E(RHF) =  -1195.15324587     A.U. after    2 cycles

 The electronic state is 1-A.
 Alpha  occ. eigenvalues --  -93.98967 -84.46015 -20.60741 -20.59019 -20.58562
 Alpha  occ. eigenvalues --  -20.51674 -11.41029 -11.28282 -11.25506 -11.25263
 Alpha  occ. eigenvalues --   -8.27331  -6.91076  -6.25100  -6.24932  -6.24741
 Alpha  occ. eigenvalues --   -4.45181  -4.44578  -4.43433  -1.54931  -1.52670
 Alpha  occ. eigenvalues --   -1.48121  -1.40022  -1.12919  -1.06730  -0.96212
 Alpha  occ. eigenvalues --   -0.90206  -0.85770  -0.78149  -0.71881  -0.70506
 Alpha  occ. eigenvalues --   -0.69474  -0.67031  -0.64937  -0.63440  -0.62667
 Alpha  occ. eigenvalues --   -0.59087  -0.57850  -0.56874  -0.56173  -0.55693
 Alpha  occ. eigenvalues --   -0.55484  -0.52057  -0.51640  -0.50040  -0.46800
 Alpha  occ. eigenvalues --   -0.44773  -0.44034  -0.41171
 Alpha virt. eigenvalues --    0.02895   0.03783   0.03886   0.04143   0.05150
 Alpha virt. eigenvalues --    0.06376   0.06955   0.07181   0.07423   0.09088
 Alpha virt. eigenvalues --    0.09309   0.10546   0.10905   0.11426   0.12771

 Mulliken charges:
               1
     1  C   -0.991727
     2  C    0.979160
     3  S   -0.368007
     4  O   -1.414994
     5  P    4.006889
     6  O   -1.505404
     7  C   -0.135979
     8  H    0.247923
     9  H    0.147658
    10  H    0.153783
    11  C   -0.082511
    12  H    0.248233
    13  H    0.251417
    14  H    0.149711
    15  H    0.157455
    16  O   -1.340662
    17  H    0.383157
    18  O   -1.590449
    19  H    0.704347
 Sum of Mulliken charges =  -0.00000

 Dipole moment (field-independent basis, Debye):
    X=              3.3388    Y=             -0.4471    Z=             -2.5047  Tot=              4.1978

 Test job not archived.
 1\1\GINC-SE177\SP\RHF\Aug-CC-pVDZ\C4H9O4P1S1\OHZDE\08-Apr-2025\0\\#t h
 f aug-cc-pvdz iop(5/13=1,5/36=2,99/5=2) pseudo=read geom=check guess=(
 read,tcheck) scf=(maxcycle=1)\\title\\0,1\C,0,2.543459,-0.304269,-0.31
 5141\C,0,1.142398,0.177551,0.033431\S,0,-0.149232,-0.727888,-0.824146\
 O,0,0.94521,1.079255,0.825521\P,0,-1.956367,-0.02431,0.155975\O,0,-2.4
 33553,-0.966747,1.168095\C,0,3.112881,-1.065386,0.898417\H,0,3.181497,
 -0.403915,1.764621\H,0,4.113623,-1.435011,0.663369\H,0,2.487457,-1.920
 297,1.165167\C,0,3.423418,0.891148,-0.711265\H,0,2.46698,-0.996697,-1.

 Normal termination of Gaussian 16 at Tue Apr  8 23:46:05 2025.
