 Gaussian 16, Revision C.01,

 ----------------------------------------------------------------------
 #t hf aug-cc-pvdz symm=none int=(grid=ultrafine) guess=(read,tcheck) s
 table=(opt,rrhf)
 ----------------------------------------------------------------------
 -----
 title
 -----
 Symbolic Z-matrix:
 Charge =  0 Multiplicity = 1

 SCF Done:  E(RHF) =  -657.378161181     A.U. after   16 cycles
 Normal termination of Gaussian 16 at Wed Apr  9 00:35:34 2025.
 Gaussian 16:  ES64L-G16RevC.01  3-Jul-2019

 ----------------------------------------------------------------------
 #t hf aug-cc-pvdz iop(5/13=1,5/36=2,99/5=2) pseudo=read geom=check gue
 ss=(read,tcheck) scf=(maxcycle=1)
 ----------------------------------------------------------------------
 -----
 title
 -----
 Structure from the checkpoint file:  "BDE49_nonexpt_436_mol1.chk"
 Charge =  0 Multiplicity = 1

                         Standard orientation:
 ---------------------------------------------------------------------
 Center     Atomic      Atomic             Coordinates (Angstroms)
 Number     Number       Type             X           Y           Z
 ---------------------------------------------------------------------
      1          9           0        3.579818    1.130746   -0.000238
      2          9           0        3.579818   -1.130746   -0.000240
      3          5           0        2.885811    0.000000    0.000310
      4          6           0        1.336119    0.000000    0.000173
      5          6           0        0.622508   -1.209344    0.000115
      6          6           0       -0.766857   -1.219009    0.000007
      7          6           0       -1.435217    0.000000   -0.000045
      8          6           0        0.622508    1.209344    0.000118
      9          1           0        1.162088    2.149043    0.000164
     10          6           0       -0.766857    1.219009    0.000010
     11          1           0       -1.335467    2.138175   -0.000033
     12          7           0       -2.921193    0.000000   -0.000166
     13          8           0       -3.483994   -1.084603    0.000086
     14          8           0       -3.483994    1.084603    0.000088
     15          1           0        1.162088   -2.149043    0.000159
     16          1           0       -1.335467   -2.138175   -0.000038
 ---------------------------------------------------------------------

 SCF Done:  E(RHF) =  -658.005910789     A.U. after    2 cycles

 The electronic state is 1-A.
 Alpha  occ. eigenvalues --  -26.49422 -26.49421 -20.60264 -20.60259 -15.80488
 Alpha  occ. eigenvalues --  -11.33645 -11.29276 -11.29267 -11.29166 -11.29139
 Alpha  occ. eigenvalues --  -11.27410  -7.73996  -1.68302  -1.64585  -1.60604
 Alpha  occ. eigenvalues --   -1.52030  -1.21772  -1.12130  -1.06847  -0.99939
 Alpha  occ. eigenvalues --   -0.89009  -0.86843  -0.82130  -0.81372  -0.76647
 Alpha  occ. eigenvalues --   -0.76051  -0.75788  -0.75366  -0.70862  -0.68596
 Alpha  occ. eigenvalues --   -0.68165  -0.65731  -0.65207  -0.64791  -0.63364
 Alpha  occ. eigenvalues --   -0.55913  -0.55171  -0.54909  -0.50945  -0.49991
 Alpha  occ. eigenvalues --   -0.46223  -0.40590  -0.38958
 Alpha virt. eigenvalues --   -0.00099   0.02896   0.03341   0.04018   0.04201
 Alpha virt. eigenvalues --    0.05751   0.06120   0.06733   0.07143   0.08560
 Alpha virt. eigenvalues --    0.08815   0.10410   0.12108   0.12122   0.12549

 Mulliken charges:
               1
     1  F   -0.766221
     2  F   -0.766221
     3  B    1.140366
     4  C    0.534290
     5  C    0.385648
     6  C    0.098614
     7  C   -0.155689
     8  C    0.385648
     9  H   -0.302264
    10  C    0.098614
    11  H   -0.191367
    12  N    2.968512
    13  O   -1.468151
    14  O   -1.468151
    15  H   -0.302264
    16  H   -0.191367
 Sum of Mulliken charges =  -0.00000

 Dipole moment (field-independent basis, Debye):
    X=              2.4804    Y=             -0.0000    Z=              0.0014  Tot=              2.4804

 Test job not archived.
 1\1\GINC-SE054\SP\RHF\Aug-CC-pVDZ\C6H4B1F2N1O2\OHZDE\09-Apr-2025\0\\#t
  hf aug-cc-pvdz iop(5/13=1,5/36=2,99/5=2) pseudo=read geom=check guess
 =(read,tcheck) scf=(maxcycle=1)\\title\\0,1\F,0,3.579818,1.130746,-0.0
 00238\F,0,3.579818,-1.130746,-0.00024\B,0,2.885811,0.,0.00031\C,0,1.33
 6119,0.,0.000173\C,0,0.622508,-1.209344,0.000115\C,0,-0.766857,-1.2190
 09,0.000007\C,0,-1.435217,0.,-0.000045\C,0,0.622508,1.209344,0.000118\
 H,0,1.162088,2.149043,0.000164\C,0,-0.766857,1.219009,0.00001\H,0,-1.3
 35467,2.138175,-0.000033\N,0,-2.921193,0.,-0.000166\O,0,-3.483994,-1.0

 Normal termination of Gaussian 16 at Wed Apr  9 00:35:44 2025.
