 Gaussian 16, Revision C.01,

 ----------------------------------------------------------------------
 #t hf aug-cc-pvdz symm=none int=(grid=ultrafine) guess=(read,tcheck) s
 table=(opt,rrhf)
 ----------------------------------------------------------------------
 -----
 title
 -----
 Symbolic Z-matrix:
 Charge =  0 Multiplicity = 1

 SCF Done:  E(RHF) =  -1445.97743548     A.U. after   11 cycles
 Normal termination of Gaussian 16 at Tue Apr  8 23:49:26 2025.
 Gaussian 16:  ES64L-G16RevC.01  3-Jul-2019

 ----------------------------------------------------------------------
 #t hf aug-cc-pvdz iop(5/13=1,5/36=2,99/5=2) pseudo=read geom=check gue
 ss=(read,tcheck) scf=(maxcycle=1)
 ----------------------------------------------------------------------
 -----
 title
 -----
 Structure from the checkpoint file:  "BDE49_nonexpt_1853_mol1.chk"
 Charge =  0 Multiplicity = 1

                         Standard orientation:
 ---------------------------------------------------------------------
 Center     Atomic      Atomic             Coordinates (Angstroms)
 Number     Number       Type             X           Y           Z
 ---------------------------------------------------------------------
      1          6           0       -1.431796   -0.000001   -0.396089
      2         14           0        0.280938    0.000000    0.450930
      3         17           0        1.298075    1.687466   -0.144604
      4         17           0        1.298078   -1.687464   -0.144605
      5          1           0        0.136477    0.000000    1.910194
      6          9           0       -2.121244   -1.110567    0.031064
      7          9           0       -2.121246    1.110563    0.031063
      8          1           0       -1.431021   -0.000002   -1.489273
 ---------------------------------------------------------------------

 SCF Done:  E(RHF) =  -1446.38348390     A.U. after    2 cycles

 The electronic state is 1-A.
 Alpha  occ. eigenvalues -- -105.58865-105.58865 -69.64932 -26.49453 -26.49453
 Alpha  occ. eigenvalues --  -11.42654 -10.63895 -10.63884  -7.80779  -7.80772
 Alpha  occ. eigenvalues --   -7.80450  -7.80448  -7.80445  -7.80443  -6.31233
 Alpha  occ. eigenvalues --   -4.06647  -4.06535  -4.06417  -1.65317  -1.58863
 Alpha  occ. eigenvalues --   -1.10594  -1.06846  -0.96556  -0.79928  -0.77185
 Alpha  occ. eigenvalues --   -0.74999  -0.69960  -0.65743  -0.61972  -0.61174
 Alpha  occ. eigenvalues --   -0.58291  -0.58107  -0.54014  -0.50486  -0.50174
 Alpha  occ. eigenvalues --   -0.48815  -0.46787
 Alpha virt. eigenvalues --    0.03889   0.04896   0.05448   0.05587   0.07704
 Alpha virt. eigenvalues --    0.09255   0.10827   0.11672   0.12569   0.13409
 Alpha virt. eigenvalues --    0.13855   0.14082   0.15426   0.16490   0.16536

 Mulliken charges:
               1
     1  C    0.918076
     2  Si   1.616005
     3  Cl  -0.515053
     4  Cl  -0.515053
     5  H   -0.160844
     6  F   -0.697981
     7  F   -0.697981
     8  H    0.052831
 Sum of Mulliken charges =  -0.00000

 Dipole moment (field-independent basis, Debye):
    X=              0.4318    Y=              0.0000    Z=             -0.2188  Tot=              0.4841

 Test job not archived.
 1\1\GINC-SE366\SP\RHF\Aug-CC-pVDZ\C1H2Cl2F2Si1\OHZDE\08-Apr-2025\0\\#t
  hf aug-cc-pvdz iop(5/13=1,5/36=2,99/5=2) pseudo=read geom=check guess
 =(read,tcheck) scf=(maxcycle=1)\\title\\0,1\C,0,1.431796,0.,-0.396089\
 Si,0,-0.280938,0.,0.45093\Cl,0,-1.298076,-1.687465,-0.144604\Cl,0,-1.2
 98077,1.687465,-0.144605\H,0,-0.136477,0.,1.910194\F,0,2.121245,1.1105
 65,0.031064\F,0,2.121245,-1.110565,0.031063\H,0,1.431021,0.000001,-1.4
 89273\\Version=ES64L-G16RevC.01\State=1-A\HF=-1446.3834839\RMSD=3.690e
 -03\Dipole=-0.1699017,-0.0000012,-0.0860834\Quadrupole=-2.4905268,-1.3

 Normal termination of Gaussian 16 at Tue Apr  8 23:49:29 2025.
