 Gaussian 16, Revision C.01,

 ----------------------------------------------------------------------
 #t hf aug-cc-pvdz symm=none int=(grid=ultrafine) guess=(read,tcheck) s
 table=(opt,rrhf)
 ----------------------------------------------------------------------
 -----
 title
 -----
 Symbolic Z-matrix:
 Charge =  0 Multiplicity = 1

 SCF Done:  E(RHF) =  -1177.91460722     A.U. after   15 cycles
 Normal termination of Gaussian 16 at Tue Apr  8 23:43:37 2025.
 Gaussian 16:  ES64L-G16RevC.01  3-Jul-2019

 ----------------------------------------------------------------------
 #t hf aug-cc-pvdz iop(5/13=1,5/36=2,99/5=2) pseudo=read geom=check gue
 ss=(read,tcheck) scf=(maxcycle=1)
 ----------------------------------------------------------------------
 -----
 title
 -----
 Structure from the checkpoint file:  "BDE49_nonexpt_1643_mol1.chk"
 Charge =  0 Multiplicity = 1

                         Standard orientation:
 ---------------------------------------------------------------------
 Center     Atomic      Atomic             Coordinates (Angstroms)
 Number     Number       Type             X           Y           Z
 ---------------------------------------------------------------------
      1         14           0        0.267573    0.212996    1.007701
      2          7           0        1.010710    1.658385    0.021435
      3         15           0       -1.619407   -0.285331   -0.168849
      4          8           0        0.331584    2.249886   -0.827403
      5          8           0        2.158152    1.967695    0.302920
      6          8           0       -1.380217   -1.247731   -1.258221
      7          8           0       -2.248768    1.137082   -0.523438
      8          6           0        1.551893   -1.133607    1.153614
      9          6           0        1.799920   -2.034790   -0.075667
     10          1           0        1.241094   -1.741625    2.013319
     11          1           0        2.476964   -0.630257    1.460549
     12          6           0        2.327214   -1.289111   -1.304285
     13          1           0        0.875310   -2.551935   -0.343876
     14          1           0        2.519747   -2.805741    0.218517
     15          1           0        1.572838   -0.614061   -1.718367
     16          1           0        2.585437   -1.994566   -2.097389
     17          1           0        3.220481   -0.703178   -1.069776
     18          1           0       -1.564332    1.725386   -0.897436
     19          8           0       -2.668436   -0.792762    0.941165
     20          1           0       -3.042564   -1.649967    0.700111
     21          1           0       -0.027556    0.886964    2.287061
 ---------------------------------------------------------------------

 SCF Done:  E(RHF) =  -1178.53578269     A.U. after    2 cycles

 The electronic state is 1-A.
 Alpha  occ. eigenvalues --  -84.43993 -69.61279 -20.61495 -20.60800 -20.60788
 Alpha  occ. eigenvalues --  -20.59467 -20.51753 -15.77473 -11.26389 -11.25390
 Alpha  occ. eigenvalues --  -11.23441  -6.89298  -6.28183  -4.43413  -4.42763
 Alpha  occ. eigenvalues --   -4.41747  -4.03537  -4.03400  -4.03347  -1.67452
 Alpha  occ. eigenvalues --   -1.54358  -1.51497  -1.48108  -1.39895  -1.08483
 Alpha  occ. eigenvalues --   -1.01528  -0.95886  -0.87594  -0.84918  -0.82063
 Alpha  occ. eigenvalues --   -0.75951  -0.74360  -0.73257  -0.71138  -0.67872
 Alpha  occ. eigenvalues --   -0.64817  -0.63814  -0.63597  -0.59616  -0.58438
 Alpha  occ. eigenvalues --   -0.57995  -0.55830  -0.54219  -0.51894  -0.51592
 Alpha  occ. eigenvalues --   -0.50549  -0.50191  -0.48631  -0.47452  -0.46681
 Alpha  occ. eigenvalues --   -0.46595  -0.42539
 Alpha virt. eigenvalues --    0.02220   0.03336   0.03579   0.04152   0.04336
 Alpha virt. eigenvalues --    0.05505   0.05955   0.06582   0.06649   0.07651
 Alpha virt. eigenvalues --    0.08090   0.09269   0.09439   0.09736   0.10797

 Mulliken charges:
               1
     1  Si   1.128561
     2  N    2.036628
     3  P    3.524229
     4  O   -1.316049
     5  O   -1.277414
     6  O   -1.595884
     7  O   -1.603263
     8  C   -0.525848
     9  C   -0.330783
    10  H    0.031396
    11  H    0.171506
    12  C   -0.318600
    13  H    0.155208
    14  H    0.151429
    15  H    0.182181
    16  H    0.046952
    17  H    0.164251
    18  H    0.586978
    19  O   -1.359582
    20  H    0.356981
    21  H   -0.208874
 Sum of Mulliken charges =  -0.00000

 Dipole moment (field-independent basis, Debye):
    X=              0.4026    Y=             -2.6502    Z=              3.5585  Tot=              4.4552

 Test job not archived.
 1\1\GINC-SE051\SP\RHF\Aug-CC-pVDZ\C3H10N1O5P1Si1\OHZDE\08-Apr-2025\0\\
 #t hf aug-cc-pvdz iop(5/13=1,5/36=2,99/5=2) pseudo=read geom=check gue
 ss=(read,tcheck) scf=(maxcycle=1)\\title\\0,1\Si,0,0.267573,0.212996,1
 .007701\N,0,1.01071,1.658385,0.021435\P,0,-1.619407,-0.285331,-0.16884
 9\O,0,0.331584,2.249886,-0.827403\O,0,2.158152,1.967695,0.30292\O,0,-1
 .380217,-1.247731,-1.258221\O,0,-2.248768,1.137082,-0.523438\C,0,1.551
 893,-1.133607,1.153614\C,0,1.79992,-2.03479,-0.075667\H,0,1.241094,-1.
 741625,2.013319\H,0,2.476964,-0.630257,1.460549\C,0,2.327214,-1.289111

 Normal termination of Gaussian 16 at Tue Apr  8 23:43:53 2025.
