 Gaussian 16, Revision C.01,

 ----------------------------------------------------------------------
 #t hf aug-cc-pvdz symm=none int=(grid=ultrafine) guess=(read,tcheck) s
 table=opt
 ----------------------------------------------------------------------
 -----
 title
 -----
 Symbolic Z-matrix:
 Charge =  0 Multiplicity = 2

 SCF Done:  E(UHF) =  -192.525107026     A.U. after   16 cycles
 Normal termination of Gaussian 16 at Tue Apr  8 22:41:33 2025.
 Gaussian 16:  ES64L-G16RevC.01  3-Jul-2019

 ----------------------------------------------------------------------
 #t hf aug-cc-pvdz iop(5/13=1,5/36=2,99/5=2) pseudo=read geom=check gue
 ss=(read,tcheck) scf=(maxcycle=1)
 ----------------------------------------------------------------------
 -----
 title
 -----
 Structure from the checkpoint file:  "BDE49_expt_1383_mol2.chk"
 Charge =  0 Multiplicity = 2

                         Standard orientation:
 ---------------------------------------------------------------------
 Center     Atomic      Atomic             Coordinates (Angstroms)
 Number     Number       Type             X           Y           Z
 ---------------------------------------------------------------------
      1          6           0       -0.000000    0.123971   -0.294869
      2          8           0       -0.000001    1.422078    0.145834
      3          6           0       -1.288603   -0.627064    0.078050
      4          1           0       -1.334427   -0.770428    1.161079
      5          1           0       -1.325982   -1.610108   -0.398691
      6          1           0       -2.161885   -0.049418   -0.229337
      7          6           0        1.288605   -0.627063    0.078050
      8          1           0       -0.000000    0.264218   -1.400151
      9          1           0        1.325984   -1.610106   -0.398691
     10          1           0        1.334429   -0.770426    1.161079
     11          1           0        2.161885   -0.049414   -0.229337
 ---------------------------------------------------------------------

 SCF Done:  E(UHF) =  -192.726604446     A.U. after    2 cycles

 The electronic state is 2-A.
 Alpha  occ. eigenvalues --  -20.60192 -11.29416 -11.23325 -11.23306  -1.48677
 Alpha  occ. eigenvalues --   -1.04560  -0.94864  -0.81011  -0.70105  -0.63501
 Alpha  occ. eigenvalues --   -0.62957  -0.58664  -0.55496  -0.54480  -0.52899
 Alpha  occ. eigenvalues --   -0.47332  -0.45546
 Alpha virt. eigenvalues --    0.03716   0.04196   0.04354   0.05212   0.07104
 Alpha virt. eigenvalues --    0.07280   0.07698   0.11106   0.12596   0.14693
 Alpha virt. eigenvalues --    0.14927   0.15648   0.16330   0.17026   0.17381

  Beta  occ. eigenvalues --  -20.56240 -11.29714 -11.23258 -11.23239  -1.35613
  Beta  occ. eigenvalues --   -1.02977  -0.94719  -0.78702  -0.64374  -0.61657
  Beta  occ. eigenvalues --   -0.61638  -0.55477  -0.53279  -0.52276  -0.50098
  Beta  occ. eigenvalues --   -0.42661
  Beta virt. eigenvalues --    0.03535   0.04154   0.04366   0.05226   0.06969
  Beta virt. eigenvalues --    0.07279   0.07699   0.08930   0.11673   0.13679
  Beta virt. eigenvalues --    0.14790   0.14946   0.15665   0.16619   0.17405

 Mulliken charges and spin densities:
               1          2
     1  C    0.277953  -0.217421
     2  O   -1.001542   1.061026
     3  C   -0.272548   0.030620
     4  H    0.195882   0.005384
     5  H    0.193830  -0.000767
     6  H    0.138736  -0.004048
     7  C   -0.272548   0.030620
     8  H    0.211789   0.094016
     9  H    0.193828  -0.000767
    10  H    0.195882   0.005384
    11  H    0.138737  -0.004048
 Sum of Mulliken charges =  -0.00000   1.00000

 Dipole moment (field-independent basis, Debye):
    X=              0.0000    Y=             -1.7556    Z=             -0.6309  Tot=              1.8655
                          Isotropic Fermi Contact Couplings
        Atom                 a.u.       MegaHertz       Gauss      10(-4) cm-1
     1  C(13)             -0.05123     -57.59512     -20.55137     -19.21166
     2  O(17)              0.25652    -155.50379     -55.48762     -51.87048
     3  C(13)              0.01295      14.55722       5.19438       4.85577
     4  H(1)              -0.00068      -3.03972      -1.08465      -1.01394
     5  H(1)              -0.00083      -3.71357      -1.32509      -1.23871
     6  H(1)              -0.00061      -2.74259      -0.97863      -0.91483
     7  C(13)              0.01295      14.55718       5.19436       4.85575
     8  H(1)               0.03436     153.60143      54.80881      51.23592

 Normal termination of Gaussian 16 at Tue Apr  8 22:41:37 2025.
