 Gaussian 16, Revision C.01,

 ----------------------------------------------------------------------
 #t hf aug-cc-pvdz symm=none int=(grid=ultrafine) guess=(read,tcheck) s
 table=(opt,rrhf)
 ----------------------------------------------------------------------
 -----
 title
 -----
 Symbolic Z-matrix:
 Charge =  0 Multiplicity = 1

 SCF Done:  E(RHF) =  -480.645842529     A.U. after   15 cycles
 Normal termination of Gaussian 16 at Tue Apr  8 23:21:38 2025.
 Gaussian 16:  ES64L-G16RevC.01  3-Jul-2019

 ----------------------------------------------------------------------
 #t hf aug-cc-pvdz iop(5/13=1,5/36=2,99/5=2) pseudo=read geom=check gue
 ss=(read,tcheck) scf=(maxcycle=1)
 ----------------------------------------------------------------------
 -----
 title
 -----
 Structure from the checkpoint file:  "BDE49_nonexpt_1163_mol1.chk"
 Charge =  0 Multiplicity = 1

                         Standard orientation:
 ---------------------------------------------------------------------
 Center     Atomic      Atomic             Coordinates (Angstroms)
 Number     Number       Type             X           Y           Z
 ---------------------------------------------------------------------
      1          9           0        1.123605    1.826194   -0.600418
      2          8           0        0.219731    0.744763   -0.936197
      3          6           0       -0.057932    0.006198    0.296052
      4          8           0        1.042639   -0.682136    0.730917
      5          8           0       -1.006567   -0.894710   -0.188918
      6          6           0        1.613807   -1.631470   -0.181892
      7          1           0        2.531387   -1.972366    0.294065
      8          1           0        1.846469   -1.157887   -1.137400
      9          1           0        0.939165   -2.474626   -0.338946
     10          6           0       -2.323072   -0.410165   -0.474742
     11          1           0       -2.826083   -1.220845   -0.999717
     12          1           0       -2.294058    0.473048   -1.115635
     13          1           0       -2.870366   -0.186741    0.445668
     14          6           0       -0.509312    0.924215    1.416052
     15          1           0        0.334309    1.531429    1.736035
     16          1           0       -0.848349    0.313836    2.254018
     17          1           0       -1.312290    1.582407    1.086447
 ---------------------------------------------------------------------

 SCF Done:  E(RHF) =  -481.126196005     A.U. after    2 cycles

 The electronic state is 1-A.
 Alpha  occ. eigenvalues --  -26.49315 -20.66603 -20.57579 -20.56592 -11.42179
 Alpha  occ. eigenvalues --  -11.30128 -11.28438 -11.24298  -1.64760  -1.53599
 Alpha  occ. eigenvalues --   -1.46222  -1.33954  -1.04458  -0.97118  -0.93660
 Alpha  occ. eigenvalues --   -0.81800  -0.73946  -0.73611  -0.70799  -0.67339
 Alpha  occ. eigenvalues --   -0.65719  -0.63139  -0.62070  -0.60215  -0.59882
 Alpha  occ. eigenvalues --   -0.57522  -0.55809  -0.55581  -0.51666  -0.50219
 Alpha  occ. eigenvalues --   -0.49275  -0.46021  -0.45311
 Alpha virt. eigenvalues --    0.03429   0.04131   0.04363   0.04956   0.06020
 Alpha virt. eigenvalues --    0.06570   0.06952   0.07218   0.09209   0.10528
 Alpha virt. eigenvalues --    0.12604   0.13627   0.14397   0.14710   0.15224

 Mulliken charges:
               1
     1  F   -0.487691
     2  O   -0.768306
     3  C    3.325203
     4  O   -1.600638
     5  O   -1.678067
     6  C    0.011641
     7  H   -0.017750
     8  H    0.184187
     9  H    0.183031
    10  C    0.157899
    11  H   -0.016968
    12  H    0.171191
    13  H    0.170866
    14  C   -0.258007
    15  H    0.181515
    16  H    0.248514
    17  H    0.193379
 Sum of Mulliken charges =  -0.00000

 Dipole moment (field-independent basis, Debye):
    X=             -2.0363    Y=             -0.9368    Z=              0.5325  Tot=              2.3039

 Test job not archived.
 1\1\GINC-SE454\SP\RHF\Aug-CC-pVDZ\C4H9F1O3\OHZDE\08-Apr-2025\0\\#t hf
 aug-cc-pvdz iop(5/13=1,5/36=2,99/5=2) pseudo=read geom=check guess=(re
 ad,tcheck) scf=(maxcycle=1)\\title\\0,1\F,0,1.123605,1.826194,-0.60041
 8\O,0,0.219731,0.744763,-0.936197\C,0,-0.057932,0.006198,0.296052\O,0,
 1.042639,-0.682136,0.730917\O,0,-1.006567,-0.89471,-0.188918\C,0,1.613
 807,-1.63147,-0.181892\H,0,2.531387,-1.972366,0.294065\H,0,1.846469,-1
 .157887,-1.1374\H,0,0.939165,-2.474626,-0.338946\C,0,-2.323072,-0.4101
 65,-0.474742\H,0,-2.826083,-1.220845,-0.999717\H,0,-2.294058,0.473048,

 Normal termination of Gaussian 16 at Tue Apr  8 23:21:45 2025.
