 Gaussian 16, Revision C.01,

 ----------------------------------------------------------------------
 #t hf aug-cc-pvdz symm=none int=(grid=ultrafine) guess=(read,tcheck) s
 table=(opt,rrhf)
 ----------------------------------------------------------------------
 -----
 title
 -----
 Symbolic Z-matrix:
 Charge =  0 Multiplicity = 1

 SCF Done:  E(RHF) =  -2152.40944696     A.U. after   12 cycles
 Normal termination of Gaussian 16 at Tue Apr  8 23:43:14 2025.
 Gaussian 16:  ES64L-G16RevC.01  3-Jul-2019

 ----------------------------------------------------------------------
 #t hf aug-cc-pvdz iop(5/13=1,5/36=2,99/5=2) pseudo=read geom=check gue
 ss=(read,tcheck) scf=(maxcycle=1)
 ----------------------------------------------------------------------
 -----
 title
 -----
 Structure from the checkpoint file:  "BDE49_nonexpt_170_mol1.chk"
 Charge =  0 Multiplicity = 1

                         Standard orientation:
 ---------------------------------------------------------------------
 Center     Atomic      Atomic             Coordinates (Angstroms)
 Number     Number       Type             X           Y           Z
 ---------------------------------------------------------------------
      1         17           0       -1.480476   -0.113290    1.703785
      2         17           0       -2.415438    0.075422   -1.175327
      3          5           0       -1.112363   -0.003207   -0.001824
      4         14           0        0.803764    0.036878   -0.651915
      5         17           0        1.746682    1.693887    0.159941
      6         17           0        1.758629   -1.692384   -0.026709
      7          1           0        0.949363    0.117949   -2.112818
 ---------------------------------------------------------------------

 SCF Done:  E(RHF) =  -2152.76945217     A.U. after    2 cycles

 The electronic state is 1-A.
 Alpha  occ. eigenvalues -- -105.60058-105.59756-105.57935-105.57933 -69.63423
 Alpha  occ. eigenvalues --  -10.65063 -10.64766 -10.62949 -10.62937  -7.81951
 Alpha  occ. eigenvalues --   -7.81674  -7.81659  -7.81618  -7.81374  -7.81323
 Alpha  occ. eigenvalues --   -7.79833  -7.79826  -7.79513  -7.79509  -7.79503
 Alpha  occ. eigenvalues --   -7.79501  -7.73814  -6.29774  -4.05180  -4.05066
 Alpha  occ. eigenvalues --   -4.04929  -1.13229  -1.09215  -1.08012  -1.05761
 Alpha  occ. eigenvalues --   -0.77583  -0.69410  -0.61230  -0.59598  -0.57600
 Alpha  occ. eigenvalues --   -0.57160  -0.54720  -0.51868  -0.50031  -0.49173
 Alpha  occ. eigenvalues --   -0.48648  -0.48445  -0.48018  -0.43723
 Alpha virt. eigenvalues --    0.02071   0.04275   0.04541   0.05299   0.05641
 Alpha virt. eigenvalues --    0.07184   0.07449   0.07505   0.10141   0.11123
 Alpha virt. eigenvalues --    0.12335   0.12552   0.14631   0.14867   0.15214

 Mulliken charges:
               1
     1  Cl  -0.306911
     2  Cl  -0.286074
     3  B    0.266927
     4  Si   1.411169
     5  Cl  -0.526529
     6  Cl  -0.526943
     7  H   -0.031639
 Sum of Mulliken charges =   0.00000

 Dipole moment (field-independent basis, Debye):
    X=             -0.8653    Y=              0.0461    Z=             -0.9666  Tot=              1.2982

 Test job not archived.
 1\1\GINC-SE338\SP\RHF\Aug-CC-pVDZ\B1Cl4H1Si1\OHZDE\08-Apr-2025\0\\#t h
 f aug-cc-pvdz iop(5/13=1,5/36=2,99/5=2) pseudo=read geom=check guess=(
 read,tcheck) scf=(maxcycle=1)\\title\\0,1\Cl,0,1.480476,0.11329,1.7037
 85\Cl,0,2.415438,-0.075422,-1.175327\B,0,1.112363,0.003207,-0.001824\S
 i,0,-0.803764,-0.036878,-0.651915\Cl,0,-1.746682,-1.693887,0.159941\Cl
 ,0,-1.758629,1.692384,-0.026709\H,0,-0.949363,-0.117949,-2.112818\\Ver
 sion=ES64L-G16RevC.01\State=1-A\HF=-2152.7694522\RMSD=6.300e-03\Dipole
 =0.3404504,-0.0181447,-0.3803087\Quadrupole=-1.5845705,0.011824,1.5727

 Normal termination of Gaussian 16 at Tue Apr  8 23:43:17 2025.
