 Gaussian 16, Revision C.01,

 ----------------------------------------------------------------------
 #t hf aug-cc-pvdz symm=none int=(grid=ultrafine) guess=(read,tcheck) s
 table=(opt,rrhf)
 ----------------------------------------------------------------------
 -----
 title
 -----
 Symbolic Z-matrix:
 Charge =  0 Multiplicity = 1

 SCF Done:  E(RHF) =  -488.595348302     A.U. after   13 cycles
 Normal termination of Gaussian 16 at Tue Apr  8 23:00:44 2025.
 Gaussian 16:  ES64L-G16RevC.01  3-Jul-2019

 ----------------------------------------------------------------------
 #t hf aug-cc-pvdz iop(5/13=1,5/36=2,99/5=2) pseudo=read geom=check gue
 ss=(read,tcheck) scf=(maxcycle=1)
 ----------------------------------------------------------------------
 -----
 title
 -----
 Structure from the checkpoint file:  "BDE49_expt_221_mol1.chk"
 Charge =  0 Multiplicity = 1

                         Standard orientation:
 ---------------------------------------------------------------------
 Center     Atomic      Atomic             Coordinates (Angstroms)
 Number     Number       Type             X           Y           Z
 ---------------------------------------------------------------------
      1          6           0       -0.610409   -0.035299    0.000016
      2          6           0        0.907212    0.308010    0.000231
      3          8           0        1.249367    1.457917   -0.000001
      4          6           0        1.827571   -0.882780   -0.000018
      5          1           0        1.634170   -1.503450   -0.879226
      6          1           0        1.634433   -1.503586    0.879149
      7          1           0        2.861062   -0.541747   -0.000148
      8          9           0       -0.917581   -0.774074    1.089849
      9          9           0       -0.917254   -0.774227   -1.089806
     10          9           0       -1.373037    1.053396   -0.000170
 ---------------------------------------------------------------------

 SCF Done:  E(RHF) =  -489.054593262     A.U. after    2 cycles

 The electronic state is 1-A.
 Alpha  occ. eigenvalues --  -26.52442 -26.52439 -26.52021 -20.58774 -11.53695
 Alpha  occ. eigenvalues --  -11.38859 -11.27565  -1.73032  -1.63095  -1.62927
 Alpha  occ. eigenvalues --   -1.52186  -1.07604  -0.99112  -0.87763  -0.82565
 Alpha  occ. eigenvalues --   -0.82474  -0.75506  -0.70556  -0.70515  -0.66543
 Alpha  occ. eigenvalues --   -0.65665  -0.65129  -0.64823  -0.63678  -0.62600
 Alpha  occ. eigenvalues --   -0.58469  -0.53981  -0.45876
 Alpha virt. eigenvalues --    0.03223   0.05150   0.05302   0.07627   0.09121
 Alpha virt. eigenvalues --    0.09391   0.11058   0.11913   0.12312   0.12823
 Alpha virt. eigenvalues --    0.14965   0.15463   0.16474   0.17002   0.20107

 Mulliken charges:
               1
     1  C    2.665199
     2  C    0.506632
     3  O   -1.195113
     4  C   -0.452618
     5  H    0.284382
     6  H    0.284376
     7  H    0.130690
     8  F   -0.730037
     9  F   -0.730073
    10  F   -0.763439
 Sum of Mulliken charges =  -0.00000

 Dipole moment (field-independent basis, Debye):
    X=              1.5071    Y=             -2.3862    Z=              0.0002  Tot=              2.8223

 Test job not archived.
 1\1\GINC-SE455\SP\RHF\Aug-CC-pVDZ\C3H3F3O1\OHZDE\08-Apr-2025\0\\#t hf
 aug-cc-pvdz iop(5/13=1,5/36=2,99/5=2) pseudo=read geom=check guess=(re
 ad,tcheck) scf=(maxcycle=1)\\title\\0,1\C,0,-0.610409,-0.035299,0.0000
 16\C,0,0.907212,0.30801,0.000231\O,0,1.249367,1.457917,-0.000001\C,0,1
 .827571,-0.88278,-0.000018\H,0,1.63417,-1.50345,-0.879226\H,0,1.634433
 ,-1.503586,0.879149\H,0,2.861062,-0.541748,-0.000148\F,0,-0.917581,-0.
 774074,1.089849\F,0,-0.917254,-0.774227,-1.089806\F,0,-1.373037,1.0533
 96,-0.00017\\Version=ES64L-G16RevC.01\State=1-A\HF=-489.0545933\RMSD=8

 Normal termination of Gaussian 16 at Tue Apr  8 23:00:47 2025.
