 Gaussian 16, Revision C.01,

 ----------------------------------------------------------------------
 #t hf aug-cc-pvdz symm=none int=(grid=ultrafine) guess=(read,tcheck) s
 table=(opt,rrhf)
 ----------------------------------------------------------------------
 -----
 title
 -----
 Symbolic Z-matrix:
 Charge =  0 Multiplicity = 1

 SCF Done:  E(RHF) =  -291.882299045     A.U. after   14 cycles
 Normal termination of Gaussian 16 at Tue Apr  8 23:19:55 2025.
 Gaussian 16:  ES64L-G16RevC.01  3-Jul-2019

 ----------------------------------------------------------------------
 #t hf aug-cc-pvdz iop(5/13=1,5/36=2,99/5=2) pseudo=read geom=check gue
 ss=(read,tcheck) scf=(maxcycle=1)
 ----------------------------------------------------------------------
 -----
 title
 -----
 Structure from the checkpoint file:  "BDE49_nonexpt_1120_mol1.chk"
 Charge =  0 Multiplicity = 1

                         Standard orientation:
 ---------------------------------------------------------------------
 Center     Atomic      Atomic             Coordinates (Angstroms)
 Number     Number       Type             X           Y           Z
 ---------------------------------------------------------------------
      1          9           0        1.896514   -0.158216    0.103480
      2          8           0        0.632148   -0.726031   -0.326850
      3          6           0       -0.390367    0.028091    0.340011
      4          6           0       -0.409887    1.479226   -0.120015
      5          1           0        0.547413    1.956891    0.089574
      6          1           0       -1.193510    2.031660    0.405504
      7          1           0       -0.600665    1.536216   -1.194769
      8          6           0       -1.657883   -0.749572   -0.011468
      9          1           0       -0.199345   -0.035633    1.416938
     10          1           0       -1.827399   -0.745143   -1.090666
     11          1           0       -2.513028   -0.274928    0.474791
     12          1           0       -1.590455   -1.783344    0.330938
 ---------------------------------------------------------------------

 SCF Done:  E(RHF) =  -292.177520444     A.U. after    2 cycles

 The electronic state is 1-A.
 Alpha  occ. eigenvalues --  -26.48684 -20.66339 -11.31375 -11.24846 -11.23830
 Alpha  occ. eigenvalues --   -1.63748  -1.35748  -1.06018  -0.96025  -0.82902
 Alpha  occ. eigenvalues --   -0.71476  -0.68074  -0.67848  -0.63084  -0.58615
 Alpha  occ. eigenvalues --   -0.57372  -0.56232  -0.53951  -0.53443  -0.50894
 Alpha  occ. eigenvalues --   -0.46953
 Alpha virt. eigenvalues --    0.03452   0.04147   0.04200   0.05273   0.07057
 Alpha virt. eigenvalues --    0.07264   0.07474   0.11664   0.12545   0.14416
 Alpha virt. eigenvalues --    0.14535   0.15025   0.15816   0.16705   0.16923

 Mulliken charges:
               1
     1  F   -0.463838
     2  O   -0.582256
     3  C    0.354934
     4  C   -0.336240
     5  H    0.195170
     6  H    0.200283
     7  H    0.213581
     8  C   -0.305853
     9  H    0.152117
    10  H    0.212062
    11  H    0.213011
    12  H    0.147028
 Sum of Mulliken charges =  -0.00000

 Dipole moment (field-independent basis, Debye):
    X=             -2.6219    Y=              0.8245    Z=              0.6650  Tot=              2.8278

 Test job not archived.
 1\1\GINC-SE284\SP\RHF\Aug-CC-pVDZ\C3H7F1O1\OHZDE\08-Apr-2025\0\\#t hf
 aug-cc-pvdz iop(5/13=1,5/36=2,99/5=2) pseudo=read geom=check guess=(re
 ad,tcheck) scf=(maxcycle=1)\\title\\0,1\F,0,1.896514,-0.158216,0.10348
 \O,0,0.632148,-0.726031,-0.32685\C,0,-0.390367,0.028091,0.340011\C,0,-
 0.409887,1.479226,-0.120015\H,0,0.547414,1.956891,0.089574\H,0,-1.1935
 09,2.03166,0.405504\H,0,-0.600665,1.536216,-1.194769\C,0,-1.657883,-0.
 749571,-0.011468\H,0,-0.199345,-0.035633,1.416938\H,0,-1.827399,-0.745
 142,-1.090666\H,0,-2.513028,-0.274927,0.474791\H,0,-1.590455,-1.783343

 Normal termination of Gaussian 16 at Tue Apr  8 23:19:58 2025.
