 Gaussian 16, Revision C.01,

 ----------------------------------------------------------------------
 #t hf aug-cc-pvdz symm=none int=(grid=ultrafine) guess=(read,tcheck) s
 table=(opt,rrhf)
 ----------------------------------------------------------------------
 -----
 title
 -----
 Symbolic Z-matrix:
 Charge =  0 Multiplicity = 1

 SCF Done:  E(RHF) =  -463.452710851     A.U. after   12 cycles
 Normal termination of Gaussian 16 at Tue Apr  8 23:59:43 2025.
 Gaussian 16:  ES64L-G16RevC.01  3-Jul-2019

 ----------------------------------------------------------------------
 #t hf aug-cc-pvdz iop(5/13=1,5/36=2,99/5=2) pseudo=read geom=check gue
 ss=(read,tcheck) scf=(maxcycle=1)
 ----------------------------------------------------------------------
 -----
 title
 -----
 Structure from the checkpoint file:  "BDE49_nonexpt_2101_mol1.chk"
 Charge =  0 Multiplicity = 1

                         Standard orientation:
 ---------------------------------------------------------------------
 Center     Atomic      Atomic             Coordinates (Angstroms)
 Number     Number       Type             X           Y           Z
 ---------------------------------------------------------------------
      1          7           0       -0.706068    1.667389   -0.218949
      2         14           0       -0.464615    0.047896    0.343499
      3          1           0       -0.182205    2.429377    0.185999
      4          1           0       -0.918212    1.854578   -1.188656
      5          6           0        1.104409   -0.798011   -0.286872
      6          6           0        2.407776   -0.040729    0.019748
      7          1           0        1.007486   -0.950590   -1.369913
      8          1           0        1.144691   -1.804063    0.151084
      9          1           0        2.398858    0.959108   -0.424910
     10          1           0        3.286107   -0.564340   -0.369525
     11          6           0       -1.958103   -0.981138   -0.140680
     12          1           0       -2.870791   -0.576505    0.303798
     13          1           0       -1.847295   -2.018093    0.190336
     14          1           0       -2.092755   -0.997092   -1.227441
     15          1           0        2.552470    0.082977    1.097585
     16          1           0       -0.355758    0.161641    1.822128
 ---------------------------------------------------------------------

 SCF Done:  E(RHF) =  -463.681714201     A.U. after    2 cycles

 The electronic state is 1-A.
 Alpha  occ. eigenvalues --  -69.52068 -15.46751 -11.22501 -11.20854 -11.20703
 Alpha  occ. eigenvalues --   -6.18883  -3.94285  -3.94243  -3.94177  -1.13031
 Alpha  occ. eigenvalues --   -1.01624  -0.94283  -0.83952  -0.70906  -0.68125
 Alpha  occ. eigenvalues --   -0.60820  -0.58851  -0.56106  -0.55799  -0.53130
 Alpha  occ. eigenvalues --   -0.50965  -0.49192  -0.46923  -0.44937  -0.39920
 Alpha virt. eigenvalues --    0.03293   0.04070   0.04221   0.04438   0.06078
 Alpha virt. eigenvalues --    0.06369   0.06611   0.06960   0.07498   0.09124
 Alpha virt. eigenvalues --    0.09757   0.10363   0.10590   0.12442   0.14043

 Mulliken charges:
               1
     1  N    0.079213
     2  Si   1.157209
     3  H   -0.050414
     4  H   -0.021074
     5  C   -0.443365
     6  C   -0.537177
     7  H    0.080433
     8  H    0.014164
     9  H    0.147436
    10  H    0.090020
    11  C   -0.592010
    12  H   -0.025034
    13  H   -0.025241
    14  H    0.127765
    15  H    0.136593
    16  H   -0.138516
 Sum of Mulliken charges =  -0.00000

 Dipole moment (field-independent basis, Debye):
    X=              0.5324    Y=              0.0351    Z=             -0.9382  Tot=              1.0793

 Test job not archived.
 1\1\GINC-SE072\SP\RHF\Aug-CC-pVDZ\C3H11N1Si1\OHZDE\08-Apr-2025\0\\#t h
 f aug-cc-pvdz iop(5/13=1,5/36=2,99/5=2) pseudo=read geom=check guess=(
 read,tcheck) scf=(maxcycle=1)\\title\\0,1\N,0,-0.706068,1.667389,-0.21
 8949\Si,0,-0.464615,0.047896,0.343499\H,0,-0.182205,2.429377,0.185999\
 H,0,-0.918212,1.854578,-1.188656\C,0,1.104409,-0.798011,-0.286872\C,0,
 2.407776,-0.040729,0.019748\H,0,1.007486,-0.95059,-1.369913\H,0,1.1446
 91,-1.804063,0.151084\H,0,2.398858,0.959108,-0.42491\H,0,3.286107,-0.5
 6434,-0.369525\C,0,-1.958103,-0.981138,-0.14068\H,0,-2.870791,-0.57650

 Normal termination of Gaussian 16 at Tue Apr  8 23:59:48 2025.
