 Gaussian 16, Revision C.01,

 ----------------------------------------------------------------------
 #t hf aug-cc-pvdz symm=none int=(grid=ultrafine) guess=(read,tcheck) s
 table=(opt,rrhf)
 ----------------------------------------------------------------------
 -----
 title
 -----
 Symbolic Z-matrix:
 Charge =  0 Multiplicity = 1

 SCF Done:  E(RHF) =  -380.453115245     A.U. after   12 cycles
 Normal termination of Gaussian 16 at Wed Apr  9 00:32:45 2025.
 Gaussian 16:  ES64L-G16RevC.01  3-Jul-2019

 ----------------------------------------------------------------------
 #t hf aug-cc-pvdz iop(5/13=1,5/36=2,99/5=2) pseudo=read geom=check gue
 ss=(read,tcheck) scf=(maxcycle=1)
 ----------------------------------------------------------------------
 -----
 title
 -----
 Structure from the checkpoint file:  "BDE49_nonexpt_371_mol1.chk"
 Charge =  0 Multiplicity = 1

                         Standard orientation:
 ---------------------------------------------------------------------
 Center     Atomic      Atomic             Coordinates (Angstroms)
 Number     Number       Type             X           Y           Z
 ---------------------------------------------------------------------
      1          9           0       -2.038326   -0.510500   -0.759888
      2          9           0       -0.850207   -1.256091    0.999824
      3          5           0       -0.933171   -0.410581   -0.025215
      4          6           0        0.156738    0.673819   -0.316363
      5          6           0        1.552860    0.315820    0.226950
      6          6           0       -0.345390    2.026117    0.255329
      7          1           0       -0.438501    1.986525    1.344991
      8          1           0       -1.319417    2.303905   -0.155497
      9          1           0        0.360156    2.826099    0.013498
     10          1           0        0.221553    0.791217   -1.406432
     11          6           0        2.162237   -0.936100   -0.411981
     12          1           0        1.492528    0.178476    1.312322
     13          1           0        2.221876    1.168777    0.063113
     14          1           0        1.556102   -1.823992   -0.208860
     15          1           0        3.164770   -1.130317   -0.022153
     16          1           0        2.244918   -0.826407   -1.497941
 ---------------------------------------------------------------------

 SCF Done:  E(RHF) =  -380.834084319     A.U. after    2 cycles

 The electronic state is 1-A.
 Alpha  occ. eigenvalues --  -26.47137 -26.47061 -11.24191 -11.23769 -11.22999
 Alpha  occ. eigenvalues --  -11.22989  -7.70572  -1.62257  -1.58073  -1.08829
 Alpha  occ. eigenvalues --   -0.99626  -0.88046  -0.82634  -0.78541  -0.73527
 Alpha  occ. eigenvalues --   -0.70160  -0.68580  -0.63666  -0.62603  -0.61351
 Alpha  occ. eigenvalues --   -0.59814  -0.59442  -0.58411  -0.53413  -0.51120
 Alpha  occ. eigenvalues --   -0.48866  -0.47900  -0.46557
 Alpha virt. eigenvalues --    0.03523   0.03626   0.03786   0.04117   0.06225
 Alpha virt. eigenvalues --    0.06486   0.06597   0.06879   0.07530   0.09245
 Alpha virt. eigenvalues --    0.09718   0.10268   0.12365   0.13437   0.13940

 Mulliken charges:
               1
     1  F   -0.824345
     2  F   -0.717415
     3  B    1.869353
     4  C   -0.372337
     5  C   -0.347256
     6  C   -0.304186
     7  H    0.132955
     8  H    0.068459
     9  H    0.158640
    10  H    0.024589
    11  C   -0.321860
    12  H    0.117310
    13  H    0.114589
    14  H    0.125660
    15  H    0.103544
    16  H    0.172299
 Sum of Mulliken charges =   0.00000

 Dipole moment (field-independent basis, Debye):
    X=              1.3495    Y=              1.2546    Z=             -0.2645  Tot=              1.8615

 Test job not archived.
 1\1\GINC-SE222\SP\RHF\Aug-CC-pVDZ\C4H9B1F2\OHZDE\09-Apr-2025\0\\#t hf
 aug-cc-pvdz iop(5/13=1,5/36=2,99/5=2) pseudo=read geom=check guess=(re
 ad,tcheck) scf=(maxcycle=1)\\title\\0,1\F,0,-2.038326,-0.510501,-0.759
 888\F,0,-0.850206,-1.256091,0.999824\B,0,-0.933171,-0.410581,-0.025215
 \C,0,0.156738,0.673819,-0.316363\C,0,1.55286,0.315821,0.22695\C,0,-0.3
 45391,2.026117,0.255329\H,0,-0.438502,1.986525,1.344991\H,0,-1.319418,
 2.303905,-0.155497\H,0,0.360155,2.826099,0.013498\H,0,0.221553,0.79121
 7,-1.406432\C,0,2.162237,-0.936099,-0.411981\H,0,1.492528,0.178477,1.3

 Normal termination of Gaussian 16 at Wed Apr  9 00:32:57 2025.
