 Gaussian 16, Revision C.01,

 ----------------------------------------------------------------------
 #t hf aug-cc-pvdz symm=none int=(grid=ultrafine) guess=(read,tcheck) s
 table=opt
 ----------------------------------------------------------------------
 -----
 title
 -----
 Symbolic Z-matrix:
 Charge =  0 Multiplicity = 2

 SCF Done:  E(UHF) =  -535.909725890     A.U. after   18 cycles

 1\1\GINC-SE054\Stability\UHF\Aug-CC-pVDZ\C5H10P1\OHZDE\08-Apr-2025\0\\
 #t hf aug-cc-pvdz symm=none int=(grid=ultrafine) guess=(read,tcheck) s
 table=opt\\title\\0,2\P,0,0.758785,-1.389564,0.\C,0,-0.121741,-0.52757
 5,1.39985\C,0,-0.121741,1.009346,1.283321\C,0,-0.794,1.516177,0.\C,0,-
 0.121741,1.009346,-1.283321\C,0,-0.121741,-0.527575,-1.39985\H,0,0.349
 323,-0.843101,2.334967\H,0,-1.157048,-0.894143,1.429351\H,0,0.911284,1
 .375369,-1.320108\H,0,-0.631306,1.434457,-2.155535\H,0,0.349323,-0.843
 101,-2.334967\H,0,-1.157048,-0.894143,-1.429351\H,0,0.911284,1.375369,

 Normal termination of Gaussian 16 at Tue Apr  8 23:25:37 2025.
 Gaussian 16:  ES64L-G16RevC.01  3-Jul-2019

 ----------------------------------------------------------------------
 #t hf aug-cc-pvdz iop(5/13=1,5/36=2,99/5=2) pseudo=read geom=check gue
 ss=(read,tcheck) scf=(maxcycle=1)
 ----------------------------------------------------------------------
 -----
 title
 -----
 Structure from the checkpoint file:  "BDE49_nonexpt_1254_mol2.chk"
 Charge =  0 Multiplicity = 2

                         Standard orientation:
 ---------------------------------------------------------------------
 Center     Atomic      Atomic             Coordinates (Angstroms)
 Number     Number       Type             X           Y           Z
 ---------------------------------------------------------------------
      1         15           0        0.758785   -1.389564   -0.000000
      2          6           0       -0.121741   -0.527575    1.399850
      3          6           0       -0.121741    1.009346    1.283321
      4          6           0       -0.794000    1.516177    0.000000
      5          6           0       -0.121741    1.009346   -1.283321
      6          6           0       -0.121741   -0.527575   -1.399850
      7          1           0        0.349323   -0.843101    2.334967
      8          1           0       -1.157048   -0.894143    1.429351
      9          1           0        0.911284    1.375369   -1.320108
     10          1           0       -0.631306    1.434457   -2.155535
     11          1           0        0.349323   -0.843101   -2.334967
     12          1           0       -1.157048   -0.894143   -1.429351
     13          1           0        0.911284    1.375369    1.320108
     14          1           0       -0.631306    1.434457    2.155535
     15          1           0       -0.792488    2.611189    0.000000
     16          1           0       -1.848010    1.208785    0.000000
 ---------------------------------------------------------------------

 SCF Done:  E(UHF) =  -536.166154425     A.U. after    2 cycles

 The electronic state is 2-A'.
 Alpha  occ. eigenvalues --  -84.26071 -11.23591 -11.23585 -11.23503 -11.23490
 Alpha  occ. eigenvalues --  -11.23106  -6.73277  -4.26025  -4.25491  -4.24909
 Alpha  occ. eigenvalues --   -1.10399  -1.01127  -0.97031  -0.83701  -0.80614
 Alpha  occ. eigenvalues --   -0.73137  -0.64405  -0.61191  -0.60531  -0.57692
 Alpha  occ. eigenvalues --   -0.54823  -0.51875  -0.49620  -0.49038  -0.47604
 Alpha  occ. eigenvalues --   -0.41355  -0.35340  -0.29793
 Alpha virt. eigenvalues --    0.03677   0.03736   0.03882   0.04407   0.05898
 Alpha virt. eigenvalues --    0.06213   0.06391   0.07214   0.07426   0.09387
 Alpha virt. eigenvalues --    0.09721   0.12123   0.13262   0.13589   0.14469

  Beta  occ. eigenvalues --  -84.25393 -11.23645 -11.23633 -11.23509 -11.23501
  Beta  occ. eigenvalues --  -11.23118  -6.72417  -4.24958  -4.24539  -4.22708
  Beta  occ. eigenvalues --   -1.10013  -1.00984  -0.95820  -0.83656  -0.79260
  Beta  occ. eigenvalues --   -0.69875  -0.64258  -0.60882  -0.59321  -0.56721
  Beta  occ. eigenvalues --   -0.54740  -0.51611  -0.49316  -0.48546  -0.47460
  Beta  occ. eigenvalues --   -0.41140  -0.33397
  Beta virt. eigenvalues --    0.03541   0.03748   0.03760   0.04425   0.05792
  Beta virt. eigenvalues --    0.05913   0.06254   0.06401   0.07486   0.08860
  Beta virt. eigenvalues --    0.09402   0.09883   0.12197   0.13705   0.13952

 Mulliken charges and spin densities:
               1          2
     1  P    1.093780   1.243005
     2  C   -0.634427  -0.132034
     3  C   -0.359447   0.013799
     4  C   -0.395128  -0.002442
     5  C   -0.359447   0.013799
     6  C   -0.634427  -0.132034
     7  H    0.082758  -0.003269
     8  H    0.172331   0.005788
     9  H    0.143286  -0.006588
    10  H    0.113368   0.003223
    11  H    0.082758  -0.003269
    12  H    0.172331   0.005788
    13  H    0.143286  -0.006588
    14  H    0.113368   0.003223
    15  H    0.128129   0.000107
    16  H    0.137480  -0.002509
 Sum of Mulliken charges =  -0.00000   1.00000

 Dipole moment (field-independent basis, Debye):
    X=             -0.9408    Y=              1.0467    Z=             -0.0000  Tot=              1.4074
                          Isotropic Fermi Contact Couplings
        Atom                 a.u.       MegaHertz       Gauss      10(-4) cm-1
     1  P(31)              0.21072     381.62608     136.17367     127.29676
     2  C(13)             -0.02597     -29.19302     -10.41680      -9.73774
     3  C(13)              0.01883      21.16989       7.55394       7.06151
     4  C(13)             -0.00223      -2.50615      -0.89426      -0.83596
     5  C(13)              0.01883      21.16989       7.55394       7.06151
     6  C(13)             -0.02597     -29.19302     -10.41680      -9.73774
     7  H(1)               0.00056       2.50147       0.89259       0.83440
     8  H(1)               0.01017      45.44125      16.21457      15.15757

 Normal termination of Gaussian 16 at Tue Apr  8 23:25:42 2025.
