 Gaussian 16, Revision C.01,

 ----------------------------------------------------------------------
 #t hf aug-cc-pvdz symm=none int=(grid=ultrafine) guess=(read,tcheck) s
 table=opt
 ----------------------------------------------------------------------
 -----
 title
 -----
 Symbolic Z-matrix:
 Charge =  0 Multiplicity = 2

 SCF Done:  E(UHF) =  -710.930053893     A.U. after   17 cycles
 Normal termination of Gaussian 16 at Wed Apr  9 00:33:05 2025.
 Gaussian 16:  ES64L-G16RevC.01  3-Jul-2019

 ----------------------------------------------------------------------
 #t hf aug-cc-pvdz iop(5/13=1,5/36=2,99/5=2) pseudo=read geom=check gue
 ss=(read,tcheck) scf=(maxcycle=1)
 ----------------------------------------------------------------------
 -----
 title
 -----
 Structure from the checkpoint file:  "BDE49_nonexpt_404_mol2.chk"
 Charge =  0 Multiplicity = 2

                         Standard orientation:
 ---------------------------------------------------------------------
 Center     Atomic      Atomic             Coordinates (Angstroms)
 Number     Number       Type             X           Y           Z
 ---------------------------------------------------------------------
      1          9           0       -2.405809    0.226102   -0.000029
      2          5           0       -1.283072    0.868500   -0.000025
      3         16           0        0.357223   -0.163885    0.000012
      4          8           0        0.414023   -0.874208   -1.269715
      5          6           0        1.662595    1.063978   -0.000058
      6          8           0        0.414039   -0.874081    1.269810
      7          1           0        1.575543    1.670178   -0.901112
      8          1           0        2.600915    0.506743   -0.000034
      9          1           0        1.575553    1.670271    0.900935
 ---------------------------------------------------------------------

 SCF Done:  E(UHF) =  -711.291345453     A.U. after    2 cycles

 The electronic state is 2-A.
 Alpha  occ. eigenvalues --  -94.19340 -26.53800 -20.54843 -20.54841 -11.29933
 Alpha  occ. eigenvalues --   -8.44903  -7.76443  -6.42927  -6.42875  -6.42690
 Alpha  occ. eigenvalues --   -1.67348  -1.56086  -1.44603  -1.07764  -0.91839
 Alpha  occ. eigenvalues --   -0.82826  -0.75628  -0.71628  -0.71532  -0.68097
 Alpha  occ. eigenvalues --   -0.67212  -0.61953  -0.61512  -0.52469  -0.51088
 Alpha  occ. eigenvalues --   -0.47904  -0.47296  -0.38910
 Alpha virt. eigenvalues --    0.02147   0.02733   0.04168   0.05332   0.05705
 Alpha virt. eigenvalues --    0.06672   0.07260   0.08495   0.12333   0.13253
 Alpha virt. eigenvalues --    0.13887   0.14454   0.16259   0.16493   0.17735

  Beta  occ. eigenvalues --  -94.19192 -26.53527 -20.54647 -20.54644 -11.29942
  Beta  occ. eigenvalues --   -8.44702  -7.74481  -6.42874  -6.42611  -6.42342
  Beta  occ. eigenvalues --   -1.66596  -1.55521  -1.44046  -1.07457  -0.90027
  Beta  occ. eigenvalues --   -0.81738  -0.73867  -0.71605  -0.69502  -0.67515
  Beta  occ. eigenvalues --   -0.66920  -0.61498  -0.61222  -0.50063  -0.49502
  Beta  occ. eigenvalues --   -0.47185  -0.44127
  Beta virt. eigenvalues --    0.00563   0.03344   0.03555   0.05230   0.05519
  Beta virt. eigenvalues --    0.06365   0.06706   0.08580   0.09240   0.12379
  Beta virt. eigenvalues --    0.13936   0.14107   0.15445   0.16562   0.16976

 Mulliken charges and spin densities:
               1          2
     1  F   -0.456582  -0.019003
     2  B    0.714847   0.932859
     3  S    2.805821   0.020058
     4  O   -1.478101   0.038674
     5  C   -0.792261  -0.005326
     6  O   -1.478100   0.038672
     7  H    0.218192  -0.001147
     8  H    0.247989  -0.003638
     9  H    0.218195  -0.001148
 Sum of Mulliken charges =  -0.00000   1.00000

 Dipole moment (field-independent basis, Debye):
    X=              0.5935    Y=              4.5443    Z=             -0.0002  Tot=              4.5828
                          Isotropic Fermi Contact Couplings
        Atom                 a.u.       MegaHertz       Gauss      10(-4) cm-1
     1  F(19)              0.05467     230.02679      82.07928      76.72868
     2  B(11)              0.37360     535.88126     191.21576     178.75075
     3  S(33)              0.23045      79.15181      28.24333      26.40220
     4  O(17)              0.01398      -8.47670      -3.02470      -2.82752
     5  C(13)             -0.00477      -5.36144      -1.91309      -1.78838
     6  O(17)              0.01398      -8.47588      -3.02441      -2.82725
     7  H(1)               0.00002       0.10574       0.03773       0.03527
     8  H(1)              -0.00066      -2.96441      -1.05778      -0.98882

 Normal termination of Gaussian 16 at Wed Apr  9 00:33:09 2025.
