 Gaussian 16, Revision C.01,

 ----------------------------------------------------------------------
 #t hf aug-cc-pvdz symm=none int=(grid=ultrafine) guess=(read,tcheck) s
 table=(opt,rrhf)
 ----------------------------------------------------------------------
 -----
 title
 -----
 Symbolic Z-matrix:
 Charge =  0 Multiplicity = 1

 SCF Done:  E(RHF) =  -102.098728926     A.U. after   12 cycles
 Normal termination of Gaussian 16 at Wed Apr  9 00:35:46 2025.
 Gaussian 16:  ES64L-G16RevC.01  3-Jul-2019

 ----------------------------------------------------------------------
 #t hf aug-cc-pvdz iop(5/13=1,5/36=2,99/5=2) pseudo=read geom=check gue
 ss=(read,tcheck) scf=(maxcycle=1)
 ----------------------------------------------------------------------
 -----
 title
 -----
 Structure from the checkpoint file:  "BDE49_nonexpt_486_mol1.chk"
 Charge =  0 Multiplicity = 1

                         Standard orientation:
 ---------------------------------------------------------------------
 Center     Atomic      Atomic             Coordinates (Angstroms)
 Number     Number       Type             X           Y           Z
 ---------------------------------------------------------------------
      1          1           0        1.988695   -1.030705    0.000002
      2          1           0        1.988672    1.030733    0.000002
      3          5           0        1.394295    0.000007   -0.000002
      4          6           0       -0.108015   -0.000010    0.000000
      5          6           0       -1.319526   -0.000017    0.000000
      6          1           0       -2.383590    0.000094    0.000001
 ---------------------------------------------------------------------

 SCF Done:  E(RHF) =  -102.203989410     A.U. after    2 cycles

 The electronic state is 1-A.
 Alpha  occ. eigenvalues --  -11.26503 -11.23482  -7.62029  -1.04003  -0.80214
 Alpha  occ. eigenvalues --   -0.72409  -0.57258  -0.53094  -0.42760  -0.40548
 Alpha virt. eigenvalues --    0.02866   0.03335   0.04364   0.05129   0.06042
 Alpha virt. eigenvalues --    0.06260   0.09892   0.10762   0.12420   0.13709
 Alpha virt. eigenvalues --    0.14103   0.16903   0.17787   0.18657   0.19853

 Mulliken charges:
               1
     1  H    0.165089
     2  H    0.165092
     3  B   -0.459740
     4  C   -0.312219
     5  C    0.759587
     6  H   -0.317810
 Sum of Mulliken charges =   0.00000

 Dipole moment (field-independent basis, Debye):
    X=             -0.8038    Y=              0.0002    Z=             -0.0000  Tot=              0.8038

 Test job not archived.
 1\1\GINC-SE338\SP\RHF\Aug-CC-pVDZ\C2H3B1\OHZDE\09-Apr-2025\0\\#t hf au
 g-cc-pvdz iop(5/13=1,5/36=2,99/5=2) pseudo=read geom=check guess=(read
 ,tcheck) scf=(maxcycle=1)\\title\\0,1\H,0,-1.988695,-1.030705,-0.00000
 2\H,0,-1.988672,1.030733,-0.000002\B,0,-1.394295,0.000007,0.000002\C,0
 ,0.108015,-0.00001,0.\C,0,1.319526,-0.000017,0.\H,0,2.38359,0.000094,-
 0.000001\\Version=ES64L-G16RevC.01\State=1-A\HF=-102.2039894\RMSD=3.22
 7e-02\Dipole=0.3162405,0.0000603,0.0000026\Quadrupole=2.8340534,-2.124
 6193,-0.7094341,0.0002569,-0.0000108,0.\PG=C01 [X(C2H3B1)]\\@

 Normal termination of Gaussian 16 at Wed Apr  9 00:35:47 2025.
