 Gaussian 16, Revision C.01,

 ----------------------------------------------------------------------
 #t hf aug-cc-pvdz symm=none int=(grid=ultrafine) guess=(read,tcheck) s
 table=(opt,rrhf)
 ----------------------------------------------------------------------
 -----
 title
 -----
 Symbolic Z-matrix:
 Charge =  0 Multiplicity = 1

 SCF Done:  E(RHF) =  -1658.79154249     A.U. after   15 cycles
 Normal termination of Gaussian 16 at Tue Apr  8 23:29:42 2025.
 Gaussian 16:  ES64L-G16RevC.01  3-Jul-2019

 ----------------------------------------------------------------------
 #t hf aug-cc-pvdz iop(5/13=1,5/36=2,99/5=2) pseudo=read geom=check gue
 ss=(read,tcheck) scf=(maxcycle=1)
 ----------------------------------------------------------------------
 -----
 title
 -----
 Structure from the checkpoint file:  "BDE49_nonexpt_1356_mol1.chk"
 Charge =  0 Multiplicity = 1

                         Standard orientation:
 ---------------------------------------------------------------------
 Center     Atomic      Atomic             Coordinates (Angstroms)
 Number     Number       Type             X           Y           Z
 ---------------------------------------------------------------------
      1          9           0       -0.000001   -1.333372   -1.709825
      2          9           0       -2.591349    1.438985    0.387405
      3          9           0        2.591351    1.438982    0.387405
      4         15           0       -0.000001   -2.081275   -0.217782
      5         15           0       -1.684983    0.607989   -0.652530
      6         15           0        1.684984    0.607986   -0.652530
      7          6           0        1.358237   -0.913905    0.464800
      8          6           0       -1.358238   -0.913903    0.464800
      9          6           0        0.000001    1.401086   -0.167436
     10          8           0        1.958581   -1.127449    1.473693
     11          8           0       -1.958585   -1.127448    1.473691
     12          8           0        0.000002    2.459706    0.388214
 ---------------------------------------------------------------------

 SCF Done:  E(RHF) =  -1659.50123886     A.U. after    2 cycles

 The electronic state is 1-A.
 Alpha  occ. eigenvalues --  -84.41603 -84.40338 -84.40320 -26.52832 -26.49988
 Alpha  occ. eigenvalues --  -26.49988 -20.62197 -20.62197 -20.60995 -11.41248
 Alpha  occ. eigenvalues --  -11.41246 -11.40433  -6.87953  -6.86635  -6.86625
 Alpha  occ. eigenvalues --   -4.40438  -4.39960  -4.39581  -4.39453  -4.39309
 Alpha  occ. eigenvalues --   -4.38727  -4.38558  -4.38175  -4.38127  -1.63645
 Alpha  occ. eigenvalues --   -1.61486  -1.61449  -1.55369  -1.55226  -1.54121
 Alpha  occ. eigenvalues --   -1.04587  -0.96021  -0.96006  -0.82111  -0.81665
 Alpha  occ. eigenvalues --   -0.77465  -0.73713  -0.73193  -0.72860  -0.72725
 Alpha  occ. eigenvalues --   -0.71197  -0.69271  -0.68287  -0.67611  -0.66318
 Alpha  occ. eigenvalues --   -0.65295  -0.63738  -0.62559  -0.62200  -0.58962
 Alpha  occ. eigenvalues --   -0.58540  -0.53598  -0.52539  -0.46878  -0.38730
 Alpha  occ. eigenvalues --   -0.37241  -0.36601
 Alpha virt. eigenvalues --    0.00374   0.03722   0.03767   0.04205   0.05233
 Alpha virt. eigenvalues --    0.05561   0.05810   0.08300   0.09081   0.09231
 Alpha virt. eigenvalues --    0.09378   0.09403   0.09503   0.11539   0.13266

 Mulliken charges:
               1
     1  F   -0.712053
     2  F   -0.826107
     3  F   -0.826107
     4  P    1.902322
     5  P    1.861837
     6  P    1.861837
     7  C    0.020242
     8  C    0.020243
     9  C    0.095001
    10  O   -1.137288
    11  O   -1.137288
    12  O   -1.122639
 Sum of Mulliken charges =  -0.00000

 Dipole moment (field-independent basis, Debye):
    X=             -0.0000    Y=             -2.7278    Z=             -4.1527  Tot=              4.9685

 Test job not archived.
 1\1\GINC-SE365\SP\RHF\Aug-CC-pVDZ\C3F3O3P3\OHZDE\08-Apr-2025\0\\#t hf
 aug-cc-pvdz iop(5/13=1,5/36=2,99/5=2) pseudo=read geom=check guess=(re
 ad,tcheck) scf=(maxcycle=1)\\title\\0,1\F,0,-0.000001,-1.333372,-1.709
 825\F,0,-2.591349,1.438985,0.387405\F,0,2.591351,1.438982,0.387405\P,0
 ,-0.000001,-2.081275,-0.217782\P,0,-1.684983,0.607989,-0.65253\P,0,1.6
 84984,0.607986,-0.65253\C,0,1.358237,-0.913905,0.4648\C,0,-1.358238,-0
 .913903,0.4648\C,0,0.000001,1.401086,-0.167436\O,0,1.958581,-1.127449,
 1.473693\O,0,-1.958585,-1.127448,1.473691\O,0,0.000002,2.459706,0.3882

 Normal termination of Gaussian 16 at Tue Apr  8 23:29:52 2025.
