 Gaussian 16, Revision C.01,

 ----------------------------------------------------------------------
 #t hf aug-cc-pvdz symm=none int=(grid=ultrafine) guess=(read,tcheck) s
 table=(opt,rrhf)
 ----------------------------------------------------------------------
 -----
 title
 -----
 Symbolic Z-matrix:
 Charge =  0 Multiplicity = 1

 SCF Done:  E(RHF) =  -1406.83842791     A.U. after   15 cycles
 Normal termination of Gaussian 16 at Tue Apr  8 23:17:55 2025.
 Gaussian 16:  ES64L-G16RevC.01  3-Jul-2019

 ----------------------------------------------------------------------
 #t hf aug-cc-pvdz iop(5/13=1,5/36=2,99/5=2) pseudo=read geom=check gue
 ss=(read,tcheck) scf=(maxcycle=1)
 ----------------------------------------------------------------------
 -----
 title
 -----
 Structure from the checkpoint file:  "BDE49_nonexpt_1061_mol1.chk"
 Charge =  0 Multiplicity = 1

                         Standard orientation:
 ---------------------------------------------------------------------
 Center     Atomic      Atomic             Coordinates (Angstroms)
 Number     Number       Type             X           Y           Z
 ---------------------------------------------------------------------
      1         17           0        2.562498   -0.272901    0.000328
      2          8           0        0.939548   -0.904385   -0.000051
      3          6           0       -0.079629   -0.003633   -0.000327
      4         16           0        0.012790    1.616686   -0.000066
      5         16           0       -1.520769   -1.029611   -0.000158
      6          6           0       -2.850746    0.205558    0.000028
      7          1           0       -3.772656   -0.378854    0.000141
      8          1           0       -2.798251    0.824261   -0.893720
      9          1           0       -2.798024    0.824242    0.893776
 ---------------------------------------------------------------------

 SCF Done:  E(RHF) =  -1407.17911646     A.U. after    2 cycles

 The electronic state is 1-A.
 Alpha  occ. eigenvalues -- -105.64966 -93.99373 -93.93875 -20.67811 -11.42669
 Alpha  occ. eigenvalues --  -11.28745 -10.69092  -8.27518  -8.22227  -7.86092
 Alpha  occ. eigenvalues --   -7.85490  -7.85478  -6.25339  -6.25127  -6.24934
 Alpha  occ. eigenvalues --   -6.20079  -6.19782  -6.19637  -1.55485  -1.14887
 Alpha  occ. eigenvalues --   -1.06224  -1.05154  -0.92786  -0.79010  -0.68441
 Alpha  occ. eigenvalues --   -0.67134  -0.64959  -0.61807  -0.59887  -0.53790
 Alpha  occ. eigenvalues --   -0.50201  -0.49775  -0.49361  -0.42988  -0.37141
 Alpha  occ. eigenvalues --   -0.36925
 Alpha virt. eigenvalues --    0.03191   0.03879   0.05014   0.05320   0.06659
 Alpha virt. eigenvalues --    0.07007   0.08615   0.09440   0.11890   0.12281
 Alpha virt. eigenvalues --    0.12678   0.13535   0.14714   0.15020   0.16515

 Mulliken charges:
               1
     1  Cl   0.441930
     2  O   -1.074741
     3  C   -0.065808
     4  S    0.208991
     5  S    0.539216
     6  C   -0.686558
     7  H    0.139472
     8  H    0.248735
     9  H    0.248762
 Sum of Mulliken charges =  -0.00000

 Dipole moment (field-independent basis, Debye):
    X=             -1.8320    Y=             -0.3985    Z=              0.0003  Tot=              1.8749

 Test job not archived.
 1\1\GINC-SE069\SP\RHF\Aug-CC-pVDZ\C2H3Cl1O1S2\OHZDE\08-Apr-2025\0\\#t
 hf aug-cc-pvdz iop(5/13=1,5/36=2,99/5=2) pseudo=read geom=check guess=
 (read,tcheck) scf=(maxcycle=1)\\title\\0,1\Cl,0,2.562498,-0.272901,0.0
 00328\O,0,0.939548,-0.904385,-0.000051\C,0,-0.079629,-0.003633,-0.0003
 27\S,0,0.01279,1.616686,-0.000066\S,0,-1.520769,-1.029611,-0.000158\C,
 0,-2.850746,0.205558,0.000028\H,0,-3.772656,-0.378855,0.000141\H,0,-2.
 798251,0.824261,-0.89372\H,0,-2.798024,0.824242,0.893776\\Version=ES64
 L-G16RevC.01\State=1-A\HF=-1407.1791165\RMSD=5.575e-03\Dipole=-0.72077

 Normal termination of Gaussian 16 at Tue Apr  8 23:17:58 2025.
