 Gaussian 16, Revision C.01,

 ----------------------------------------------------------------------
 #t hf aug-cc-pvdz symm=none int=(grid=ultrafine) guess=(read,tcheck) s
 table=(opt,rrhf)
 ----------------------------------------------------------------------
 -----
 title
 -----
 Symbolic Z-matrix:
 Charge =  0 Multiplicity = 1

 SCF Done:  E(RHF) =  -877.273292224     A.U. after   16 cycles
 Normal termination of Gaussian 16 at Tue Apr  8 22:50:30 2025.
 Gaussian 16:  ES64L-G16RevC.01  3-Jul-2019

 ----------------------------------------------------------------------
 #t hf aug-cc-pvdz iop(5/13=1,5/36=2,99/5=2) pseudo=read geom=check gue
 ss=(read,tcheck) scf=(maxcycle=1)
 ----------------------------------------------------------------------
 -----
 title
 -----
 Structure from the checkpoint file:  "BDE49_expt_1720_mol1.chk"
 Charge =  0 Multiplicity = 1

                         Standard orientation:
 ---------------------------------------------------------------------
 Center     Atomic      Atomic             Coordinates (Angstroms)
 Number     Number       Type             X           Y           Z
 ---------------------------------------------------------------------
      1          6           0        3.367264    0.104375    0.039889
      2          6           0        2.547214    1.191269   -0.253606
      3          6           0        1.164780    1.037865   -0.345456
      4          6           0        2.803945   -1.154003    0.242423
      5          6           0        1.425464   -1.324903    0.155846
      6          6           0        0.627342   -0.225408   -0.132100
      7          1           0        4.440408    0.237131    0.108883
      8          1           0        2.980317    2.171535   -0.414308
      9          1           0        0.528124    1.882369   -0.564263
     10          1           0        3.434590   -2.005750    0.468236
     11          1           0        0.960722   -2.291548    0.303327
     12          8           0       -0.747962   -0.515589   -0.273040
     13          6           0       -1.675549    0.332619    0.174504
     14          8           0       -1.545661    1.386513    0.698374
     15         17           0       -3.268113   -0.396001   -0.152562
 ---------------------------------------------------------------------

 SCF Done:  E(RHF) =  -877.762752429     A.U. after    2 cycles

 The electronic state is 1-A.
 Alpha  occ. eigenvalues -- -105.59562 -20.64034 -20.58151 -11.47606 -11.33263
 Alpha  occ. eigenvalues --  -11.26413 -11.26369 -11.26328 -11.26279 -11.25834
 Alpha  occ. eigenvalues --  -10.64391  -7.81338  -7.80926  -7.80905  -1.59709
 Alpha  occ. eigenvalues --   -1.51399  -1.17924  -1.11176  -1.04289  -1.03606
 Alpha  occ. eigenvalues --   -0.90516  -0.86572  -0.80916  -0.74547  -0.72978
 Alpha  occ. eigenvalues --   -0.70981  -0.70053  -0.65816  -0.64346  -0.62218
 Alpha  occ. eigenvalues --   -0.60076  -0.55664  -0.55175  -0.52903  -0.50745
 Alpha  occ. eigenvalues --   -0.50190  -0.48645  -0.47061  -0.36659  -0.35899
 Alpha virt. eigenvalues --    0.03108   0.03477   0.04134   0.05534   0.05971
 Alpha virt. eigenvalues --    0.08281   0.08616   0.08971   0.09993   0.10794
 Alpha virt. eigenvalues --    0.11453   0.12085   0.12257   0.13213   0.13507

 Mulliken charges:
               1
     1  C   -0.002697
     2  C    0.561381
     3  C   -0.288334
     4  C    0.704058
     5  C   -0.177098
     6  C    1.811986
     7  H   -0.210366
     8  H   -0.213680
     9  H   -0.319155
    10  H   -0.205385
    11  H   -0.231247
    12  O   -1.534604
    13  C    1.008854
    14  O   -0.879301
    15  Cl  -0.024412
 Sum of Mulliken charges =  -0.00000

 Dipole moment (field-independent basis, Debye):
    X=              2.6963    Y=             -0.8961    Z=             -0.5105  Tot=              2.8868

 Test job not archived.
 1\1\GINC-SE331\SP\RHF\Aug-CC-pVDZ\C7H5Cl1O2\OHZDE\08-Apr-2025\0\\#t hf
  aug-cc-pvdz iop(5/13=1,5/36=2,99/5=2) pseudo=read geom=check guess=(r
 ead,tcheck) scf=(maxcycle=1)\\title\\0,1\C,0,3.367264,0.104375,0.03988
 9\C,0,2.547214,1.191269,-0.253606\C,0,1.16478,1.037865,-0.345456\C,0,2
 .803945,-1.154003,0.242423\C,0,1.425464,-1.324903,0.155846\C,0,0.62734
 2,-0.225408,-0.1321\H,0,4.440408,0.237131,0.108883\H,0,2.980317,2.1715
 35,-0.414308\H,0,0.528124,1.882369,-0.564263\H,0,3.43459,-2.00575,0.46
 8236\H,0,0.960722,-2.291548,0.303327\O,0,-0.747962,-0.515589,-0.27304\

 Normal termination of Gaussian 16 at Tue Apr  8 22:50:37 2025.
