 Gaussian 16, Revision C.01,

 ----------------------------------------------------------------------
 #t hf aug-cc-pvdz symm=none int=(grid=ultrafine) guess=(read,tcheck) s
 table=opt
 ----------------------------------------------------------------------
 -----
 title
 -----
 Symbolic Z-matrix:
 Charge =  0 Multiplicity = 2

 SCF Done:  E(UHF) =  -155.494357570     A.U. after   20 cycles
 Normal termination of Gaussian 16 at Tue Apr  8 23:06:51 2025.
 Gaussian 16:  ES64L-G16RevC.01  3-Jul-2019

 ----------------------------------------------------------------------
 #t hf aug-cc-pvdz iop(5/13=1,5/36=2,99/5=2) pseudo=read geom=check gue
 ss=(read,tcheck) scf=(maxcycle=1)
 ----------------------------------------------------------------------
 -----
 title
 -----
 Structure from the checkpoint file:  "BDE49_expt_41_mol2.chk"
 Charge =  0 Multiplicity = 2

                         Standard orientation:
 ---------------------------------------------------------------------
 Center     Atomic      Atomic             Coordinates (Angstroms)
 Number     Number       Type             X           Y           Z
 ---------------------------------------------------------------------
      1          6           0       -1.794935   -0.055597   -0.264448
      2          6           0       -0.663678   -0.178410    0.422938
      3          1           0       -1.872730    0.612922   -1.117002
      4          1           0       -2.685175   -0.615309   -0.000430
      5          6           0        0.619513    0.554189    0.119450
      6          1           0       -0.623715   -0.864253    1.267125
      7          6           0        1.754198   -0.358770   -0.216259
      8          1           0        0.897029    1.177339    0.979571
      9          1           0        0.434847    1.257980   -0.709606
     10          1           0        1.584637   -1.235717   -0.829225
     11          1           0        2.774511   -0.101434    0.039482
 ---------------------------------------------------------------------

 SCF Done:  E(UHF) =  -155.663525873     A.U. after    2 cycles

 The electronic state is 2-A.
 Alpha  occ. eigenvalues --  -11.24360 -11.24283 -11.24020 -11.22982  -1.08893
 Alpha  occ. eigenvalues --   -0.99648  -0.85648  -0.76316  -0.65678  -0.62198
 Alpha  occ. eigenvalues --   -0.59858  -0.55646  -0.52820  -0.49530  -0.37897
 Alpha  occ. eigenvalues --   -0.35512
 Alpha virt. eigenvalues --    0.04014   0.04110   0.04448   0.04731   0.06132
 Alpha virt. eigenvalues --    0.07071   0.07397   0.10593   0.12292   0.13118
 Alpha virt. eigenvalues --    0.14195   0.15223   0.16043   0.16408   0.16952

  Beta  occ. eigenvalues --  -11.24362 -11.24117 -11.23133 -11.21840  -1.07715
  Beta  occ. eigenvalues --   -0.97052  -0.80943  -0.75443  -0.65228  -0.61272
  Beta  occ. eigenvalues --   -0.58627  -0.54321  -0.51442  -0.49160  -0.37188
  Beta virt. eigenvalues --    0.04067   0.04103   0.04368   0.04784   0.06094
  Beta virt. eigenvalues --    0.06985   0.07234   0.09049   0.11422   0.12773
  Beta virt. eigenvalues --    0.13202   0.14747   0.15781   0.16441   0.16850

 Mulliken charges and spin densities:
               1          2
     1  C   -0.171432  -0.094794
     2  C    0.695972   0.114281
     3  H   -0.064952   0.003447
     4  H   -0.085356   0.006060
     5  C   -0.604873  -0.241931
     6  H   -0.138684  -0.005215
     7  C    0.025466   1.376723
     8  H    0.213561   0.007571
     9  H    0.179575   0.034086
    10  H   -0.013999  -0.099315
    11  H   -0.035278  -0.100913
 Sum of Mulliken charges =  -0.00000   1.00000

 Dipole moment (field-independent basis, Debye):
    X=              0.2338    Y=              0.2016    Z=              0.0284  Tot=              0.3100
                          Isotropic Fermi Contact Couplings
        Atom                 a.u.       MegaHertz       Gauss      10(-4) cm-1
     1  C(13)             -0.01441     -16.19681      -5.77942      -5.40267
     2  C(13)              0.03863      43.42582      15.49541      14.48529
     3  H(1)               0.00137       6.13956       2.19075       2.04794
     4  H(1)               0.00146       6.54564       2.33565       2.18339
     5  C(13)             -0.06093     -68.49197     -24.43964     -22.84646
     6  H(1)              -0.00208      -9.31084      -3.32234      -3.10576
     7  C(13)              0.21093     237.12311      84.61142      79.09576
     8  H(1)               0.00659      29.46568      10.51409       9.82869

 Normal termination of Gaussian 16 at Tue Apr  8 23:06:54 2025.
