 Gaussian 16, Revision C.01,

 ----------------------------------------------------------------------
 #t hf aug-cc-pvdz symm=none int=(grid=ultrafine) guess=(read,tcheck) s
 table=(opt,rrhf)
 ----------------------------------------------------------------------
 -----
 title
 -----
 Symbolic Z-matrix:
 Charge =  0 Multiplicity = 1

 SCF Done:  E(RHF) =  -710.653796917     A.U. after   11 cycles
 Normal termination of Gaussian 16 at Tue Apr  8 23:43:22 2025.
 Gaussian 16:  ES64L-G16RevC.01  3-Jul-2019

 ----------------------------------------------------------------------
 #t hf aug-cc-pvdz iop(5/13=1,5/36=2,99/5=2) pseudo=read geom=check gue
 ss=(read,tcheck) scf=(maxcycle=1)
 ----------------------------------------------------------------------
 -----
 title
 -----
 Structure from the checkpoint file:  "BDE49_nonexpt_1694_mol1.chk"
 Charge =  0 Multiplicity = 1

                         Standard orientation:
 ---------------------------------------------------------------------
 Center     Atomic      Atomic             Coordinates (Angstroms)
 Number     Number       Type             X           Y           Z
 ---------------------------------------------------------------------
      1         15           0        0.497082    0.000000   -0.647447
      2          6           0        1.169997    1.434858    0.343739
      3          1           0        0.973510    1.354383    1.416045
      4          1           0        0.736932    2.366633   -0.027126
      5          1           0        2.250903    1.488454    0.189585
      6         14           0       -1.644120    0.000000    0.115497
      7          6           0        1.169997   -1.434858    0.343739
      8          1           0        2.250903   -1.488454    0.189585
      9          1           0        0.736932   -2.366633   -0.027126
     10          1           0        0.973510   -1.354383    1.416045
     11          1           0       -2.340200    1.206123   -0.394054
     12          1           0       -1.720810    0.000000    1.600983
     13          1           0       -2.340200   -1.206123   -0.394053
 ---------------------------------------------------------------------

 SCF Done:  E(RHF) =  -710.827010076     A.U. after    2 cycles

 The electronic state is 1-A.
 Alpha  occ. eigenvalues --  -84.25861 -69.53085 -11.24127 -11.24124  -6.73050
 Alpha  occ. eigenvalues --   -6.20190  -4.25363  -4.25292  -4.24707  -3.95530
 Alpha  occ. eigenvalues --   -3.95519  -3.95506  -1.01127  -0.94252  -0.78520
 Alpha  occ. eigenvalues --   -0.69358  -0.59370  -0.58803  -0.56715  -0.56339
 Alpha  occ. eigenvalues --   -0.49372  -0.49174  -0.45253  -0.40814  -0.31188
 Alpha virt. eigenvalues --    0.03685   0.04292   0.04325   0.04968   0.06013
 Alpha virt. eigenvalues --    0.06419   0.07012   0.07371   0.08626   0.09920
 Alpha virt. eigenvalues --    0.10162   0.11026   0.11379   0.12165   0.12817

 Mulliken charges:
               1
     1  P    0.552859
     2  C   -0.753017
     3  H    0.102089
     4  H    0.060837
     5  H    0.097917
     6  Si   0.880343
     7  C   -0.753017
     8  H    0.097917
     9  H    0.060837
    10  H    0.102089
    11  H   -0.170078
    12  H   -0.108696
    13  H   -0.170078
 Sum of Mulliken charges =  -0.00000

 Dipole moment (field-independent basis, Debye):
    X=              0.8011    Y=             -0.0000    Z=              0.8453  Tot=              1.1645

 Test job not archived.
 1\1\GINC-SE116\SP\RHF\Aug-CC-pVDZ\C2H9P1Si1\OHZDE\08-Apr-2025\0\\#t hf
  aug-cc-pvdz iop(5/13=1,5/36=2,99/5=2) pseudo=read geom=check guess=(r
 ead,tcheck) scf=(maxcycle=1)\\title\\0,1\P,0,0.497082,0.,-0.647447\C,0
 ,1.169997,1.434858,0.343739\H,0,0.97351,1.354383,1.416045\H,0,0.736932
 ,2.366633,-0.027126\H,0,2.250903,1.488454,0.189585\Si,0,-1.64412,0.,0.
 115497\C,0,1.169997,-1.434858,0.343739\H,0,2.250903,-1.488454,0.189585
 \H,0,0.736932,-2.366633,-0.027126\H,0,0.97351,-1.354383,1.416045\H,0,-
 2.3402,1.206123,-0.394054\H,0,-1.72081,0.,1.600983\H,0,-2.3402,-1.2061

 Normal termination of Gaussian 16 at Tue Apr  8 23:43:28 2025.
