 Gaussian 16, Revision C.01,

 ----------------------------------------------------------------------
 #t hf aug-cc-pvdz symm=none int=(grid=ultrafine) guess=(read,tcheck) s
 table=(opt,rrhf)
 ----------------------------------------------------------------------
 -----
 title
 -----
 Symbolic Z-matrix:
 Charge =  0 Multiplicity = 1

 SCF Done:  E(RHF) =  -444.175180995     A.U. after   12 cycles
 Normal termination of Gaussian 16 at Tue Apr  8 23:50:21 2025.
 Gaussian 16:  ES64L-G16RevC.01  3-Jul-2019

 ----------------------------------------------------------------------
 #t hf aug-cc-pvdz iop(5/13=1,5/36=2,99/5=2) pseudo=read geom=check gue
 ss=(read,tcheck) scf=(maxcycle=1)
 ----------------------------------------------------------------------
 -----
 title
 -----
 Structure from the checkpoint file:  "BDE49_nonexpt_1883_mol1.chk"
 Charge =  0 Multiplicity = 1

                         Standard orientation:
 ---------------------------------------------------------------------
 Center     Atomic      Atomic             Coordinates (Angstroms)
 Number     Number       Type             X           Y           Z
 ---------------------------------------------------------------------
      1          6           0       -0.045893    0.618300    0.000004
      2         14           0        1.702278   -0.109992    0.000003
      3          1           0        2.680046    1.006127    0.000013
      4          1           0        1.914356   -0.938448   -1.208000
      5          1           0        1.914350   -0.938467    1.207993
      6          8           0       -0.966728   -0.463692   -0.000005
      7          6           0       -2.318182   -0.045158   -0.000005
      8          1           0       -2.935385   -0.944331   -0.000012
      9          1           0       -2.553691    0.552029   -0.892713
     10          1           0       -2.553694    0.552016    0.892710
     11          1           0       -0.189800    1.260830   -0.884211
     12          1           0       -0.189804    1.260818    0.884228
 ---------------------------------------------------------------------

 SCF Done:  E(RHF) =  -444.373780837     A.U. after    2 cycles

 The electronic state is 1-A.
 Alpha  occ. eigenvalues --  -69.52373 -20.55021 -11.28386 -11.27522  -6.19517
 Alpha  occ. eigenvalues --   -3.94892  -3.94873  -3.94870  -1.46112  -0.97343
 Alpha  occ. eigenvalues --   -0.88405  -0.73208  -0.66554  -0.65146  -0.62198
 Alpha  occ. eigenvalues --   -0.56687  -0.50134  -0.48315  -0.47929  -0.44538
 Alpha  occ. eigenvalues --   -0.42317
 Alpha virt. eigenvalues --    0.03690   0.04105   0.04496   0.04612   0.06458
 Alpha virt. eigenvalues --    0.07070   0.07272   0.08888   0.09122   0.10080
 Alpha virt. eigenvalues --    0.10804   0.12180   0.15129   0.15593   0.15992

 Mulliken charges:
               1
     1  C    0.081880
     2  Si   0.969043
     3  H   -0.180063
     4  H   -0.212530
     5  H   -0.212530
     6  O   -1.146523
     7  C    0.207321
     8  H   -0.021251
     9  H    0.160847
    10  H    0.160845
    11  H    0.096479
    12  H    0.096481
 Sum of Mulliken charges =  -0.00000

 Dipole moment (field-independent basis, Debye):
    X=             -0.9435    Y=              1.3270    Z=              0.0000  Tot=              1.6282

 Test job not archived.
 1\1\GINC-SE069\SP\RHF\Aug-CC-pVDZ\C2H8O1Si1\OHZDE\08-Apr-2025\0\\#t hf
  aug-cc-pvdz iop(5/13=1,5/36=2,99/5=2) pseudo=read geom=check guess=(r
 ead,tcheck) scf=(maxcycle=1)\\title\\0,1\C,0,0.045893,0.6183,-0.000004
 \Si,0,-1.702278,-0.109992,-0.000003\H,0,-2.680046,1.006127,-0.000013\H
 ,0,-1.914356,-0.938448,1.208\H,0,-1.91435,-0.938467,-1.207993\O,0,0.96
 6728,-0.463692,0.000005\C,0,2.318182,-0.045158,0.000005\H,0,2.935385,-
 0.944331,0.000012\H,0,2.553691,0.552029,0.892713\H,0,2.553694,0.552016
 ,-0.89271\H,0,0.1898,1.26083,0.884211\H,0,0.189804,1.260818,-0.884228\

 Normal termination of Gaussian 16 at Tue Apr  8 23:50:24 2025.
