 Gaussian 16, Revision C.01,

 ----------------------------------------------------------------------
 #t hf aug-cc-pvdz symm=none int=(grid=ultrafine) guess=(read,tcheck) s
 table=(opt,rrhf)
 ----------------------------------------------------------------------
 -----
 title
 -----
 Symbolic Z-matrix:
 Charge =  0 Multiplicity = 1

 SCF Done:  E(RHF) =  -411.538625127     A.U. after   13 cycles
 Normal termination of Gaussian 16 at Tue Apr  8 23:19:51 2025.
 Gaussian 16:  ES64L-G16RevC.01  3-Jul-2019

 ----------------------------------------------------------------------
 #t hf aug-cc-pvdz iop(5/13=1,5/36=2,99/5=2) pseudo=read geom=check gue
 ss=(read,tcheck) scf=(maxcycle=1)
 ----------------------------------------------------------------------
 -----
 title
 -----
 Structure from the checkpoint file:  "BDE49_nonexpt_1109_mol1.chk"
 Charge =  0 Multiplicity = 1

                         Standard orientation:
 ---------------------------------------------------------------------
 Center     Atomic      Atomic             Coordinates (Angstroms)
 Number     Number       Type             X           Y           Z
 ---------------------------------------------------------------------
      1          9           0        0.368973   -1.566445    0.000000
      2          8           0       -0.805350   -0.739233    0.000000
      3          6           0       -0.368969    0.569744   -0.000000
      4          9           0        0.368973    0.858687    1.086694
      5          9           0        0.368973    0.858687   -1.086694
      6          1           0       -1.305648    1.137044   -0.000000
 ---------------------------------------------------------------------

 SCF Done:  E(RHF) =  -411.917691713     A.U. after    2 cycles

 The electronic state is 1-A'.
 Alpha  occ. eigenvalues --  -26.54392 -26.51665 -26.51662 -20.71981 -11.51396
 Alpha  occ. eigenvalues --   -1.72922  -1.66947  -1.62056  -1.41765  -0.97078
 Alpha  occ. eigenvalues --   -0.83691  -0.81669  -0.81139  -0.72309  -0.69832
 Alpha  occ. eigenvalues --   -0.68337  -0.66653  -0.63894  -0.60778  -0.59119
 Alpha  occ. eigenvalues --   -0.55627
 Alpha virt. eigenvalues --    0.03288   0.08076   0.08780   0.09685   0.12074
 Alpha virt. eigenvalues --    0.15555   0.20115   0.22257   0.22487   0.23582
 Alpha virt. eigenvalues --    0.23682   0.29428   0.30440   0.31078   0.31854

 Mulliken charges:
               1
     1  F   -0.376396
     2  O   -0.487593
     3  C    2.075110
     4  F   -0.637900
     5  F   -0.637900
     6  H    0.064679
 Sum of Mulliken charges =  -0.00000

 Dipole moment (field-independent basis, Debye):
    X=             -1.6210    Y=              1.2802    Z=             -0.0000  Tot=              2.0656

 Test job not archived.
 1\1\GINC-SE165\SP\RHF\Aug-CC-pVDZ\C1H1F3O1\OHZDE\08-Apr-2025\0\\#t hf
 aug-cc-pvdz iop(5/13=1,5/36=2,99/5=2) pseudo=read geom=check guess=(re
 ad,tcheck) scf=(maxcycle=1)\\title\\0,1\F,0,0.368973,-1.566445,0.\O,0,
 -0.80535,-0.739233,0.\C,0,-0.368969,0.569744,0.\F,0,0.368973,0.858687,
 1.086694\F,0,0.368973,0.858687,-1.086694\H,0,-1.305648,1.137044,0.\\Ve
 rsion=ES64L-G16RevC.01\State=1-A'\HF=-411.9176917\RMSD=5.051e-03\Dipol
 e=-0.6377575,0.5036801,0.\Quadrupole=1.2166712,-0.0481583,-1.1685129,-
 1.8415994,0.,0.\PG=CS [SG(C1H1F1O1),X(F2)]\\@

 Normal termination of Gaussian 16 at Tue Apr  8 23:19:53 2025.
