 Gaussian 16, Revision C.01,

 ----------------------------------------------------------------------
 #t hf aug-cc-pvdz symm=none int=(grid=ultrafine) guess=(read,tcheck) s
 table=opt
 ----------------------------------------------------------------------
 -----
 title
 -----
 Symbolic Z-matrix:
 Charge =  0 Multiplicity = 2

 SCF Done:  E(UHF) =  -550.946470165     A.U. after   19 cycles
 Normal termination of Gaussian 16 at Tue Apr  8 23:54:23 2025.
 Gaussian 16:  ES64L-G16RevC.01  3-Jul-2019

 ----------------------------------------------------------------------
 #t hf aug-cc-pvdz iop(5/13=1,5/36=2,99/5=2) pseudo=read geom=check gue
 ss=(read,tcheck) scf=(maxcycle=1)
 ----------------------------------------------------------------------
 -----
 title
 -----
 Structure from the checkpoint file:  "BDE49_nonexpt_1964_mol2.chk"
 Charge =  0 Multiplicity = 2

                         Standard orientation:
 ---------------------------------------------------------------------
 Center     Atomic      Atomic             Coordinates (Angstroms)
 Number     Number       Type             X           Y           Z
 ---------------------------------------------------------------------
      1          6           0       -1.021015    1.202838    0.228158
      2         16           0       -0.122593   -0.145953   -0.387855
      3          8           0       -0.508190   -1.408446    0.299755
      4          6           0        1.558446    0.332693    0.189191
      5          1           0        1.799389    1.328525   -0.184895
      6          1           0        2.245677   -0.406905   -0.221326
      7          1           0        1.560844    0.302394    1.278117
      8          1           0       -0.791411    2.184183   -0.172162
      9          1           0       -2.012077    0.981435    0.603819
 ---------------------------------------------------------------------

 SCF Done:  E(UHF) =  -551.166875816     A.U. after    2 cycles

 The electronic state is 2-A.
 Alpha  occ. eigenvalues --  -94.07678 -20.49834 -11.29267 -11.28300  -8.34537
 Alpha  occ. eigenvalues --   -6.32394  -6.32238  -6.32072  -1.44008  -1.10178
 Alpha  occ. eigenvalues --   -0.99230  -0.83531  -0.66148  -0.64934  -0.63360
 Alpha  occ. eigenvalues --   -0.58704  -0.58153  -0.53726  -0.44767  -0.42939
 Alpha  occ. eigenvalues --   -0.34742
 Alpha virt. eigenvalues --    0.02967   0.04117   0.04800   0.05696   0.06940
 Alpha virt. eigenvalues --    0.08548   0.11596   0.11812   0.13011   0.14207
 Alpha virt. eigenvalues --    0.15277   0.15645   0.16428   0.17506   0.17896

  Beta  occ. eigenvalues --  -94.07719 -20.49878 -11.28022 -11.26857  -8.34581
  Beta  occ. eigenvalues --   -6.32502  -6.32403  -6.32028  -1.43960  -1.07881
  Beta  occ. eigenvalues --   -0.95432  -0.80423  -0.64916  -0.63998  -0.62593
  Beta  occ. eigenvalues --   -0.57733  -0.57328  -0.52797  -0.42527  -0.36993
  Beta virt. eigenvalues --    0.02620   0.03644   0.04508   0.05449   0.06498
  Beta virt. eigenvalues --    0.06986   0.08649   0.11807   0.12587   0.13291
  Beta virt. eigenvalues --    0.15044   0.15722   0.16373   0.16684   0.17877

 Mulliken charges and spin densities:
               1          2
     1  C   -0.416559   1.255832
     2  S    1.735160  -0.141357
     3  O   -1.492561  -0.004624
     4  C   -0.685960   0.086938
     5  H    0.189226  -0.009555
     6  H    0.218906  -0.004166
     7  H    0.240049  -0.006648
     8  H    0.109383  -0.093205
     9  H    0.102356  -0.083217
 Sum of Mulliken charges =  -0.00000   1.00000

 Dipole moment (field-independent basis, Debye):
    X=              1.5153    Y=              4.0927    Z=             -0.4607  Tot=              4.3885
                          Isotropic Fermi Contact Couplings
        Atom                 a.u.       MegaHertz       Gauss      10(-4) cm-1
     1  C(13)              0.22204     249.61097      89.06740      83.26126
     2  S(33)              0.01899       6.52257       2.32742       2.17570
     3  O(17)             -0.00461       2.79356       0.99681       0.93183
     4  C(13)              0.05886      66.17179      23.61174      22.07253
     5  H(1)              -0.00151      -6.76167      -2.41273      -2.25545
     6  H(1)              -0.00088      -3.92707      -1.40127      -1.30993
     7  H(1)              -0.00140      -6.24989      -2.23012      -2.08474
     8  H(1)              -0.02012     -89.94170     -32.09344     -30.00132

 Normal termination of Gaussian 16 at Tue Apr  8 23:54:26 2025.
