 Gaussian 16, Revision C.01,

 ----------------------------------------------------------------------
 #t hf aug-cc-pvdz symm=none int=(grid=ultrafine) guess=(read,tcheck) s
 table=(opt,rrhf)
 ----------------------------------------------------------------------
 -----
 title
 -----
 Symbolic Z-matrix:
 Charge =  0 Multiplicity = 1

 SCF Done:  E(RHF) =  -1120.87817273     A.U. after   13 cycles
 Normal termination of Gaussian 16 at Tue Apr  8 23:44:34 2025.
 Gaussian 16:  ES64L-G16RevC.01  3-Jul-2019

 ----------------------------------------------------------------------
 #t hf aug-cc-pvdz iop(5/13=1,5/36=2,99/5=2) pseudo=read geom=check gue
 ss=(read,tcheck) scf=(maxcycle=1)
 ----------------------------------------------------------------------
 -----
 title
 -----
 Structure from the checkpoint file:  "BDE49_nonexpt_1700_mol1.chk"
 Charge =  0 Multiplicity = 1

                         Standard orientation:
 ---------------------------------------------------------------------
 Center     Atomic      Atomic             Coordinates (Angstroms)
 Number     Number       Type             X           Y           Z
 ---------------------------------------------------------------------
      1         16           0       -0.374460    1.486166   -0.322361
      2         15           0       -1.358941   -0.307491    0.106995
      3          8           0       -1.012149   -0.932062    1.392028
      4          6           0        1.172321    1.299595    0.688714
      5          6           0        2.412215    0.912515   -0.120776
      6          1           0        0.942408    0.593037    1.485640
      7          6           0        2.430227   -0.513935   -0.687538
      8          1           0        3.277863    1.046210    0.542181
      9          1           0        2.538357    1.630452   -0.937773
     10          6           0        2.478403   -1.615466    0.378002
     11          1           0        3.306428   -0.604446   -1.338486
     12          1           0        1.558005   -0.659832   -1.332667
     13          1           0        3.348119   -1.493748    1.032181
     14          1           0        2.555147   -2.601198   -0.089338
     15          1           0        1.583149   -1.620838    1.004414
     16          1           0        1.303720    2.284013    1.141378
     17          8           0       -1.128463   -1.222195   -1.187418
     18          1           0       -1.345334   -2.147687   -1.012191
     19          8           0       -2.908276    0.072737   -0.098106
     20          1           0       -3.260266    0.563651    0.655067
 ---------------------------------------------------------------------

 SCF Done:  E(RHF) =  -1121.38065430     A.U. after    2 cycles

 The electronic state is 1-A.
 Alpha  occ. eigenvalues --  -93.96323 -84.45010 -20.59954 -20.59801 -20.51336
 Alpha  occ. eigenvalues --  -11.28138 -11.24193 -11.22885 -11.21870  -8.24599
 Alpha  occ. eigenvalues --   -6.90094  -6.22387  -6.22220  -6.22023  -4.44164
 Alpha  occ. eigenvalues --   -4.43455  -4.42521  -1.54097  -1.47827  -1.39715
 Alpha  occ. eigenvalues --   -1.10841  -1.04171  -0.96337  -0.88378  -0.83429
 Alpha  occ. eigenvalues --   -0.77993  -0.73659  -0.68264  -0.65934  -0.64710
 Alpha  occ. eigenvalues --   -0.63285  -0.60258  -0.58375  -0.56804  -0.56080
 Alpha  occ. eigenvalues --   -0.55872  -0.54688  -0.50357  -0.49984  -0.48508
 Alpha  occ. eigenvalues --   -0.47469  -0.46827  -0.46194  -0.43460  -0.38705
 Alpha virt. eigenvalues --    0.03452   0.03578   0.03821   0.04444   0.05065
 Alpha virt. eigenvalues --    0.06190   0.06736   0.07242   0.07908   0.08726
 Alpha virt. eigenvalues --    0.10254   0.10743   0.11522   0.11984   0.12635

 Mulliken charges:
               1
     1  S   -0.307326
     2  P    3.822834
     3  O   -1.508977
     4  C   -0.468344
     5  C   -0.357095
     6  H    0.245338
     7  C   -0.354066
     8  H    0.156549
     9  H    0.119674
    10  C   -0.267637
    11  H    0.125676
    12  H    0.173820
    13  H    0.162459
    14  H    0.123892
    15  H    0.052458
    16  H    0.187665
    17  O   -1.284547
    18  H    0.336873
    19  O   -1.292758
    20  H    0.333511
 Sum of Mulliken charges =  -0.00000

 Dipole moment (field-independent basis, Debye):
    X=              0.4051    Y=              0.4681    Z=             -0.2078  Tot=              0.6530

 Test job not archived.
 1\1\GINC-SE396\SP\RHF\Aug-CC-pVDZ\C4H11O3P1S1\OHZDE\08-Apr-2025\0\\#t
 hf aug-cc-pvdz iop(5/13=1,5/36=2,99/5=2) pseudo=read geom=check guess=
 (read,tcheck) scf=(maxcycle=1)\\title\\0,1\S,0,0.37446,-1.486166,-0.32
 2361\P,0,1.358941,0.307491,0.106995\O,0,1.012149,0.932062,1.392028\C,0
 ,-1.172321,-1.299595,0.688714\C,0,-2.412215,-0.912515,-0.120776\H,0,-0
 .942408,-0.593037,1.48564\C,0,-2.430227,0.513935,-0.687538\H,0,-3.2778
 63,-1.04621,0.542181\H,0,-2.538357,-1.630452,-0.937773\C,0,-2.478403,1
 .615466,0.378002\H,0,-3.306428,0.604446,-1.338486\H,0,-1.558005,0.6598

 Normal termination of Gaussian 16 at Tue Apr  8 23:44:45 2025.
