 Gaussian 16, Revision C.01,

 ----------------------------------------------------------------------
 #t hf aug-cc-pvdz symm=none int=(grid=ultrafine) guess=(read,tcheck) s
 table=(opt,rrhf)
 ----------------------------------------------------------------------
 -----
 title
 -----
 Symbolic Z-matrix:
 Charge =  0 Multiplicity = 1

 SCF Done:  E(RHF) =  -1753.31192453     A.U. after   16 cycles
 Normal termination of Gaussian 16 at Tue Apr  8 23:07:57 2025.
 Gaussian 16:  ES64L-G16RevC.01  3-Jul-2019

 ----------------------------------------------------------------------
 #t hf aug-cc-pvdz iop(5/13=1,5/36=2,99/5=2) pseudo=read geom=check gue
 ss=(read,tcheck) scf=(maxcycle=1)
 ----------------------------------------------------------------------
 -----
 title
 -----
 Structure from the checkpoint file:  "BDE49_expt_1888_mol1.chk"
 Charge =  0 Multiplicity = 1

                         Standard orientation:
 ---------------------------------------------------------------------
 Center     Atomic      Atomic             Coordinates (Angstroms)
 Number     Number       Type             X           Y           Z
 ---------------------------------------------------------------------
      1          6           0        3.387405    0.587553    0.849852
      2          6           0        4.761286    0.793966    0.862500
      3          6           0        5.568821    0.047284    0.008268
      4          6           0        5.028498   -0.899425   -0.859125
      5          6           0        3.655086   -1.098909   -0.866536
      6          6           0        2.827057   -0.360878   -0.013859
      7          1           0        2.753076    1.166667    1.507057
      8          1           0        5.204589    1.525791    1.524670
      9          6           0        1.368506   -0.637429   -0.086680
     10          8           0        0.822938   -1.406975   -0.820320
     11          8           0        0.699712    0.139143    0.851004
     12          8           0       -0.699709   -0.139090    0.851012
     13          6           0       -1.368516    0.637495   -0.086653
     14          8           0       -0.822956    1.407030   -0.820310
     15          6           0       -2.827061    0.360909   -0.013846
     16          6           0       -3.387396   -0.587535    0.849859
     17          6           0       -3.655100    1.098920   -0.866531
     18          6           0       -5.028508    0.899404   -0.859133
     19          6           0       -4.761272   -0.793980    0.862496
     20          6           0       -5.568816   -0.047316    0.008256
     21          1           0       -2.753059   -1.166635    1.507070
     22          1           0       -5.204565   -1.525815    1.524662
     23          1           0        5.675717   -1.466291   -1.515180
     24          1           0       -5.675734    1.466256   -1.515193
     25          1           0        3.206576   -1.825991   -1.531527
     26          1           0       -3.206600    1.826012   -1.531518
     27         17           0        7.300043    0.305336    0.023709
     28         17           0       -7.300033   -0.305407    0.023682
 ---------------------------------------------------------------------

 SCF Done:  E(RHF) =  -1754.28152634     A.U. after    2 cycles

 The electronic state is 1-A.
 Alpha  occ. eigenvalues -- -105.58879-105.58879 -20.67348 -20.67343 -20.56095
 Alpha  occ. eigenvalues --  -20.56093 -11.41961 -11.41958 -11.33748 -11.33744
 Alpha  occ. eigenvalues --  -11.28489 -11.28488 -11.28247 -11.28241 -11.28134
 Alpha  occ. eigenvalues --  -11.28133 -11.27511 -11.27510 -11.27440 -11.27438
 Alpha  occ. eigenvalues --  -10.63677 -10.63676  -7.80644  -7.80644  -7.80237
 Alpha  occ. eigenvalues --   -7.80237  -7.80225  -7.80225  -1.67148  -1.52031
 Alpha  occ. eigenvalues --   -1.49962  -1.37073  -1.20861  -1.20632  -1.12629
 Alpha  occ. eigenvalues --   -1.12183  -1.05696  -1.05666  -1.03343  -1.02222
 Alpha  occ. eigenvalues --   -0.91913  -0.88463  -0.88158  -0.87396  -0.83288
 Alpha  occ. eigenvalues --   -0.80076  -0.77657  -0.77391  -0.72491  -0.70491
 Alpha  occ. eigenvalues --   -0.69059  -0.68643  -0.67722  -0.67354  -0.66964
 Alpha  occ. eigenvalues --   -0.64394  -0.63804  -0.63684  -0.63402  -0.62040
 Alpha  occ. eigenvalues --   -0.58928  -0.56962  -0.56746  -0.56040  -0.55847
 Alpha  occ. eigenvalues --   -0.54717  -0.54665  -0.51115  -0.50823  -0.49237
 Alpha  occ. eigenvalues --   -0.48894  -0.48156  -0.48154  -0.47126  -0.46691
 Alpha  occ. eigenvalues --   -0.38026  -0.38025  -0.36916  -0.36868
 Alpha virt. eigenvalues --    0.03257   0.03488   0.03783   0.03809   0.04568
 Alpha virt. eigenvalues --    0.04644   0.04851   0.05884   0.05930   0.06191
 Alpha virt. eigenvalues --    0.08048   0.08092   0.08496   0.08798   0.09609

 Mulliken charges:
               1
     1  C    0.050736
     2  C    0.502556
     3  C   -0.582846
     4  C    0.544188
     5  C   -0.108195
     6  C    2.371373
     7  H   -0.321296
     8  H   -0.178641
     9  C    0.819122
    10  O   -1.306564
    11  O   -0.968443
    12  O   -0.968442
    13  C    0.819161
    14  O   -1.306561
    15  C    2.371368
    16  C    0.050745
    17  C   -0.108200
    18  C    0.544179
    19  C    0.502538
    20  C   -0.582837
    21  H   -0.321295
    22  H   -0.178641
    23  H   -0.178200
    24  H   -0.178200
    25  H   -0.359830
    26  H   -0.359828
    27  Cl  -0.283973
    28  Cl  -0.283974
 Sum of Mulliken charges =  -0.00000

 Dipole moment (field-independent basis, Debye):
    X=              0.0000    Y=              0.0000    Z=              1.3387  Tot=              1.3387

 Test job not archived.
 1\1\GINC-SE226\SP\RHF\Aug-CC-pVDZ\C14H8Cl2O4\OHZDE\08-Apr-2025\0\\#t h
 f aug-cc-pvdz iop(5/13=1,5/36=2,99/5=2) pseudo=read geom=check guess=(
 read,tcheck) scf=(maxcycle=1)\\title\\0,1\C,0,-3.387405,-0.587553,0.84
 9852\C,0,-4.761286,-0.793966,0.8625\C,0,-5.568821,-0.047284,0.008268\C
 ,0,-5.028498,0.899425,-0.859125\C,0,-3.655086,1.098909,-0.866536\C,0,-
 2.827057,0.360878,-0.013859\H,0,-2.753076,-1.166667,1.507057\H,0,-5.20
 4589,-1.525791,1.52467\C,0,-1.368506,0.637429,-0.08668\O,0,-0.822938,1
 .406975,-0.82032\O,0,-0.699712,-0.139143,0.851004\O,0,0.699709,0.13909

 Normal termination of Gaussian 16 at Tue Apr  8 23:08:37 2025.
