 Gaussian 16, Revision C.01,

 ----------------------------------------------------------------------
 #t hf aug-cc-pvdz symm=none int=(grid=ultrafine) guess=(read,tcheck) s
 table=(opt,rrhf)
 ----------------------------------------------------------------------
 -----
 title
 -----
 Symbolic Z-matrix:
 Charge =  0 Multiplicity = 1

 SCF Done:  E(RHF) =  -716.343853037     A.U. after   16 cycles
 Normal termination of Gaussian 16 at Wed Apr  9 00:43:23 2025.
 Gaussian 16:  ES64L-G16RevC.01  3-Jul-2019

 ----------------------------------------------------------------------
 #t hf aug-cc-pvdz iop(5/13=1,5/36=2,99/5=2) pseudo=read geom=check gue
 ss=(read,tcheck) scf=(maxcycle=1)
 ----------------------------------------------------------------------
 -----
 title
 -----
 Structure from the checkpoint file:  "BDE49_nonexpt_666_mol1.chk"
 Charge =  0 Multiplicity = 1

                         Standard orientation:
 ---------------------------------------------------------------------
 Center     Atomic      Atomic             Coordinates (Angstroms)
 Number     Number       Type             X           Y           Z
 ---------------------------------------------------------------------
      1          9           0        1.047900    2.027792    0.000002
      2          9           0       -1.609730    2.113271   -0.000003
      3          8           0        3.186012   -1.694059    0.000004
      4          8           0        3.474207    0.634268    0.000006
      5          8           0       -3.947833   -1.206318    0.000003
      6          6           0        1.065540   -0.359409    0.000001
      7          6           0        0.374398    0.845993   -0.000000
      8          6           0       -1.013513    0.908095   -0.000003
      9          6           0       -1.769786   -0.261256   -0.000005
     10          6           0       -1.094563   -1.490492   -0.000004
     11          6           0        0.288788   -1.535281   -0.000001
     12          6           0       -3.255780   -0.214906   -0.000008
     13          5           0        2.643306   -0.444685    0.000004
     14          1           0       -1.693278   -2.392980   -0.000005
     15          1           0        0.804796   -2.486923   -0.000000
     16          1           0       -3.702030    0.795594    0.000003
     17          1           0        4.148911   -1.667431    0.000006
     18          1           0        3.011947    1.478009    0.000005
 ---------------------------------------------------------------------

 SCF Done:  E(RHF) =  -717.034363518     A.U. after    2 cycles

 The electronic state is 1-A.
 Alpha  occ. eigenvalues --  -26.51420 -26.51304 -20.57199 -20.57096 -20.56354
 Alpha  occ. eigenvalues --  -11.37634 -11.37092 -11.36316 -11.28832 -11.27863
 Alpha  occ. eigenvalues --  -11.27638 -11.26969  -7.66816  -1.65066  -1.63333
 Alpha  occ. eigenvalues --   -1.49784  -1.49241  -1.45598  -1.19909  -1.08012
 Alpha  occ. eigenvalues --   -1.05327  -0.94480  -0.88513  -0.84472  -0.80515
 Alpha  occ. eigenvalues --   -0.78273  -0.76765  -0.74860  -0.73636  -0.72489
 Alpha  occ. eigenvalues --   -0.69150  -0.68438  -0.67151  -0.66657  -0.65208
 Alpha  occ. eigenvalues --   -0.62374  -0.60074  -0.58950  -0.57916  -0.57111
 Alpha  occ. eigenvalues --   -0.55951  -0.51987  -0.51843  -0.50657  -0.44308
 Alpha  occ. eigenvalues --   -0.38567  -0.37425
 Alpha virt. eigenvalues --    0.02367   0.03301   0.03908   0.04136   0.04482
 Alpha virt. eigenvalues --    0.04829   0.06026   0.07180   0.08657   0.08745
 Alpha virt. eigenvalues --    0.09284   0.09502   0.10772   0.11913   0.12462

 Mulliken charges:
               1
     1  F   -1.132998
     2  F   -1.076386
     3  O   -1.375220
     4  O   -1.613842
     5  O   -1.305459
     6  C   -0.064927
     7  C    1.060868
     8  C    0.864633
     9  C    1.187114
    10  C    0.337465
    11  C    0.516309
    12  C    0.715263
    13  B    1.331346
    14  H   -0.285142
    15  H   -0.329382
    16  H   -0.047435
    17  H    0.509136
    18  H    0.708658
 Sum of Mulliken charges =  -0.00000

 Dipole moment (field-independent basis, Debye):
    X=              2.2073    Y=              0.5231    Z=             -0.0000  Tot=              2.2685

 Test job not archived.
 1\1\GINC-SE059\SP\RHF\Aug-CC-pVDZ\C7H5B1F2O3\OHZDE\09-Apr-2025\0\\#t h
 f aug-cc-pvdz iop(5/13=1,5/36=2,99/5=2) pseudo=read geom=check guess=(
 read,tcheck) scf=(maxcycle=1)\\title\\0,1\F,0,1.0479,2.027792,0.000002
 \F,0,-1.60973,2.113271,-0.000003\O,0,3.186012,-1.694059,0.000004\O,0,3
 .474207,0.634268,0.000006\O,0,-3.947833,-1.206318,0.000003\C,0,1.06554
 ,-0.359409,0.000001\C,0,0.374398,0.845993,0.\C,0,-1.013513,0.908095,-0
 .000003\C,0,-1.769786,-0.261256,-0.000005\C,0,-1.094563,-1.490492,-0.0
 00004\C,0,0.288788,-1.535281,-0.000001\C,0,-3.25578,-0.214906,-0.00000

 Normal termination of Gaussian 16 at Wed Apr  9 00:43:36 2025.
