 Gaussian 16, Revision C.01,

 ----------------------------------------------------------------------
 #t hf aug-cc-pvdz symm=none int=(grid=ultrafine) guess=(read,tcheck) s
 table=(opt,rrhf)
 ----------------------------------------------------------------------
 -----
 title
 -----
 Symbolic Z-matrix:
 Charge =  0 Multiplicity = 1

 SCF Done:  E(RHF) =  -494.795194986     A.U. after   14 cycles
 Normal termination of Gaussian 16 at Wed Apr  9 00:07:27 2025.
 Gaussian 16:  ES64L-G16RevC.01  3-Jul-2019

 ----------------------------------------------------------------------
 #t hf aug-cc-pvdz iop(5/13=1,5/36=2,99/5=2) pseudo=read geom=check gue
 ss=(read,tcheck) scf=(maxcycle=1)
 ----------------------------------------------------------------------
 -----
 title
 -----
 Structure from the checkpoint file:  "BDE49_nonexpt_2269_mol1.chk"
 Charge =  0 Multiplicity = 1

                         Standard orientation:
 ---------------------------------------------------------------------
 Center     Atomic      Atomic             Coordinates (Angstroms)
 Number     Number       Type             X           Y           Z
 ---------------------------------------------------------------------
      1         14           0       -1.482669   -0.078207   -0.000001
      2          8           0        0.091399    0.545074   -0.000006
      3          7           0        1.165075   -0.446667    0.000004
      4          8           0        2.204656    0.066667    0.000004
      5          1           0       -2.343334    1.117278   -0.000056
      6          1           0       -1.711648   -0.894772    1.209833
      7          1           0       -1.711619   -0.894864   -1.209778
 ---------------------------------------------------------------------

 SCF Done:  E(RHF) =  -495.020741763     A.U. after    2 cycles

 The electronic state is 1-A.
 Alpha  occ. eigenvalues --  -69.57901 -20.66170 -20.59438 -15.74269  -6.24541
 Alpha  occ. eigenvalues --   -4.00023  -3.99889  -3.99855  -1.69520  -1.46369
 Alpha  occ. eigenvalues --   -0.98093  -0.81358  -0.76128  -0.71221  -0.70639
 Alpha  occ. eigenvalues --   -0.56129  -0.55631  -0.51578  -0.47477  -0.45826
 Alpha virt. eigenvalues --    0.03893   0.04972   0.05238   0.05756   0.05874
 Alpha virt. eigenvalues --    0.08818   0.09018   0.11941   0.14705   0.15348
 Alpha virt. eigenvalues --    0.16732   0.16933   0.17877   0.19898   0.19975

 Mulliken charges:
               1
     1  Si   1.484772
     2  O   -1.515476
     3  N    1.454274
     4  O   -0.813057
     5  H   -0.179307
     6  H   -0.215605
     7  H   -0.215601
 Sum of Mulliken charges =  -0.00000

 Dipole moment (field-independent basis, Debye):
    X=             -1.4594    Y=             -0.4090    Z=              0.0000  Tot=              1.5157

 Test job not archived.
 1\1\GINC-SE343\SP\RHF\Aug-CC-pVDZ\H3N1O2Si1\OHZDE\09-Apr-2025\0\\#t hf
  aug-cc-pvdz iop(5/13=1,5/36=2,99/5=2) pseudo=read geom=check guess=(r
 ead,tcheck) scf=(maxcycle=1)\\title\\0,1\Si,0,-1.482669,-0.078207,-0.0
 00001\O,0,0.091399,0.545074,-0.000006\N,0,1.165075,-0.446667,0.000004\
 O,0,2.204656,0.066667,0.000004\H,0,-2.343334,1.117278,-0.000056\H,0,-1
 .711648,-0.894772,1.209833\H,0,-1.711619,-0.894864,-1.209778\\Version=
 ES64L-G16RevC.01\State=1-A\HF=-495.0207418\RMSD=1.041e-02\Dipole=-0.57
 41898,-0.1609309,0.0000004\Quadrupole=0.8673325,-1.1882721,0.3209396,-

 Normal termination of Gaussian 16 at Wed Apr  9 00:07:30 2025.
