 Gaussian 16, Revision C.01,

 ----------------------------------------------------------------------
 #t hf aug-cc-pvdz symm=none int=(grid=ultrafine) guess=(read,tcheck) s
 table=(opt,rrhf)
 ----------------------------------------------------------------------
 -----
 title
 -----
 Symbolic Z-matrix:
 Charge =  0 Multiplicity = 1

 SCF Done:  E(RHF) =  -383.667547176     A.U. after   15 cycles

 1\1\GINC-SE009\Stability\RHF\Aug-CC-pVDZ\C8H10O1\OHZDE\08-Apr-2025\0\\
 #t hf aug-cc-pvdz symm=none int=(grid=ultrafine) guess=(read,tcheck) s
 table=(opt,rrhf)\\title\\0,1\C,0,-3.611043,-0.14143,0.000002\C,0,-2.24
 0605,0.508764,0.000001\H,0,-4.391468,0.623957,0.000002\H,0,-3.738593,-
 0.767542,0.885545\H,0,-3.738594,-0.767541,-0.885542\O,0,-1.269855,-0.5
 37687,0.\H,0,-2.107992,1.139997,0.887835\H,0,-2.107994,1.139997,-0.887
 833\C,0,0.054903,-0.213459,0.\C,0,0.553774,1.09241,0.\C,0,0.945222,-1.
 295238,0.\C,0,2.314002,-1.070695,0.\C,0,2.820518,0.231341,-0.000001\C,

 Normal termination of Gaussian 16 at Tue Apr  8 22:43:39 2025.
 Gaussian 16:  ES64L-G16RevC.01  3-Jul-2019

 ----------------------------------------------------------------------
 #t hf aug-cc-pvdz iop(5/13=1,5/36=2,99/5=2) pseudo=read geom=check gue
 ss=(read,tcheck) scf=(maxcycle=1)
 ----------------------------------------------------------------------
 -----
 title
 -----
 Structure from the checkpoint file:  "BDE49_expt_1427_mol1.chk"
 Charge =  0 Multiplicity = 1

                         Standard orientation:
 ---------------------------------------------------------------------
 Center     Atomic      Atomic             Coordinates (Angstroms)
 Number     Number       Type             X           Y           Z
 ---------------------------------------------------------------------
      1          6           0       -3.611043   -0.141430    0.000002
      2          6           0       -2.240605    0.508764    0.000001
      3          1           0       -4.391468    0.623957    0.000002
      4          1           0       -3.738593   -0.767542    0.885545
      5          1           0       -3.738594   -0.767541   -0.885542
      6          8           0       -1.269855   -0.537687   -0.000000
      7          1           0       -2.107992    1.139997    0.887835
      8          1           0       -2.107994    1.139997   -0.887833
      9          6           0        0.054903   -0.213459   -0.000000
     10          6           0        0.553774    1.092410   -0.000000
     11          6           0        0.945222   -1.295238   -0.000000
     12          6           0        2.314002   -1.070695   -0.000000
     13          6           0        2.820518    0.231341   -0.000001
     14          6           0        1.934584    1.301909   -0.000000
     15          1           0       -0.113506    1.943584   -0.000000
     16          1           0        2.311781    2.318731   -0.000001
     17          1           0        0.535104   -2.297951   -0.000000
     18          1           0        2.991796   -1.917201   -0.000001
     19          1           0        3.890177    0.403847   -0.000001
 ---------------------------------------------------------------------

 SCF Done:  E(RHF) =  -384.067371291     A.U. after    2 cycles

 The electronic state is 1-A.
 Alpha  occ. eigenvalues --  -20.56744 -11.30487 -11.29679 -11.24543 -11.24413
 Alpha  occ. eigenvalues --  -11.23644 -11.23318 -11.23236 -11.23167  -1.49240
 Alpha  occ. eigenvalues --   -1.14857  -1.04850  -1.01699  -0.98954  -0.87580
 Alpha  occ. eigenvalues --   -0.83331  -0.80903  -0.73342  -0.67501  -0.67301
 Alpha  occ. eigenvalues --   -0.66255  -0.62483  -0.59868  -0.56839  -0.56476
 Alpha  occ. eigenvalues --   -0.55416  -0.52493  -0.51554  -0.51019  -0.48250
 Alpha  occ. eigenvalues --   -0.46346  -0.34742  -0.31601
 Alpha virt. eigenvalues --    0.03376   0.03508   0.03899   0.04589   0.04830
 Alpha virt. eigenvalues --    0.04949   0.06830   0.07616   0.07801   0.09115
 Alpha virt. eigenvalues --    0.10622   0.10992   0.11864   0.12826   0.13418

 Mulliken charges:
               1
     1  C   -0.515831
     2  C    0.071661
     3  H    0.151380
     4  H    0.198508
     5  H    0.198509
     6  O   -1.940358
     7  H    0.124925
     8  H    0.124925
     9  C    2.157260
    10  C   -0.532532
    11  C   -0.120334
    12  C    0.657733
    13  C    0.003666
    14  C    0.835177
    15  H   -0.434182
    16  H   -0.234747
    17  H   -0.307364
    18  H   -0.212812
    19  H   -0.225585
 Sum of Mulliken charges =  -0.00000

 Dipole moment (field-independent basis, Debye):
    X=             -0.8443    Y=              1.0660    Z=             -0.0000  Tot=              1.3599

 Test job not archived.
 1\1\GINC-SE009\SP\RHF\Aug-CC-pVDZ\C8H10O1\OHZDE\08-Apr-2025\0\\#t hf a
 ug-cc-pvdz iop(5/13=1,5/36=2,99/5=2) pseudo=read geom=check guess=(rea
 d,tcheck) scf=(maxcycle=1)\\title\\0,1\C,0,-3.611043,-0.14143,0.000002
 \C,0,-2.240605,0.508764,0.000001\H,0,-4.391468,0.623957,0.000002\H,0,-
 3.738593,-0.767542,0.885545\H,0,-3.738594,-0.767541,-0.885542\O,0,-1.2
 69855,-0.537687,0.\H,0,-2.107992,1.139997,0.887835\H,0,-2.107994,1.139
 997,-0.887833\C,0,0.054903,-0.213459,0.\C,0,0.553774,1.09241,0.\C,0,0.
 945222,-1.295238,0.\C,0,2.314002,-1.070695,0.\C,0,2.820518,0.231341,-0

 Normal termination of Gaussian 16 at Tue Apr  8 22:43:48 2025.
