 Gaussian 16, Revision C.01,

 ----------------------------------------------------------------------
 #t hf aug-cc-pvdz symm=none int=(grid=ultrafine) guess=(read,tcheck) s
 table=(opt,rrhf)
 ----------------------------------------------------------------------
 -----
 title
 -----
 Symbolic Z-matrix:
 Charge =  0 Multiplicity = 1

 SCF Done:  E(RHF) =  -833.163402480     A.U. after   13 cycles
 Normal termination of Gaussian 16 at Wed Apr  9 00:24:40 2025.
 Gaussian 16:  ES64L-G16RevC.01  3-Jul-2019

 ----------------------------------------------------------------------
 #t hf aug-cc-pvdz iop(5/13=1,5/36=2,99/5=2) pseudo=read geom=check gue
 ss=(read,tcheck) scf=(maxcycle=1)
 ----------------------------------------------------------------------
 -----
 title
 -----
 Structure from the checkpoint file:  "BDE49_nonexpt_2709_mol1.chk"
 Charge =  0 Multiplicity = 1

                         Standard orientation:
 ---------------------------------------------------------------------
 Center     Atomic      Atomic             Coordinates (Angstroms)
 Number     Number       Type             X           Y           Z
 ---------------------------------------------------------------------
      1          9           0       -1.564451   -1.258469    0.000000
      2          9           0        1.086844    1.436839    0.000000
      3          9           0        1.086844   -0.461951    1.077763
      4          9           0        1.086844   -0.461951   -1.077763
      5          6           0        0.621662    0.173985    0.000000
      6         16           0       -1.187168    0.354117    0.000000
 ---------------------------------------------------------------------

 SCF Done:  E(RHF) =  -833.614252078     A.U. after    2 cycles

 The electronic state is 1-A'.
 Alpha  occ. eigenvalues --  -94.08486 -26.54408 -26.53600 -26.53597 -26.51117
 Alpha  occ. eigenvalues --  -11.57325  -8.35845  -6.33595  -6.33328  -6.32993
 Alpha  occ. eigenvalues --   -1.74987  -1.65084  -1.64442  -1.61295  -1.09685
 Alpha  occ. eigenvalues --   -0.94922  -0.84521  -0.84243  -0.81693  -0.72102
 Alpha  occ. eigenvalues --   -0.71741  -0.68926  -0.68733  -0.66889  -0.66518
 Alpha  occ. eigenvalues --   -0.65642  -0.64968  -0.53620  -0.43579
 Alpha virt. eigenvalues --    0.04435   0.06564   0.08592   0.09855   0.11121
 Alpha virt. eigenvalues --    0.11320   0.12181   0.14432   0.19993   0.21810
 Alpha virt. eigenvalues --    0.22667   0.24029   0.27083   0.29104   0.29570

 Mulliken charges:
               1
     1  F   -0.636543
     2  F   -0.593846
     3  F   -0.613254
     4  F   -0.613254
     5  C    1.525953
     6  S    0.930944
 Sum of Mulliken charges =  -0.00000

 Dipole moment (field-independent basis, Debye):
    X=             -0.4332    Y=              0.9717    Z=             -0.0000  Tot=              1.0639

 Test job not archived.
 1\1\GINC-SE105\SP\RHF\Aug-CC-pVDZ\C1F4S1\OHZDE\09-Apr-2025\0\\#t hf au
 g-cc-pvdz iop(5/13=1,5/36=2,99/5=2) pseudo=read geom=check guess=(read
 ,tcheck) scf=(maxcycle=1)\\title\\0,1\F,0,-1.564451,-1.258469,0.\F,0,1
 .086844,1.436839,0.\F,0,1.086844,-0.461951,1.077763\F,0,1.086844,-0.46
 1951,-1.077763\C,0,0.621662,0.173985,0.\S,0,-1.187168,0.354117,0.\\Ver
 sion=ES64L-G16RevC.01\State=1-A'\HF=-833.6142521\RMSD=3.251e-03\Dipole
 =-0.1704386,0.382315,0.\Quadrupole=0.687169,-0.1466542,-0.5405148,-1.0
 760416,0.,0.\PG=CS [SG(C1F2S1),X(F2)]\\@

 Normal termination of Gaussian 16 at Wed Apr  9 00:24:42 2025.
