 Gaussian 16, Revision C.01,

 ----------------------------------------------------------------------
 #t hf aug-cc-pvdz symm=none int=(grid=ultrafine) guess=(read,tcheck) s
 table=(opt,rrhf)
 ----------------------------------------------------------------------
 -----
 title
 -----
 Symbolic Z-matrix:
 Charge =  0 Multiplicity = 1

 SCF Done:  E(RHF) =  -477.653082946     A.U. after   15 cycles
 Normal termination of Gaussian 16 at Tue Apr  8 23:23:11 2025.
 Gaussian 16:  ES64L-G16RevC.01  3-Jul-2019

 ----------------------------------------------------------------------
 #t hf aug-cc-pvdz iop(5/13=1,5/36=2,99/5=2) pseudo=read geom=check gue
 ss=(read,tcheck) scf=(maxcycle=1)
 ----------------------------------------------------------------------
 -----
 title
 -----
 Structure from the checkpoint file:  "BDE49_nonexpt_1182_mol1.chk"
 Charge =  0 Multiplicity = 1

                         Standard orientation:
 ---------------------------------------------------------------------
 Center     Atomic      Atomic             Coordinates (Angstroms)
 Number     Number       Type             X           Y           Z
 ---------------------------------------------------------------------
      1          9           0        0.000142    1.555644    1.217589
      2          7           0       -1.118787   -0.558659   -0.385985
      3          7           0        1.118723   -0.558721   -0.386007
      4          6           0       -0.000015    0.224922   -0.774070
      5          6           0       -0.669292   -1.530609    0.533304
      6          1           0       -1.364619   -2.181236    1.035718
      7          6           0        0.669192   -1.530636    0.533302
      8          1           0        1.364495   -2.181292    1.035711
      9          6           0       -2.436741    0.045581   -0.312791
     10          1           0       -2.520240    0.767707    0.507281
     11          1           0       -3.179365   -0.742602   -0.176130
     12          6           0        2.436710    0.045450   -0.312842
     13          1           0        3.179294   -0.742772   -0.176190
     14          1           0        2.520264    0.767576    0.507223
     15          1           0        2.657773    0.559027   -1.251114
     16          8           0        0.000032    1.616648   -0.244757
     17          1           0       -0.000017    0.553852   -1.829164
     18          1           0       -2.657794    0.559175   -1.251056
 ---------------------------------------------------------------------

 SCF Done:  E(RHF) =  -478.132030150     A.U. after    2 cycles

 The electronic state is 1-A.
 Alpha  occ. eigenvalues --  -26.47746 -20.65474 -15.51830 -15.51821 -11.37403
 Alpha  occ. eigenvalues --  -11.27037 -11.27030 -11.26287 -11.26189  -1.61955
 Alpha  occ. eigenvalues --   -1.36435  -1.29545  -1.20711  -1.04305  -0.99523
 Alpha  occ. eigenvalues --   -0.93366  -0.83158  -0.83041  -0.74290  -0.72455
 Alpha  occ. eigenvalues --   -0.68395  -0.67153  -0.63251  -0.62931  -0.61971
 Alpha  occ. eigenvalues --   -0.61568  -0.60708  -0.57307  -0.56491  -0.55160
 Alpha  occ. eigenvalues --   -0.54558  -0.49970  -0.49731  -0.44451  -0.30370
 Alpha virt. eigenvalues --    0.03483   0.04035   0.04453   0.04761   0.04926
 Alpha virt. eigenvalues --    0.06273   0.06381   0.07761   0.08356   0.09971
 Alpha virt. eigenvalues --    0.10689   0.11797   0.12709   0.13528   0.14618

 Mulliken charges:
               1
     1  F   -0.545152
     2  N    0.890619
     3  N    0.890635
     4  C   -0.078276
     5  C    0.072163
     6  H   -0.282364
     7  C    0.072167
     8  H   -0.282374
     9  C   -0.306700
    10  H    0.174936
    11  H    0.075812
    12  C   -0.306703
    13  H    0.075808
    14  H    0.174948
    15  H    0.098809
    16  O   -0.686790
    17  H   -0.136357
    18  H    0.098816
 Sum of Mulliken charges =  -0.00000

 Dipole moment (field-independent basis, Debye):
    X=             -0.0001    Y=             -1.4833    Z=             -0.8289  Tot=              1.6991

 Test job not archived.
 1\1\GINC-SE102\SP\RHF\Aug-CC-pVDZ\C5H9F1N2O1\OHZDE\08-Apr-2025\0\\#t h
 f aug-cc-pvdz iop(5/13=1,5/36=2,99/5=2) pseudo=read geom=check guess=(
 read,tcheck) scf=(maxcycle=1)\\title\\0,1\F,0,0.000142,1.555644,1.2175
 89\N,0,-1.118787,-0.558659,-0.385985\N,0,1.118723,-0.558721,-0.386007\
 C,0,-0.000015,0.224922,-0.77407\C,0,-0.669292,-1.530609,0.533304\H,0,-
 1.364619,-2.181236,1.035718\C,0,0.669192,-1.530636,0.533302\H,0,1.3644
 95,-2.181292,1.035711\C,0,-2.436741,0.045581,-0.312791\H,0,-2.52024,0.
 767707,0.507281\H,0,-3.179365,-0.742602,-0.17613\C,0,2.43671,0.045449,

 Normal termination of Gaussian 16 at Tue Apr  8 23:23:20 2025.
