 Gaussian 16, Revision C.01,

 ----------------------------------------------------------------------
 #t hf aug-cc-pvdz symm=none int=(grid=ultrafine) guess=(read,tcheck) s
 table=(opt,rrhf)
 ----------------------------------------------------------------------
 -----
 title
 -----
 Symbolic Z-matrix:
 Charge =  0 Multiplicity = 1

 SCF Done:  E(RHF) =  -986.784054919     A.U. after   15 cycles
 Normal termination of Gaussian 16 at Wed Apr  9 00:22:08 2025.
 Gaussian 16:  ES64L-G16RevC.01  3-Jul-2019

 ----------------------------------------------------------------------
 #t hf aug-cc-pvdz iop(5/13=1,5/36=2,99/5=2) pseudo=read geom=check gue
 ss=(read,tcheck) scf=(maxcycle=1)
 ----------------------------------------------------------------------
 -----
 title
 -----
 Structure from the checkpoint file:  "BDE49_nonexpt_2655_mol1.chk"
 Charge =  0 Multiplicity = 1

                         Standard orientation:
 ---------------------------------------------------------------------
 Center     Atomic      Atomic             Coordinates (Angstroms)
 Number     Number       Type             X           Y           Z
 ---------------------------------------------------------------------
      1          9           0        1.852636    0.878088   -0.607654
      2         16           0        1.184241   -0.088444    0.578946
      3          6           0       -1.704508    0.228027   -0.003273
      4          7           0       -2.597236    0.943459    0.171269
      5         16           0       -0.450868   -0.903754   -0.310843
 ---------------------------------------------------------------------

 SCF Done:  E(RHF) =  -987.075682149     A.U. after    2 cycles

 The electronic state is 1-A.
 Alpha  occ. eigenvalues --  -94.10447 -94.07337 -26.50566 -15.55456 -11.32869
 Alpha  occ. eigenvalues --   -8.37560  -8.35212  -6.35262  -6.35033  -6.34661
 Alpha  occ. eigenvalues --   -6.32989  -6.32775  -6.32527  -1.60507  -1.26943
 Alpha  occ. eigenvalues --   -1.17328  -0.98471  -0.75087  -0.68945  -0.68295
 Alpha  occ. eigenvalues --   -0.66492  -0.62522  -0.58086  -0.57179  -0.50393
 Alpha  occ. eigenvalues --   -0.45530  -0.43875
 Alpha virt. eigenvalues --    0.02772   0.04076   0.05264   0.07376   0.08295
 Alpha virt. eigenvalues --    0.10736   0.10924   0.11629   0.12002   0.14266
 Alpha virt. eigenvalues --    0.14552   0.15066   0.16178   0.16463   0.18405

 Mulliken charges:
               1
     1  F   -0.602557
     2  S    0.703425
     3  C   -1.012688
     4  N    0.494561
     5  S    0.417259
 Sum of Mulliken charges =   0.00000

 Dipole moment (field-independent basis, Debye):
    X=              2.3158    Y=             -2.7369    Z=              0.2705  Tot=              3.5954

 Test job not archived.
 1\1\GINC-SE054\SP\RHF\Aug-CC-pVDZ\C1F1N1S2\OHZDE\09-Apr-2025\0\\#t hf
 aug-cc-pvdz iop(5/13=1,5/36=2,99/5=2) pseudo=read geom=check guess=(re
 ad,tcheck) scf=(maxcycle=1)\\title\\0,1\F,0,-1.852636,-0.878088,-0.607
 654\S,0,-1.184241,0.088444,0.578946\C,0,1.704508,-0.228027,-0.003273\N
 ,0,2.597236,-0.943459,0.171269\S,0,0.450868,0.903754,-0.310843\\Versio
 n=ES64L-G16RevC.01\State=1-A\HF=-987.0756821\RMSD=9.883e-03\Dipole=-0.
 9111231,1.0767746,0.1064174\Quadrupole=-4.3567778,1.4258808,2.930897,3
 .3113595,-2.4201632,-0.3455038\PG=C01 [X(C1F1N1S2)]\\@

 Normal termination of Gaussian 16 at Wed Apr  9 00:22:10 2025.
