 Gaussian 16, Revision C.01,

 ----------------------------------------------------------------------
 #t hf aug-cc-pvdz symm=none int=(grid=ultrafine) guess=(read,tcheck) s
 table=(opt,rrhf)
 ----------------------------------------------------------------------
 -----
 title
 -----
 Symbolic Z-matrix:
 Charge =  0 Multiplicity = 1

 SCF Done:  E(RHF) =  -437.878544246     A.U. after   14 cycles
 Normal termination of Gaussian 16 at Wed Apr  9 00:39:59 2025.
 Gaussian 16:  ES64L-G16RevC.01  3-Jul-2019

 ----------------------------------------------------------------------
 #t hf aug-cc-pvdz iop(5/13=1,5/36=2,99/5=2) pseudo=read geom=check gue
 ss=(read,tcheck) scf=(maxcycle=1)
 ----------------------------------------------------------------------
 -----
 title
 -----
 Structure from the checkpoint file:  "BDE49_nonexpt_623_mol1.chk"
 Charge =  0 Multiplicity = 1

                         Standard orientation:
 ---------------------------------------------------------------------
 Center     Atomic      Atomic             Coordinates (Angstroms)
 Number     Number       Type             X           Y           Z
 ---------------------------------------------------------------------
      1          8           0       -2.338725   -1.213254   -0.000059
      2          1           0       -3.298574   -1.134585   -0.000025
      3          8           0       -2.503139    1.122550    0.000077
      4          1           0       -2.026935    1.955890    0.000168
      5          5           0       -1.720579    0.000225   -0.000028
      6          7           0        1.957713    1.185016   -0.000047
      7          6           0        2.536878   -0.017801   -0.000006
      8          1           0        3.623092   -0.031130    0.000033
      9          7           0        1.926450   -1.205512    0.000049
     10          6           0        0.592360   -1.172520    0.000042
     11          1           0        0.083508   -2.131840    0.000069
     12          6           0       -0.151477    0.016712   -0.000011
     13          6           0        0.623281    1.180567   -0.000051
     14          1           0        0.161318    2.167892   -0.000106
 ---------------------------------------------------------------------

 SCF Done:  E(RHF) =  -438.314604112     A.U. after    2 cycles

 The electronic state is 1-A.
 Alpha  occ. eigenvalues --  -20.57527 -20.56598 -15.51808 -15.51598 -11.32743
 Alpha  occ. eigenvalues --  -11.31575 -11.30917 -11.23989  -7.65951  -1.49637
 Alpha  occ. eigenvalues --   -1.45345  -1.31545  -1.20541  -1.08209  -0.92413
 Alpha  occ. eigenvalues --   -0.91963  -0.79308  -0.76955  -0.75387  -0.72952
 Alpha  occ. eigenvalues --   -0.65721  -0.61702  -0.61283  -0.61026  -0.58168
 Alpha  occ. eigenvalues --   -0.57216  -0.56873  -0.50657  -0.49443  -0.46209
 Alpha  occ. eigenvalues --   -0.45788  -0.39663
 Alpha virt. eigenvalues --    0.02834   0.03822   0.04380   0.04561   0.05582
 Alpha virt. eigenvalues --    0.06261   0.06538   0.07047   0.07170   0.08656
 Alpha virt. eigenvalues --    0.09985   0.10531   0.11250   0.12698   0.13212

 Mulliken charges:
               1
     1  O   -1.268954
     2  H    0.520176
     3  O   -1.455654
     4  H    0.614742
     5  B    1.563042
     6  N    0.888263
     7  C   -0.667501
     8  H   -0.013269
     9  N    1.001592
    10  C   -0.995565
    11  H   -0.168853
    12  C    1.046260
    13  C   -0.799681
    14  H   -0.264598
 Sum of Mulliken charges =  -0.00000

 Dipole moment (field-independent basis, Debye):
    X=             -2.3654    Y=              1.2600    Z=              0.0001  Tot=              2.6800

 Test job not archived.
 1\1\GINC-SE179\SP\RHF\Aug-CC-pVDZ\C4H5B1N2O2\OHZDE\09-Apr-2025\0\\#t h
 f aug-cc-pvdz iop(5/13=1,5/36=2,99/5=2) pseudo=read geom=check guess=(
 read,tcheck) scf=(maxcycle=1)\\title\\0,1\O,0,-2.338725,-1.213254,-0.0
 00059\H,0,-3.298574,-1.134585,-0.000025\O,0,-2.503139,1.12255,0.000077
 \H,0,-2.026935,1.95589,0.000168\B,0,-1.720579,0.000225,-0.000028\N,0,1
 .957713,1.185016,-0.000047\C,0,2.536878,-0.017801,-0.000006\H,0,3.6230
 92,-0.03113,0.000033\N,0,1.92645,-1.205512,0.000049\C,0,0.59236,-1.172
 52,0.000042\H,0,0.083508,-2.13184,0.000069\C,0,-0.151477,0.016712,-0.0

 Normal termination of Gaussian 16 at Wed Apr  9 00:40:05 2025.
