 Gaussian 16, Revision C.01,

 ----------------------------------------------------------------------
 #t hf aug-cc-pvdz symm=none int=(grid=ultrafine) guess=(read,tcheck) s
 table=opt
 ----------------------------------------------------------------------
 -----
 title
 -----
 Symbolic Z-matrix:
 Charge =  0 Multiplicity = 2

 SCF Done:  E(UHF) =  -1667.56828395     A.U. after   14 cycles
 Normal termination of Gaussian 16 at Tue Apr  8 22:58:39 2025.
 Gaussian 16:  ES64L-G16RevC.01  3-Jul-2019

 ----------------------------------------------------------------------
 #t hf aug-cc-pvdz iop(5/13=1,5/36=2,99/5=2) pseudo=read geom=check gue
 ss=(read,tcheck) scf=(maxcycle=1)
 ----------------------------------------------------------------------
 -----
 title
 -----
 Structure from the checkpoint file:  "BDE49_expt_1945_mol2.chk"
 Charge =  0 Multiplicity = 2

                         Standard orientation:
 ---------------------------------------------------------------------
 Center     Atomic      Atomic             Coordinates (Angstroms)
 Number     Number       Type             X           Y           Z
 ---------------------------------------------------------------------
      1         14           0        0.000000   -0.000058    0.542925
      2         17           0        1.690138   -0.975572   -0.149035
      3         17           0       -1.690018   -0.975778   -0.149035
      4         17           0       -0.000119    1.951398   -0.149044
 ---------------------------------------------------------------------

 SCF Done:  E(UHF) =  -1667.82521226     A.U. after    2 cycles

 The electronic state is 2-A.
 Alpha  occ. eigenvalues -- -105.59170-105.59170-105.59169 -69.68910 -10.64182
 Alpha  occ. eigenvalues --  -10.64168 -10.64167  -7.81205  -7.81198  -7.81197
 Alpha  occ. eigenvalues --   -7.80722  -7.80722  -7.80721  -7.80675  -7.80674
 Alpha  occ. eigenvalues --   -7.80673  -6.34813  -4.10306  -4.09715  -4.09715
 Alpha  occ. eigenvalues --   -1.12233  -1.07309  -1.07308  -0.73982  -0.59902
 Alpha  occ. eigenvalues --   -0.59901  -0.56453  -0.52190  -0.52190  -0.49539
 Alpha  occ. eigenvalues --   -0.49539  -0.48132  -0.39002
 Alpha virt. eigenvalues --    0.05327   0.05511   0.05511   0.05888   0.10383
 Alpha virt. eigenvalues --    0.11932   0.11933   0.12632   0.12632   0.14728
 Alpha virt. eigenvalues --    0.14728   0.16775   0.17500   0.18380   0.19631

  Beta  occ. eigenvalues -- -105.59034-105.59034-105.59033 -69.68275 -10.64033
  Beta  occ. eigenvalues --  -10.64019 -10.64019  -7.80822  -7.80818  -7.80817
  Beta  occ. eigenvalues --   -7.80599  -7.80599  -7.80597  -7.80494  -7.80492
  Beta  occ. eigenvalues --   -7.80491  -6.33728  -4.09313  -4.09313  -4.08426
  Beta  occ. eigenvalues --   -1.10933  -1.06207  -1.06206  -0.70199  -0.58450
  Beta  occ. eigenvalues --   -0.58449  -0.53585  -0.51178  -0.51177  -0.49134
  Beta  occ. eigenvalues --   -0.49133  -0.47924
  Beta virt. eigenvalues --   -0.01343   0.05772   0.05772   0.05836   0.06906
  Beta virt. eigenvalues --    0.10764   0.12656   0.12656   0.13720   0.13720
  Beta virt. eigenvalues --    0.16080   0.16080   0.16925   0.17743   0.18407

 Mulliken charges and spin densities:
               1          2
     1  Si   1.336055   0.822943
     2  Cl  -0.445352   0.059021
     3  Cl  -0.445352   0.059021
     4  Cl  -0.445351   0.059015
 Sum of Mulliken charges =  -0.00000   1.00000

 Dipole moment (field-independent basis, Debye):
    X=             -0.0000    Y=             -0.0003    Z=              0.9231  Tot=              0.9231
                          Isotropic Fermi Contact Couplings
        Atom                 a.u.       MegaHertz       Gauss      10(-4) cm-1
     1  Si(29)             1.21985   -1084.11430    -386.83894    -361.62161
     2  Cl(35)             0.07737      33.92376      12.10484      11.31575
     3  Cl(35)             0.07737      33.92376      12.10484      11.31575
     4  Cl(35)             0.07736      33.91784      12.10273      11.31377
 --------------------------------------------------------
       Center         ----  Spin Dipole Couplings  ----
                      3XX-RR        3YY-RR        3ZZ-RR
 --------------------------------------------------------

 Normal termination of Gaussian 16 at Tue Apr  8 22:58:40 2025.
