 Gaussian 16, Revision C.01,

 ----------------------------------------------------------------------
 #t hf aug-cc-pvdz symm=none int=(grid=ultrafine) guess=(read,tcheck) s
 table=(opt,rrhf)
 ----------------------------------------------------------------------
 -----
 title
 -----
 Symbolic Z-matrix:
 Charge =  0 Multiplicity = 1

 SCF Done:  E(RHF) =  -945.446572243     A.U. after   12 cycles
 Normal termination of Gaussian 16 at Tue Apr  8 23:45:50 2025.
 Gaussian 16:  ES64L-G16RevC.01  3-Jul-2019

 ----------------------------------------------------------------------
 #t hf aug-cc-pvdz iop(5/13=1,5/36=2,99/5=2) pseudo=read geom=check gue
 ss=(read,tcheck) scf=(maxcycle=1)
 ----------------------------------------------------------------------
 -----
 title
 -----
 Structure from the checkpoint file:  "BDE49_nonexpt_1743_mol1.chk"
 Charge =  0 Multiplicity = 1

                         Standard orientation:
 ---------------------------------------------------------------------
 Center     Atomic      Atomic             Coordinates (Angstroms)
 Number     Number       Type             X           Y           Z
 ---------------------------------------------------------------------
      1         14           0        1.338137   -0.375904    0.414188
      2          6           0       -0.342091   -0.855138   -0.264771
      3          6           0       -1.527953   -0.001958    0.219389
      4          1           0       -0.502657   -1.907606    0.009910
      5          1           0       -0.285908   -0.835927   -1.360466
      6          6           0        2.705893   -1.490708   -0.199938
      7          1           0        2.530140   -2.520845    0.126649
      8          1           0        3.674421   -1.170853    0.191793
      9          1           0        2.760777   -1.482691   -1.291661
     10         17           0        1.778558    1.591847   -0.182647
     11          6           0       -2.877528   -0.458130   -0.350552
     12          1           0       -1.359032    1.045811   -0.052979
     13          1           0       -1.575836   -0.026439    1.315105
     14          6           0       -4.053973    0.394374    0.132830
     15          1           0       -3.047518   -1.507007   -0.078433
     16          1           0       -2.830587   -0.431663   -1.445875
     17          1           0       -4.146381    0.360021    1.222861
     18          1           0       -4.999543    0.045927   -0.291233
     19          1           0       -3.927116    1.442585   -0.154745
     20          1           0        1.313734   -0.340692    1.893686
 ---------------------------------------------------------------------

 SCF Done:  E(RHF) =  -945.780880457     A.U. after    2 cycles

 The electronic state is 1-A.
 Alpha  occ. eigenvalues -- -105.54302 -69.56273 -11.23530 -11.23003 -11.22738
 Alpha  occ. eigenvalues --  -11.22711 -11.22398 -10.59277  -7.76161  -7.75879
 Alpha  occ. eigenvalues --   -7.75874  -6.22971  -3.98393  -3.98229  -3.98212
 Alpha  occ. eigenvalues --   -1.08081  -1.04043  -0.98777  -0.95857  -0.87073
 Alpha  occ. eigenvalues --   -0.80012  -0.69222  -0.65275  -0.59796  -0.59322
 Alpha  occ. eigenvalues --   -0.58174  -0.57396  -0.55369  -0.52267  -0.51858
 Alpha  occ. eigenvalues --   -0.50114  -0.49827  -0.48355  -0.47516  -0.46850
 Alpha  occ. eigenvalues --   -0.43906  -0.42435
 Alpha virt. eigenvalues --    0.03163   0.03630   0.03745   0.04164   0.05284
 Alpha virt. eigenvalues --    0.05793   0.05846   0.06966   0.07536   0.08208
 Alpha virt. eigenvalues --    0.08465   0.08966   0.09598   0.10608   0.11420

 Mulliken charges:
               1
     1  Si   1.757981
     2  C   -0.538249
     3  C   -0.302065
     4  H    0.080955
     5  H    0.124361
     6  C   -0.669994
     7  H    0.084072
     8  H   -0.019014
     9  H    0.122391
    10  Cl  -0.666223
    11  C   -0.241315
    12  H    0.090898
    13  H    0.068295
    14  C   -0.391100
    15  H    0.116374
    16  H    0.124742
    17  H    0.164619
    18  H    0.113914
    19  H    0.162104
    20  H   -0.182746
 Sum of Mulliken charges =  -0.00000

 Dipole moment (field-independent basis, Debye):
    X=             -0.7098    Y=             -2.3730    Z=             -0.0056  Tot=              2.4769

 Test job not archived.
 1\1\GINC-SE048\SP\RHF\Aug-CC-pVDZ\C5H13Cl1Si1\OHZDE\08-Apr-2025\0\\#t
 hf aug-cc-pvdz iop(5/13=1,5/36=2,99/5=2) pseudo=read geom=check guess=
 (read,tcheck) scf=(maxcycle=1)\\title\\0,1\Si,0,1.338137,-0.375904,0.4
 14188\C,0,-0.342091,-0.855138,-0.264771\C,0,-1.527953,-0.001958,0.2193
 89\H,0,-0.502657,-1.907606,0.00991\H,0,-0.285908,-0.835927,-1.360466\C
 ,0,2.705893,-1.490708,-0.199938\H,0,2.53014,-2.520845,0.126649\H,0,3.6
 74421,-1.170853,0.191793\H,0,2.760777,-1.482691,-1.291661\Cl,0,1.77855
 8,1.591847,-0.182647\C,0,-2.877528,-0.45813,-0.350552\H,0,-1.359032,1.

 Normal termination of Gaussian 16 at Tue Apr  8 23:45:59 2025.
