 Gaussian 16, Revision C.01,

 ----------------------------------------------------------------------
 #t hf aug-cc-pvdz symm=none int=(grid=ultrafine) guess=(read,tcheck) s
 table=(opt,rrhf)
 ----------------------------------------------------------------------
 -----
 title
 -----
 Symbolic Z-matrix:
 Charge =  0 Multiplicity = 1

 SCF Done:  E(RHF) =  -156.443517409     A.U. after   11 cycles
 Normal termination of Gaussian 16 at Wed Apr  9 00:38:48 2025.
 Gaussian 16:  ES64L-G16RevC.01  3-Jul-2019

 ----------------------------------------------------------------------
 #t hf aug-cc-pvdz iop(5/13=1,5/36=2,99/5=2) pseudo=read geom=check gue
 ss=(read,tcheck) scf=(maxcycle=1)
 ----------------------------------------------------------------------
 -----
 title
 -----
 Structure from the checkpoint file:  "BDE49_nonexpt_603_mol1.chk"
 Charge =  0 Multiplicity = 1

                         Standard orientation:
 ---------------------------------------------------------------------
 Center     Atomic      Atomic             Coordinates (Angstroms)
 Number     Number       Type             X           Y           Z
 ---------------------------------------------------------------------
      1          7           0        1.185766   -0.179568   -0.000002
      2          5           0       -0.046645    0.499585   -0.000013
      3          8           0       -1.268104   -0.122937    0.000006
      4          1           0       -0.053102    1.692219    0.000008
      5          1           0       -1.221660   -1.083767    0.000009
      6          1           0        1.291318   -1.182675    0.000003
      7          1           0        2.061137    0.316764    0.000007
 ---------------------------------------------------------------------

 SCF Done:  E(RHF) =  -156.603843338     A.U. after    2 cycles

 The electronic state is 1-A.
 Alpha  occ. eigenvalues --  -20.54707 -15.49090  -7.61019  -1.44720  -1.16227
 Alpha  occ. eigenvalues --   -0.76681  -0.71892  -0.70776  -0.55617  -0.53883
 Alpha  occ. eigenvalues --   -0.50246  -0.45587
 Alpha virt. eigenvalues --    0.02964   0.04584   0.05804   0.05937   0.06889
 Alpha virt. eigenvalues --    0.07656   0.10292   0.12736   0.17352   0.17611
 Alpha virt. eigenvalues --    0.19167   0.20083   0.21471   0.22371   0.23232

 Mulliken charges:
               1
     1  N    0.140890
     2  B    0.469407
     3  O   -1.137319
     4  H    0.038672
     5  H    0.504174
     6  H   -0.015761
     7  H   -0.000063
 Sum of Mulliken charges =  -0.00000

 Dipole moment (field-independent basis, Debye):
    X=              1.8130    Y=             -1.9141    Z=             -0.0000  Tot=              2.6364

 Test job not archived.
 1\1\GINC-SE128\SP\RHF\Aug-CC-pVDZ\B1H4N1O1\OHZDE\09-Apr-2025\0\\#t hf
 aug-cc-pvdz iop(5/13=1,5/36=2,99/5=2) pseudo=read geom=check guess=(re
 ad,tcheck) scf=(maxcycle=1)\\title\\0,1\N,0,-1.185766,-0.179568,0.0000
 02\B,0,0.046645,0.499585,0.000013\O,0,1.268104,-0.122937,-0.000006\H,0
 ,0.053102,1.692219,-0.000008\H,0,1.22166,-1.083767,-0.000009\H,0,-1.29
 1318,-1.182675,-0.000003\H,0,-2.061137,0.316764,-0.000007\\Version=ES6
 4L-G16RevC.01\State=1-A\HF=-156.6038433\RMSD=1.142e-02\Dipole=-0.71328
 02,-0.753084,0.0000062\Quadrupole=-0.1750488,1.7990309,-1.623982,-1.16

 Normal termination of Gaussian 16 at Wed Apr  9 00:38:50 2025.
