 Gaussian 16, Revision C.01,

 ----------------------------------------------------------------------
 #t hf aug-cc-pvdz symm=none int=(grid=ultrafine) guess=(read,tcheck) s
 table=(opt,rrhf)
 ----------------------------------------------------------------------
 -----
 title
 -----
 Symbolic Z-matrix:
 Charge =  0 Multiplicity = 1

 SCF Done:  E(RHF) =  -1024.15461182     A.U. after   14 cycles
 Normal termination of Gaussian 16 at Wed Apr  9 00:18:56 2025.
 Gaussian 16:  ES64L-G16RevC.01  3-Jul-2019

 ----------------------------------------------------------------------
 #t hf aug-cc-pvdz iop(5/13=1,5/36=2,99/5=2) pseudo=read geom=check gue
 ss=(read,tcheck) scf=(maxcycle=1)
 ----------------------------------------------------------------------
 -----
 title
 -----
 Structure from the checkpoint file:  "BDE49_nonexpt_2582_mol1.chk"
 Charge =  0 Multiplicity = 1

                         Standard orientation:
 ---------------------------------------------------------------------
 Center     Atomic      Atomic             Coordinates (Angstroms)
 Number     Number       Type             X           Y           Z
 ---------------------------------------------------------------------
      1         17           0        1.673838   -0.731835    0.062931
      2         16           0        0.514399    0.920607   -0.279703
      3          6           0       -1.809910   -0.174102    0.095332
      4          7           0       -2.649816   -0.839458   -0.338569
      5          8           0       -0.909682    0.579037    0.650425
 ---------------------------------------------------------------------

 SCF Done:  E(RHF) =  -1024.44429431     A.U. after    2 cycles

 The electronic state is 1-A.
 Alpha  occ. eigenvalues -- -105.63554 -94.12122 -20.69459 -15.53005 -11.36132
 Alpha  occ. eigenvalues --  -10.68278  -8.39105  -7.85218  -7.84753  -7.84693
 Alpha  occ. eigenvalues --   -6.36836  -6.36644  -6.36223  -1.59848  -1.24976
 Alpha  occ. eigenvalues --   -1.16910  -0.99590  -0.81389  -0.70873  -0.70127
 Alpha  occ. eigenvalues --   -0.62484  -0.57966  -0.56793  -0.53611  -0.49891
 Alpha  occ. eigenvalues --   -0.49108  -0.43092
 Alpha virt. eigenvalues --    0.01742   0.02574   0.06112   0.08544   0.08982
 Alpha virt. eigenvalues --    0.09892   0.11676   0.12220   0.13081   0.13724
 Alpha virt. eigenvalues --    0.14817   0.16927   0.18258   0.19180   0.20020

 Mulliken charges:
               1
     1  Cl  -0.207873
     2  S    0.845913
     3  C   -0.261553
     4  N    0.602900
     5  O   -0.979386
 Sum of Mulliken charges =  -0.00000

 Dipole moment (field-independent basis, Debye):
    X=              3.5849    Y=              2.3984    Z=              0.4263  Tot=              4.3343

 Test job not archived.
 1\1\GINC-SE090\SP\RHF\Aug-CC-pVDZ\C1Cl1N1O1S1\OHZDE\09-Apr-2025\0\\#t
 hf aug-cc-pvdz iop(5/13=1,5/36=2,99/5=2) pseudo=read geom=check guess=
 (read,tcheck) scf=(maxcycle=1)\\title\\0,1\Cl,0,1.673838,-0.731835,0.0
 62931\S,0,0.514399,0.920607,-0.279703\C,0,-1.80991,-0.174102,0.095332\
 N,0,-2.649816,-0.839458,-0.338569\O,0,-0.909682,0.579037,0.650425\\Ver
 sion=ES64L-G16RevC.01\State=1-A\HF=-1024.4442943\RMSD=1.114e-02\Dipole
 =1.410421,0.9436118,0.1677003\Quadrupole=-4.6813407,2.9109202,1.770420
 6,-4.0085924,-2.3813455,-1.7643233\PG=C01 [X(C1Cl1N1O1S1)]\\@

 Normal termination of Gaussian 16 at Wed Apr  9 00:18:58 2025.
