 Gaussian 16, Revision C.01,

 ----------------------------------------------------------------------
 #t hf aug-cc-pvdz symm=none int=(grid=ultrafine) guess=(read,tcheck) s
 table=(opt,rrhf)
 ----------------------------------------------------------------------
 -----
 title
 -----
 Symbolic Z-matrix:
 Charge =  0 Multiplicity = 1

 SCF Done:  E(RHF) =  -1196.17964603     A.U. after   15 cycles
 Normal termination of Gaussian 16 at Tue Apr  8 23:40:36 2025.
 Gaussian 16:  ES64L-G16RevC.01  3-Jul-2019

 ----------------------------------------------------------------------
 #t hf aug-cc-pvdz iop(5/13=1,5/36=2,99/5=2) pseudo=read geom=check gue
 ss=(read,tcheck) scf=(maxcycle=1)
 ----------------------------------------------------------------------
 -----
 title
 -----
 Structure from the checkpoint file:  "BDE49_nonexpt_1567_mol1.chk"
 Charge =  0 Multiplicity = 1

                         Standard orientation:
 ---------------------------------------------------------------------
 Center     Atomic      Atomic             Coordinates (Angstroms)
 Number     Number       Type             X           Y           Z
 ---------------------------------------------------------------------
      1          6           0       -2.158948   -0.083848    0.149278
      2          6           0       -1.550318    1.163827    0.070214
      3          6           0       -0.196073    1.239407   -0.223989
      4          6           0       -1.412051   -1.235762   -0.064221
      5          6           0       -0.055185   -1.131383   -0.349874
      6          6           0        0.586533    0.104413   -0.441684
      7          9           0       -3.459227   -0.174232    0.427667
      8          9           0       -2.271174    2.270323    0.274928
      9          9           0        0.358045    2.458076   -0.295692
     10          9           0       -2.002413   -2.432533    0.015279
     11          9           0        0.615511   -2.274139   -0.544592
     12          7           0        3.029138    0.441580    0.733317
     13          8           0        2.960400   -0.761349    1.518678
     14          1           0        2.441062   -0.488305    2.283945
     15         15           0        2.374279    0.323162   -0.856744
     16          1           0        2.599594   -1.041995   -1.157250
     17          1           0        4.007563    0.715211    0.705168
 ---------------------------------------------------------------------

 SCF Done:  E(RHF) =  -1197.02373927     A.U. after    2 cycles

 The electronic state is 1-A.
 Alpha  occ. eigenvalues --  -84.32568 -26.52484 -26.51736 -26.51688 -26.51537
 Alpha  occ. eigenvalues --  -26.51497 -20.60331 -15.57167 -11.39481 -11.39009
 Alpha  occ. eigenvalues --  -11.38852 -11.38175 -11.38160 -11.29836  -6.79332
 Alpha  occ. eigenvalues --   -4.32411  -4.31992  -4.31374  -1.66585  -1.65574
 Alpha  occ. eigenvalues --   -1.65040  -1.63952  -1.63560  -1.49774  -1.21886
 Alpha  occ. eigenvalues --   -1.14176  -1.08229  -1.07041  -0.94530  -0.91842
 Alpha  occ. eigenvalues --   -0.85858  -0.83814  -0.81247  -0.78466  -0.75365
 Alpha  occ. eigenvalues --   -0.75298  -0.75133  -0.73518  -0.72275  -0.72110
 Alpha  occ. eigenvalues --   -0.71261  -0.69584  -0.69162  -0.68867  -0.67037
 Alpha  occ. eigenvalues --   -0.66681  -0.65322  -0.62583  -0.62040  -0.59287
 Alpha  occ. eigenvalues --   -0.54676  -0.53819  -0.50288  -0.46000  -0.40820
 Alpha  occ. eigenvalues --   -0.38119  -0.36505
 Alpha virt. eigenvalues --    0.03145   0.04484   0.05132   0.06266   0.06532
 Alpha virt. eigenvalues --    0.07687   0.08018   0.08235   0.09023   0.09992
 Alpha virt. eigenvalues --    0.10727   0.11005   0.11268   0.12291   0.12589

 Mulliken charges:
               1
     1  C    1.293555
     2  C    0.599749
     3  C    1.064756
     4  C    0.668723
     5  C    1.530428
     6  C   -0.384435
     7  F   -0.986034
     8  F   -0.958169
     9  F   -1.028740
    10  F   -0.967796
    11  F   -1.077702
    12  N    0.314006
    13  O   -1.063403
    14  H    0.311791
    15  P    0.318460
    16  H    0.268285
    17  H    0.096527
 Sum of Mulliken charges =  -0.00000

 Dipole moment (field-independent basis, Debye):
    X=              1.5819    Y=              0.1616    Z=              0.2351  Tot=              1.6074

 Test job not archived.
 1\1\GINC-SE096\SP\RHF\Aug-CC-pVDZ\C6H3F5N1O1P1\OHZDE\08-Apr-2025\0\\#t
  hf aug-cc-pvdz iop(5/13=1,5/36=2,99/5=2) pseudo=read geom=check guess
 =(read,tcheck) scf=(maxcycle=1)\\title\\0,1\C,0,-2.158948,-0.083848,0.
 149278\C,0,-1.550318,1.163827,0.070214\C,0,-0.196073,1.239407,-0.22398
 9\C,0,-1.412051,-1.235762,-0.064221\C,0,-0.055185,-1.131383,-0.349874\
 C,0,0.586533,0.104413,-0.441684\F,0,-3.459227,-0.174232,0.427667\F,0,-
 2.271174,2.270323,0.274928\F,0,0.358045,2.458076,-0.295692\F,0,-2.0024
 13,-2.432533,0.015279\F,0,0.615511,-2.274139,-0.544592\N,0,3.029138,0.

 Normal termination of Gaussian 16 at Tue Apr  8 23:40:49 2025.
