 Gaussian 16, Revision C.01,

 ----------------------------------------------------------------------
 #t hf aug-cc-pvdz symm=none int=(grid=ultrafine) guess=(read,tcheck) s
 table=(opt,rrhf)
 ----------------------------------------------------------------------
 -----
 title
 -----
 Symbolic Z-matrix:
 Charge =  0 Multiplicity = 1

 SCF Done:  E(RHF) =  -1030.44711940     A.U. after   13 cycles

 1\1\GINC-SE074\Stability\RHF\Aug-CC-pVDZ\C6H14S2\OHZDE\08-Apr-2025\0\\
 #t hf aug-cc-pvdz symm=none int=(grid=ultrafine) guess=(read,tcheck) s
 table=(opt,rrhf)\\title\\0,1\C,0,1.970373,-1.192644,-0.337392\S,0,1.27
 0028,0.368092,-0.991309\C,0,0.26498,0.971246,0.432795\C,0,-0.203923,2.
 39134,0.112187\H,0,-0.789589,2.787162,0.944136\H,0,-0.824241,2.415827,
 -0.786285\H,0,0.655552,3.045182,-0.056923\S,0,-1.088921,-0.155248,0.96
 7543\H,0,0.910296,0.996658,1.312645\C,0,-2.194036,-0.175736,-0.497029\
 C,0,-3.220335,-1.298476,-0.356203\H,0,-1.569288,-0.324865,-1.379939\H,

 Normal termination of Gaussian 16 at Tue Apr  8 23:05:16 2025.
 Gaussian 16:  ES64L-G16RevC.01  3-Jul-2019

 ----------------------------------------------------------------------
 #t hf aug-cc-pvdz iop(5/13=1,5/36=2,99/5=2) pseudo=read geom=check gue
 ss=(read,tcheck) scf=(maxcycle=1)
 ----------------------------------------------------------------------
 -----
 title
 -----
 Structure from the checkpoint file:  "BDE49_expt_377_mol1.chk"
 Charge =  0 Multiplicity = 1

                         Standard orientation:
 ---------------------------------------------------------------------
 Center     Atomic      Atomic             Coordinates (Angstroms)
 Number     Number       Type             X           Y           Z
 ---------------------------------------------------------------------
      1          6           0        1.970373   -1.192644   -0.337392
      2         16           0        1.270028    0.368092   -0.991309
      3          6           0        0.264980    0.971246    0.432795
      4          6           0       -0.203923    2.391340    0.112187
      5          1           0       -0.789589    2.787162    0.944136
      6          1           0       -0.824241    2.415827   -0.786285
      7          1           0        0.655552    3.045182   -0.056923
      8         16           0       -1.088921   -0.155248    0.967543
      9          1           0        0.910296    0.996658    1.312645
     10          6           0       -2.194036   -0.175736   -0.497029
     11          6           0       -3.220335   -1.298476   -0.356203
     12          1           0       -1.569288   -0.324865   -1.379939
     13          1           0       -2.695735    0.790089   -0.581692
     14          1           0       -2.734196   -2.275140   -0.301244
     15          1           0       -3.891330   -1.300127   -1.219748
     16          1           0       -3.831663   -1.173306    0.541208
     17          6           0        3.092314   -1.018255    0.683311
     18          1           0        2.333904   -1.711326   -1.227816
     19          1           0        1.142854   -1.777933    0.069713
     20          1           0        3.914689   -0.431581    0.268515
     21          1           0        3.483719   -1.995602    0.984074
     22          1           0        2.741065   -0.515397    1.587611
 ---------------------------------------------------------------------

 SCF Done:  E(RHF) =  -1030.83059817     A.U. after    2 cycles

 The electronic state is 1-A.
 Alpha  occ. eigenvalues --  -93.93832 -93.93805 -11.30124 -11.26387 -11.26338
 Alpha  occ. eigenvalues --  -11.23952 -11.23514 -11.23322  -8.21901  -8.21883
 Alpha  occ. eigenvalues --   -6.19725  -6.19708  -6.19562  -6.19543  -6.19360
 Alpha  occ. eigenvalues --   -6.19342  -1.12559  -1.07192  -1.03782  -0.94921
 Alpha  occ. eigenvalues --   -0.94608  -0.85389  -0.82364  -0.75859  -0.64212
 Alpha  occ. eigenvalues --   -0.63378  -0.62857  -0.61649  -0.58161  -0.57718
 Alpha  occ. eigenvalues --   -0.54783  -0.54299  -0.53776  -0.52698  -0.51432
 Alpha  occ. eigenvalues --   -0.47980  -0.47623  -0.45611  -0.41631  -0.35154
 Alpha  occ. eigenvalues --   -0.33893
 Alpha virt. eigenvalues --    0.03440   0.03539   0.03939   0.04113   0.05333
 Alpha virt. eigenvalues --    0.05437   0.05719   0.06228   0.07410   0.07919
 Alpha virt. eigenvalues --    0.08484   0.09040   0.09802   0.09893   0.11213

 Mulliken charges:
               1
     1  C   -0.726929
     2  S    0.352013
     3  C   -0.524340
     4  C   -0.340007
     5  H    0.190888
     6  H    0.196484
     7  H    0.150308
     8  S    0.333694
     9  H    0.191836
    10  C   -0.665500
    11  C   -0.447398
    12  H    0.204845
    13  H    0.116485
    14  H    0.172997
    15  H    0.149591
    16  H    0.191210
    17  C   -0.401983
    18  H    0.178517
    19  H    0.236127
    20  H    0.178710
    21  H    0.139378
    22  H    0.123075
 Sum of Mulliken charges =  -0.00000

 Dipole moment (field-independent basis, Debye):
    X=             -0.1450    Y=             -0.1539    Z=             -0.1004  Tot=              0.2341

 Test job not archived.
 1\1\GINC-SE074\SP\RHF\Aug-CC-pVDZ\C6H14S2\OHZDE\08-Apr-2025\0\\#t hf a
 ug-cc-pvdz iop(5/13=1,5/36=2,99/5=2) pseudo=read geom=check guess=(rea
 d,tcheck) scf=(maxcycle=1)\\title\\0,1\C,0,1.970373,-1.192644,-0.33739
 2\S,0,1.270028,0.368092,-0.991309\C,0,0.26498,0.971246,0.432795\C,0,-0
 .203923,2.39134,0.112187\H,0,-0.789589,2.787162,0.944136\H,0,-0.824241
 ,2.415827,-0.786285\H,0,0.655552,3.045182,-0.056923\S,0,-1.088921,-0.1
 55248,0.967543\H,0,0.910296,0.996658,1.312645\C,0,-2.194036,-0.175736,
 -0.497029\C,0,-3.220335,-1.298476,-0.356203\H,0,-1.569288,-0.324865,-1

 Normal termination of Gaussian 16 at Tue Apr  8 23:05:28 2025.
