 Gaussian 16, Revision C.01,

 ----------------------------------------------------------------------
 #t hf aug-cc-pvdz symm=none int=(grid=ultrafine) guess=(read,tcheck) s
 table=(opt,rrhf)
 ----------------------------------------------------------------------
 -----
 title
 -----
 Symbolic Z-matrix:
 Charge =  0 Multiplicity = 1

 SCF Done:  E(RHF) =  -623.355535476     A.U. after   14 cycles
 Normal termination of Gaussian 16 at Wed Apr  9 00:30:45 2025.
 Gaussian 16:  ES64L-G16RevC.01  3-Jul-2019

 ----------------------------------------------------------------------
 #t hf aug-cc-pvdz iop(5/13=1,5/36=2,99/5=2) pseudo=read geom=check gue
 ss=(read,tcheck) scf=(maxcycle=1)
 ----------------------------------------------------------------------
 -----
 title
 -----
 Structure from the checkpoint file:  "BDE49_nonexpt_34_mol1.chk"
 Charge =  0 Multiplicity = 1

                         Standard orientation:
 ---------------------------------------------------------------------
 Center     Atomic      Atomic             Coordinates (Angstroms)
 Number     Number       Type             X           Y           Z
 ---------------------------------------------------------------------
      1          5           0        0.061121    0.416260    0.171824
      2          5           0       -0.317464    1.979276   -0.152747
      3          6           0       -1.225001   -0.378668    0.089356
      4          8           0       -2.210258   -0.909445   -0.093841
      5         17           0        1.602615   -0.511717   -0.040001
      6          1           0       -1.439877    2.364094   -0.041998
      7          1           0        0.569928    2.748011   -0.344218
      8          1           0       -0.060721    1.156971    1.185440
 ---------------------------------------------------------------------

 SCF Done:  E(RHF) =  -623.591936365     A.U. after    2 cycles

 The electronic state is 1-A.
 Alpha  occ. eigenvalues -- -105.55400 -20.71029 -11.46128 -10.60275  -7.77189
 Alpha  occ. eigenvalues --   -7.76893  -7.76870  -7.63488  -7.60179  -1.65517
 Alpha  occ. eigenvalues --   -1.05993  -0.93732  -0.82892  -0.73853  -0.70160
 Alpha  occ. eigenvalues --   -0.68591  -0.59716  -0.55579  -0.50434  -0.49060
 Alpha  occ. eigenvalues --   -0.46135  -0.37745
 Alpha virt. eigenvalues --    0.03301   0.03696   0.03913   0.04273   0.05277
 Alpha virt. eigenvalues --    0.06388   0.07363   0.07467   0.08139   0.09682
 Alpha virt. eigenvalues --    0.11447   0.12474   0.12773   0.13317   0.14750

 Mulliken charges:
               1
     1  B    0.498192
     2  B   -0.669053
     3  C    0.687027
     4  O   -0.786933
     5  Cl  -0.539968
     6  H    0.300265
     7  H    0.356220
     8  H    0.154251
 Sum of Mulliken charges =   0.00000

 Dipole moment (field-independent basis, Debye):
    X=             -2.4387    Y=             -0.4125    Z=              0.5242  Tot=              2.5283

 Test job not archived.
 1\1\GINC-SE132\SP\RHF\Aug-CC-pVDZ\C1H3B2Cl1O1\OHZDE\09-Apr-2025\0\\#t
 hf aug-cc-pvdz iop(5/13=1,5/36=2,99/5=2) pseudo=read geom=check guess=
 (read,tcheck) scf=(maxcycle=1)\\title\\0,1\B,0,0.061121,0.41626,0.1718
 24\B,0,-0.317464,1.979276,-0.152747\C,0,-1.225001,-0.378668,0.089356\O
 ,0,-2.210258,-0.909445,-0.093841\Cl,0,1.602615,-0.511717,-0.040001\H,0
 ,-1.439877,2.364094,-0.041998\H,0,0.569928,2.748011,-0.344218\H,0,-0.0
 60721,1.156971,1.18544\\Version=ES64L-G16RevC.01\State=1-A\HF=-623.591
 9364\RMSD=2.552e-02\Dipole=-0.959465,-0.1622818,0.2062176\Quadrupole=-

 Normal termination of Gaussian 16 at Wed Apr  9 00:30:48 2025.
