 Gaussian 16, Revision C.01,

 ----------------------------------------------------------------------
 #t hf aug-cc-pvdz symm=none int=(grid=ultrafine) guess=(read,tcheck) s
 table=(opt,rrhf)
 ----------------------------------------------------------------------
 -----
 title
 -----
 Symbolic Z-matrix:
 Charge =  0 Multiplicity = 1

 SCF Done:  E(RHF) =  -1825.95372711     A.U. after   15 cycles
 Normal termination of Gaussian 16 at Tue Apr  8 23:24:06 2025.
 Gaussian 16:  ES64L-G16RevC.01  3-Jul-2019

 ----------------------------------------------------------------------
 #t hf aug-cc-pvdz iop(5/13=1,5/36=2,99/5=2) pseudo=read geom=check gue
 ss=(read,tcheck) scf=(maxcycle=1)
 ----------------------------------------------------------------------
 -----
 title
 -----
 Structure from the checkpoint file:  "BDE49_nonexpt_1242_mol1.chk"
 Charge =  0 Multiplicity = 1

                         Standard orientation:
 ---------------------------------------------------------------------
 Center     Atomic      Atomic             Coordinates (Angstroms)
 Number     Number       Type             X           Y           Z
 ---------------------------------------------------------------------
      1         17           0        3.083400    0.000006   -0.230641
      2         15           0        1.205094    0.000012    0.668760
      3          6           0       -0.000001   -1.270942    0.000044
      4          8           0        0.000029   -2.459850    0.000015
      5          6           0       -0.000005    1.270942    0.000007
      6         15           0       -1.205080   -0.000012   -0.668749
      7          8           0       -0.000024    2.459850    0.000019
      8         17           0       -3.083412   -0.000006    0.230598
 ---------------------------------------------------------------------

 SCF Done:  E(RHF) =  -1826.40177485     A.U. after    2 cycles

 The electronic state is 1-A.
 Alpha  occ. eigenvalues -- -105.61309-105.61309 -84.38498 -84.38458 -20.61202
 Alpha  occ. eigenvalues --  -20.61201 -11.41514 -11.41513 -10.66098 -10.66098
 Alpha  occ. eigenvalues --   -7.83014  -7.83014  -7.82617  -7.82617  -7.82594
 Alpha  occ. eigenvalues --   -7.82592  -6.85348  -6.85325  -4.37636  -4.37601
 Alpha  occ. eigenvalues --   -4.37406  -4.37218  -4.36648  -4.36528  -1.54676
 Alpha  occ. eigenvalues --   -1.54628  -1.13771  -1.10964  -1.04830  -0.85691
 Alpha  occ. eigenvalues --   -0.84484  -0.74163  -0.69398  -0.65605  -0.65565
 Alpha  occ. eigenvalues --   -0.63155  -0.62521  -0.59556  -0.53354  -0.53080
 Alpha  occ. eigenvalues --   -0.52600  -0.52128  -0.50238  -0.40449  -0.38636
 Alpha  occ. eigenvalues --   -0.34982
 Alpha virt. eigenvalues --   -0.00955   0.05891   0.06020   0.06192   0.06483
 Alpha virt. eigenvalues --    0.06565   0.07532   0.08421   0.08945   0.09500
 Alpha virt. eigenvalues --    0.11414   0.12546   0.12560   0.12647   0.14440

 Mulliken charges:
               1
     1  Cl  -0.467393
     2  P    1.534577
     3  C    0.042391
     4  O   -1.109569
     5  C    0.042391
     6  P    1.534565
     7  O   -1.109569
     8  Cl  -0.467394
 Sum of Mulliken charges =  -0.00000

 Dipole moment (field-independent basis, Debye):
    X=              0.0000    Y=              0.0000    Z=             -0.0000  Tot=              0.0000

 Test job not archived.
 1\1\GINC-SE108\SP\RHF\Aug-CC-pVDZ\C2Cl2O2P2\OHZDE\08-Apr-2025\0\\#t hf
  aug-cc-pvdz iop(5/13=1,5/36=2,99/5=2) pseudo=read geom=check guess=(r
 ead,tcheck) scf=(maxcycle=1)\\title\\0,1\Cl,0,3.0834,-0.000006,0.23064
 1\P,0,1.205094,-0.000012,-0.66876\C,0,-0.000001,1.270942,-0.000044\O,0
 ,0.000029,2.45985,-0.000015\C,0,-0.000005,-1.270942,-0.000007\P,0,-1.2
 0508,0.000012,0.668749\O,0,-0.000024,-2.45985,-0.000019\Cl,0,-3.083412
 ,0.000006,-0.230598\\Version=ES64L-G16RevC.01\State=1-A\HF=-1826.40177
 48\RMSD=1.637e-02\Dipole=0.0000022,0.,0.0000081\Quadrupole=2.4858366,-

 Normal termination of Gaussian 16 at Tue Apr  8 23:24:10 2025.
