 Gaussian 16, Revision C.01,

 ----------------------------------------------------------------------
 #t hf aug-cc-pvdz symm=none int=(grid=ultrafine) guess=(read,tcheck) s
 table=(opt,rrhf)
 ----------------------------------------------------------------------
 -----
 title
 -----
 Symbolic Z-matrix:
 Charge =  0 Multiplicity = 1

 SCF Done:  E(RHF) =  -2003.83299788     A.U. after   11 cycles
 Normal termination of Gaussian 16 at Tue Apr  8 23:46:23 2025.
 Gaussian 16:  ES64L-G16RevC.01  3-Jul-2019

 ----------------------------------------------------------------------
 #t hf aug-cc-pvdz iop(5/13=1,5/36=2,99/5=2) pseudo=read geom=check gue
 ss=(read,tcheck) scf=(maxcycle=1)
 ----------------------------------------------------------------------
 -----
 title
 -----
 Structure from the checkpoint file:  "BDE49_nonexpt_1764_mol1.chk"
 Charge =  0 Multiplicity = 1

                         Standard orientation:
 ---------------------------------------------------------------------
 Center     Atomic      Atomic             Coordinates (Angstroms)
 Number     Number       Type             X           Y           Z
 ---------------------------------------------------------------------
      1         14           0        0.450380    0.000000   -0.000000
      2          6           0       -1.475384   -0.000006   -0.000014
      3         17           0        1.088946    1.736917   -0.857797
      4         17           0        1.088967   -1.611342   -1.075287
      5         17           0        1.088909   -0.125563    1.933123
      6          9           0       -1.962569    1.046368    0.698818
      7          9           0       -1.962563   -1.128410    0.556745
      8          9           0       -1.962535    0.082025   -1.255626
 ---------------------------------------------------------------------

 SCF Done:  E(RHF) =  -2004.39911291     A.U. after    2 cycles

 The electronic state is 1-A.
 Alpha  occ. eigenvalues -- -105.60592-105.60591-105.60591 -69.70577 -26.52368
 Alpha  occ. eigenvalues --  -26.52368 -26.52365 -11.52813 -10.65626 -10.65615
 Alpha  occ. eigenvalues --  -10.65615  -7.82515  -7.82508  -7.82508  -7.82167
 Alpha  occ. eigenvalues --   -7.82167  -7.82166  -7.82158  -7.82158  -7.82155
 Alpha  occ. eigenvalues --   -6.36383  -4.11753  -4.11753  -4.11603  -1.72799
 Alpha  occ. eigenvalues --   -1.62851  -1.62850  -1.14198  -1.08789  -1.08789
 Alpha  occ. eigenvalues --   -0.97710  -0.84825  -0.82137  -0.82137  -0.72083
 Alpha  occ. eigenvalues --   -0.70151  -0.70151  -0.65506  -0.65506  -0.63639
 Alpha  occ. eigenvalues --   -0.61122  -0.61122  -0.58250  -0.53512  -0.53512
 Alpha  occ. eigenvalues --   -0.50955  -0.50955  -0.49899  -0.49460
 Alpha virt. eigenvalues --    0.04872   0.05802   0.05802   0.06105   0.09285
 Alpha virt. eigenvalues --    0.11122   0.11122   0.11438   0.12134   0.12134
 Alpha virt. eigenvalues --    0.14335   0.14335   0.15007   0.17374   0.17374

 Mulliken charges:
               1
     1  Si   1.768041
     2  C    1.783695
     3  Cl  -0.457605
     4  Cl  -0.457605
     5  Cl  -0.457605
     6  F   -0.726307
     7  F   -0.726308
     8  F   -0.726306
 Sum of Mulliken charges =  -0.00000

 Dipole moment (field-independent basis, Debye):
    X=              1.1130    Y=             -0.0000    Z=             -0.0000  Tot=              1.1130

 Test job not archived.
 1\1\GINC-SE058\SP\RHF\Aug-CC-pVDZ\C1Cl3F3Si1\OHZDE\08-Apr-2025\0\\#t h
 f aug-cc-pvdz iop(5/13=1,5/36=2,99/5=2) pseudo=read geom=check guess=(
 read,tcheck) scf=(maxcycle=1)\\title\\0,1\Si,0,-0.45038,0.,0.\C,0,1.47
 5384,0.000006,-0.000014\Cl,0,-1.088946,-1.734207,-0.863261\Cl,0,-1.088
 967,1.61472,-1.070209\Cl,0,-1.088909,0.119477,1.933509\F,0,1.962569,-1
 .048563,0.69552\F,0,1.962563,1.126651,0.560295\F,0,1.962535,-0.078072,
 -1.255878\\Version=ES64L-G16RevC.01\State=1-A\HF=-2004.3991129\RMSD=2.
 650e-03\Dipole=-0.4379001,0.0000006,-0.000011\Quadrupole=-1.1132269,0.

 Normal termination of Gaussian 16 at Tue Apr  8 23:46:27 2025.
