 Gaussian 16, Revision C.01,

 ----------------------------------------------------------------------
 #t hf aug-cc-pvdz symm=none int=(grid=ultrafine) guess=(read,tcheck) s
 table=(opt,rrhf)
 ----------------------------------------------------------------------
 -----
 title
 -----
 Symbolic Z-matrix:
 Charge =  0 Multiplicity = 1

 SCF Done:  E(RHF) =  -1084.26876906     A.U. after   14 cycles
 Normal termination of Gaussian 16 at Wed Apr  9 00:16:40 2025.
 Gaussian 16:  ES64L-G16RevC.01  3-Jul-2019

 ----------------------------------------------------------------------
 #t hf aug-cc-pvdz iop(5/13=1,5/36=2,99/5=2) pseudo=read geom=check gue
 ss=(read,tcheck) scf=(maxcycle=1)
 ----------------------------------------------------------------------
 -----
 title
 -----
 Structure from the checkpoint file:  "BDE49_nonexpt_2552_mol1.chk"
 Charge =  0 Multiplicity = 1

                         Standard orientation:
 ---------------------------------------------------------------------
 Center     Atomic      Atomic             Coordinates (Angstroms)
 Number     Number       Type             X           Y           Z
 ---------------------------------------------------------------------
      1         17           0       -2.301556    0.375818    0.000623
      2         16           0       -0.738382   -0.960210   -0.000217
      3          6           0        0.659043    0.192028   -0.000566
      4          8           0        0.615069    1.382853   -0.000262
      5          8           0        1.748048   -0.586458   -0.000272
      6          6           0        3.017302    0.110214    0.000037
      7          1           0        3.770326   -0.673114    0.000243
      8          1           0        3.103399    0.731502    0.891665
      9          1           0        3.103845    0.731463   -0.891577
 ---------------------------------------------------------------------

 SCF Done:  E(RHF) =  -1084.62803048     A.U. after    2 cycles

 The electronic state is 1-A.
 Alpha  occ. eigenvalues -- -105.59677 -94.03609 -20.62372 -20.56876 -11.44255
 Alpha  occ. eigenvalues --  -11.32152 -10.64385  -8.31374  -7.81337  -7.80858
 Alpha  occ. eigenvalues --   -7.80827  -6.29161  -6.28925  -6.28644  -1.57795
 Alpha  occ. eigenvalues --   -1.49174  -1.14653  -1.02877  -0.94891  -0.80867
 Alpha  occ. eigenvalues --   -0.71979  -0.71063  -0.70314  -0.61396  -0.59561
 Alpha  occ. eigenvalues --   -0.55925  -0.55538  -0.52727  -0.48951  -0.48793
 Alpha  occ. eigenvalues --   -0.45084  -0.39624
 Alpha virt. eigenvalues --    0.03157   0.04391   0.05432   0.05526   0.06766
 Alpha virt. eigenvalues --    0.09174   0.11664   0.11977   0.12865   0.13159
 Alpha virt. eigenvalues --    0.13819   0.14109   0.14910   0.15366   0.16809

 Mulliken charges:
               1
     1  Cl  -0.206421
     2  S    0.494994
     3  C    1.031307
     4  O   -0.887432
     5  O   -1.025924
     6  C    0.220250
     7  H    0.017928
     8  H    0.177641
     9  H    0.177658
 Sum of Mulliken charges =  -0.00000

 Dipole moment (field-independent basis, Debye):
    X=              2.8836    Y=             -1.1617    Z=             -0.0003  Tot=              3.1088

 Test job not archived.
 1\1\GINC-SE458\SP\RHF\Aug-CC-pVDZ\C2H3Cl1O2S1\OHZDE\09-Apr-2025\0\\#t
 hf aug-cc-pvdz iop(5/13=1,5/36=2,99/5=2) pseudo=read geom=check guess=
 (read,tcheck) scf=(maxcycle=1)\\title\\0,1\Cl,0,2.301556,0.375818,-0.0
 00623\S,0,0.738382,-0.96021,0.000217\C,0,-0.659043,0.192028,0.000566\O
 ,0,-0.615069,1.382853,0.000262\O,0,-1.748048,-0.586458,0.000272\C,0,-3
 .017302,0.110214,-0.000037\H,0,-3.770326,-0.673114,-0.000243\H,0,-3.10
 3399,0.731502,-0.891665\H,0,-3.103845,0.731463,0.891577\\Version=ES64L
 -G16RevC.01\State=1-A\HF=-1084.6280305\RMSD=6.335e-03\Dipole=-1.134491

 Normal termination of Gaussian 16 at Wed Apr  9 00:16:43 2025.
