 Gaussian 16, Revision C.01,

 ----------------------------------------------------------------------
 #t hf aug-cc-pvdz symm=none int=(grid=ultrafine) guess=(read,tcheck) s
 table=(opt,rrhf)
 ----------------------------------------------------------------------
 -----
 title
 -----
 Symbolic Z-matrix:
 Charge =  0 Multiplicity = 1

 SCF Done:  E(RHF) =  -1085.93206516     A.U. after   12 cycles
 Normal termination of Gaussian 16 at Tue Apr  8 23:47:19 2025.
 Gaussian 16:  ES64L-G16RevC.01  3-Jul-2019

 ----------------------------------------------------------------------
 #t hf aug-cc-pvdz iop(5/13=1,5/36=2,99/5=2) pseudo=read geom=check gue
 ss=(read,tcheck) scf=(maxcycle=1)
 ----------------------------------------------------------------------
 -----
 title
 -----
 Structure from the checkpoint file:  "BDE49_nonexpt_1802_mol1.chk"
 Charge =  0 Multiplicity = 1

                         Standard orientation:
 ---------------------------------------------------------------------
 Center     Atomic      Atomic             Coordinates (Angstroms)
 Number     Number       Type             X           Y           Z
 ---------------------------------------------------------------------
      1         14           0       -0.329595    0.437030    0.385654
      2         17           0       -1.941705   -0.718494   -0.144297
      3          6           0        1.243403   -0.303000   -0.392314
      4          9           0       -0.529148    1.901112   -0.223155
      5          9           0        1.462465   -1.539539    0.169790
      6          9           0        2.304804    0.507023   -0.053073
      7          1           0       -0.224038    0.517573    1.845000
      8          1           0        1.243846   -0.420954   -1.479296
 ---------------------------------------------------------------------

 SCF Done:  E(RHF) =  -1086.35117772     A.U. after    2 cycles

 The electronic state is 1-A.
 Alpha  occ. eigenvalues -- -105.58887 -69.65324 -26.49535 -26.49472 -26.48650
 Alpha  occ. eigenvalues --  -11.42533 -10.63939  -7.80820  -7.80497  -7.80492
 Alpha  occ. eigenvalues --   -6.31585  -4.07003  -4.06856  -4.06713  -1.65298
 Alpha  occ. eigenvalues --   -1.60002  -1.58877  -1.08881  -0.96822  -0.81374
 Alpha  occ. eigenvalues --   -0.77508  -0.75064  -0.73965  -0.68147  -0.67475
 Alpha  occ. eigenvalues --   -0.65612  -0.64323  -0.61914  -0.60325  -0.55630
 Alpha  occ. eigenvalues --   -0.52301  -0.50544  -0.47582
 Alpha virt. eigenvalues --    0.03852   0.04806   0.05381   0.05745   0.07970
 Alpha virt. eigenvalues --    0.10084   0.11058   0.11752   0.13130   0.14645
 Alpha virt. eigenvalues --    0.15144   0.15453   0.16619   0.17502   0.20080

 Mulliken charges:
               1
     1  Si   1.940773
     2  Cl  -0.511516
     3  C    0.964367
     4  F   -0.824249
     5  F   -0.697006
     6  F   -0.699546
     7  H   -0.202550
     8  H    0.029729
 Sum of Mulliken charges =  -0.00000

 Dipole moment (field-independent basis, Debye):
    X=             -0.3853    Y=             -0.0173    Z=             -0.1733  Tot=              0.4228

 Test job not archived.
 1\1\GINC-SE070\SP\RHF\Aug-CC-pVDZ\C1H2Cl1F3Si1\OHZDE\08-Apr-2025\0\\#t
  hf aug-cc-pvdz iop(5/13=1,5/36=2,99/5=2) pseudo=read geom=check guess
 =(read,tcheck) scf=(maxcycle=1)\\title\\0,1\Si,0,-0.329595,0.43703,0.3
 85654\Cl,0,-1.941705,-0.718494,-0.144297\C,0,1.243403,-0.303,-0.392314
 \F,0,-0.529147,1.901112,-0.223155\F,0,1.462465,-1.539539,0.16979\F,0,2
 .304804,0.507023,-0.053073\H,0,-0.224038,0.517573,1.845\H,0,1.243846,-
 0.420954,-1.479296\\Version=ES64L-G16RevC.01\State=1-A\HF=-1086.351177
 7\RMSD=3.468e-03\Dipole=-0.1515699,-0.0068046,-0.068191\Quadrupole=-2.

 Normal termination of Gaussian 16 at Tue Apr  8 23:47:22 2025.
