 Gaussian 16, Revision C.01,

 ----------------------------------------------------------------------
 #t hf aug-cc-pvdz symm=none int=(grid=ultrafine) guess=(read,tcheck) s
 table=(opt,rrhf)
 ----------------------------------------------------------------------
 -----
 title
 -----
 Symbolic Z-matrix:
 Charge =  0 Multiplicity = 1

 SCF Done:  E(RHF) =  -825.217320473     A.U. after   15 cycles
 Normal termination of Gaussian 16 at Wed Apr  9 00:30:58 2025.
 Gaussian 16:  ES64L-G16RevC.01  3-Jul-2019

 ----------------------------------------------------------------------
 #t hf aug-cc-pvdz iop(5/13=1,5/36=2,99/5=2) pseudo=read geom=check gue
 ss=(read,tcheck) scf=(maxcycle=1)
 ----------------------------------------------------------------------
 -----
 title
 -----
 Structure from the checkpoint file:  "BDE49_nonexpt_330_mol1.chk"
 Charge =  0 Multiplicity = 1

                         Standard orientation:
 ---------------------------------------------------------------------
 Center     Atomic      Atomic             Coordinates (Angstroms)
 Number     Number       Type             X           Y           Z
 ---------------------------------------------------------------------
      1          6           0        1.642631   -0.349931   -0.000010
      2          6           0        1.284001    0.992640   -0.000002
      3          6           0       -0.062011    1.332150    0.000008
      4          6           0        0.660117   -1.333787   -0.000008
      5          6           0       -0.677867   -0.962223    0.000002
      6          6           0       -1.086555    0.377709    0.000011
      7          9           0        2.928918   -0.695051   -0.000019
      8          9           0        2.232648    1.934747   -0.000004
      9          9           0       -0.355064    2.640893    0.000015
     10          9           0        1.015156   -2.622782   -0.000016
     11          9           0       -1.576584   -1.950870    0.000003
     12          5           0       -2.582657    0.842129    0.000024
     13          8           0       -3.571347   -0.079433    0.000006
     14          1           0       -4.447146    0.317380    0.000001
     15          1           0       -2.836351    2.005654    0.000015
 ---------------------------------------------------------------------

 SCF Done:  E(RHF) =  -825.988443905     A.U. after    2 cycles

 The electronic state is 1-A.
 Alpha  occ. eigenvalues --  -26.52463 -26.51412 -26.51281 -26.51279 -26.50681
 Alpha  occ. eigenvalues --  -20.58473 -11.39579 -11.38777 -11.38684 -11.37658
 Alpha  occ. eigenvalues --  -11.37594 -11.27290  -7.65141  -1.66464  -1.65188
 Alpha  occ. eigenvalues --   -1.64721  -1.63532  -1.63155  -1.48695  -1.21235
 Alpha  occ. eigenvalues --   -1.07711  -1.06649  -0.93383  -0.91381  -0.83357
 Alpha  occ. eigenvalues --   -0.81664  -0.80191  -0.77221  -0.75080  -0.74887
 Alpha  occ. eigenvalues --   -0.74804  -0.73122  -0.71768  -0.70765  -0.68811
 Alpha  occ. eigenvalues --   -0.68510  -0.67706  -0.66674  -0.66258  -0.64648
 Alpha  occ. eigenvalues --   -0.62015  -0.59432  -0.58613  -0.55937  -0.52921
 Alpha  occ. eigenvalues --   -0.49573  -0.39227  -0.37661
 Alpha virt. eigenvalues --    0.03029   0.03381   0.04430   0.04505   0.05304
 Alpha virt. eigenvalues --    0.07616   0.08090   0.09081   0.10006   0.10470
 Alpha virt. eigenvalues --    0.11049   0.11316   0.12458   0.12621   0.13865

 Mulliken charges:
               1
     1  C    1.374344
     2  C    0.621683
     3  C    1.060558
     4  C    0.707440
     5  C    1.757422
     6  C   -0.325701
     7  F   -0.987868
     8  F   -0.969473
     9  F   -1.025916
    10  F   -0.965835
    11  F   -1.020144
    12  B    0.277692
    13  O   -1.064405
    14  H    0.456438
    15  H    0.103765
 Sum of Mulliken charges =  -0.00000

 Dipole moment (field-independent basis, Debye):
    X=             -2.4744    Y=              1.1050    Z=              0.0000  Tot=              2.7099

 Test job not archived.
 1\1\GINC-SE365\SP\RHF\Aug-CC-pVDZ\C6H2B1F5O1\OHZDE\09-Apr-2025\0\\#t h
 f aug-cc-pvdz iop(5/13=1,5/36=2,99/5=2) pseudo=read geom=check guess=(
 read,tcheck) scf=(maxcycle=1)\\title\\0,1\C,0,1.642631,-0.349931,-0.00
 001\C,0,1.284001,0.99264,-0.000002\C,0,-0.062011,1.33215,0.000008\C,0,
 0.660117,-1.333787,-0.000008\C,0,-0.677867,-0.962223,0.000002\C,0,-1.0
 86555,0.377709,0.000011\F,0,2.928918,-0.695052,-0.000019\F,0,2.232648,
 1.934747,-0.000004\F,0,-0.355064,2.640893,0.000015\F,0,1.015156,-2.622
 782,-0.000016\F,0,-1.576584,-1.95087,0.000003\B,0,-2.582657,0.842129,0

 Normal termination of Gaussian 16 at Wed Apr  9 00:31:06 2025.
