 Gaussian 16, Revision C.01,

 ----------------------------------------------------------------------
 #t hf aug-cc-pvdz symm=none int=(grid=ultrafine) guess=(read,tcheck) s
 table=opt
 ----------------------------------------------------------------------
 -----
 title
 -----
 Symbolic Z-matrix:
 Charge =  0 Multiplicity = 2

 SCF Done:  E(UHF) =  -795.639428306     A.U. after   18 cycles
 Normal termination of Gaussian 16 at Tue Apr  8 22:46:27 2025.
 Gaussian 16:  ES64L-G16RevC.01  3-Jul-2019

 ----------------------------------------------------------------------
 #t hf aug-cc-pvdz iop(5/13=1,5/36=2,99/5=2) pseudo=read geom=check gue
 ss=(read,tcheck) scf=(maxcycle=1)
 ----------------------------------------------------------------------
 -----
 title
 -----
 Structure from the checkpoint file:  "BDE49_expt_1590_mol2.chk"
 Charge =  0 Multiplicity = 2

                         Standard orientation:
 ---------------------------------------------------------------------
 Center     Atomic      Atomic             Coordinates (Angstroms)
 Number     Number       Type             X           Y           Z
 ---------------------------------------------------------------------
      1         16           0        0.040244    1.039253    0.000000
      2         16           0        0.040244   -0.962096    0.000000
      3          1           0       -1.287804   -1.234525    0.000000
 ---------------------------------------------------------------------

 SCF Done:  E(UHF) =  -795.755096669     A.U. after    2 cycles

 The electronic state is 2-A".
 Alpha  occ. eigenvalues --  -94.00999 -93.99550  -8.28983  -8.27598  -6.26767
 Alpha  occ. eigenvalues --   -6.26706  -6.26505  -6.26504  -6.25075  -6.24640
 Alpha  occ. eigenvalues --   -1.12747  -0.91477  -0.60322  -0.52886  -0.51358
 Alpha  occ. eigenvalues --   -0.39855  -0.38309
 Alpha virt. eigenvalues --    0.03753   0.05778   0.10712   0.10907   0.11726
 Alpha virt. eigenvalues --    0.13745   0.13912   0.14909   0.17905   0.19222
 Alpha virt. eigenvalues --    0.25641   0.27045   0.30016   0.33298   0.37368

  Beta  occ. eigenvalues --  -94.00798 -93.98722  -8.28749  -8.26649  -6.26647
  Beta  occ. eigenvalues --   -6.26427  -6.25819  -6.24614  -6.24134  -6.22846
  Beta  occ. eigenvalues --   -1.09534  -0.84714  -0.59462  -0.49835  -0.42758
  Beta  occ. eigenvalues --   -0.37955
  Beta virt. eigenvalues --   -0.00412   0.03816   0.06169   0.10780   0.11466
  Beta virt. eigenvalues --    0.11752   0.13858   0.15579   0.15950   0.18175
  Beta virt. eigenvalues --    0.19483   0.26032   0.27920   0.30185   0.36793

 Mulliken charges and spin densities:
               1          2
     1  S   -0.058726   0.898284
     2  S   -0.349183   0.141178
     3  H    0.407910  -0.039462
 Sum of Mulliken charges =   0.00000   1.00000

 Dipole moment (field-independent basis, Debye):
    X=             -1.0298    Y=             -0.8335    Z=              0.0000  Tot=              1.3248
                          Isotropic Fermi Contact Couplings
        Atom                 a.u.       MegaHertz       Gauss      10(-4) cm-1
     1  S(33)              0.19053      65.44068      23.35086      21.82866
     2  S(33)              0.08696      29.86850      10.65782       9.96306
     3  H(1)              -0.00404     -18.04383      -6.43849      -6.01877
 --------------------------------------------------------
       Center         ----  Spin Dipole Couplings  ----
                      3XX-RR        3YY-RR        3ZZ-RR
 --------------------------------------------------------
     1   Atom       -1.782855     -1.862422      3.645276

 Normal termination of Gaussian 16 at Tue Apr  8 22:46:29 2025.
