 Gaussian 16, Revision C.01,

 ----------------------------------------------------------------------
 #t hf aug-cc-pvdz symm=none int=(grid=ultrafine) guess=(read,tcheck) s
 table=(opt,rrhf)
 ----------------------------------------------------------------------
 -----
 title
 -----
 Symbolic Z-matrix:
 Charge =  0 Multiplicity = 1

 SCF Done:  E(RHF) =  -930.490205314     A.U. after   18 cycles
 Normal termination of Gaussian 16 at Tue Apr  8 23:31:17 2025.
 Gaussian 16:  ES64L-G16RevC.01  3-Jul-2019

 ----------------------------------------------------------------------
 #t hf aug-cc-pvdz iop(5/13=1,5/36=2,99/5=2) pseudo=read geom=check gue
 ss=(read,tcheck) scf=(maxcycle=1)
 ----------------------------------------------------------------------
 -----
 title
 -----
 Structure from the checkpoint file:  "BDE49_nonexpt_1390_mol1.chk"
 Charge =  0 Multiplicity = 1

                         Standard orientation:
 ---------------------------------------------------------------------
 Center     Atomic      Atomic             Coordinates (Angstroms)
 Number     Number       Type             X           Y           Z
 ---------------------------------------------------------------------
      1          6           0        1.886025   -0.854541    0.180938
      2          6           0        2.269372    0.440047    0.125453
      3         15           0        0.210132   -1.345955   -0.238313
      4          6           0       -0.752724    0.186067   -0.030213
      5          6           0       -0.016128    1.423963   -0.120571
      6          6           0        1.341267    1.531092   -0.054266
      7         16           0       -2.401883    0.125629    0.109425
      8          1           0        2.618604   -1.640848    0.334576
      9          1           0        3.317173    0.695486    0.248013
     10          1           0       -0.616579    2.326571   -0.170707
     11          1           0        1.765711    2.529465   -0.090365
     12          1           0       -0.173637   -2.091182    0.894344
 ---------------------------------------------------------------------

 SCF Done:  E(RHF) =  -930.786074944     A.U. after    2 cycles

 The electronic state is 1-A.
 Alpha  occ. eigenvalues --  -93.92048 -84.30250 -11.33174 -11.29318 -11.28415
 Alpha  occ. eigenvalues --  -11.27626 -11.27046  -8.20205  -6.77540  -6.18031
 Alpha  occ. eigenvalues --   -6.17817  -6.17625  -4.30329  -4.30255  -4.29237
 Alpha  occ. eigenvalues --   -1.16372  -1.08468  -1.02799  -0.93280  -0.85154
 Alpha  occ. eigenvalues --   -0.80726  -0.71485  -0.66553  -0.64078  -0.61698
 Alpha  occ. eigenvalues --   -0.55281  -0.54083  -0.50039  -0.48935  -0.42955
 Alpha  occ. eigenvalues --   -0.38553  -0.33788  -0.30371
 Alpha virt. eigenvalues --    0.00210   0.02579   0.03344   0.04248   0.05987
 Alpha virt. eigenvalues --    0.06238   0.07385   0.08285   0.09242   0.09351
 Alpha virt. eigenvalues --    0.10593   0.11852   0.12948   0.13351   0.13605

 Mulliken charges:
               1
     1  C   -0.317450
     2  C    0.041800
     3  P    0.864164
     4  C   -0.871986
     5  C    0.407120
     6  C    0.168831
     7  S   -0.117417
     8  H   -0.245527
     9  H   -0.197267
    10  H   -0.170511
    11  H   -0.205029
    12  H    0.643272
 Sum of Mulliken charges =  -0.00000

 Dipole moment (field-independent basis, Debye):
    X=              4.9003    Y=              0.0016    Z=              0.3247  Tot=              4.9110

 Test job not archived.
 1\1\GINC-SE096\SP\RHF\Aug-CC-pVDZ\C5H5P1S1\OHZDE\08-Apr-2025\0\\#t hf
 aug-cc-pvdz iop(5/13=1,5/36=2,99/5=2) pseudo=read geom=check guess=(re
 ad,tcheck) scf=(maxcycle=1)\\title\\0,1\C,0,1.886025,-0.854541,0.18093
 8\C,0,2.269372,0.440047,0.125453\P,0,0.210132,-1.345955,-0.238313\C,0,
 -0.752724,0.186067,-0.030213\C,0,-0.016128,1.423963,-0.120571\C,0,1.34
 1267,1.531092,-0.054266\S,0,-2.401883,0.125629,0.109425\H,0,2.618604,-
 1.640848,0.334576\H,0,3.317173,0.695486,0.248013\H,0,-0.616579,2.32657
 1,-0.170707\H,0,1.765711,2.529465,-0.090365\H,0,-0.173637,-2.091182,0.

 Normal termination of Gaussian 16 at Tue Apr  8 23:31:23 2025.
