 Gaussian 16, Revision C.01,

 ----------------------------------------------------------------------
 #t hf aug-cc-pvdz symm=none int=(grid=ultrafine) guess=(read,tcheck) s
 table=(opt,rrhf)
 ----------------------------------------------------------------------
 -----
 title
 -----
 Symbolic Z-matrix:
 Charge =  0 Multiplicity = 1

 SCF Done:  E(RHF) =  -873.416582605     A.U. after   17 cycles
 Normal termination of Gaussian 16 at Wed Apr  9 00:48:51 2025.
 Gaussian 16:  ES64L-G16RevC.01  3-Jul-2019

 ----------------------------------------------------------------------
 #t hf aug-cc-pvdz iop(5/13=1,5/36=2,99/5=2) pseudo=read geom=check gue
 ss=(read,tcheck) scf=(maxcycle=1)
 ----------------------------------------------------------------------
 -----
 title
 -----
 Structure from the checkpoint file:  "BDE49_nonexpt_858_mol1.chk"
 Charge =  0 Multiplicity = 1

                         Standard orientation:
 ---------------------------------------------------------------------
 Center     Atomic      Atomic             Coordinates (Angstroms)
 Number     Number       Type             X           Y           Z
 ---------------------------------------------------------------------
      1         14           0       -0.034769    0.164520   -0.696453
      2          7           0       -1.118542   -1.303451   -0.226548
      3          5           0        1.847647   -0.237562   -0.022586
      4          7           0       -0.812855    1.543017    0.285554
      5          8           0       -0.434025    2.646984   -0.102974
      6          8           0        2.066073   -1.307263    0.764415
      7          8           0       -0.628688   -2.138141    0.549735
      8          8           0        2.819846    0.614659   -0.412593
      9          8           0       -2.240894   -1.377232   -0.691376
     10          8           0       -1.559775    1.334052    1.226889
     11          1           0        3.690605    0.391305   -0.057722
     12          1           0        1.258349   -1.824404    0.931529
     13          1           0       -0.360938    0.456188   -2.096347
 ---------------------------------------------------------------------

 SCF Done:  E(RHF) =  -874.001920329     A.U. after    2 cycles

 The electronic state is 1-A.
 Alpha  occ. eigenvalues --  -69.65816 -20.63183 -20.62149 -20.62058 -20.61645
 Alpha  occ. eigenvalues --  -20.60600 -20.59807 -15.79062 -15.78601  -7.70537
 Alpha  occ. eigenvalues --   -6.32538  -4.07874  -4.07771  -4.07620  -1.68995
 Alpha  occ. eigenvalues --   -1.68347  -1.53265  -1.52761  -1.52456  -1.48792
 Alpha  occ. eigenvalues --   -1.05637  -1.00110  -0.86589  -0.83044  -0.81767
 Alpha  occ. eigenvalues --   -0.78077  -0.77148  -0.76617  -0.75516  -0.75342
 Alpha  occ. eigenvalues --   -0.69038  -0.65257  -0.61485  -0.60865  -0.53501
 Alpha  occ. eigenvalues --   -0.53406  -0.52496  -0.51399  -0.49106  -0.48382
 Alpha  occ. eigenvalues --   -0.47944  -0.46914
 Alpha virt. eigenvalues --    0.00394   0.02549   0.02742   0.03334   0.04462
 Alpha virt. eigenvalues --    0.04791   0.06392   0.07091   0.07579   0.07867
 Alpha virt. eigenvalues --    0.08992   0.09435   0.09944   0.10811   0.13768

 Mulliken charges:
               1
     1  Si   0.920414
     2  N    1.975217
     3  B    1.493654
     4  N    1.868753
     5  O   -1.217046
     6  O   -1.399255
     7  O   -1.231255
     8  O   -1.206361
     9  O   -1.244520
    10  O   -1.172872
    11  H    0.533226
    12  H    0.719006
    13  H   -0.038961
 Sum of Mulliken charges =  -0.00000

 Dipole moment (field-independent basis, Debye):
    X=              3.9793    Y=             -1.0396    Z=             -2.0766  Tot=              4.6073

 Test job not archived.
 1\1\GINC-SE165\SP\RHF\Aug-CC-pVDZ\B1H3N2O6Si1\OHZDE\09-Apr-2025\0\\#t
 hf aug-cc-pvdz iop(5/13=1,5/36=2,99/5=2) pseudo=read geom=check guess=
 (read,tcheck) scf=(maxcycle=1)\\title\\0,1\Si,0,-0.034769,0.16452,-0.6
 96453\N,0,-1.118542,-1.303451,-0.226548\B,0,1.847647,-0.237562,-0.0225
 86\N,0,-0.812856,1.543017,0.285554\O,0,-0.434026,2.646984,-0.102974\O,
 0,2.066073,-1.307262,0.764415\O,0,-0.628687,-2.138141,0.549735\O,0,2.8
 19846,0.61466,-0.412593\O,0,-2.240894,-1.377233,-0.691376\O,0,-1.55977
 5,1.334051,1.226889\H,0,3.690605,0.391306,-0.057722\H,0,1.258349,-1.82

 Normal termination of Gaussian 16 at Wed Apr  9 00:48:59 2025.
