 Gaussian 16, Revision C.01,

 ----------------------------------------------------------------------
 #t hf aug-cc-pvdz symm=none int=(grid=ultrafine) guess=(read,tcheck) s
 table=opt
 ----------------------------------------------------------------------
 -----
 title
 -----
 Symbolic Z-matrix:
 Charge =  0 Multiplicity = 2

 SCF Done:  E(UHF) =  -557.598692197     A.U. after   16 cycles
 Normal termination of Gaussian 16 at Wed Apr  9 00:03:33 2025.
 Gaussian 16:  ES64L-G16RevC.01  3-Jul-2019

 ----------------------------------------------------------------------
 #t hf aug-cc-pvdz iop(5/13=1,5/36=2,99/5=2) pseudo=read geom=check gue
 ss=(read,tcheck) scf=(maxcycle=1)
 ----------------------------------------------------------------------
 -----
 title
 -----
 Structure from the checkpoint file:  "BDE49_nonexpt_2175_mol2.chk"
 Charge =  0 Multiplicity = 2

                         Standard orientation:
 ---------------------------------------------------------------------
 Center     Atomic      Atomic             Coordinates (Angstroms)
 Number     Number       Type             X           Y           Z
 ---------------------------------------------------------------------
      1         14           0        0.765834   -0.017915    0.385813
      2          8           0        1.448437   -1.393687   -0.230565
      3          6           0       -0.998566    0.000261   -0.332599
      4          6           0       -1.728852    1.316415   -0.027312
      5          6           0       -1.807472   -1.230570    0.104728
      6          1           0       -0.821351   -0.062506   -1.416106
      7          1           0       -1.979183   -1.228908    1.186145
      8          1           0       -1.293046   -2.159838   -0.150365
      9          1           0       -2.788474   -1.243094   -0.383156
     10          1           0       -1.897543    1.439263    1.047850
     11          1           0       -2.708814    1.340076   -0.515904
     12          1           0       -1.164178    2.184154   -0.380200
     13          1           0        2.407117   -1.457355   -0.221273
     14          8           0        1.681760    1.251907   -0.190732
     15          1           0        1.691560    2.056620    0.333093
 ---------------------------------------------------------------------

 SCF Done:  E(UHF) =  -557.908349467     A.U. after    2 cycles

 The electronic state is 2-A.
 Alpha  occ. eigenvalues --  -69.57472 -20.55204 -20.54663 -11.22985 -11.22811
 Alpha  occ. eigenvalues --  -11.22506  -6.23844  -3.99570  -3.99027  -3.98813
 Alpha  occ. eigenvalues --   -1.44876  -1.42373  -1.06096  -0.93202  -0.82133
 Alpha  occ. eigenvalues --   -0.74834  -0.69724  -0.63900  -0.61031  -0.59427
 Alpha  occ. eigenvalues --   -0.56578  -0.55519  -0.54223  -0.52147  -0.51512
 Alpha  occ. eigenvalues --   -0.49021  -0.48456  -0.44989  -0.31848
 Alpha virt. eigenvalues --    0.03431   0.04003   0.04307   0.04477   0.06117
 Alpha virt. eigenvalues --    0.06524   0.07182   0.07513   0.07573   0.09305
 Alpha virt. eigenvalues --    0.09624   0.10764   0.13496   0.14936   0.15301

  Beta  occ. eigenvalues --  -69.57002 -20.54828 -20.54325 -11.23014 -11.22536
  Beta  occ. eigenvalues --  -11.22405  -6.23088  -3.98747  -3.98593  -3.97791
  Beta  occ. eigenvalues --   -1.43860  -1.41380  -1.05564  -0.93216  -0.81069
  Beta  occ. eigenvalues --   -0.73780  -0.69332  -0.62606  -0.60748  -0.56947
  Beta  occ. eigenvalues --   -0.55962  -0.54650  -0.54138  -0.51046  -0.49900
  Beta  occ. eigenvalues --   -0.48928  -0.48131  -0.42331
  Beta virt. eigenvalues --    0.02526   0.04014   0.04322   0.04506   0.06094
  Beta virt. eigenvalues --    0.06240   0.06609   0.07264   0.07594   0.08626
  Beta virt. eigenvalues --    0.09373   0.09852   0.11059   0.14658   0.15337

 Mulliken charges and spin densities:
               1          2
     1  Si   2.165362   0.927741
     2  O   -1.465320   0.045858
     3  C   -0.522549   0.038460
     4  C   -0.294101  -0.003987
     5  C   -0.357941   0.006739
     6  H    0.139812  -0.004906
     7  H    0.162901   0.000885
     8  H    0.096168   0.000945
     9  H    0.157808  -0.003069
    10  H    0.169787  -0.001844
    11  H    0.158015  -0.001900
    12  H    0.093960  -0.001575
    13  H    0.441158  -0.007357
    14  O   -1.343271   0.025077
    15  H    0.398212  -0.021066
 Sum of Mulliken charges =  -0.00000   1.00000

 Dipole moment (field-independent basis, Debye):
    X=              0.1191    Y=              1.1063    Z=              0.7911  Tot=              1.3652
                          Isotropic Fermi Contact Couplings
        Atom                 a.u.       MegaHertz       Gauss      10(-4) cm-1
     1  Si(29)             0.65044    -578.06134    -206.26666    -192.82051
     2  O(17)              0.03785     -22.94432      -8.18710      -7.65340
     3  C(13)              0.07361      82.75590      29.52936      27.60440
     4  C(13)             -0.00587      -6.59869      -2.35458      -2.20109
     5  C(13)             -0.00578      -6.50243      -2.32023      -2.16898
     6  H(1)               0.00232      10.37964       3.70371       3.46227
     7  H(1)              -0.00005      -0.24379      -0.08699      -0.08132
     8  H(1)               0.00018       0.82680       0.29502       0.27579

 Normal termination of Gaussian 16 at Wed Apr  9 00:03:38 2025.
