 Gaussian 16, Revision C.01,

 ----------------------------------------------------------------------
 #t hf aug-cc-pvdz symm=none int=(grid=ultrafine) guess=(read,tcheck) s
 table=(opt,rrhf)
 ----------------------------------------------------------------------
 -----
 title
 -----
 Symbolic Z-matrix:
 Charge =  0 Multiplicity = 1

 SCF Done:  E(RHF) =  -842.588298183     A.U. after   16 cycles
 Normal termination of Gaussian 16 at Tue Apr  8 22:49:55 2025.
 Gaussian 16:  ES64L-G16RevC.01  3-Jul-2019

 ----------------------------------------------------------------------
 #t hf aug-cc-pvdz iop(5/13=1,5/36=2,99/5=2) pseudo=read geom=check gue
 ss=(read,tcheck) scf=(maxcycle=1)
 ----------------------------------------------------------------------
 -----
 title
 -----
 Structure from the checkpoint file:  "BDE49_expt_1693_mol1.chk"
 Charge =  0 Multiplicity = 1

                         Standard orientation:
 ---------------------------------------------------------------------
 Center     Atomic      Atomic             Coordinates (Angstroms)
 Number     Number       Type             X           Y           Z
 ---------------------------------------------------------------------
      1          6           0        0.598745    1.789345    0.169737
      2          6           0       -0.641097    2.306442   -0.209868
      3          6           0       -1.747207    1.478985   -0.318299
      4          6           0       -1.625974    0.109101   -0.045592
      5          6           0       -0.390781   -0.412685    0.338380
      6          6           0        0.724641    0.429505    0.444968
      7          1           0        1.461953    2.440393    0.247847
      8          1           0       -0.743145    3.364588   -0.422175
      9          6           0        2.045170   -0.138058    0.862424
     10          1           0       -0.274041   -1.467868    0.548350
     11          1           0        2.708955    0.624772    1.261536
     12         17           0        2.964209   -0.881836   -0.548740
     13          1           0        1.940267   -0.946920    1.582206
     14          1           0       -2.717129    1.861513   -0.611532
     15          8           0       -2.767250   -0.621895   -0.178709
     16          6           0       -2.709820   -2.021978    0.059067
     17          1           0       -2.014784   -2.517511   -0.627548
     18          1           0       -3.717413   -2.394042   -0.118002
     19          1           0       -2.420270   -2.242490    1.092664
 ---------------------------------------------------------------------

 SCF Done:  E(RHF) =  -843.059179601     A.U. after    2 cycles

 The electronic state is 1-A.
 Alpha  occ. eigenvalues -- -105.55222 -20.57809 -11.31479 -11.31390 -11.30050
 Alpha  occ. eigenvalues --  -11.26453 -11.25379 -11.24675 -11.24344 -11.24288
 Alpha  occ. eigenvalues --  -10.59980  -7.76913  -7.76547  -7.76542  -1.50245
 Alpha  occ. eigenvalues --   -1.17031  -1.10072  -1.02793  -1.02481  -0.95739
 Alpha  occ. eigenvalues --   -0.91288  -0.83609  -0.81770  -0.72873  -0.69619
 Alpha  occ. eigenvalues --   -0.68121  -0.66186  -0.64109  -0.62073  -0.60835
 Alpha  occ. eigenvalues --   -0.58624  -0.56984  -0.54441  -0.53158  -0.52673
 Alpha  occ. eigenvalues --   -0.49978  -0.47228  -0.44387  -0.44211  -0.35428
 Alpha  occ. eigenvalues --   -0.32557
 Alpha virt. eigenvalues --    0.03173   0.03528   0.03546   0.04714   0.04930
 Alpha virt. eigenvalues --    0.05499   0.06950   0.07943   0.08182   0.09082
 Alpha virt. eigenvalues --    0.09644   0.10486   0.11320   0.11850   0.12506

 Mulliken charges:
               1
     1  C    0.050397
     2  C    0.500233
     3  C   -0.336000
     4  C    1.934436
     5  C   -0.312295
     6  C    1.616007
     7  H   -0.286875
     8  H   -0.225472
     9  C   -0.809239
    10  H   -0.431083
    11  H    0.018263
    12  Cl  -0.088140
    13  H    0.096497
    14  H   -0.265704
    15  O   -1.905694
    16  C    0.109554
    17  H    0.194057
    18  H   -0.050114
    19  H    0.191173
 Sum of Mulliken charges =  -0.00000

 Dipole moment (field-independent basis, Debye):
    X=             -1.2941    Y=             -0.1844    Z=              1.7718  Tot=              2.2018

 Test job not archived.
 1\1\GINC-SE365\SP\RHF\Aug-CC-pVDZ\C8H9Cl1O1\OHZDE\08-Apr-2025\0\\#t hf
  aug-cc-pvdz iop(5/13=1,5/36=2,99/5=2) pseudo=read geom=check guess=(r
 ead,tcheck) scf=(maxcycle=1)\\title\\0,1\C,0,0.598745,1.789345,0.16973
 7\C,0,-0.641097,2.306442,-0.209868\C,0,-1.747207,1.478985,-0.318299\C,
 0,-1.625974,0.109101,-0.045592\C,0,-0.390781,-0.412685,0.33838\C,0,0.7
 24641,0.429505,0.444968\H,0,1.461953,2.440393,0.247847\H,0,-0.743145,3
 .364588,-0.422175\C,0,2.04517,-0.138058,0.862424\H,0,-0.274041,-1.4678
 68,0.54835\H,0,2.708955,0.624772,1.261536\Cl,0,2.964209,-0.881836,-0.5

 Normal termination of Gaussian 16 at Tue Apr  8 22:50:05 2025.
