 Gaussian 16, Revision C.01,

 ----------------------------------------------------------------------
 #t hf aug-cc-pvdz symm=none int=(grid=ultrafine) guess=(read,tcheck) s
 table=(opt,rrhf)
 ----------------------------------------------------------------------
 -----
 title
 -----
 Symbolic Z-matrix:
 Charge =  0 Multiplicity = 1

 SCF Done:  E(RHF) =  -1897.64276179     A.U. after   17 cycles
 Normal termination of Gaussian 16 at Tue Apr  8 23:47:26 2025.
 Gaussian 16:  ES64L-G16RevC.01  3-Jul-2019

 ----------------------------------------------------------------------
 #t hf aug-cc-pvdz iop(5/13=1,5/36=2,99/5=2) pseudo=read geom=check gue
 ss=(read,tcheck) scf=(maxcycle=1)
 ----------------------------------------------------------------------
 -----
 title
 -----
 Structure from the checkpoint file:  "BDE49_nonexpt_1778_mol1.chk"
 Charge =  0 Multiplicity = 1

                         Standard orientation:
 ---------------------------------------------------------------------
 Center     Atomic      Atomic             Coordinates (Angstroms)
 Number     Number       Type             X           Y           Z
 ---------------------------------------------------------------------
      1          6           0        0.489676   -1.528797   -0.361671
      2          6           0       -0.856697   -1.763781   -0.118952
      3          6           0       -1.741507   -0.694559    0.016434
      4          6           0       -1.267119    0.616312   -0.093724
      5          6           0        0.085875    0.843290   -0.336220
      6          6           0        0.985292   -0.220463   -0.472681
      7          1           0        1.155863   -2.378304   -0.465531
      8          1           0       -1.237949   -2.773195   -0.033745
      9         14           0        2.793758    0.105848   -0.793736
     10          1           0        0.422530    1.869983   -0.418141
     11         17           0        3.879287    0.090953    0.988634
     12         17           0       -2.335744    1.985090    0.062940
     13         17           0       -3.423514   -1.028796    0.316940
     14          1           0        2.968156    1.441686   -1.393098
     15          1           0        3.365164   -0.957269   -1.641023
 ---------------------------------------------------------------------

 SCF Done:  E(RHF) =  -1898.13456100     A.U. after    2 cycles

 The electronic state is 1-A.
 Alpha  occ. eigenvalues -- -105.59027-105.58801-105.56163 -69.59168 -11.34088
 Alpha  occ. eigenvalues --  -11.33561 -11.28647 -11.28215 -11.27972 -11.26564
 Alpha  occ. eigenvalues --  -10.63837 -10.63605 -10.61152  -7.80808  -7.80576
 Alpha  occ. eigenvalues --   -7.80386  -7.80377  -7.80159  -7.80146  -7.78040
 Alpha  occ. eigenvalues --   -7.77734  -7.77731  -6.25827  -4.01252  -4.01125
 Alpha  occ. eigenvalues --   -4.01111  -1.22127  -1.12230  -1.11907  -1.05757
 Alpha  occ. eigenvalues --   -1.02736  -0.99697  -0.87552  -0.84735  -0.76209
 Alpha  occ. eigenvalues --   -0.70580  -0.69950  -0.66095  -0.62523  -0.59649
 Alpha  occ. eigenvalues --   -0.59452  -0.55579  -0.54602  -0.54179  -0.52508
 Alpha  occ. eigenvalues --   -0.51003  -0.49357  -0.48916  -0.47210  -0.46162
 Alpha  occ. eigenvalues --   -0.45870  -0.37555  -0.36360
 Alpha virt. eigenvalues --    0.02969   0.03660   0.04347   0.04609   0.05551
 Alpha virt. eigenvalues --    0.05944   0.06892   0.07013   0.08561   0.08826
 Alpha virt. eigenvalues --    0.09350   0.09752   0.10882   0.11723   0.12521

 Mulliken charges:
               1
     1  C    0.525181
     2  C    0.576021
     3  C   -0.046387
     4  C    0.660472
     5  C    0.430425
     6  C   -1.096688
     7  H   -0.322308
     8  H   -0.176031
     9  Si   1.054006
    10  H   -0.216116
    11  Cl  -0.598107
    12  Cl  -0.283439
    13  Cl  -0.247246
    14  H   -0.138313
    15  H   -0.121471
 Sum of Mulliken charges =   0.00000

 Dipole moment (field-independent basis, Debye):
    X=              0.6974    Y=             -1.1753    Z=             -1.6578  Tot=              2.1485

 Test job not archived.
 1\1\GINC-SE365\SP\RHF\Aug-CC-pVDZ\C6H5Cl3Si1\OHZDE\08-Apr-2025\0\\#t h
 f aug-cc-pvdz iop(5/13=1,5/36=2,99/5=2) pseudo=read geom=check guess=(
 read,tcheck) scf=(maxcycle=1)\\title\\0,1\C,0,0.489676,-1.528797,-0.36
 1671\C,0,-0.856697,-1.763781,-0.118952\C,0,-1.741507,-0.694559,0.01643
 4\C,0,-1.267119,0.616312,-0.093724\C,0,0.085875,0.84329,-0.33622\C,0,0
 .985292,-0.220463,-0.472681\H,0,1.155863,-2.378304,-0.465531\H,0,-1.23
 7949,-2.773195,-0.033745\Si,0,2.793758,0.105848,-0.793736\H,0,0.42253,
 1.869983,-0.418141\Cl,0,3.879287,0.090954,0.988634\Cl,0,-2.335744,1.98

 Normal termination of Gaussian 16 at Tue Apr  8 23:47:33 2025.
