 Gaussian 16, Revision C.01,

 ----------------------------------------------------------------------
 #t hf aug-cc-pvdz symm=none int=(grid=ultrafine) guess=(read,tcheck) s
 table=(opt,rrhf)
 ----------------------------------------------------------------------
 -----
 title
 -----
 Symbolic Z-matrix:
 Charge =  0 Multiplicity = 1

 SCF Done:  E(RHF) =  -662.758471095     A.U. after   14 cycles
 Normal termination of Gaussian 16 at Tue Apr  8 23:19:50 2025.
 Gaussian 16:  ES64L-G16RevC.01  3-Jul-2019

 ----------------------------------------------------------------------
 #t hf aug-cc-pvdz iop(5/13=1,5/36=2,99/5=2) pseudo=read geom=check gue
 ss=(read,tcheck) scf=(maxcycle=1)
 ----------------------------------------------------------------------
 -----
 title
 -----
 Structure from the checkpoint file:  "BDE49_nonexpt_1111_mol1.chk"
 Charge =  0 Multiplicity = 1

                         Standard orientation:
 ---------------------------------------------------------------------
 Center     Atomic      Atomic             Coordinates (Angstroms)
 Number     Number       Type             X           Y           Z
 ---------------------------------------------------------------------
      1          9           0       -1.786838   -0.000001   -0.565750
      2          8           0       -1.125457   -0.000000    0.718200
      3         14           0        0.515488    0.000000    0.399051
      4          9           0        0.931314   -1.271473   -0.442915
      5          9           0        0.931312    1.271473   -0.442914
      6          1           0        1.104730    0.000000    1.731892
 ---------------------------------------------------------------------

 SCF Done:  E(RHF) =  -663.128769369     A.U. after    2 cycles

 The electronic state is 1-A.
 Alpha  occ. eigenvalues --  -69.69026 -26.54105 -26.49680 -26.49679 -20.68747
 Alpha  occ. eigenvalues --   -6.34930  -4.10312  -4.10300  -4.10085  -1.68253
 Alpha  occ. eigenvalues --   -1.62430  -1.60171  -1.37063  -0.83599  -0.75371
 Alpha  occ. eigenvalues --   -0.74560  -0.72859  -0.71406  -0.68661  -0.67977
 Alpha  occ. eigenvalues --   -0.66356  -0.64870  -0.59569  -0.56575  -0.55041
 Alpha virt. eigenvalues --    0.04599   0.05152   0.05423   0.06304   0.09814
 Alpha virt. eigenvalues --    0.10934   0.17353   0.18495   0.19885   0.21082
 Alpha virt. eigenvalues --    0.21822   0.23045   0.23575   0.25465   0.27447

 Mulliken charges:
               1
     1  F   -0.379155
     2  O   -0.459988
     3  Si   2.683052
     4  F   -0.843635
     5  F   -0.843636
     6  H   -0.156637
 Sum of Mulliken charges =   0.00000

 Dipole moment (field-independent basis, Debye):
    X=              1.2687    Y=              0.0000    Z=              1.5086  Tot=              1.9712

 Test job not archived.
 1\1\GINC-SE218\SP\RHF\Aug-CC-pVDZ\F3H1O1Si1\OHZDE\08-Apr-2025\0\\#t hf
  aug-cc-pvdz iop(5/13=1,5/36=2,99/5=2) pseudo=read geom=check guess=(r
 ead,tcheck) scf=(maxcycle=1)\\title\\0,1\F,0,-1.786838,0.,-0.56575\O,0
 ,-1.125457,0.,0.7182\Si,0,0.515488,0.,0.399051\F,0,0.931314,-1.271473,
 -0.442915\F,0,0.931313,1.271473,-0.442914\H,0,1.10473,0.,1.731892\\Ver
 sion=ES64L-G16RevC.01\State=1-A\HF=-663.1287694\RMSD=3.594e-03\Dipole=
 0.4991332,0.0000006,0.5935411\Quadrupole=-0.4805357,-0.9443735,1.42490
 91,0.0000025,1.5812507,-0.0000017\PG=C01 [X(F3H1O1Si1)]\\@

 Normal termination of Gaussian 16 at Tue Apr  8 23:19:52 2025.
