 Gaussian 16, Revision C.01,

 ----------------------------------------------------------------------
 #t hf aug-cc-pvdz symm=none int=(grid=ultrafine) guess=(read,tcheck) s
 table=(opt,rrhf)
 ----------------------------------------------------------------------
 -----
 title
 -----
 Symbolic Z-matrix:
 Charge =  0 Multiplicity = 1

 SCF Done:  E(RHF) =  -325.124640470     A.U. after   13 cycles
 Normal termination of Gaussian 16 at Tue Apr  8 23:04:23 2025.
 Gaussian 16:  ES64L-G16RevC.01  3-Jul-2019

 ----------------------------------------------------------------------
 #t hf aug-cc-pvdz iop(5/13=1,5/36=2,99/5=2) pseudo=read geom=check gue
 ss=(read,tcheck) scf=(maxcycle=1)
 ----------------------------------------------------------------------
 -----
 title
 -----
 Structure from the checkpoint file:  "BDE49_expt_357_mol1.chk"
 Charge =  0 Multiplicity = 1

                         Standard orientation:
 ---------------------------------------------------------------------
 Center     Atomic      Atomic             Coordinates (Angstroms)
 Number     Number       Type             X           Y           Z
 ---------------------------------------------------------------------
      1          7           0        0.122391    0.154802   -0.457601
      2          6           0       -1.164980   -0.040970    0.209754
      3          6           0        1.326581   -0.036761    0.161079
      4          8           0        1.431191   -0.378643    1.326888
      5          6           0        2.550765    0.208547   -0.708287
      6          1           0        2.317705    0.525449   -1.727236
      7          1           0        3.138938   -0.710580   -0.746289
      8          1           0        3.168051    0.971134   -0.229535
      9          6           0       -1.918085   -1.232016   -0.394776
     10          1           0       -2.155298   -1.053961   -1.449529
     11          1           0       -2.859898   -1.402625    0.133974
     12          1           0       -1.317826   -2.141832   -0.328148
     13          6           0       -1.992848    1.248204    0.171626
     14          1           0       -0.904850   -0.271961    1.244229
     15          1           0       -2.233503    1.532255   -0.859055
     16          1           0       -1.446834    2.072982    0.634512
     17          1           0       -2.936667    1.116831    0.707544
     18          1           0        0.115307    0.425810   -1.428735
 ---------------------------------------------------------------------

 SCF Done:  E(RHF) =  -325.469972754     A.U. after    2 cycles

 The electronic state is 1-A.
 Alpha  occ. eigenvalues --  -20.49819 -15.52084 -11.35390 -11.27302 -11.24550
 Alpha  occ. eigenvalues --  -11.23170 -11.23042  -1.44835  -1.23770  -1.06284
 Alpha  occ. eigenvalues --   -0.99749  -0.94353  -0.84165  -0.81782  -0.68706
 Alpha  occ. eigenvalues --   -0.67433  -0.63643  -0.61619  -0.59370  -0.58591
 Alpha  occ. eigenvalues --   -0.57486  -0.55292  -0.53447  -0.52564  -0.49575
 Alpha  occ. eigenvalues --   -0.49335  -0.41450  -0.40907
 Alpha virt. eigenvalues --    0.02935   0.04018   0.04250   0.04387   0.05528
 Alpha virt. eigenvalues --    0.05766   0.05793   0.07029   0.07396   0.08886
 Alpha virt. eigenvalues --    0.09062   0.12316   0.12596   0.13694   0.14143

 Mulliken charges:
               1
     1  N    1.023473
     2  C   -1.734803
     3  C    0.726922
     4  O   -1.363576
     5  C   -0.498195
     6  H    0.073032
     7  H    0.242566
     8  H    0.241485
     9  C    0.060434
    10  H    0.190488
    11  H    0.175125
    12  H    0.137743
    13  C    0.073887
    14  H    0.036521
    15  H    0.185923
    16  H    0.151670
    17  H    0.169620
    18  H    0.107685
 Sum of Mulliken charges =  -0.00000

 Dipole moment (field-independent basis, Debye):
    X=             -1.1538    Y=              0.9565    Z=             -3.3062  Tot=              3.6300

 Test job not archived.
 1\1\GINC-SE222\SP\RHF\Aug-CC-pVDZ\C5H11N1O1\OHZDE\08-Apr-2025\0\\#t hf
  aug-cc-pvdz iop(5/13=1,5/36=2,99/5=2) pseudo=read geom=check guess=(r
 ead,tcheck) scf=(maxcycle=1)\\title\\0,1\N,0,0.122391,-0.154802,0.4576
 01\C,0,-1.16498,0.04097,-0.209754\C,0,1.326581,0.036761,-0.161079\O,0,
 1.431191,0.378643,-1.326888\C,0,2.550765,-0.208547,0.708287\H,0,2.3177
 05,-0.525449,1.727236\H,0,3.138938,0.71058,0.746289\H,0,3.168051,-0.97
 1134,0.229535\C,0,-1.918085,1.232016,0.394776\H,0,-2.155298,1.053961,1
 .449529\H,0,-2.859898,1.402625,-0.133974\H,0,-1.317826,2.141832,0.3281

 Normal termination of Gaussian 16 at Tue Apr  8 23:04:29 2025.
