 Gaussian 16, Revision C.01,

 ----------------------------------------------------------------------
 #t hf aug-cc-pvdz symm=none int=(grid=ultrafine) guess=(read,tcheck) s
 table=opt
 ----------------------------------------------------------------------
 -----
 title
 -----
 Symbolic Z-matrix:
 Charge =  0 Multiplicity = 2

 SCF Done:  E(UHF) =  -464.260391907     a.u. after    7 cycles
 Normal termination of Gaussian 16 at Tue Apr  8 23:56:22 2025.
 Gaussian 16:  ES64L-G16RevC.01  3-Jul-2019

 ----------------------------------------------------------------------
 #t hf aug-cc-pvdz iop(5/13=1,5/36=2,99/5=2) pseudo=read geom=check gue
 ss=(read,tcheck) scf=(maxcycle=1)
 ----------------------------------------------------------------------
 -----
 title
 -----
 Structure from the checkpoint file:  "BDE49_nonexpt_2015_mol2.chk"
 Charge =  0 Multiplicity = 2

                         Standard orientation:
 ---------------------------------------------------------------------
 Center     Atomic      Atomic             Coordinates (Angstroms)
 Number     Number       Type             X           Y           Z
 ---------------------------------------------------------------------
      1         14           0       -1.007923   -0.163865   -0.107883
      2          8           0        0.456619    0.677984    0.114654
      3          9           0        1.502727   -0.318755   -0.049246
      4          1           0       -1.930060    0.976020    0.122600
      5          1           0       -1.136520   -1.236993    0.913746
 ---------------------------------------------------------------------

 SCF Done:  E(UHF) =  -464.448462929     A.U. after    2 cycles

 The electronic state is 2-A.
 Alpha  occ. eigenvalues --  -69.60074 -26.50756 -20.66462  -6.26797  -4.02626
 Alpha  occ. eigenvalues --   -4.01904  -4.01727  -1.64357  -1.34494  -0.79125
 Alpha  occ. eigenvalues --   -0.69931  -0.68326  -0.64452  -0.55739  -0.54449
 Alpha  occ. eigenvalues --   -0.51641  -0.37520
 Alpha virt. eigenvalues --    0.03873   0.05133   0.05747   0.06230   0.08385
 Alpha virt. eigenvalues --    0.11787   0.12645   0.14877   0.16839   0.18002
 Alpha virt. eigenvalues --    0.20890   0.23325   0.24515   0.27006   0.28247

  Beta  occ. eigenvalues --  -69.59507 -26.51799 -20.65505  -6.25899  -4.01562
  Beta  occ. eigenvalues --   -4.01387  -4.00523  -1.65442  -1.33358  -0.76818
  Beta  occ. eigenvalues --   -0.69694  -0.68457  -0.64267  -0.54587  -0.53203
  Beta  occ. eigenvalues --   -0.50032
  Beta virt. eigenvalues --    0.00864   0.04208   0.05440   0.05973   0.08014
  Beta virt. eigenvalues --    0.08700   0.12124   0.13590   0.16621   0.19455
  Beta virt. eigenvalues --    0.20160   0.21660   0.24022   0.24776   0.27986

 Mulliken charges and spin densities:
               1          2
     1  Si   1.203457   0.829718
     2  O   -0.500505   0.230569
     3  F   -0.349752  -0.198400
     4  H   -0.168574   0.053838
     5  H   -0.184626   0.084276
 Sum of Mulliken charges =  -0.00000   1.00000

 Dipole moment (field-independent basis, Debye):
    X=             -2.1879    Y=             -0.5650    Z=             -0.1253  Tot=              2.2632
                          Isotropic Fermi Contact Couplings
        Atom                 a.u.       MegaHertz       Gauss      10(-4) cm-1
     1  Si(29)             0.74340    -660.68385    -235.74843    -220.38041
     2  O(17)             -0.01562       9.46797       3.37841       3.15817
     3  F(19)             -0.01748     -73.52813     -26.23667     -24.52634
     4  H(1)               0.01346      60.17726      21.47274      20.07297
     5  H(1)               0.02241     100.19145      35.75080      33.42027
 --------------------------------------------------------
       Center         ----  Spin Dipole Couplings  ----
                      3XX-RR        3YY-RR        3ZZ-RR

 Normal termination of Gaussian 16 at Tue Apr  8 23:56:23 2025.
