 Gaussian 16, Revision C.01,

 ----------------------------------------------------------------------
 #t hf aug-cc-pvdz symm=none int=(grid=ultrafine) guess=(read,tcheck) s
 table=(opt,rrhf)
 ----------------------------------------------------------------------
 -----
 title
 -----
 Symbolic Z-matrix:
 Charge =  0 Multiplicity = 1

 SCF Done:  E(RHF) =  -1058.32319862     A.U. after   12 cycles
 Normal termination of Gaussian 16 at Wed Apr  9 00:15:36 2025.
 Gaussian 16:  ES64L-G16RevC.01  3-Jul-2019

 ----------------------------------------------------------------------
 #t hf aug-cc-pvdz iop(5/13=1,5/36=2,99/5=2) pseudo=read geom=check gue
 ss=(read,tcheck) scf=(maxcycle=1)
 ----------------------------------------------------------------------
 -----
 title
 -----
 Structure from the checkpoint file:  "BDE49_nonexpt_251_mol1.chk"
 Charge =  0 Multiplicity = 1

                         Standard orientation:
 ---------------------------------------------------------------------
 Center     Atomic      Atomic             Coordinates (Angstroms)
 Number     Number       Type             X           Y           Z
 ---------------------------------------------------------------------
      1          5           0       -0.140089   -0.125726    0.000319
      2         17           0       -1.861616   -0.531541   -0.000111
      3         17           0        0.338467    1.589553   -0.000092
      4          8           0        0.746830   -1.117694    0.000174
      5          6           0        2.172051   -0.945010    0.000061
      6          1           0        2.605633   -1.943075   -0.000038
      7          1           0        2.490770   -0.401502    0.891028
      8          1           0        2.490628   -0.401389   -0.890888
 ---------------------------------------------------------------------

 SCF Done:  E(RHF) =  -1058.61537188     A.U. after    2 cycles

 The electronic state is 1-A.
 Alpha  occ. eigenvalues -- -105.57610-105.56855 -20.58806 -11.31643 -10.62622
 Alpha  occ. eigenvalues --  -10.61864  -7.79517  -7.79226  -7.79202  -7.78768
 Alpha  occ. eigenvalues --   -7.78470  -7.78438  -7.73780  -1.50801  -1.09921
 Alpha  occ. eigenvalues --   -1.05761  -0.97436  -0.75031  -0.67342  -0.66897
 Alpha  occ. eigenvalues --   -0.64820  -0.57405  -0.54241  -0.51143  -0.49803
 Alpha  occ. eigenvalues --   -0.48407  -0.47254  -0.46108
 Alpha virt. eigenvalues --    0.03241   0.04785   0.04794   0.05658   0.07493
 Alpha virt. eigenvalues --    0.07611   0.08198   0.12332   0.12747   0.13691
 Alpha virt. eigenvalues --    0.13785   0.15192   0.15993   0.17228   0.17244

 Mulliken charges:
               1
     1  B    0.872107
     2  Cl  -0.357982
     3  Cl  -0.335812
     4  O   -0.913744
     5  C    0.461624
     6  H    0.007956
     7  H    0.132927
     8  H    0.132924
 Sum of Mulliken charges =   0.00000

 Dipole moment (field-independent basis, Debye):
    X=              2.6291    Y=             -0.4939    Z=              0.0006  Tot=              2.6751

 Test job not archived.
 1\1\GINC-SE423\SP\RHF\Aug-CC-pVDZ\C1H3B1Cl2O1\OHZDE\09-Apr-2025\0\\#t
 hf aug-cc-pvdz iop(5/13=1,5/36=2,99/5=2) pseudo=read geom=check guess=
 (read,tcheck) scf=(maxcycle=1)\\title\\0,1\B,0,0.140089,-0.125726,-0.0
 00319\Cl,0,1.861616,-0.53154,0.000111\Cl,0,-0.338468,1.589553,0.000092
 \O,0,-0.74683,-1.117694,-0.000174\C,0,-2.172051,-0.945011,-0.000061\H,
 0,-2.605632,-1.943076,0.000038\H,0,-2.49077,-0.401503,-0.891028\H,0,-2
 .490628,-0.40139,0.890888\\Version=ES64L-G16RevC.01\State=1-A\HF=-1058
 .6153719\RMSD=6.235e-03\Dipole=-1.0343853,-0.1943301,-0.0002532\Quadru

 Normal termination of Gaussian 16 at Wed Apr  9 00:15:39 2025.
