 Gaussian 16, Revision C.01,

 ----------------------------------------------------------------------
 #t hf aug-cc-pvdz symm=none int=(grid=ultrafine) guess=(read,tcheck) s
 table=(opt,rrhf)
 ----------------------------------------------------------------------
 -----
 title
 -----
 Symbolic Z-matrix:
 Charge =  0 Multiplicity = 1

 SCF Done:  E(RHF) =  -1155.48369080     A.U. after   14 cycles
 Normal termination of Gaussian 16 at Tue Apr  8 23:44:10 2025.
 Gaussian 16:  ES64L-G16RevC.01  3-Jul-2019

 ----------------------------------------------------------------------
 #t hf aug-cc-pvdz iop(5/13=1,5/36=2,99/5=2) pseudo=read geom=check gue
 ss=(read,tcheck) scf=(maxcycle=1)
 ----------------------------------------------------------------------
 -----
 title
 -----
 Structure from the checkpoint file:  "BDE49_nonexpt_1699_mol1.chk"
 Charge =  0 Multiplicity = 1

                         Standard orientation:
 ---------------------------------------------------------------------
 Center     Atomic      Atomic             Coordinates (Angstroms)
 Number     Number       Type             X           Y           Z
 ---------------------------------------------------------------------
      1         16           0        0.137965   -1.265061   -0.631724
      2         15           0        1.370755    0.230656    0.270879
      3          8           0        1.102837    0.416547    1.696784
      4          8           0        1.319042    1.524131   -0.662151
      5          8           0       -1.301850   -0.968075    0.224957
      6          6           0       -2.113454    0.097414   -0.128822
      7          6           0       -1.947192    0.892140   -1.188318
      8          6           0       -3.206594    0.207967    0.889074
      9          1           0       -3.881076    1.028160    0.644622
     10          1           0       -2.777652    0.372539    1.880863
     11          1           0       -3.777311   -0.723914    0.928331
     12          1           0       -1.168763    0.725347   -1.920443
     13          1           0       -2.658213    1.685452   -1.371245
     14          1           0        0.445115    1.940515   -0.635031
     15          8           0        2.811354   -0.291589   -0.183247
     16          1           0        3.201500   -0.880211    0.474954
 ---------------------------------------------------------------------

 SCF Done:  E(RHF) =  -1156.00535484     A.U. after    2 cycles

 The electronic state is 1-A.
 Alpha  occ. eigenvalues --  -94.02719 -84.46145 -20.61591 -20.61576 -20.60719
 Alpha  occ. eigenvalues --  -20.52272 -11.33303 -11.24958 -11.23765  -8.30298
 Alpha  occ. eigenvalues --   -6.91256  -6.28085  -6.27869  -6.27613  -4.45376
 Alpha  occ. eigenvalues --   -4.44629  -4.43522  -1.55575  -1.51245  -1.49098
 Alpha  occ. eigenvalues --   -1.40635  -1.09290  -1.01412  -0.96434  -0.87037
 Alpha  occ. eigenvalues --   -0.77620  -0.71979  -0.71092  -0.68416  -0.66806
 Alpha  occ. eigenvalues --   -0.65599  -0.63597  -0.61710  -0.58093  -0.57700
 Alpha  occ. eigenvalues --   -0.57229  -0.55886  -0.55215  -0.52737  -0.49689
 Alpha  occ. eigenvalues --   -0.47566  -0.44458  -0.40426  -0.36961
 Alpha virt. eigenvalues --    0.03439   0.03733   0.04178   0.05155   0.05707
 Alpha virt. eigenvalues --    0.06710   0.07626   0.08240   0.08435   0.10154
 Alpha virt. eigenvalues --    0.11224   0.11865   0.12520   0.12941   0.14433

 Mulliken charges:
               1
     1  S    0.126185
     2  P    3.737581
     3  O   -1.468737
     4  O   -1.449276
     5  O   -1.602968
     6  C    1.432321
     7  C   -0.053235
     8  C   -0.711676
     9  H    0.150756
    10  H    0.241365
    11  H    0.216342
    12  H   -0.116305
    13  H   -0.097070
    14  H    0.485602
    15  O   -1.251325
    16  H    0.360439
 Sum of Mulliken charges =  -0.00000

 Dipole moment (field-independent basis, Debye):
    X=             -0.9898    Y=              0.0478    Z=             -1.3903  Tot=              1.7074

 Test job not archived.
 1\1\GINC-SE059\SP\RHF\Aug-CC-pVDZ\C3H7O4P1S1\OHZDE\08-Apr-2025\0\\#t h
 f aug-cc-pvdz iop(5/13=1,5/36=2,99/5=2) pseudo=read geom=check guess=(
 read,tcheck) scf=(maxcycle=1)\\title\\0,1\S,0,-0.137965,1.265061,-0.63
 1724\P,0,-1.370755,-0.230656,0.270879\O,0,-1.102837,-0.416547,1.696784
 \O,0,-1.319042,-1.524131,-0.662151\O,0,1.30185,0.968075,0.224957\C,0,2
 .113454,-0.097414,-0.128822\C,0,1.947192,-0.89214,-1.188318\C,0,3.2065
 94,-0.207967,0.889074\H,0,3.881076,-1.02816,0.644622\H,0,2.777652,-0.3
 72539,1.880863\H,0,3.777311,0.723914,0.928331\H,0,1.168763,-0.725347,-

 Normal termination of Gaussian 16 at Tue Apr  8 23:44:18 2025.
