 Gaussian 16, Revision C.01,

 ----------------------------------------------------------------------
 #t hf aug-cc-pvdz symm=none int=(grid=ultrafine) guess=(read,tcheck) s
 table=(opt,rrhf)
 ----------------------------------------------------------------------
 -----
 title
 -----
 Symbolic Z-matrix:
 Charge =  0 Multiplicity = 1

 SCF Done:  E(RHF) =  -360.949603467     A.U. after   13 cycles
 Normal termination of Gaussian 16 at Tue Apr  8 23:04:10 2025.
 Gaussian 16:  ES64L-G16RevC.01  3-Jul-2019

 ----------------------------------------------------------------------
 #t hf aug-cc-pvdz iop(5/13=1,5/36=2,99/5=2) pseudo=read geom=check gue
 ss=(read,tcheck) scf=(maxcycle=1)
 ----------------------------------------------------------------------
 -----
 title
 -----
 Structure from the checkpoint file:  "BDE49_expt_366_mol1.chk"
 Charge =  0 Multiplicity = 1

                         Standard orientation:
 ---------------------------------------------------------------------
 Center     Atomic      Atomic             Coordinates (Angstroms)
 Number     Number       Type             X           Y           Z
 ---------------------------------------------------------------------
      1          6           0       -1.659139   -0.804351    0.150530
      2          6           0       -0.523319    0.195408    0.056481
      3          8           0       -0.665747    1.393056    0.061781
      4          8           0        0.669670   -0.423807    0.010531
      5          7           0       -2.904054   -0.186638   -0.285953
      6          1           0       -1.654156   -1.158547    1.196511
      7          1           0       -1.411796   -1.669741   -0.470354
      8          1           0       -2.927574    0.774608    0.040513
      9          1           0       -3.701872   -0.672558    0.106107
     10          6           0        1.838482    0.434246   -0.009173
     11          6           0        3.057949   -0.462129   -0.066995
     12          1           0        1.828678    1.059330    0.886943
     13          1           0        1.770972    1.094990   -0.876184
     14          1           0        3.099828   -1.120031    0.803781
     15          1           0        3.965712    0.146625   -0.082670
     16          1           0        3.043364   -1.081240   -0.966529
 ---------------------------------------------------------------------

 SCF Done:  E(RHF) =  -361.323021850     A.U. after    2 cycles

 The electronic state is 1-A.
 Alpha  occ. eigenvalues --  -20.58968 -20.53521 -15.48983 -11.38813 -11.30075
 Alpha  occ. eigenvalues --  -11.27973 -11.23856  -1.54285  -1.45211  -1.18851
 Alpha  occ. eigenvalues --   -1.05374  -0.96790  -0.86388  -0.78715  -0.73632
 Alpha  occ. eigenvalues --   -0.69467  -0.68405  -0.65676  -0.63849  -0.59862
 Alpha  occ. eigenvalues --   -0.57188  -0.56616  -0.55292  -0.51714  -0.51410
 Alpha  occ. eigenvalues --   -0.45625  -0.44560  -0.43476
 Alpha virt. eigenvalues --    0.03456   0.03751   0.04362   0.04451   0.05917
 Alpha virt. eigenvalues --    0.06417   0.06737   0.07841   0.08201   0.10594
 Alpha virt. eigenvalues --    0.11768   0.13283   0.13549   0.14317   0.15198

 Mulliken charges:
               1
     1  C   -0.775161
     2  C    1.824665
     3  O   -1.212963
     4  O   -1.319804
     5  N    0.192147
     6  H    0.228558
     7  H    0.147147
     8  H    0.157156
     9  H    0.145609
    10  C    0.332806
    11  C   -0.509282
    12  H    0.129910
    13  H    0.132941
    14  H    0.183252
    15  H    0.159037
    16  H    0.183981
 Sum of Mulliken charges =   0.00000

 Dipole moment (field-independent basis, Debye):
    X=              1.1788    Y=             -1.6994    Z=              1.4480  Tot=              2.5247

 Test job not archived.
 1\1\GINC-SE424\SP\RHF\Aug-CC-pVDZ\C4H9N1O2\OHZDE\08-Apr-2025\0\\#t hf
 aug-cc-pvdz iop(5/13=1,5/36=2,99/5=2) pseudo=read geom=check guess=(re
 ad,tcheck) scf=(maxcycle=1)\\title\\0,1\C,0,-1.659139,-0.804351,0.1505
 3\C,0,-0.523319,0.195408,0.056481\O,0,-0.665747,1.393056,0.061781\O,0,
 0.66967,-0.423807,0.010531\N,0,-2.904054,-0.186638,-0.285953\H,0,-1.65
 4156,-1.158547,1.196511\H,0,-1.411796,-1.669741,-0.470354\H,0,-2.92757
 4,0.774608,0.040513\H,0,-3.701872,-0.672558,0.106107\C,0,1.838482,0.43
 4246,-0.009173\C,0,3.057949,-0.462129,-0.066995\H,0,1.828678,1.05933,0

 Normal termination of Gaussian 16 at Tue Apr  8 23:04:16 2025.
