 Gaussian 16, Revision C.01,

 ----------------------------------------------------------------------
 #t hf aug-cc-pvdz symm=none int=(grid=ultrafine) guess=(read,tcheck) s
 table=opt
 ----------------------------------------------------------------------
 -----
 title
 -----
 Symbolic Z-matrix:
 Charge =  0 Multiplicity = 2

 SCF Done:  E(UHF) =  -647.834502771     A.U. after   15 cycles
 Normal termination of Gaussian 16 at Tue Apr  8 22:50:52 2025.
 Gaussian 16:  ES64L-G16RevC.01  3-Jul-2019

 ----------------------------------------------------------------------
 #t hf aug-cc-pvdz iop(5/13=1,5/36=2,99/5=2) pseudo=read geom=check gue
 ss=(read,tcheck) scf=(maxcycle=1)
 ----------------------------------------------------------------------
 -----
 title
 -----
 Structure from the checkpoint file:  "BDE49_expt_172_mol2.chk"
 Charge =  0 Multiplicity = 2

                         Standard orientation:
 ---------------------------------------------------------------------
 Center     Atomic      Atomic             Coordinates (Angstroms)
 Number     Number       Type             X           Y           Z
 ---------------------------------------------------------------------
      1          6           0       -1.298819   -0.056458    0.178431
      2          8           0       -0.185149   -0.351189   -0.565524
      3          9           0       -2.229204   -0.969379   -0.026051
      4          9           0       -1.774132    1.162960   -0.052360
      5          6           0        1.035393   -0.037490   -0.014525
      6          9           0        1.133327    1.265151    0.270237
      7          9           0        1.956019   -0.360321   -0.909918
      8          9           0        1.254183   -0.723610    1.111509
 ---------------------------------------------------------------------

 SCF Done:  E(UHF) =  -648.423485885     A.U. after    2 cycles

 The electronic state is 2-A.
 Alpha  occ. eigenvalues --  -26.54353 -26.54235 -26.54201 -26.53974 -26.53590
 Alpha  occ. eigenvalues --  -20.66617 -11.61263 -11.52855  -1.77411  -1.72898
 Alpha  occ. eigenvalues --   -1.65916  -1.65503  -1.64877  -1.58654  -1.04704
 Alpha  occ. eigenvalues --   -0.95451  -0.88740  -0.87299  -0.86896  -0.82443
 Alpha  occ. eigenvalues --   -0.81154  -0.76109  -0.72916  -0.72388  -0.70461
 Alpha  occ. eigenvalues --   -0.68430  -0.67476  -0.66334  -0.65865  -0.65488
 Alpha  occ. eigenvalues --   -0.64867  -0.59117  -0.47064
 Alpha virt. eigenvalues --    0.07463   0.08212   0.08497   0.08777   0.11301
 Alpha virt. eigenvalues --    0.11645   0.12001   0.18855   0.20340   0.21230
 Alpha virt. eigenvalues --    0.24884   0.26197   0.26338   0.27687   0.29393

  Beta  occ. eigenvalues --  -26.54363 -26.54234 -26.54206 -26.53546 -26.53093
  Beta  occ. eigenvalues --  -20.66281 -11.61234 -11.49930  -1.77247  -1.71257
  Beta  occ. eigenvalues --   -1.65928  -1.65476  -1.63634  -1.57612  -1.03131
  Beta  occ. eigenvalues --   -0.93541  -0.87041  -0.86770  -0.85994  -0.81152
  Beta  occ. eigenvalues --   -0.76505  -0.73423  -0.72615  -0.72249  -0.67902
  Beta  occ. eigenvalues --   -0.67783  -0.67060  -0.65791  -0.65560  -0.65343
  Beta  occ. eigenvalues --   -0.63262  -0.58623
  Beta virt. eigenvalues --    0.05427   0.07927   0.08521   0.08787   0.09958
  Beta virt. eigenvalues --    0.11441   0.11731   0.13341   0.19649   0.20457
  Beta virt. eigenvalues --    0.21313   0.24956   0.26360   0.26644   0.28089

 Mulliken charges and spin densities:
               1          2
     1  C    1.728145   0.930660
     2  O   -1.252987   0.020135
     3  F   -0.641798   0.024738
     4  F   -0.640561   0.036963
     5  C    2.781926  -0.008173
     6  F   -0.650656  -0.001065
     7  F   -0.667370  -0.000986
     8  F   -0.656701  -0.002271
 Sum of Mulliken charges =  -0.00000   1.00000

 Dipole moment (field-independent basis, Debye):
    X=              0.0498    Y=             -0.0686    Z=              0.3771  Tot=              0.3865
                          Isotropic Fermi Contact Couplings
        Atom                 a.u.       MegaHertz       Gauss      10(-4) cm-1
     1  C(13)              0.54118     608.39076     217.08895     202.93731
     2  O(17)              0.01504      -9.11890      -3.25385      -3.04174
     3  F(19)              0.07454     313.64324     111.91571     104.62012
     4  F(19)              0.08966     377.25456     134.61381     125.83858
     5  C(13)              0.00736       8.27627       2.95318       2.76067
     6  F(19)             -0.00040      -1.66716      -0.59488      -0.55610
     7  F(19)             -0.00059      -2.48794      -0.88776      -0.82989
     8  F(19)             -0.00179      -7.51548      -2.68171      -2.50690

 Normal termination of Gaussian 16 at Tue Apr  8 22:50:55 2025.
