 Gaussian 16, Revision C.01,

 ----------------------------------------------------------------------
 #t hf aug-cc-pvdz symm=none int=(grid=ultrafine) guess=(read,tcheck) s
 table=(opt,rrhf)
 ----------------------------------------------------------------------
 -----
 title
 -----
 Symbolic Z-matrix:
 Charge =  0 Multiplicity = 1

 SCF Done:  E(RHF) =  -635.424045941     A.U. after   14 cycles
 Normal termination of Gaussian 16 at Wed Apr  9 00:20:36 2025.
 Gaussian 16:  ES64L-G16RevC.01  3-Jul-2019

 ----------------------------------------------------------------------
 #t hf aug-cc-pvdz iop(5/13=1,5/36=2,99/5=2) pseudo=read geom=check gue
 ss=(read,tcheck) scf=(maxcycle=1)
 ----------------------------------------------------------------------
 -----
 title
 -----
 Structure from the checkpoint file:  "BDE49_nonexpt_2622_mol1.chk"
 Charge =  0 Multiplicity = 1

                         Standard orientation:
 ---------------------------------------------------------------------
 Center     Atomic      Atomic             Coordinates (Angstroms)
 Number     Number       Type             X           Y           Z
 ---------------------------------------------------------------------
      1          9           0       -1.429092    0.860484    0.100772
      2         16           0       -0.672880   -0.600039   -0.182318
      3          6           0        0.925572   -0.233029    0.503168
      4          9           0        1.768531    0.457372   -0.350278
      5          1           0        1.366329   -1.211150    0.726760
      6          1           0        0.791369    0.349237    1.416866
 ---------------------------------------------------------------------

 SCF Done:  E(RHF) =  -635.703682663     A.U. after    2 cycles

 The electronic state is 1-A.
 Alpha  occ. eigenvalues --  -94.05279 -26.48236 -26.47568 -11.38173  -8.32665
 Alpha  occ. eigenvalues --   -6.30448  -6.30154  -6.29868  -1.59964  -1.58202
 Alpha  occ. eigenvalues --   -1.08776  -0.90297  -0.73642  -0.71586  -0.70550
 Alpha  occ. eigenvalues --   -0.65921  -0.65103  -0.61751  -0.55875  -0.50050
 Alpha  occ. eigenvalues --   -0.40688
 Alpha virt. eigenvalues --    0.03305   0.04751   0.06795   0.07314   0.09538
 Alpha virt. eigenvalues --    0.11815   0.12662   0.14555   0.16164   0.17418
 Alpha virt. eigenvalues --    0.22043   0.22905   0.24033   0.25364   0.27445

 Mulliken charges:
               1
     1  F   -0.657207
     2  S    0.904025
     3  C   -0.011271
     4  F   -0.621383
     5  H    0.204754
     6  H    0.181081
 Sum of Mulliken charges =   0.00000

 Dipole moment (field-independent basis, Debye):
    X=              0.8185    Y=             -1.7000    Z=              1.4618  Tot=              2.3868

 Test job not archived.
 1\1\GINC-SE419\SP\RHF\Aug-CC-pVDZ\C1H2F2S1\OHZDE\09-Apr-2025\0\\#t hf
 aug-cc-pvdz iop(5/13=1,5/36=2,99/5=2) pseudo=read geom=check guess=(re
 ad,tcheck) scf=(maxcycle=1)\\title\\0,1\F,0,-1.429092,0.860484,0.10077
 2\S,0,-0.67288,-0.600039,-0.182318\C,0,0.925572,-0.233029,0.503168\F,0
 ,1.768531,0.457372,-0.350278\H,0,1.366329,-1.21115,0.72676\H,0,0.79136
 9,0.349237,1.416866\\Version=ES64L-G16RevC.01\State=1-A\HF=-635.703682
 7\RMSD=4.499e-03\Dipole=0.3220361,-0.6688183,0.5751216\Quadrupole=-1.4
 817516,0.7330414,0.7487101,-0.9004533,2.0209471,0.3998357\PG=C01 [X(C1

 Normal termination of Gaussian 16 at Wed Apr  9 00:20:38 2025.
