 Gaussian 16, Revision C.01,

 ----------------------------------------------------------------------
 #t hf aug-cc-pvdz symm=none int=(grid=ultrafine) guess=(read,tcheck) s
 table=(opt,rrhf)
 ----------------------------------------------------------------------
 -----
 title
 -----
 Symbolic Z-matrix:
 Charge =  0 Multiplicity = 1

 SCF Done:  E(RHF) =  -600.417143530     A.U. after   12 cycles
 Normal termination of Gaussian 16 at Wed Apr  9 00:09:55 2025.
 Gaussian 16:  ES64L-G16RevC.01  3-Jul-2019

 ----------------------------------------------------------------------
 #t hf aug-cc-pvdz iop(5/13=1,5/36=2,99/5=2) pseudo=read geom=check gue
 ss=(read,tcheck) scf=(maxcycle=1)
 ----------------------------------------------------------------------
 -----
 title
 -----
 Structure from the checkpoint file:  "BDE49_nonexpt_2287_mol1.chk"
 Charge =  0 Multiplicity = 1

                         Standard orientation:
 ---------------------------------------------------------------------
 Center     Atomic      Atomic             Coordinates (Angstroms)
 Number     Number       Type             X           Y           Z
 ---------------------------------------------------------------------
      1          6           0        1.464029   -0.031765    0.031381
      2          8           0        0.102518   -0.306465    0.414612
      3          6           0        1.878262   -1.016827   -1.069665
      4          6           0        2.296992   -0.255921    1.296679
      5          1           0        3.360339   -0.093064    1.100462
      6          1           0        2.159879   -1.277317    1.658130
      7          1           0        1.977374    0.429831    2.084634
      8          6           0        1.603643    1.417606   -0.453466
      9          1           0        2.645282    1.643551   -0.697451
     10          1           0        1.275856    2.113468    0.322625
     11          1           0        1.005953    1.591233   -1.352805
     12         14           0       -1.364603   -0.041319   -0.299089
     13          1           0        1.749740   -2.044139   -0.720961
     14          1           0        2.926631   -0.873825   -1.346438
     15          1           0        1.267935   -0.878160   -1.965427
     16          6           0       -2.483732   -1.434564    0.252968
     17          1           0       -2.088659   -2.403596   -0.062931
     18          1           0       -3.486578   -1.321899   -0.170926
     19          1           0       -2.577365   -1.448519    1.342800
     20          6           0       -2.086899    1.616743    0.200276
     21          1           0       -2.190612    1.688189    1.287233
     22          1           0       -3.080624    1.748323   -0.240911
     23          1           0       -1.462180    2.449268   -0.133992
     24          1           0       -1.232450   -0.064786   -1.782734
 ---------------------------------------------------------------------

 SCF Done:  E(RHF) =  -600.790488598     A.U. after    2 cycles

 The electronic state is 1-A.
 Alpha  occ. eigenvalues --  -69.53566 -20.51595 -11.29724 -11.22595 -11.22174
 Alpha  occ. eigenvalues --  -11.21894 -11.20685 -11.20532  -6.20141  -3.95626
 Alpha  occ. eigenvalues --   -3.95477  -3.95452  -1.42199  -1.07161  -0.96011
 Alpha  occ. eigenvalues --   -0.94207  -0.93808  -0.92494  -0.78468  -0.68162
 Alpha  occ. eigenvalues --   -0.63785  -0.62740  -0.61112  -0.57181  -0.56952
 Alpha  occ. eigenvalues --   -0.56273  -0.55562  -0.54478  -0.54223  -0.52268
 Alpha  occ. eigenvalues --   -0.52084  -0.51090  -0.50865  -0.46631  -0.46205
 Alpha  occ. eigenvalues --   -0.42417  -0.40782
 Alpha virt. eigenvalues --    0.03619   0.03725   0.03776   0.03903   0.05460
 Alpha virt. eigenvalues --    0.05664   0.05889   0.06383   0.06558   0.08098
 Alpha virt. eigenvalues --    0.08237   0.08835   0.09163   0.09672   0.09829

 Mulliken charges:
               1
     1  C   -0.970528
     2  O   -2.311162
     3  C    0.085163
     4  C    0.104879
     5  H    0.223339
     6  H    0.195242
     7  H    0.204435
     8  C    0.064044
     9  H    0.164483
    10  H    0.239903
    11  H    0.169884
    12  Si   2.676343
    13  H    0.219199
    14  H    0.208972
    15  H    0.187381
    16  C   -0.612745
    17  H   -0.053780
    18  H   -0.041877
    19  H    0.098410
    20  C   -0.617218
    21  H    0.110279
    22  H   -0.024071
    23  H   -0.055093
    24  H   -0.265480
 Sum of Mulliken charges =  -0.00000

 Dipole moment (field-independent basis, Debye):
    X=              0.4831    Y=              0.4488    Z=             -0.2888  Tot=              0.7199

 Test job not archived.
 1\1\GINC-SE396\SP\RHF\Aug-CC-pVDZ\C6H16O1Si1\OHZDE\09-Apr-2025\0\\#t h
 f aug-cc-pvdz iop(5/13=1,5/36=2,99/5=2) pseudo=read geom=check guess=(
 read,tcheck) scf=(maxcycle=1)\\title\\0,1\C,0,1.464029,-0.031765,0.031
 381\O,0,0.102518,-0.306465,0.414612\C,0,1.878262,-1.016827,-1.069665\C
 ,0,2.296992,-0.255921,1.296679\H,0,3.360339,-0.093064,1.100462\H,0,2.1
 59879,-1.277317,1.65813\H,0,1.977374,0.429831,2.084634\C,0,1.603643,1.
 417606,-0.453466\H,0,2.645282,1.643551,-0.697451\H,0,1.275856,2.113468
 ,0.322625\H,0,1.005953,1.591233,-1.352805\Si,0,-1.364603,-0.041319,-0.

 Normal termination of Gaussian 16 at Wed Apr  9 00:10:28 2025.
