 Gaussian 16, Revision C.01,

 ----------------------------------------------------------------------
 #t hf aug-cc-pvdz symm=none int=(grid=ultrafine) guess=(read,tcheck) s
 table=(opt,rrhf)
 ----------------------------------------------------------------------
 -----
 title
 -----
 Symbolic Z-matrix:
 Charge =  0 Multiplicity = 1

 SCF Done:  E(RHF) =  -743.092431181     A.U. after   15 cycles
 Normal termination of Gaussian 16 at Wed Apr  9 00:23:53 2025.
 Gaussian 16:  ES64L-G16RevC.01  3-Jul-2019

 ----------------------------------------------------------------------
 #t hf aug-cc-pvdz iop(5/13=1,5/36=2,99/5=2) pseudo=read geom=check gue
 ss=(read,tcheck) scf=(maxcycle=1)
 ----------------------------------------------------------------------
 -----
 title
 -----
 Structure from the checkpoint file:  "BDE49_nonexpt_2692_mol1.chk"
 Charge =  0 Multiplicity = 1

                         Standard orientation:
 ---------------------------------------------------------------------
 Center     Atomic      Atomic             Coordinates (Angstroms)
 Number     Number       Type             X           Y           Z
 ---------------------------------------------------------------------
      1          9           0       -2.521122    0.872962   -0.000002
      2         16           0       -1.817623   -0.641046   -0.000000
      3          6           0       -0.111625   -0.178543   -0.000000
      4          6           0        0.347240    1.138696   -0.000001
      5          7           0        0.665293   -1.256571    0.000002
      6          6           0        1.986700   -1.060018    0.000002
      7          6           0        1.724984    1.318860   -0.000001
      8          6           0        2.565925    0.205827    0.000001
      9          1           0       -0.347198    1.967043   -0.000003
     10          1           0        2.138898    2.320970   -0.000002
     11          1           0        3.643121    0.314393    0.000001
     12          1           0        2.600845   -1.955265    0.000004
 ---------------------------------------------------------------------

 SCF Done:  E(RHF) =  -743.488279517     A.U. after    2 cycles

 The electronic state is 1-A.
 Alpha  occ. eigenvalues --  -94.04681 -26.47846 -15.52558 -11.33305 -11.30212
 Alpha  occ. eigenvalues --  -11.28505 -11.26542 -11.26101  -8.31999  -6.29784
 Alpha  occ. eigenvalues --   -6.29475  -6.29179  -1.57936  -1.29097  -1.11107
 Alpha  occ. eigenvalues --   -1.09227  -0.99376  -0.89918  -0.86380  -0.74768
 Alpha  occ. eigenvalues --   -0.71475  -0.67769  -0.66229  -0.65959  -0.63898
 Alpha  occ. eigenvalues --   -0.61183  -0.59472  -0.57400  -0.52229  -0.47032
 Alpha  occ. eigenvalues --   -0.44248  -0.41724  -0.34158
 Alpha virt. eigenvalues --    0.02956   0.03670   0.04355   0.05802   0.06438
 Alpha virt. eigenvalues --    0.07396   0.08252   0.08412   0.10641   0.10674
 Alpha virt. eigenvalues --    0.12368   0.12403   0.13107   0.13469   0.13793

 Mulliken charges:
               1
     1  F   -0.706997
     2  S    0.961892
     3  C   -1.557515
     4  C    0.776510
     5  N    1.156235
     6  C   -0.744171
     7  C    0.061937
     8  C    0.714713
     9  H   -0.160926
    10  H   -0.148945
    11  H   -0.184033
    12  H   -0.168700
 Sum of Mulliken charges =   0.00000

 Dipole moment (field-independent basis, Debye):
    X=              3.0086    Y=              1.7033    Z=             -0.0000  Tot=              3.4573

 Test job not archived.
 1\1\GINC-SE329\SP\RHF\Aug-CC-pVDZ\C5H4F1N1S1\OHZDE\09-Apr-2025\0\\#t h
 f aug-cc-pvdz iop(5/13=1,5/36=2,99/5=2) pseudo=read geom=check guess=(
 read,tcheck) scf=(maxcycle=1)\\title\\0,1\F,0,-2.521122,0.872962,-0.00
 0002\S,0,-1.817623,-0.641046,0.\C,0,-0.111625,-0.178543,0.\C,0,0.34724
 ,1.138696,-0.000001\N,0,0.665293,-1.256571,0.000002\C,0,1.9867,-1.0600
 18,0.000002\C,0,1.724984,1.31886,-0.000001\C,0,2.565925,0.205827,0.000
 001\H,0,-0.347198,1.967043,-0.000003\H,0,2.138898,2.32097,-0.000002\H,
 0,3.643121,0.314393,0.000001\H,0,2.600845,-1.955265,0.000004\\Version=

 Normal termination of Gaussian 16 at Wed Apr  9 00:23:59 2025.
