 Gaussian 16, Revision C.01,

 ----------------------------------------------------------------------
 #t hf aug-cc-pvdz symm=none int=(grid=ultrafine) guess=(read,tcheck) s
 table=(opt,rrhf)
 ----------------------------------------------------------------------
 -----
 title
 -----
 Symbolic Z-matrix:
 Charge =  0 Multiplicity = 1

 SCF Done:  E(RHF) =  -1448.98856476     A.U. after   14 cycles
 Normal termination of Gaussian 16 at Wed Apr  9 00:51:21 2025.
 Gaussian 16:  ES64L-G16RevC.01  3-Jul-2019

 ----------------------------------------------------------------------
 #t hf aug-cc-pvdz iop(5/13=1,5/36=2,99/5=2) pseudo=read geom=check gue
 ss=(read,tcheck) scf=(maxcycle=1)
 ----------------------------------------------------------------------
 -----
 title
 -----
 Structure from the checkpoint file:  "BDE49_nonexpt_905_mol1.chk"
 Charge =  0 Multiplicity = 1

                         Standard orientation:
 ---------------------------------------------------------------------
 Center     Atomic      Atomic             Coordinates (Angstroms)
 Number     Number       Type             X           Y           Z
 ---------------------------------------------------------------------
      1          6           0       -2.614334   -0.540838   -0.000165
      2          6           0       -1.272231    0.185976   -0.000174
      3         16           0        0.136012   -0.975388   -0.000320
      4          8           0       -1.180751    1.386328   -0.000031
      5          5           0        1.721881   -0.037951   -0.000045
      6         16           0        1.970548    1.746282    0.000284
      7          6           0       -3.389607   -0.164878   -1.274841
      8          1           0       -3.558366    0.913196   -1.313201
      9          1           0       -4.358717   -0.669400   -1.282283
     10          1           0       -2.846520   -0.459754   -2.176077
     11          6           0       -3.388797   -0.166128    1.275377
     12          1           0       -2.423546   -1.617655   -0.000743
     13          1           0       -3.557518    0.911912    1.314909
     14          1           0       -2.845160   -0.461909    2.175985
     15          1           0       -4.357919   -0.670628    1.282931
     16         16           0        3.235428   -1.054490   -0.000095
     17          1           0        2.642268   -2.261602   -0.000330
     18          1           0        0.660082    2.067712    0.000202
 ---------------------------------------------------------------------

 SCF Done:  E(RHF) =  -1449.43131401     A.U. after    2 cycles

 The electronic state is 1-A.
 Alpha  occ. eigenvalues --  -93.97419 -93.96163 -93.95001 -20.57171 -11.39420
 Alpha  occ. eigenvalues --  -11.27432 -11.24858 -11.24851  -8.25793  -8.24445
 Alpha  occ. eigenvalues --   -8.23373  -7.68674  -6.23610  -6.23398  -6.23284
 Alpha  occ. eigenvalues --   -6.22281  -6.22139  -6.21965  -6.21198  -6.21077
 Alpha  occ. eigenvalues --   -6.20915  -1.51379  -1.11828  -1.07792  -1.02728
 Alpha  occ. eigenvalues --   -1.00697  -0.95644  -0.88552  -0.76141  -0.71167
 Alpha  occ. eigenvalues --   -0.67934  -0.64841  -0.61926  -0.61847  -0.58418
 Alpha  occ. eigenvalues --   -0.57191  -0.54873  -0.54129  -0.53429  -0.51181
 Alpha  occ. eigenvalues --   -0.50966  -0.49013  -0.46467  -0.44772  -0.41127
 Alpha  occ. eigenvalues --   -0.39330  -0.37596
 Alpha virt. eigenvalues --    0.02988   0.03668   0.03742   0.04391   0.05415
 Alpha virt. eigenvalues --    0.05928   0.06055   0.06330   0.07260   0.07626
 Alpha virt. eigenvalues --    0.08074   0.08758   0.09529   0.09813   0.11698

 Mulliken charges:
               1
     1  C   -1.064171
     2  C    0.900927
     3  S   -0.080443
     4  O   -1.373120
     5  B    1.209317
     6  S   -0.604196
     7  C   -0.118796
     8  H    0.248616
     9  H    0.144309
    10  H    0.151498
    11  C   -0.118847
    12  H    0.254537
    13  H    0.248606
    14  H    0.151507
    15  H    0.144276
    16  S   -0.723535
    17  H    0.261859
    18  H    0.367656
 Sum of Mulliken charges =  -0.00000

 Dipole moment (field-independent basis, Debye):
    X=             -3.3764    Y=             -2.0397    Z=             -0.0001  Tot=              3.9447

 Test job not archived.
 1\1\GINC-SE049\SP\RHF\Aug-CC-pVDZ\C4H9B1O1S3\OHZDE\09-Apr-2025\0\\#t h
 f aug-cc-pvdz iop(5/13=1,5/36=2,99/5=2) pseudo=read geom=check guess=(
 read,tcheck) scf=(maxcycle=1)\\title\\0,1\C,0,-2.614334,-0.540838,-0.0
 00165\C,0,-1.272231,0.185976,-0.000174\S,0,0.136012,-0.975388,-0.00032
 \O,0,-1.180751,1.386328,-0.000031\B,0,1.721881,-0.037951,-0.000045\S,0
 ,1.970548,1.746282,0.000284\C,0,-3.389607,-0.164878,-1.274841\H,0,-3.5
 58366,0.913196,-1.313201\H,0,-4.358717,-0.6694,-1.282283\H,0,-2.84652,
 -0.459754,-2.176077\C,0,-3.388797,-0.166128,1.275377\H,0,-2.423546,-1.

 Normal termination of Gaussian 16 at Wed Apr  9 00:51:31 2025.
