 Gaussian 16, Revision C.01,

 ----------------------------------------------------------------------
 #t hf aug-cc-pvdz symm=none int=(grid=ultrafine) guess=(read,tcheck) s
 table=opt
 ----------------------------------------------------------------------
 -----
 title
 -----
 Symbolic Z-matrix:
 Charge =  0 Multiplicity = 2

 SCF Done:  E(UHF) =  -478.259482310     A.U. after   19 cycles
 Normal termination of Gaussian 16 at Tue Apr  8 23:42:19 2025.
 Gaussian 16:  ES64L-G16RevC.01  3-Jul-2019

 ----------------------------------------------------------------------
 #t hf aug-cc-pvdz iop(5/13=1,5/36=2,99/5=2) pseudo=read geom=check gue
 ss=(read,tcheck) scf=(maxcycle=1)
 ----------------------------------------------------------------------
 -----
 title
 -----
 Structure from the checkpoint file:  "BDE49_nonexpt_1689_mol2.chk"
 Charge =  0 Multiplicity = 2

                         Standard orientation:
 ---------------------------------------------------------------------
 Center     Atomic      Atomic             Coordinates (Angstroms)
 Number     Number       Type             X           Y           Z
 ---------------------------------------------------------------------
      1          6           0       -0.542366    0.132987    0.006054
      2         14           0        1.365894   -0.048424   -0.089909
      3          8           0       -1.052409    1.220143    0.015166
      4          8           0       -1.318268   -0.989069    0.005331
      5          1           0       -0.763547   -1.777894    0.044741
      6          1           0        1.844427   -1.324503    0.504997
      7          1           0        2.016211    1.133834    0.508692
 ---------------------------------------------------------------------

 SCF Done:  E(UHF) =  -478.469526545     A.U. after    2 cycles

 The electronic state is 2-A.
 Alpha  occ. eigenvalues --  -69.57557 -20.60977 -20.55352 -11.39208  -6.24760
 Alpha  occ. eigenvalues --   -4.00742  -3.99821  -3.99789  -1.54832  -1.46701
 Alpha  occ. eigenvalues --   -0.87079  -0.81263  -0.68635  -0.66547  -0.63114
 Alpha  occ. eigenvalues --   -0.57445  -0.52565  -0.49473  -0.43583  -0.36685
 Alpha virt. eigenvalues --    0.02773   0.04034   0.05436   0.05647   0.07408
 Alpha virt. eigenvalues --    0.08148   0.09304   0.11028   0.12756   0.13449
 Alpha virt. eigenvalues --    0.15225   0.15378   0.16495   0.17437   0.20393

  Beta  occ. eigenvalues --  -69.56970 -20.61011 -20.54872 -11.39395  -6.23879
  Beta  occ. eigenvalues --   -3.99403  -3.99374  -3.98491  -1.54653  -1.45924
  Beta  occ. eigenvalues --   -0.86007  -0.79531  -0.67212  -0.65582  -0.62680
  Beta  occ. eigenvalues --   -0.56923  -0.51890  -0.47332  -0.42584
  Beta virt. eigenvalues --   -0.00296   0.02967   0.04237   0.05787   0.06771
  Beta virt. eigenvalues --    0.07685   0.08584   0.10141   0.12081   0.13260
  Beta virt. eigenvalues --    0.14799   0.16003   0.16964   0.17879   0.19337

 Mulliken charges and spin densities:
               1          2
     1  C    1.320842  -0.105041
     2  Si   0.703285   0.999328
     3  O   -1.028475   0.115517
     4  O   -1.121092  -0.000331
     5  H    0.425127  -0.005083
     6  H   -0.169886  -0.009544
     7  H   -0.129801   0.005153
 Sum of Mulliken charges =  -0.00000   1.00000

 Dipole moment (field-independent basis, Debye):
    X=              3.0510    Y=             -2.7896    Z=              0.1057  Tot=              4.1354
                          Isotropic Fermi Contact Couplings
        Atom                 a.u.       MegaHertz       Gauss      10(-4) cm-1
     1  C(13)             -0.01442     -16.21580      -5.78620      -5.40901
     2  Si(29)             0.58511    -520.00568    -185.55096    -173.45522
     3  O(17)              0.03605     -21.85138      -7.79712      -7.28884
     4  O(17)             -0.00532       3.22507       1.15078       1.07577
     5  H(1)               0.00008       0.36348       0.12970       0.12124
     6  H(1)              -0.00009      -0.40318      -0.14386      -0.13449
     7  H(1)               0.00004       0.16261       0.05802       0.05424
 --------------------------------------------------------

 Normal termination of Gaussian 16 at Tue Apr  8 23:42:21 2025.
