 Gaussian 16, Revision C.01,

 ----------------------------------------------------------------------
 #t hf aug-cc-pvdz symm=none int=(grid=ultrafine) guess=(read,tcheck) s
 table=(opt,rrhf)
 ----------------------------------------------------------------------
 -----
 title
 -----
 Symbolic Z-matrix:
 Charge =  0 Multiplicity = 1

 SCF Done:  E(RHF) =  -667.602109477     A.U. after   14 cycles
 Normal termination of Gaussian 16 at Tue Apr  8 22:47:20 2025.
 Gaussian 16:  ES64L-G16RevC.01  3-Jul-2019

 ----------------------------------------------------------------------
 #t hf aug-cc-pvdz iop(5/13=1,5/36=2,99/5=2) pseudo=read geom=check gue
 ss=(read,tcheck) scf=(maxcycle=1)
 ----------------------------------------------------------------------
 -----
 title
 -----
 Structure from the checkpoint file:  "BDE49_expt_1608_mol1.chk"
 Charge =  0 Multiplicity = 1

                         Standard orientation:
 ---------------------------------------------------------------------
 Center     Atomic      Atomic             Coordinates (Angstroms)
 Number     Number       Type             X           Y           Z
 ---------------------------------------------------------------------
      1          6           0       -1.061936   -0.508271   -0.562568
      2         16           0        0.579115   -1.123602   -0.036016
      3          6           0        1.512102    0.414391   -0.068901
      4          6           0        2.955233    0.255064    0.361280
      5          6           0       -1.911079    0.048213    0.581339
      6          1           0       -1.548483   -1.359336   -1.045299
      7          1           0       -0.872220    0.257796   -1.316437
      8          8           0        1.029323    1.468163   -0.399005
      9          1           0        3.238045   -0.786646    0.514760
     10          1           0        3.100619    0.808205    1.292918
     11          1           0        3.597611    0.705461   -0.398444
     12          6           0       -3.279252    0.535417    0.092179
     13          1           0       -1.369664    0.874406    1.049375
     14          1           0       -2.040189   -0.722838    1.347467
     15          1           0       -3.173395    1.330852   -0.651201
     16          1           0       -3.870680    0.932146    0.921299
     17          1           0       -3.852471   -0.276601   -0.366111
 ---------------------------------------------------------------------

 SCF Done:  E(RHF) =  -667.947530033     A.U. after    2 cycles

 The electronic state is 1-A.
 Alpha  occ. eigenvalues --  -93.96014 -20.54522 -11.37317 -11.26939 -11.25630
 Alpha  occ. eigenvalues --  -11.23657 -11.22850  -8.24223  -6.22029  -6.21853
 Alpha  occ. eigenvalues --   -6.21684  -1.48661  -1.10737  -1.05001  -1.00088
 Alpha  occ. eigenvalues --   -0.90410  -0.81669  -0.74309  -0.67453  -0.64620
 Alpha  occ. eigenvalues --   -0.62909  -0.62159  -0.59146  -0.57367  -0.56140
 Alpha  occ. eigenvalues --   -0.53826  -0.51986  -0.50216  -0.48654  -0.46187
 Alpha  occ. eigenvalues --   -0.40540  -0.37381
 Alpha virt. eigenvalues --    0.03566   0.03881   0.04089   0.04600   0.05671
 Alpha virt. eigenvalues --    0.05984   0.06240   0.07335   0.08410   0.08825
 Alpha virt. eigenvalues --    0.10255   0.11968   0.12826   0.12956   0.13393

 Mulliken charges:
               1
     1  C   -0.622991
     2  S    0.542931
     3  C    0.777868
     4  C   -0.471992
     5  C   -0.345712
     6  H    0.123651
     7  H    0.279277
     8  O   -1.293067
     9  H    0.185555
    10  H    0.252990
    11  H    0.226729
    12  C   -0.424245
    13  H    0.166878
    14  H    0.163519
    15  H    0.162922
    16  H    0.120450
    17  H    0.155237
 Sum of Mulliken charges =  -0.00000

 Dipole moment (field-independent basis, Debye):
    X=              0.1152    Y=             -0.9919    Z=              0.4645  Tot=              1.1013

 Test job not archived.
 1\1\GINC-SE095\SP\RHF\Aug-CC-pVDZ\C5H10O1S1\OHZDE\08-Apr-2025\0\\#t hf
  aug-cc-pvdz iop(5/13=1,5/36=2,99/5=2) pseudo=read geom=check guess=(r
 ead,tcheck) scf=(maxcycle=1)\\title\\0,1\C,0,-1.061936,-0.508271,-0.56
 2568\S,0,0.579115,-1.123602,-0.036016\C,0,1.512102,0.414391,-0.068901\
 C,0,2.955233,0.255064,0.36128\C,0,-1.911079,0.048213,0.581339\H,0,-1.5
 48483,-1.359336,-1.045299\H,0,-0.87222,0.257796,-1.316437\O,0,1.029323
 ,1.468163,-0.399005\H,0,3.238045,-0.786646,0.51476\H,0,3.100619,0.8082
 05,1.292918\H,0,3.597611,0.705461,-0.398444\C,0,-3.279252,0.535417,0.0

 Normal termination of Gaussian 16 at Tue Apr  8 22:47:27 2025.
