 Gaussian 16, Revision C.01,

 ----------------------------------------------------------------------
 #t hf aug-cc-pvdz symm=none int=(grid=ultrafine) guess=(read,tcheck) s
 table=(opt,rrhf)
 ----------------------------------------------------------------------
 -----
 title
 -----
 Symbolic Z-matrix:
 Charge =  0 Multiplicity = 1

 SCF Done:  E(RHF) =  -1138.09317691     A.U. after   14 cycles
 Normal termination of Gaussian 16 at Wed Apr  9 00:12:27 2025.
 Gaussian 16:  ES64L-G16RevC.01  3-Jul-2019

 ----------------------------------------------------------------------
 #t hf aug-cc-pvdz iop(5/13=1,5/36=2,99/5=2) pseudo=read geom=check gue
 ss=(read,tcheck) scf=(maxcycle=1)
 ----------------------------------------------------------------------
 -----
 title
 -----
 Structure from the checkpoint file:  "BDE49_nonexpt_2400_mol1.chk"
 Charge =  0 Multiplicity = 1

                         Standard orientation:
 ---------------------------------------------------------------------
 Center     Atomic      Atomic             Coordinates (Angstroms)
 Number     Number       Type             X           Y           Z
 ---------------------------------------------------------------------
      1         14           0       -0.516467   -1.051669    0.054180
      2         14           0        0.516469    1.051673    0.054183
      3          8           0        2.146343    0.902228   -0.546681
      4          1           0        0.597749    1.618539    1.411684
      5          1           0       -0.006368    2.016781   -0.927698
      6          7           0        2.914857   -0.122287   -0.009484
      7          8           0        2.339117   -0.865222    0.777439
      8          8           0        4.047777   -0.165671   -0.377784
      9          8           0       -2.146340   -0.902223   -0.546684
     10          1           0       -0.597748   -1.618538    1.411681
     11          1           0        0.006372   -2.016775   -0.927702
     12          7           0       -2.914856    0.122289   -0.009485
     13          8           0       -2.339124    0.865213    0.777454
     14          8           0       -4.047779    0.165666   -0.377778
 ---------------------------------------------------------------------

 SCF Done:  E(RHF) =  -1138.68374030     A.U. after    2 cycles

 The electronic state is 1-A.
 Alpha  occ. eigenvalues --  -69.60520 -69.60520 -20.65501 -20.65501 -20.64423
 Alpha  occ. eigenvalues --  -20.64422 -20.63346 -20.63345 -15.88336 -15.88327
 Alpha  occ. eigenvalues --   -6.27150  -6.27146  -4.02589  -4.02584  -4.02448
 Alpha  occ. eigenvalues --   -4.02410  -4.02399  -4.02346  -1.75613  -1.75556
 Alpha  occ. eigenvalues --   -1.57689  -1.57682  -1.52420  -1.52417  -0.99745
 Alpha  occ. eigenvalues --   -0.99224  -0.86379  -0.86063  -0.82486  -0.82417
 Alpha  occ. eigenvalues --   -0.81537  -0.81327  -0.78914  -0.70938  -0.63511
 Alpha  occ. eigenvalues --   -0.61426  -0.59912  -0.58420  -0.55508  -0.55483
 Alpha  occ. eigenvalues --   -0.53634  -0.52300  -0.52267  -0.51229  -0.50405
 Alpha  occ. eigenvalues --   -0.50259  -0.45107
 Alpha virt. eigenvalues --    0.03581   0.03673   0.03993   0.03995   0.04989
 Alpha virt. eigenvalues --    0.05523   0.06087   0.06658   0.07945   0.08733
 Alpha virt. eigenvalues --    0.09682   0.10368   0.10652   0.11432   0.12712

 Mulliken charges:
               1
     1  Si   0.955862
     2  Si   0.955859
     3  O   -1.459633
     4  H   -0.041281
     5  H   -0.050315
     6  N    2.789062
     7  O   -1.093122
     8  O   -1.100570
     9  O   -1.459635
    10  H   -0.041282
    11  H   -0.050315
    12  N    2.789066
    13  O   -1.093125
    14  O   -1.100570
 Sum of Mulliken charges =  -0.00000

 Dipole moment (field-independent basis, Debye):
    X=              0.0000    Y=              0.0000    Z=             -0.0540  Tot=              0.0540

 Test job not archived.
 1\1\GINC-SE071\SP\RHF\Aug-CC-pVDZ\H4N2O6Si2\OHZDE\09-Apr-2025\0\\#t hf
  aug-cc-pvdz iop(5/13=1,5/36=2,99/5=2) pseudo=read geom=check guess=(r
 ead,tcheck) scf=(maxcycle=1)\\title\\0,1\Si,0,0.516467,1.051669,0.0541
 8\Si,0,-0.516469,-1.051673,0.054183\O,0,-2.146343,-0.902228,-0.546681\
 H,0,-0.597749,-1.618539,1.411684\H,0,0.006368,-2.016781,-0.927698\N,0,
 -2.914857,0.122287,-0.009484\O,0,-2.339117,0.865222,0.777439\O,0,-4.04
 7777,0.165671,-0.377784\O,0,2.14634,0.902223,-0.546684\H,0,0.597748,1.
 618538,1.411681\H,0,-0.006372,2.016775,-0.927702\N,0,2.914856,-0.12228

 Normal termination of Gaussian 16 at Wed Apr  9 00:12:34 2025.
