 Gaussian 16, Revision C.01,

 ----------------------------------------------------------------------
 #t hf aug-cc-pvdz symm=none int=(grid=ultrafine) guess=(read,tcheck) s
 table=(opt,rrhf)
 ----------------------------------------------------------------------
 -----
 title
 -----
 Symbolic Z-matrix:
 Charge =  0 Multiplicity = 1

 SCF Done:  E(RHF) =  -673.098284491     A.U. after   12 cycles
 Normal termination of Gaussian 16 at Wed Apr  9 00:11:57 2025.
 Gaussian 16:  ES64L-G16RevC.01  3-Jul-2019

 ----------------------------------------------------------------------
 #t hf aug-cc-pvdz iop(5/13=1,5/36=2,99/5=2) pseudo=read geom=check gue
 ss=(read,tcheck) scf=(maxcycle=1)
 ----------------------------------------------------------------------
 -----
 title
 -----
 Structure from the checkpoint file:  "BDE49_nonexpt_2401_mol1.chk"
 Charge =  0 Multiplicity = 1

                         Standard orientation:
 ---------------------------------------------------------------------
 Center     Atomic      Atomic             Coordinates (Angstroms)
 Number     Number       Type             X           Y           Z
 ---------------------------------------------------------------------
      1         14           0        1.752370   -0.469226    0.000001
      2         14           0       -0.166507    0.902349   -0.000004
      3          1           0        2.951283    0.401214    0.000013
      4          1           0        1.754251   -1.317705   -1.212228
      5          1           0        1.754233   -1.317714    1.212223
      6          6           0       -1.672640   -0.183007   -0.000014
      7          1           0       -0.255408    1.746838   -1.209834
      8          1           0       -0.255429    1.746811    1.209845
      9          7           0       -2.587882   -0.889302    0.000016
 ---------------------------------------------------------------------

 SCF Done:  E(RHF) =  -673.253811306     A.U. after    2 cycles

 The electronic state is 1-A.
 Alpha  occ. eigenvalues --  -69.57531 -69.55122 -15.52756 -11.26690  -6.24608
 Alpha  occ. eigenvalues --   -6.22327  -4.00031  -3.99912  -3.99903  -3.97690
 Alpha  occ. eigenvalues --   -3.97674  -3.97670  -1.23554  -0.84358  -0.75301
 Alpha  occ. eigenvalues --   -0.64726  -0.58228  -0.55156  -0.52563  -0.51260
 Alpha  occ. eigenvalues --   -0.51118  -0.49338  -0.43884
 Alpha virt. eigenvalues --    0.03158   0.03264   0.04926   0.05040   0.06254
 Alpha virt. eigenvalues --    0.06993   0.07014   0.07926   0.08430   0.08823
 Alpha virt. eigenvalues --    0.08875   0.10394   0.11129   0.11658   0.12882

 Mulliken charges:
               1
     1  Si   0.370732
     2  Si   0.833356
     3  H   -0.113611
     4  H   -0.117736
     5  H   -0.117734
     6  C   -1.325342
     7  H   -0.154403
     8  H   -0.154404
     9  N    0.779143
 Sum of Mulliken charges =  -0.00000

 Dipole moment (field-independent basis, Debye):
    X=              4.0085    Y=              2.2848    Z=             -0.0001  Tot=              4.6139

 Test job not archived.
 1\1\GINC-SE097\SP\RHF\Aug-CC-pVDZ\C1H5N1Si2\OHZDE\09-Apr-2025\0\\#t hf
  aug-cc-pvdz iop(5/13=1,5/36=2,99/5=2) pseudo=read geom=check guess=(r
 ead,tcheck) scf=(maxcycle=1)\\title\\0,1\Si,0,1.75237,-0.469227,0.0000
 01\Si,0,-0.166507,0.902349,-0.000004\H,0,2.951283,0.401213,0.000013\H,
 0,1.754251,-1.317706,-1.212228\H,0,1.754233,-1.317715,1.212223\C,0,-1.
 67264,-0.183007,-0.000014\H,0,-0.255408,1.746838,-1.209834\H,0,-0.2554
 29,1.746811,1.209845\N,0,-2.587882,-0.889302,0.000016\\Version=ES64L-G
 16RevC.01\State=1-A\HF=-673.2538113\RMSD=1.118e-02\Dipole=1.5770628,0.

 Normal termination of Gaussian 16 at Wed Apr  9 00:11:59 2025.
