 Gaussian 16, Revision C.01,

 ----------------------------------------------------------------------
 #t hf aug-cc-pvdz symm=none int=(grid=ultrafine) guess=(read,tcheck) s
 table=opt
 ----------------------------------------------------------------------
 -----
 title
 -----
 Symbolic Z-matrix:
 Charge =  0 Multiplicity = 2

 SCF Done:  E(UHF) =  -1387.05739720     A.U. after   19 cycles
 Normal termination of Gaussian 16 at Tue Apr  8 23:24:07 2025.
 Gaussian 16:  ES64L-G16RevC.01  3-Jul-2019

 ----------------------------------------------------------------------
 #t hf aug-cc-pvdz iop(5/13=1,5/36=2,99/5=2) pseudo=read geom=check gue
 ss=(read,tcheck) scf=(maxcycle=1)
 ----------------------------------------------------------------------
 -----
 title
 -----
 Structure from the checkpoint file:  "BDE49_nonexpt_1252_mol2.chk"
 Charge =  0 Multiplicity = 2

                         Standard orientation:
 ---------------------------------------------------------------------
 Center     Atomic      Atomic             Coordinates (Angstroms)
 Number     Number       Type             X           Y           Z
 ---------------------------------------------------------------------
      1         16           0        1.034099   -0.013106    0.158175
      2          8           0        2.004732   -1.052272   -0.152019
      3         15           0       -0.880778   -1.074788   -0.273881
      4          6           0        1.190079    1.291913   -1.071312
      5          1           0        2.155308    1.763362   -0.876356
      6          1           0        1.173876    0.844919   -2.064110
      7         17           0       -2.244292    0.439302    0.081108
      8          8           0        0.991322    0.614335    1.464427
      9          1           0        0.380964    2.007130   -0.932343
 ---------------------------------------------------------------------

 SCF Done:  E(UHF) =  -1387.42590060     A.U. after    2 cycles

 The electronic state is 2-A.
 Alpha  occ. eigenvalues -- -105.60665 -94.20110 -84.38902 -20.55176 -20.55140
 Alpha  occ. eigenvalues --  -11.30352 -10.65541  -8.45575  -7.82378  -7.82227
 Alpha  occ. eigenvalues --   -7.82035  -6.85677  -6.43658  -6.43405  -6.43338
 Alpha  occ. eigenvalues --   -4.37815  -4.37160  -4.36686  -1.56456  -1.44837
 Alpha  occ. eigenvalues --   -1.12031  -1.07250  -0.92612  -0.80792  -0.69037
 Alpha  occ. eigenvalues --   -0.68355  -0.67451  -0.62162  -0.61536  -0.55008
 Alpha  occ. eigenvalues --   -0.53970  -0.51877  -0.50073  -0.48981  -0.47390
 Alpha  occ. eigenvalues --   -0.39314  -0.37665
 Alpha virt. eigenvalues --    0.03074   0.04715   0.05268   0.05461   0.06739
 Alpha virt. eigenvalues --    0.08545   0.09772   0.10908   0.12071   0.12689
 Alpha virt. eigenvalues --    0.13213   0.13712   0.14800   0.15251   0.15639

  Beta  occ. eigenvalues -- -105.60577 -94.20145 -84.38184 -20.55180 -20.55157
  Beta  occ. eigenvalues --  -11.30352 -10.65447  -8.45619  -7.82409  -7.81985
  Beta  occ. eigenvalues --   -7.81796  -6.84771  -6.43676  -6.43487  -6.43406
  Beta  occ. eigenvalues --   -4.36609  -4.36302  -4.34287  -1.56469  -1.44854
  Beta  occ. eigenvalues --   -1.10634  -1.07178  -0.90641  -0.77611  -0.68527
  Beta  occ. eigenvalues --   -0.67453  -0.67419  -0.62150  -0.61256  -0.53606
  Beta  occ. eigenvalues --   -0.51734  -0.50647  -0.49976  -0.48374  -0.47101
  Beta  occ. eigenvalues --   -0.38727
  Beta virt. eigenvalues --   -0.00222   0.03238   0.04937   0.05383   0.05862
  Beta virt. eigenvalues --    0.07259   0.08904   0.10880   0.11325   0.12361
  Beta virt. eigenvalues --    0.12968   0.13526   0.14718   0.15308   0.15672

 Mulliken charges and spin densities:
               1          2
     1  S    2.812210  -0.051154
     2  O   -1.481852  -0.001501
     3  P    0.883895   1.073609
     4  C   -0.924960  -0.019019
     5  H    0.244897   0.000316
     6  H    0.207363  -0.002822
     7  Cl  -0.481609   0.005032
     8  O   -1.477608  -0.004895
     9  H    0.217663   0.000435
 Sum of Mulliken charges =  -0.00000   1.00000

 Dipole moment (field-independent basis, Debye):
    X=             -1.9911    Y=              0.7683    Z=             -3.5284  Tot=              4.1236
                          Isotropic Fermi Contact Couplings
        Atom                 a.u.       MegaHertz       Gauss      10(-4) cm-1
     1  S(33)             -0.03396     -11.66531      -4.16247      -3.89113
     2  O(17)             -0.00273       1.65196       0.58946       0.55103
     3  P(31)              0.21066     381.53233     136.14022     127.26549
     4  C(13)              0.00159       1.78490       0.63690       0.59538
     5  H(1)               0.00124       5.53096       1.97358       1.84493
     6  H(1)               0.00041       1.83926       0.65629       0.61351
     7  Cl(35)             0.04635      20.32263       7.25162       6.77890
     8  O(17)              0.00285      -1.72592      -0.61585      -0.57570

 Normal termination of Gaussian 16 at Tue Apr  8 23:24:11 2025.
