 Gaussian 16, Revision C.01,

 ----------------------------------------------------------------------
 #t hf aug-cc-pvdz symm=none int=(grid=ultrafine) guess=(read,tcheck) s
 table=(opt,rrhf)
 ----------------------------------------------------------------------
 -----
 title
 -----
 Symbolic Z-matrix:
 Charge =  0 Multiplicity = 1

 SCF Done:  E(RHF) =  -324.810354389     A.U. after   15 cycles
 Normal termination of Gaussian 16 at Tue Apr  8 23:08:33 2025.
 Gaussian 16:  ES64L-G16RevC.01  3-Jul-2019

 ----------------------------------------------------------------------
 #t hf aug-cc-pvdz iop(5/13=1,5/36=2,99/5=2) pseudo=read geom=check gue
 ss=(read,tcheck) scf=(maxcycle=1)
 ----------------------------------------------------------------------
 -----
 title
 -----
 Structure from the checkpoint file:  "BDE49_expt_465_mol1.chk"
 Charge =  0 Multiplicity = 1

                         Standard orientation:
 ---------------------------------------------------------------------
 Center     Atomic      Atomic             Coordinates (Angstroms)
 Number     Number       Type             X           Y           Z
 ---------------------------------------------------------------------
      1          6           0       -1.978725    0.570924   -0.002564
      2          6           0       -0.823483    1.344182   -0.005368
      3          6           0        0.442935    0.744087   -0.001968
      4          6           0       -1.890671   -0.818265    0.008641
      5          6           0       -0.631955   -1.415955    0.011304
      6          6           0        0.542537   -0.664103    0.002652
      7          1           0       -2.947597    1.058166   -0.005646
      8          1           0       -0.895759    2.427760   -0.013204
      9          7           0        1.598451    1.530598   -0.071517
     10          1           0        1.464330    2.496602    0.190109
     11          1           0        2.418402    1.138134    0.367464
     12          1           0       -0.553702   -2.498862    0.016097
     13          1           0       -2.786009   -1.428519    0.013228
     14          6           0        1.896295   -1.327344   -0.014853
     15          1           0        1.799427   -2.412764   -0.068236
     16          1           0        2.478594   -1.097946    0.887442
     17          1           0        2.491555   -0.997913   -0.873696
 ---------------------------------------------------------------------

 SCF Done:  E(RHF) =  -325.152431806     A.U. after    2 cycles

 The electronic state is 1-A.
 Alpha  occ. eigenvalues --  -15.50768 -11.27763 -11.23685 -11.23615 -11.23547
 Alpha  occ. eigenvalues --  -11.23507 -11.22882 -11.22441  -1.22350  -1.12843
 Alpha  occ. eigenvalues --   -1.04260  -0.99093  -0.93318  -0.83514  -0.81007
 Alpha  occ. eigenvalues --   -0.71951  -0.71744  -0.65845  -0.62410  -0.60483
 Alpha  occ. eigenvalues --   -0.58960  -0.57850  -0.55245  -0.53561  -0.50718
 Alpha  occ. eigenvalues --   -0.49352  -0.46745  -0.33610  -0.30552
 Alpha virt. eigenvalues --    0.03108   0.03736   0.03965   0.04918   0.05070
 Alpha virt. eigenvalues --    0.05688   0.07622   0.07981   0.09263   0.10867
 Alpha virt. eigenvalues --    0.11420   0.12101   0.13009   0.13081   0.13798

 Mulliken charges:
               1
     1  C   -0.106340
     2  C    0.700600
     3  C   -1.829888
     4  C   -0.030489
     5  C    0.663820
     6  C    1.134718
     7  H   -0.226069
     8  H   -0.320813
     9  N    0.804979
    10  H   -0.003478
    11  H    0.060396
    12  H   -0.279055
    13  H   -0.248290
    14  C   -0.823553
    15  H   -0.059821
    16  H    0.271030
    17  H    0.292252
 Sum of Mulliken charges =  -0.00000

 Dipole moment (field-independent basis, Debye):
    X=              0.9336    Y=              0.3830    Z=              0.9774  Tot=              1.4048

 Test job not archived.
 1\1\GINC-SE058\SP\RHF\Aug-CC-pVDZ\C7H9N1\OHZDE\08-Apr-2025\0\\#t hf au
 g-cc-pvdz iop(5/13=1,5/36=2,99/5=2) pseudo=read geom=check guess=(read
 ,tcheck) scf=(maxcycle=1)\\title\\0,1\C,0,-1.978725,0.570924,-0.002564
 \C,0,-0.823483,1.344182,-0.005368\C,0,0.442935,0.744087,-0.001968\C,0,
 -1.890671,-0.818265,0.008641\C,0,-0.631955,-1.415955,0.011304\C,0,0.54
 2537,-0.664103,0.002652\H,0,-2.947597,1.058166,-0.005646\H,0,-0.895759
 ,2.42776,-0.013204\N,0,1.598451,1.530598,-0.071517\H,0,1.46433,2.49660
 2,0.190109\H,0,2.418402,1.138134,0.367464\H,0,-0.553702,-2.498862,0.01

 Normal termination of Gaussian 16 at Tue Apr  8 23:08:40 2025.
