 Gaussian 16, Revision C.01,

 ----------------------------------------------------------------------
 #t hf aug-cc-pvdz symm=none int=(grid=ultrafine) guess=(read,tcheck) s
 table=opt
 ----------------------------------------------------------------------
 -----
 title
 -----
 Symbolic Z-matrix:
 Charge =  0 Multiplicity = 2

 SCF Done:  E(UHF) =  -616.732622478     A.U. after   19 cycles
 Normal termination of Gaussian 16 at Wed Apr  9 00:18:45 2025.
 Gaussian 16:  ES64L-G16RevC.01  3-Jul-2019

 ----------------------------------------------------------------------
 #t hf aug-cc-pvdz iop(5/13=1,5/36=2,99/5=2) pseudo=read geom=check gue
 ss=(read,tcheck) scf=(maxcycle=1)
 ----------------------------------------------------------------------
 -----
 title
 -----
 Structure from the checkpoint file:  "BDE49_nonexpt_257_mol2.chk"
 Charge =  0 Multiplicity = 2

                         Standard orientation:
 ---------------------------------------------------------------------
 Center     Atomic      Atomic             Coordinates (Angstroms)
 Number     Number       Type             X           Y           Z
 ---------------------------------------------------------------------
      1          5           0        0.681666    0.148021    0.000053
      2         17           0        2.361133   -0.144612   -0.000068
      3          7           0       -0.552257    0.372440    0.000087
      4          6           0       -1.867769    0.579806    0.000058
      5          6           0       -2.833120   -0.561596    0.000001
      6          1           0       -2.697460   -1.203009    0.880736
      7          1           0       -2.697194   -1.203157   -0.880582
      8          1           0       -3.862472   -0.198383   -0.000185
      9          1           0       -2.219326    1.606497   -0.000033
 ---------------------------------------------------------------------

 SCF Done:  E(UHF) =  -616.966343565     A.U. after    2 cycles

 The electronic state is 2-A.
 Alpha  occ. eigenvalues -- -105.60223 -15.49182 -11.27434 -11.23206 -10.65173
 Alpha  occ. eigenvalues --   -7.82049  -7.81803  -7.81756  -7.66550  -1.19719
 Alpha  occ. eigenvalues --   -1.10526  -1.01147  -0.88653  -0.71107  -0.64722
 Alpha  occ. eigenvalues --   -0.61560  -0.60772  -0.55001  -0.54523  -0.53131
 Alpha  occ. eigenvalues --   -0.49024  -0.42657  -0.29476
 Alpha virt. eigenvalues --    0.03532   0.04627   0.04860   0.05545   0.05834
 Alpha virt. eigenvalues --    0.06435   0.06984   0.09529   0.12477   0.13033
 Alpha virt. eigenvalues --    0.13823   0.14728   0.15411   0.15816   0.16335

  Beta  occ. eigenvalues -- -105.60215 -15.50461 -11.25087 -11.23538 -10.65164
  Beta  occ. eigenvalues --   -7.82158  -7.81736  -7.81670  -7.65782  -1.20301
  Beta  occ. eigenvalues --   -1.10330  -0.99384  -0.86455  -0.69144  -0.64205
  Beta  occ. eigenvalues --   -0.61149  -0.57298  -0.54452  -0.53843  -0.52713
  Beta  occ. eigenvalues --   -0.49075  -0.44189
  Beta virt. eigenvalues --    0.03616   0.04671   0.04897   0.05518   0.05860
  Beta virt. eigenvalues --    0.06443   0.06992   0.08923   0.09644   0.13116
  Beta virt. eigenvalues --    0.13878   0.14023   0.14969   0.15657   0.16030

 Mulliken charges and spin densities:
               1          2
     1  B   -0.167841   0.417059
     2  Cl  -0.180606  -0.000576
     3  N    0.989747  -0.353359
     4  C   -0.751322   1.214017
     5  C   -0.349471  -0.235568
     6  H    0.200756   0.028612
     7  H    0.200720   0.028609
     8  H    0.124400   0.005484
     9  H   -0.066383  -0.104277
 Sum of Mulliken charges =  -0.00000   1.00000

 Dipole moment (field-independent basis, Debye):
    X=             -0.0430    Y=             -0.1664    Z=             -0.0001  Tot=              0.1719
                          Isotropic Fermi Contact Couplings
        Atom                 a.u.       MegaHertz       Gauss      10(-4) cm-1
     1  B(11)              0.05271      75.59833      26.97536      25.21689
     2  Cl(35)             0.00703       3.08153       1.09956       1.02789
     3  N(14)             -0.21536     -69.58414     -24.82935     -23.21077
     4  C(13)              0.19995     224.78047      80.20726      74.97869
     5  C(13)             -0.05874     -66.03951     -23.56454     -22.02841
     6  H(1)               0.01717      76.75901      27.38952      25.60405
     7  H(1)               0.01717      76.74388      27.38413      25.59900
     8  H(1)               0.00175       7.81026       2.78690       2.60522

 1\1\GINC-SE074\SP\UHF\Aug-CC-pVDZ\C2H4B1Cl1N1(2)\OHZDE\09-Apr-2025\0\\
 #t hf aug-cc-pvdz iop(5/13=1,5/36=2,99/5=2) pseudo=read geom=check gue
 ss=(read,tcheck) scf=(maxcycle=1)\\title\\0,2\B,0,0.681666,0.148021,0.
 000053\Cl,0,2.361133,-0.144612,-0.000068\N,0,-0.552257,0.37244,0.00008
 7\C,0,-1.867769,0.579806,0.000058\C,0,-2.83312,-0.561596,0.000001\H,0,
 -2.69746,-1.203009,0.880736\H,0,-2.697194,-1.203157,-0.880582\H,0,-3.8
 62472,-0.198383,-0.000185\H,0,-2.219326,1.606497,-0.000033\\Version=ES
 64L-G16RevC.01\State=2-A\HF=-616.9663436\S2=0.811093\S2-1=0.\S2A=0.752

 Normal termination of Gaussian 16 at Wed Apr  9 00:18:48 2025.
