 Gaussian 16, Revision C.01,

 ----------------------------------------------------------------------
 #t hf aug-cc-pvdz symm=none int=(grid=ultrafine) guess=(read,tcheck) s
 table=(opt,rrhf)
 ----------------------------------------------------------------------
 -----
 title
 -----
 Symbolic Z-matrix:
 Charge =  0 Multiplicity = 1

 SCF Done:  E(RHF) =  -1216.92431810     A.U. after   15 cycles
 Normal termination of Gaussian 16 at Wed Apr  9 00:28:12 2025.
 Gaussian 16:  ES64L-G16RevC.01  3-Jul-2019

 ----------------------------------------------------------------------
 #t hf aug-cc-pvdz iop(5/13=1,5/36=2,99/5=2) pseudo=read geom=check gue
 ss=(read,tcheck) scf=(maxcycle=1)
 ----------------------------------------------------------------------
 -----
 title
 -----
 Structure from the checkpoint file:  "BDE49_nonexpt_2717_mol1.chk"
 Charge =  0 Multiplicity = 1

                         Standard orientation:
 ---------------------------------------------------------------------
 Center     Atomic      Atomic             Coordinates (Angstroms)
 Number     Number       Type             X           Y           Z
 ---------------------------------------------------------------------
      1          6           0       -1.897561    0.218472   -0.133468
      2          8           0       -1.255079    1.076375   -0.660843
      3         16           0       -1.310155   -1.520554    0.044525
      4         16           0        0.573080   -1.417042   -0.800174
      5          6           0        1.534712   -0.564916    0.511317
      6          8           0        1.050133   -0.176708    1.532990
      7          6           0       -3.259169    0.404891    0.512870
      8          6           0        2.993333   -0.398558    0.120049
      9          6           0        3.486130    1.040247    0.352374
     10          1           0        3.147785   -0.703960   -0.919562
     11          1           0        3.556155   -1.097443    0.749559
     12          6           0        2.847921    2.058422   -0.596898
     13          1           0        4.574380    1.051260    0.236778
     14          1           0        3.273278    1.309810    1.390176
     15          1           0        1.759670    2.075475   -0.494803
     16          1           0        3.080346    1.826383   -1.640842
     17          1           0        3.217817    3.065692   -0.390111
     18          6           0       -3.991944    1.645524    0.000973
     19          1           0       -3.072238    0.481392    1.590896
     20          1           0       -3.853584   -0.503252    0.372032
     21          1           0       -3.381795    2.538641    0.139887
     22          1           0       -4.932387    1.777973    0.539989
     23          1           0       -4.217187    1.557742   -1.064078
 ---------------------------------------------------------------------

 SCF Done:  E(RHF) =  -1217.47783652     A.U. after    2 cycles

 The electronic state is 1-A.
 Alpha  occ. eigenvalues --  -93.99121 -93.98989 -20.55970 -20.55721 -11.38184
 Alpha  occ. eigenvalues --  -11.38003 -11.26695 -11.26245 -11.24383 -11.24109
 Alpha  occ. eigenvalues --  -11.22563  -8.27140  -8.27018  -6.24932  -6.24808
 Alpha  occ. eigenvalues --   -6.24702  -6.24589  -6.24498  -6.24381  -1.50310
 Alpha  occ. eigenvalues --   -1.49977  -1.12280  -1.09190  -1.07213  -0.99524
 Alpha  occ. eigenvalues --   -0.95021  -0.89016  -0.83464  -0.75948  -0.74004
 Alpha  occ. eigenvalues --   -0.68254  -0.66935  -0.66078  -0.65277  -0.63945
 Alpha  occ. eigenvalues --   -0.61501  -0.60104  -0.57036  -0.56406  -0.55786
 Alpha  occ. eigenvalues --   -0.54739  -0.53412  -0.51188  -0.51016  -0.49597
 Alpha  occ. eigenvalues --   -0.49430  -0.47885  -0.43022  -0.42286  -0.39066
 Alpha  occ. eigenvalues --   -0.37560
 Alpha virt. eigenvalues --    0.03371   0.03578   0.04106   0.04278   0.04868
 Alpha virt. eigenvalues --    0.05130   0.05453   0.06771   0.07099   0.07378
 Alpha virt. eigenvalues --    0.08121   0.08665   0.09634   0.10217   0.11048

 Mulliken charges:
               1
     1  C    1.041954
     2  O   -1.255923
     3  S    0.065104
     4  S    0.035754
     5  C    1.275912
     6  O   -1.312930
     7  C   -0.606092
     8  C   -0.518495
     9  C   -0.308550
    10  H    0.207763
    11  H    0.281048
    12  C   -0.299687
    13  H    0.129434
    14  H    0.140254
    15  H    0.137094
    16  H    0.146746
    17  H    0.113305
    18  C   -0.321926
    19  H    0.312400
    20  H    0.246349
    21  H    0.188869
    22  H    0.138838
    23  H    0.162781
 Sum of Mulliken charges =  -0.00000

 Dipole moment (field-independent basis, Debye):
    X=             -0.0710    Y=              0.0277    Z=             -0.0060  Tot=              0.0765

 Test job not archived.
 1\1\GINC-SE339\SP\RHF\Aug-CC-pVDZ\C7H12O2S2\OHZDE\09-Apr-2025\0\\#t hf
  aug-cc-pvdz iop(5/13=1,5/36=2,99/5=2) pseudo=read geom=check guess=(r
 ead,tcheck) scf=(maxcycle=1)\\title\\0,1\C,0,-1.897561,0.218472,-0.133
 468\O,0,-1.255079,1.076375,-0.660843\S,0,-1.310155,-1.520554,0.044525\
 S,0,0.57308,-1.417042,-0.800174\C,0,1.534712,-0.564916,0.511317\O,0,1.
 050133,-0.176708,1.53299\C,0,-3.259169,0.404891,0.51287\C,0,2.993333,-
 0.398558,0.120049\C,0,3.48613,1.040247,0.352374\H,0,3.147785,-0.70396,
 -0.919562\H,0,3.556155,-1.097443,0.749559\C,0,2.847921,2.058422,-0.596

 Normal termination of Gaussian 16 at Wed Apr  9 00:28:28 2025.
