 Gaussian 16, Revision C.01,

 ----------------------------------------------------------------------
 #t hf aug-cc-pvdz symm=none int=(grid=ultrafine) guess=(read,tcheck) s
 table=(opt,rrhf)
 ----------------------------------------------------------------------
 -----
 title
 -----
 Symbolic Z-matrix:
 Charge =  0 Multiplicity = 1

 SCF Done:  E(RHF) =  -334.050022177     A.U. after   15 cycles

 1\1\GINC-SE016\Stability\RHF\Aug-CC-pVDZ\C8H11B1\OHZDE\09-Apr-2025\0\\
 #t hf aug-cc-pvdz symm=none int=(grid=ultrafine) guess=(read,tcheck) s
 table=(opt,rrhf)\\title\\0,1\C,0,0.248687,-0.17474,-0.125238\C,0,-0.26
 4578,1.09305,0.191879\C,0,-1.638584,1.313677,0.250654\C,0,-2.528711,0.
 270383,0.010975\C,0,-2.035739,-1.000307,-0.284177\C,0,-0.664683,-1.220
 267,-0.343275\B,0,1.83958,-0.728658,1.369935\H,0,-2.012759,2.30393,0.4
 85481\H,0,-3.597896,0.443899,0.055462\H,0,-2.721023,-1.819684,-0.47056
 6\H,0,-0.286896,-2.210744,-0.574217\H,0,0.413471,1.916256,0.380515\C,0

 Normal termination of Gaussian 16 at Wed Apr  9 00:31:39 2025.
 Gaussian 16:  ES64L-G16RevC.01  3-Jul-2019

 ----------------------------------------------------------------------
 #t hf aug-cc-pvdz iop(5/13=1,5/36=2,99/5=2) pseudo=read geom=check gue
 ss=(read,tcheck) scf=(maxcycle=1)
 ----------------------------------------------------------------------
 -----
 title
 -----
 Structure from the checkpoint file:  "BDE49_nonexpt_346_mol1.chk"
 Charge =  0 Multiplicity = 1

                         Standard orientation:
 ---------------------------------------------------------------------
 Center     Atomic      Atomic             Coordinates (Angstroms)
 Number     Number       Type             X           Y           Z
 ---------------------------------------------------------------------
      1          6           0        0.248687   -0.174740   -0.125238
      2          6           0       -0.264578    1.093050    0.191879
      3          6           0       -1.638584    1.313677    0.250654
      4          6           0       -2.528711    0.270383    0.010975
      5          6           0       -2.035739   -1.000307   -0.284177
      6          6           0       -0.664683   -1.220267   -0.343275
      7          5           0        1.839580   -0.728658    1.369935
      8          1           0       -2.012759    2.303930    0.485481
      9          1           0       -3.597896    0.443899    0.055462
     10          1           0       -2.721023   -1.819684   -0.470566
     11          1           0       -0.286896   -2.210744   -0.574217
     12          1           0        0.413471    1.916256    0.380515
     13          6           0        1.756004   -0.451591   -0.168728
     14          6           0        2.612807    0.684809   -0.738937
     15          1           0        1.899654   -1.358176   -0.762687
     16          1           0        2.576064    1.580684   -0.114601
     17          1           0        2.297419    0.960666   -1.750130
     18          1           0        3.660244    0.374619   -0.787719
     19          1           0        2.052502    0.174896    2.121215
     20          1           0        1.610100   -1.813144    1.808655
 ---------------------------------------------------------------------

 SCF Done:  E(RHF) =  -334.403559604     A.U. after    2 cycles

 The electronic state is 1-A.
 Alpha  occ. eigenvalues --  -11.25733 -11.24611 -11.24599 -11.24524 -11.24494
 Alpha  occ. eigenvalues --  -11.24476 -11.22784 -11.22096  -7.58894  -1.16256
 Alpha  occ. eigenvalues --   -1.06951  -1.01973  -0.98578  -0.88236  -0.83749
 Alpha  occ. eigenvalues --   -0.80018  -0.71063  -0.68963  -0.65518  -0.63895
 Alpha  occ. eigenvalues --   -0.60678  -0.59598  -0.57864  -0.55138  -0.52959
 Alpha  occ. eigenvalues --   -0.52258  -0.50129  -0.49450  -0.46233  -0.44701
 Alpha  occ. eigenvalues --   -0.34890  -0.33589
 Alpha virt. eigenvalues --    0.03011   0.03269   0.03423   0.04313   0.04621
 Alpha virt. eigenvalues --    0.04870   0.05957   0.06393   0.07137   0.07512
 Alpha virt. eigenvalues --    0.08044   0.08405   0.10140   0.10509   0.11182

 Mulliken charges:
               1
     1  C    1.028007
     2  C    0.286048
     3  C   -0.056770
     4  C    0.112391
     5  C    0.179235
     6  C   -0.056945
     7  B   -0.631241
     8  H   -0.246003
     9  H   -0.219191
    10  H   -0.230445
    11  H   -0.352331
    12  H   -0.358688
    13  C   -0.258430
    14  C   -0.407581
    15  H    0.050089
    16  H    0.183343
    17  H    0.179421
    18  H    0.088155
    19  H    0.356060
    20  H    0.354877
 Sum of Mulliken charges =  -0.00000

 Dipole moment (field-independent basis, Debye):
    X=             -0.2548    Y=              0.1024    Z=             -0.6585  Tot=              0.7135

 Test job not archived.
 1\1\GINC-SE016\SP\RHF\Aug-CC-pVDZ\C8H11B1\OHZDE\09-Apr-2025\0\\#t hf a
 ug-cc-pvdz iop(5/13=1,5/36=2,99/5=2) pseudo=read geom=check guess=(rea
 d,tcheck) scf=(maxcycle=1)\\title\\0,1\C,0,0.248687,-0.17474,-0.125238
 \C,0,-0.264578,1.09305,0.191879\C,0,-1.638584,1.313677,0.250654\C,0,-2
 .528711,0.270383,0.010975\C,0,-2.035739,-1.000307,-0.284177\C,0,-0.664
 683,-1.220267,-0.343275\B,0,1.83958,-0.728658,1.369935\H,0,-2.012759,2
 .30393,0.485481\H,0,-3.597896,0.443899,0.055462\H,0,-2.721023,-1.81968
 4,-0.470566\H,0,-0.286896,-2.210744,-0.574217\H,0,0.413471,1.916256,0.

 Normal termination of Gaussian 16 at Wed Apr  9 00:32:19 2025.
