 Gaussian 16, Revision C.01,

 ----------------------------------------------------------------------
 #t hf aug-cc-pvdz symm=none int=(grid=ultrafine) guess=(read,tcheck) s
 table=(opt,rrhf)
 ----------------------------------------------------------------------
 -----
 title
 -----
 Symbolic Z-matrix:
 Charge =  0 Multiplicity = 1

 SCF Done:  E(RHF) =  -498.011154187     A.U. after   14 cycles
 Normal termination of Gaussian 16 at Tue Apr  8 23:58:27 2025.
 Gaussian 16:  ES64L-G16RevC.01  3-Jul-2019

 ----------------------------------------------------------------------
 #t hf aug-cc-pvdz iop(5/13=1,5/36=2,99/5=2) pseudo=read geom=check gue
 ss=(read,tcheck) scf=(maxcycle=1)
 ----------------------------------------------------------------------
 -----
 title
 -----
 Structure from the checkpoint file:  "BDE49_nonexpt_2065_mol1.chk"
 Charge =  0 Multiplicity = 1

                         Standard orientation:
 ---------------------------------------------------------------------
 Center     Atomic      Atomic             Coordinates (Angstroms)
 Number     Number       Type             X           Y           Z
 ---------------------------------------------------------------------
      1         14           0       -1.778512   -0.268191   -0.000001
      2          6           0        0.055459    0.154879   -0.000000
      3          7           0        0.829698   -0.866684   -0.000000
      4          8           0        2.189238   -0.498201    0.000001
      5          1           0        2.632441   -1.352799   -0.000000
      6          6           0        0.554501    1.579279    0.000002
      7          1           0       -0.268107    2.296027    0.000002
      8          1           0        1.181219    1.759439   -0.878120
      9          1           0        1.181218    1.759438    0.878125
     10          1           0       -1.974408   -1.730791   -0.000004
     11          1           0       -2.417370    0.335409   -1.195170
     12          1           0       -2.417371    0.335404    1.195170
 ---------------------------------------------------------------------

 SCF Done:  E(RHF) =  -498.257409185     A.U. after    2 cycles

 The electronic state is 1-A.
 Alpha  occ. eigenvalues --  -69.53629 -20.58610 -15.56993 -11.27384 -11.24509
 Alpha  occ. eigenvalues --   -6.20751  -3.96129  -3.96105  -3.96098  -1.49888
 Alpha  occ. eigenvalues --   -1.18384  -0.99148  -0.81632  -0.72935  -0.70458
 Alpha  occ. eigenvalues --   -0.64559  -0.62353  -0.57790  -0.55820  -0.52183
 Alpha  occ. eigenvalues --   -0.49815  -0.49159  -0.44522  -0.40787
 Alpha virt. eigenvalues --    0.03513   0.04191   0.04892   0.05384   0.06118
 Alpha virt. eigenvalues --    0.06624   0.06799   0.07841   0.09054   0.10606
 Alpha virt. eigenvalues --    0.10657   0.13451   0.14078   0.14417   0.16096

 Mulliken charges:
               1
     1  Si   0.878278
     2  C   -1.139349
     3  N    1.233560
     4  O   -1.109941
     5  H    0.304580
     6  C   -0.262502
     7  H    0.090001
     8  H    0.258384
     9  H    0.258384
    10  H   -0.146893
    11  H   -0.182251
    12  H   -0.182251
 Sum of Mulliken charges =  -0.00000

 Dipole moment (field-independent basis, Debye):
    X=             -0.0980    Y=              0.9855    Z=              0.0000  Tot=              0.9904

 Test job not archived.
 1\1\GINC-SE335\SP\RHF\Aug-CC-pVDZ\C2H7N1O1Si1\OHZDE\08-Apr-2025\0\\#t
 hf aug-cc-pvdz iop(5/13=1,5/36=2,99/5=2) pseudo=read geom=check guess=
 (read,tcheck) scf=(maxcycle=1)\\title\\0,1\Si,0,-1.778512,-0.268191,-0
 .000001\C,0,0.055459,0.154879,0.\N,0,0.829698,-0.866684,0.\O,0,2.18923
 8,-0.498201,0.000001\H,0,2.632441,-1.352799,0.\C,0,0.554501,1.579279,0
 .000002\H,0,-0.268107,2.296027,0.000002\H,0,1.181219,1.759439,-0.87812
 \H,0,1.181218,1.759438,0.878125\H,0,-1.974408,-1.730791,-0.000004\H,0,
 -2.41737,0.335409,-1.19517\H,0,-2.417371,0.335404,1.19517\\Version=ES6

 Normal termination of Gaussian 16 at Tue Apr  8 23:58:31 2025.
