 Gaussian 16, Revision C.01,

 ----------------------------------------------------------------------
 #t hf aug-cc-pvdz symm=none int=(grid=ultrafine) guess=(read,tcheck) s
 table=(opt,rrhf)
 ----------------------------------------------------------------------
 -----
 title
 -----
 Symbolic Z-matrix:
 Charge =  0 Multiplicity = 1

 SCF Done:  E(RHF) =  -817.899798130     A.U. after   16 cycles
 Normal termination of Gaussian 16 at Tue Apr  8 23:38:11 2025.
 Gaussian 16:  ES64L-G16RevC.01  3-Jul-2019

 ----------------------------------------------------------------------
 #t hf aug-cc-pvdz iop(5/13=1,5/36=2,99/5=2) pseudo=read geom=check gue
 ss=(read,tcheck) scf=(maxcycle=1)
 ----------------------------------------------------------------------
 -----
 title
 -----
 Structure from the checkpoint file:  "BDE49_nonexpt_1479_mol1.chk"
 Charge =  0 Multiplicity = 1

                         Standard orientation:
 ---------------------------------------------------------------------
 Center     Atomic      Atomic             Coordinates (Angstroms)
 Number     Number       Type             X           Y           Z
 ---------------------------------------------------------------------
      1          6           0        2.525419   -0.579276    1.446443
      2          6           0        1.371453   -0.926229    0.751017
      3          6           0        3.405760    0.366129    0.918854
      4          6           0        3.128112    0.962248   -0.307787
      5          6           0        1.972730    0.612992   -1.006803
      6          6           0        1.081537   -0.332375   -0.486366
      7          1           0        0.688465   -1.658340    1.167385
      8          1           0        2.739858   -1.047777    2.400638
      9          1           0        3.810618    1.694424   -0.724811
     10          1           0        1.765898    1.072242   -1.967732
     11         15           0       -0.426805   -0.770019   -1.466391
     12          6           0       -1.752158   -0.625822   -0.099985
     13          8           0       -2.187553   -1.638745    0.423766
     14          7           0       -2.198021    0.628560    0.216922
     15          1           0        4.305071    0.633493    1.462372
     16          6           0       -1.680507    1.859282   -0.354878
     17          1           0       -1.119768    1.654275   -1.265650
     18          1           0       -1.025525    2.386151    0.348992
     19          1           0       -2.512397    2.521051   -0.615869
     20          6           0       -3.174639    0.782166    1.289623
     21          1           0       -3.474375   -0.206584    1.626916
     22          1           0       -4.051698    1.327549    0.926344
     23          1           0       -2.741275    1.338470    2.128610
     24          1           0       -0.362474   -2.169309   -1.300626
 ---------------------------------------------------------------------

 SCF Done:  E(RHF) =  -818.432405135     A.U. after    2 cycles

 The electronic state is 1-A.
 Alpha  occ. eigenvalues --  -84.28258 -20.50880 -15.52930 -11.35669 -11.27883
 Alpha  occ. eigenvalues --  -11.26437 -11.25942 -11.25722 -11.25597 -11.25436
 Alpha  occ. eigenvalues --  -11.25248 -11.25180  -6.75335  -4.28234  -4.28008
 Alpha  occ. eigenvalues --   -4.27551  -1.45628  -1.25297  -1.16507  -1.03755
 Alpha  occ. eigenvalues --   -1.02678  -0.98854  -0.96750  -0.89190  -0.84483
 Alpha  occ. eigenvalues --   -0.81572  -0.75838  -0.71879  -0.67293  -0.67229
 Alpha  occ. eigenvalues --   -0.66670  -0.65082  -0.64061  -0.60934  -0.57973
 Alpha  occ. eigenvalues --   -0.57552  -0.57110  -0.55388  -0.54570  -0.53543
 Alpha  occ. eigenvalues --   -0.51951  -0.51504  -0.48481  -0.41962  -0.39777
 Alpha  occ. eigenvalues --   -0.35752  -0.35442  -0.33573
 Alpha virt. eigenvalues --    0.03088   0.03454   0.03619   0.04506   0.04943
 Alpha virt. eigenvalues --    0.05160   0.05832   0.06108   0.06864   0.07439
 Alpha virt. eigenvalues --    0.07763   0.08228   0.09222   0.09346   0.09869

 Mulliken charges:
               1
     1  C    0.259943
     2  C    0.048503
     3  C    0.288291
     4  C    0.237443
     5  C   -0.227479
     6  C    0.615449
     7  H   -0.354437
     8  H   -0.224430
     9  H   -0.225513
    10  H   -0.267669
    11  P   -0.234629
    12  C    0.037771
    13  O   -1.292828
    14  N    0.872614
    15  H   -0.212230
    16  C   -0.405707
    17  H    0.086372
    18  H    0.168075
    19  H    0.121026
    20  C   -0.314718
    21  H    0.011254
    22  H    0.178117
    23  H    0.205516
    24  H    0.629265
 Sum of Mulliken charges =   0.00000

 Dipole moment (field-independent basis, Debye):
    X=              1.6361    Y=              3.3389    Z=              0.1532  Tot=              3.7214

 Test job not archived.
 1\1\GINC-SE455\SP\RHF\Aug-CC-pVDZ\C9H12N1O1P1\OHZDE\08-Apr-2025\0\\#t
 hf aug-cc-pvdz iop(5/13=1,5/36=2,99/5=2) pseudo=read geom=check guess=
 (read,tcheck) scf=(maxcycle=1)\\title\\0,1\C,0,-2.525419,0.579276,1.44
 6443\C,0,-1.371453,0.926229,0.751017\C,0,-3.40576,-0.366129,0.918854\C
 ,0,-3.128112,-0.962248,-0.307787\C,0,-1.97273,-0.612992,-1.006803\C,0,
 -1.081537,0.332375,-0.486366\H,0,-0.688465,1.65834,1.167385\H,0,-2.739
 858,1.047777,2.400638\H,0,-3.810618,-1.694424,-0.724811\H,0,-1.765898,
 -1.072242,-1.967732\P,0,0.426805,0.770019,-1.466391\C,0,1.752158,0.625

 Normal termination of Gaussian 16 at Tue Apr  8 23:38:29 2025.
