 Gaussian 16, Revision C.01,

 ----------------------------------------------------------------------
 #t hf aug-cc-pvdz symm=none int=(grid=ultrafine) guess=(read,tcheck) s
 table=(opt,rrhf)
 ----------------------------------------------------------------------
 -----
 title
 -----
 Symbolic Z-matrix:
 Charge =  0 Multiplicity = 1

 SCF Done:  E(RHF) =  -1079.37098050     A.U. after   11 cycles
 Normal termination of Gaussian 16 at Tue Apr  8 22:58:37 2025.
 Gaussian 16:  ES64L-G16RevC.01  3-Jul-2019

 ----------------------------------------------------------------------
 #t hf aug-cc-pvdz iop(5/13=1,5/36=2,99/5=2) pseudo=read geom=check gue
 ss=(read,tcheck) scf=(maxcycle=1)
 ----------------------------------------------------------------------
 -----
 title
 -----
 Structure from the checkpoint file:  "BDE49_expt_1948_mol1.chk"
 Charge =  0 Multiplicity = 1

                         Standard orientation:
 ---------------------------------------------------------------------
 Center     Atomic      Atomic             Coordinates (Angstroms)
 Number     Number       Type             X           Y           Z
 ---------------------------------------------------------------------
      1         15           0        0.456877    1.061117   -0.000000
      2         15           0       -0.456877   -1.061117   -0.000000
      3          9           0       -0.456877    1.584763    1.231205
      4          9           0       -0.456877    1.584764   -1.231205
      5          9           0        0.456877   -1.584763    1.231205
      6          9           0        0.456877   -1.584764   -1.231205
 ---------------------------------------------------------------------

 SCF Done:  E(RHF) =  -1079.81158677     A.U. after    2 cycles

 The electronic state is 1-A.
 Alpha  occ. eigenvalues --  -84.43978 -84.43959 -26.50614 -26.50613 -26.50612
 Alpha  occ. eigenvalues --  -26.50612  -6.89662  -6.89649  -4.42338  -4.42229
 Alpha  occ. eigenvalues --   -4.41451  -4.41419  -4.40687  -4.40473  -1.64309
 Alpha  occ. eigenvalues --   -1.63813  -1.60048  -1.59764  -0.93319  -0.85800
 Alpha  occ. eigenvalues --   -0.73747  -0.73601  -0.72670  -0.71794  -0.70787
 Alpha  occ. eigenvalues --   -0.69065  -0.67689  -0.66784  -0.64450  -0.64016
 Alpha  occ. eigenvalues --   -0.56262  -0.48087  -0.34516
 Alpha virt. eigenvalues --    0.04643   0.05452   0.06981   0.07992   0.09019
 Alpha virt. eigenvalues --    0.09933   0.11631   0.12234   0.14412   0.18049
 Alpha virt. eigenvalues --    0.20344   0.21110   0.21726   0.24377   0.25160

 Mulliken charges:
               1
     1  P    1.396506
     2  P    1.396506
     3  F   -0.698253
     4  F   -0.698253
     5  F   -0.698253
     6  F   -0.698253
 Sum of Mulliken charges =  -0.00000

 Dipole moment (field-independent basis, Debye):
    X=              0.0000    Y=             -0.0000    Z=              0.0000  Tot=              0.0000

 Test job not archived.
 1\1\GINC-SE453\SP\RHF\Aug-CC-pVDZ\F4P2\OHZDE\08-Apr-2025\0\\#t hf aug-
 cc-pvdz iop(5/13=1,5/36=2,99/5=2) pseudo=read geom=check guess=(read,t
 check) scf=(maxcycle=1)\\title\\0,1\P,0,0.456877,1.061117,0.\P,0,-0.45
 6877,-1.061117,0.\F,0,-0.456877,1.584763,1.231205\F,0,-0.456877,1.5847
 64,-1.231205\F,0,0.456877,-1.584763,1.231205\F,0,0.456877,-1.584764,-1
 .231205\\Version=ES64L-G16RevC.01\State=1-A\HF=-1079.8115868\RMSD=1.06
 2e-02\Dipole=0.,0.,0.0000009\Quadrupole=0.623501,-0.0568129,-0.5666882
 ,1.929009,0.,0.\PG=C02 [X(F4P2)]\\@

 Normal termination of Gaussian 16 at Tue Apr  8 22:58:40 2025.
