 Gaussian 16, Revision C.01,

 ----------------------------------------------------------------------
 #t hf aug-cc-pvdz symm=none int=(grid=ultrafine) guess=(read,tcheck) s
 table=(opt,rrhf)
 ----------------------------------------------------------------------
 -----
 title
 -----
 Symbolic Z-matrix:
 Charge =  0 Multiplicity = 1

 SCF Done:  E(RHF) =  -393.591549810     A.U. after   13 cycles
 Normal termination of Gaussian 16 at Wed Apr  9 00:45:50 2025.
 Gaussian 16:  ES64L-G16RevC.01  3-Jul-2019

 ----------------------------------------------------------------------
 #t hf aug-cc-pvdz iop(5/13=1,5/36=2,99/5=2) pseudo=read geom=check gue
 ss=(read,tcheck) scf=(maxcycle=1)
 ----------------------------------------------------------------------
 -----
 title
 -----
 Structure from the checkpoint file:  "BDE49_nonexpt_72_mol1.chk"
 Charge =  0 Multiplicity = 1

                         Standard orientation:
 ---------------------------------------------------------------------
 Center     Atomic      Atomic             Coordinates (Angstroms)
 Number     Number       Type             X           Y           Z
 ---------------------------------------------------------------------
      1          5           0       -0.711553   -1.154200   -0.406063
      2          5           0        0.711598   -1.154237    0.405943
      3          6           0        2.013007   -0.348823    0.008677
      4          7           0        2.344174    0.819655    0.391147
      5          6           0       -2.012976   -0.348861   -0.008689
      6          7           0       -2.344216    0.819619   -0.391092
      7          6           0        2.956499   -1.100442   -0.913155
      8          1           0        2.474616   -1.334900   -1.868470
      9          1           0        3.270961   -2.050541   -0.467544
     10          1           0        3.835887   -0.481081   -1.096170
     11          6           0       -2.956385   -1.100562    0.913161
     12          1           0       -2.474441   -1.335039    1.868440
     13          1           0       -3.270828   -2.050655    0.467526
     14          1           0       -3.835791   -0.481249    1.096249
     15          6           0        1.454510    1.540083    1.290366
     16          1           0        1.959783    1.689520    2.249906
     17          1           0        0.486439    1.048597    1.483062
     18          1           0        1.254178    2.533626    0.879197
     19          6           0       -1.454636    1.540125   -1.290331
     20          1           0       -1.959971    1.689580   -2.249835
     21          1           0       -0.486553    1.048691   -1.483104
     22          1           0       -1.254325    2.533660   -0.879131
     23          1           0        0.822969   -1.916034    1.328511
     24          1           0       -0.822972   -1.916029   -1.328598
 ---------------------------------------------------------------------

 SCF Done:  E(RHF) =  -394.007405091     A.U. after    2 cycles

 The electronic state is 1-A.
 Alpha  occ. eigenvalues --  -15.49056 -15.49050 -11.27102 -11.27101 -11.25669
 Alpha  occ. eigenvalues --  -11.25664 -11.23882 -11.23880  -7.60274  -7.60144
 Alpha  occ. eigenvalues --   -1.22455  -1.22321  -1.01669  -1.01606  -0.92885
 Alpha  occ. eigenvalues --   -0.92815  -0.83135  -0.77967  -0.70750  -0.68206
 Alpha  occ. eigenvalues --   -0.63465  -0.63284  -0.62185  -0.61435  -0.61409
 Alpha  occ. eigenvalues --   -0.58162  -0.57870  -0.56855  -0.54947  -0.54481
 Alpha  occ. eigenvalues --   -0.51887  -0.51786  -0.49247  -0.42821  -0.41664
 Alpha  occ. eigenvalues --   -0.41593  -0.39927
 Alpha virt. eigenvalues --    0.02636   0.03037   0.03392   0.03714   0.05013
 Alpha virt. eigenvalues --    0.05205   0.05501   0.05960   0.06284   0.06603
 Alpha virt. eigenvalues --    0.06733   0.07656   0.08166   0.08276   0.08483

 Mulliken charges:
               1
     1  B   -0.104167
     2  B   -0.104192
     3  C   -0.962600
     4  N    0.744368
     5  C   -0.962573
     6  N    0.744358
     7  C   -0.686821
     8  H    0.214451
     9  H    0.238970
    10  H    0.151544
    11  C   -0.686837
    12  H    0.214453
    13  H    0.238970
    14  H    0.151544
    15  C   -0.266134
    16  H    0.092118
    17  H    0.139704
    18  H    0.078058
    19  C   -0.266137
    20  H    0.092115
    21  H    0.139702
    22  H    0.078064
    23  H    0.360533
    24  H    0.360508
 Sum of Mulliken charges =  -0.00000

 Dipole moment (field-independent basis, Debye):
    X=              0.0001    Y=             -2.9514    Z=             -0.0002  Tot=              2.9514

 Test job not archived.
 1\1\GINC-SE459\SP\RHF\Aug-CC-pVDZ\C6H14B2N2\OHZDE\09-Apr-2025\0\\#t hf
  aug-cc-pvdz iop(5/13=1,5/36=2,99/5=2) pseudo=read geom=check guess=(r
 ead,tcheck) scf=(maxcycle=1)\\title\\0,1\B,0,-0.711553,-1.1542,-0.4060
 63\B,0,0.711598,-1.154237,0.405943\C,0,2.013007,-0.348823,0.008677\N,0
 ,2.344174,0.819655,0.391147\C,0,-2.012976,-0.348861,-0.008689\N,0,-2.3
 44216,0.819619,-0.391092\C,0,2.956499,-1.100442,-0.913155\H,0,2.474616
 ,-1.3349,-1.86847\H,0,3.270961,-2.050541,-0.467544\H,0,3.835887,-0.481
 081,-1.09617\C,0,-2.956385,-1.100562,0.913161\H,0,-2.474441,-1.335039,

 Normal termination of Gaussian 16 at Wed Apr  9 00:46:05 2025.
