 Gaussian 16, Revision C.01,

 ----------------------------------------------------------------------
 #t hf aug-cc-pvdz symm=none int=(grid=ultrafine) guess=(read,tcheck) s
 table=opt
 ----------------------------------------------------------------------
 -----
 title
 -----
 Symbolic Z-matrix:
 Charge =  0 Multiplicity = 2

 SCF Done:  E(UHF) =  -578.875537382     A.U. after   16 cycles
 Normal termination of Gaussian 16 at Tue Apr  8 23:41:12 2025.
 Gaussian 16:  ES64L-G16RevC.01  3-Jul-2019

 ----------------------------------------------------------------------
 #t hf aug-cc-pvdz iop(5/13=1,5/36=2,99/5=2) pseudo=read geom=check gue
 ss=(read,tcheck) scf=(maxcycle=1)
 ----------------------------------------------------------------------
 -----
 title
 -----
 Structure from the checkpoint file:  "BDE49_nonexpt_164_mol2.chk"
 Charge =  0 Multiplicity = 2

                         Standard orientation:
 ---------------------------------------------------------------------
 Center     Atomic      Atomic             Coordinates (Angstroms)
 Number     Number       Type             X           Y           Z
 ---------------------------------------------------------------------
      1         17           0        1.512291   -0.218906    0.000000
      2          7           0       -1.157648    0.649770   -0.000002
      3          5           0        0.186125    0.955449   -0.000001
      4          6           0       -1.804902   -0.667083    0.000002
      5          1           0       -1.805117    1.425978   -0.000001
      6          1           0       -1.041318   -1.442708   -0.000019
      7          1           0       -2.430114   -0.792498   -0.888527
      8          1           0       -2.430079   -0.792512    0.888554
 ---------------------------------------------------------------------

 SCF Done:  E(UHF) =  -579.074812584     A.U. after    2 cycles

 The electronic state is 2-A.
 Alpha  occ. eigenvalues -- -105.55612 -15.51657 -11.28010 -10.60627  -7.77585
 Alpha  occ. eigenvalues --   -7.77233  -7.77191  -7.66238  -1.21555  -1.05979
 Alpha  occ. eigenvalues --   -0.95170  -0.76943  -0.67678  -0.62495  -0.60778
 Alpha  occ. eigenvalues --   -0.56050  -0.49989  -0.49107  -0.43643  -0.34948
 Alpha virt. eigenvalues --    0.03061   0.04895   0.04900   0.06010   0.06681
 Alpha virt. eigenvalues --    0.06775   0.07078   0.09370   0.12874   0.13593
 Alpha virt. eigenvalues --    0.14278   0.14814   0.15871   0.16837   0.18382

  Beta  occ. eigenvalues -- -105.55511 -15.51834 -11.27867 -10.60508  -7.77374
  Beta  occ. eigenvalues --   -7.77143  -7.77009  -7.64080  -1.21442  -1.04975
  Beta  occ. eigenvalues --   -0.94449  -0.76010  -0.66249  -0.62885  -0.58582
  Beta  occ. eigenvalues --   -0.55550  -0.49685  -0.47066  -0.44625
  Beta virt. eigenvalues --    0.02907   0.04548   0.04965   0.05476   0.06797
  Beta virt. eigenvalues --    0.06857   0.07117   0.08111   0.12772   0.13617
  Beta virt. eigenvalues --    0.14093   0.15326   0.16057   0.16150   0.16972

 Mulliken charges and spin densities:
               1          2
     1  Cl  -0.275229   0.017558
     2  N    0.483788  -0.093569
     3  B   -0.126526   1.074137
     4  C   -0.486105   0.011173
     5  H    0.073893   0.006835
     6  H    0.076448  -0.008943
     7  H    0.126864  -0.003596
     8  H    0.126869  -0.003596
 Sum of Mulliken charges =  -0.00000   1.00000

 Dipole moment (field-independent basis, Debye):
    X=             -2.8604    Y=             -0.1844    Z=              0.0000  Tot=              2.8663
                          Isotropic Fermi Contact Couplings
        Atom                 a.u.       MegaHertz       Gauss      10(-4) cm-1
     1  Cl(35)             0.10391      45.56162      16.25752      15.19772
     2  N(14)              0.03217      10.39289       3.70844       3.46669
     3  B(11)              0.41281     592.11380     211.28093     197.50791
     4  C(13)              0.02350      26.42285       9.42833       8.81371
     5  H(1)               0.00501      22.38760       7.98845       7.46770
     6  H(1)              -0.00087      -3.87933      -1.38424      -1.29401
     7  H(1)              -0.00126      -5.62625      -2.00759      -1.87671
     8  H(1)              -0.00126      -5.62658      -2.00770      -1.87682

 1\1\GINC-SE108\SP\UHF\Aug-CC-pVDZ\C1H4B1Cl1N1(2)\OHZDE\08-Apr-2025\0\\
 #t hf aug-cc-pvdz iop(5/13=1,5/36=2,99/5=2) pseudo=read geom=check gue
 ss=(read,tcheck) scf=(maxcycle=1)\\title\\0,2\Cl,0,1.512291,-0.218906,
 0.\N,0,-1.157648,0.64977,-0.000002\B,0,0.186125,0.955449,-0.000001\C,0
 ,-1.804902,-0.667083,0.000002\H,0,-1.805117,1.425978,-0.000001\H,0,-1.
 041318,-1.442708,-0.000019\H,0,-2.430114,-0.792498,-0.888527\H,0,-2.43
 0079,-0.792512,0.888554\\Version=ES64L-G16RevC.01\State=2-A\HF=-579.07
 48126\S2=0.757901\S2-1=0.\S2A=0.750037\RMSD=8.328e-03\Dipole=-1.125357

 Normal termination of Gaussian 16 at Tue Apr  8 23:41:15 2025.
