 Gaussian 16, Revision C.01,

 ----------------------------------------------------------------------
 #t hf aug-cc-pvdz symm=none int=(grid=ultrafine) guess=(read,tcheck) s
 table=(opt,rrhf)
 ----------------------------------------------------------------------
 -----
 title
 -----
 Symbolic Z-matrix:
 Charge =  0 Multiplicity = 1

 SCF Done:  E(RHF) =  -191.934895297     A.U. after   12 cycles
 Normal termination of Gaussian 16 at Tue Apr  8 22:59:38 2025.
 Gaussian 16:  ES64L-G16RevC.01  3-Jul-2019

 ----------------------------------------------------------------------
 #t hf aug-cc-pvdz iop(5/13=1,5/36=2,99/5=2) pseudo=read geom=check gue
 ss=(read,tcheck) scf=(maxcycle=1)
 ----------------------------------------------------------------------
 -----
 title
 -----
 Structure from the checkpoint file:  "BDE49_expt_196_mol1.chk"
 Charge =  0 Multiplicity = 1

                         Standard orientation:
 ---------------------------------------------------------------------
 Center     Atomic      Atomic             Coordinates (Angstroms)
 Number     Number       Type             X           Y           Z
 ---------------------------------------------------------------------
      1          8           0       -0.825976   -0.789363   -0.241517
      2          6           0        0.151561   -0.036402    0.488782
      3          6           0       -1.043302    0.615451   -0.061516
      4          1           0       -1.869830    0.880144    0.594212
      5          1           0       -0.951869    1.219252   -0.962127
      6          6           0        1.509130    0.099804   -0.148303
      7          1           0        0.153280   -0.252636    1.557007
      8          1           0        1.413111    0.321538   -1.213488
      9          1           0        2.077153   -0.828995   -0.043894
     10          1           0        2.081628    0.902489    0.326647
 ---------------------------------------------------------------------

 SCF Done:  E(RHF) =  -192.137000561     A.U. after    2 cycles

 The electronic state is 1-A.
 Alpha  occ. eigenvalues --  -20.55422 -11.29571 -11.28976 -11.23694  -1.48567
 Alpha  occ. eigenvalues --   -1.01863  -0.91726  -0.81988  -0.70321  -0.65018
 Alpha  occ. eigenvalues --   -0.59206  -0.56741  -0.53265  -0.51901  -0.44133
 Alpha  occ. eigenvalues --   -0.43465
 Alpha virt. eigenvalues --    0.03657   0.04226   0.04311   0.05413   0.06563
 Alpha virt. eigenvalues --    0.07571   0.10245   0.12209   0.12757   0.14379
 Alpha virt. eigenvalues --    0.15101   0.15800   0.16693   0.17455   0.17763

 Mulliken charges:
               1
     1  O   -1.221495
     2  C    0.834215
     3  C    0.402417
     4  H    0.002482
     5  H    0.007034
     6  C   -0.567027
     7  H   -0.044403
     8  H    0.157590
     9  H    0.212645
    10  H    0.216544
 Sum of Mulliken charges =   0.00000

 Dipole moment (field-independent basis, Debye):
    X=              0.8812    Y=              1.7740    Z=              0.7278  Tot=              2.1103

 Test job not archived.
 1\1\GINC-SE340\SP\RHF\Aug-CC-pVDZ\C3H6O1\OHZDE\08-Apr-2025\0\\#t hf au
 g-cc-pvdz iop(5/13=1,5/36=2,99/5=2) pseudo=read geom=check guess=(read
 ,tcheck) scf=(maxcycle=1)\\title\\0,1\O,0,-0.825976,-0.789363,-0.24151
 7\C,0,0.151561,-0.036402,0.488782\C,0,-1.043302,0.615451,-0.061516\H,0
 ,-1.86983,0.880145,0.594212\H,0,-0.951869,1.219252,-0.962127\C,0,1.509
 13,0.099803,-0.148303\H,0,0.15328,-0.252636,1.557007\H,0,1.413111,0.32
 1537,-1.213488\H,0,2.077153,-0.828996,-0.043894\H,0,2.081628,0.902488,
 0.326647\\Version=ES64L-G16RevC.01\State=1-A\HF=-192.1370006\RMSD=1.22

 Normal termination of Gaussian 16 at Tue Apr  8 22:59:40 2025.
