 Gaussian 16, Revision C.01,

 ----------------------------------------------------------------------
 #t hf aug-cc-pvdz symm=none int=(grid=ultrafine) guess=(read,tcheck) s
 table=opt
 ----------------------------------------------------------------------
 -----
 title
 -----
 Symbolic Z-matrix:
 Charge =  0 Multiplicity = 2

 SCF Done:  E(UHF) =  -331.537849145     A.U. after   21 cycles
 Normal termination of Gaussian 16 at Wed Apr  9 00:33:00 2025.
 Gaussian 16:  ES64L-G16RevC.01  3-Jul-2019

 ----------------------------------------------------------------------
 #t hf aug-cc-pvdz iop(5/13=1,5/36=2,99/5=2) pseudo=read geom=check gue
 ss=(read,tcheck) scf=(maxcycle=1)
 ----------------------------------------------------------------------
 -----
 title
 -----
 Structure from the checkpoint file:  "BDE49_nonexpt_390_mol2.chk"
 Charge =  0 Multiplicity = 2

                         Standard orientation:
 ---------------------------------------------------------------------
 Center     Atomic      Atomic             Coordinates (Angstroms)
 Number     Number       Type             X           Y           Z
 ---------------------------------------------------------------------
      1          9           0       -2.516023   -0.320319    0.309321
      2          5           0       -1.499599   -0.345572   -0.513456
      3          6           0       -0.049866    0.174473   -0.146051
      4          8           0        0.007901    1.396731   -0.024468
      5          7           0        1.016517   -0.661095   -0.075918
      6          6           0        2.375411   -0.192902    0.161084
      7          1           0        0.859282   -1.642618   -0.245515
      8          1           0        2.331744    0.885881    0.299101
      9          1           0        3.022026   -0.416209   -0.692221
     10          1           0        2.797052   -0.651934    1.059000
 ---------------------------------------------------------------------

 SCF Done:  E(UHF) =  -331.856771870     A.U. after    2 cycles

 The electronic state is 2-A.
 Alpha  occ. eigenvalues --  -26.50051 -20.52519 -15.54482 -11.35737 -11.28088
 Alpha  occ. eigenvalues --   -7.70870  -1.63275  -1.46544  -1.25258  -0.99042
 Alpha  occ. eigenvalues --   -0.85418  -0.82004  -0.76154  -0.70246  -0.68393
 Alpha  occ. eigenvalues --   -0.66815  -0.65133  -0.61150  -0.57086  -0.55767
 Alpha  occ. eigenvalues --   -0.45383  -0.43105  -0.36523
 Alpha virt. eigenvalues --    0.02507   0.03879   0.04857   0.05356   0.05791
 Alpha virt. eigenvalues --    0.06319   0.06709   0.08226   0.09587   0.12290
 Alpha virt. eigenvalues --    0.13338   0.13924   0.14466   0.15486   0.17554

  Beta  occ. eigenvalues --  -26.49728 -20.52344 -15.54459 -11.35442 -11.28090
  Beta  occ. eigenvalues --   -7.68977  -1.62391  -1.46098  -1.25122  -0.98739
  Beta  occ. eigenvalues --   -0.84377  -0.80645  -0.74759  -0.68513  -0.67634
  Beta  occ. eigenvalues --   -0.66225  -0.64832  -0.59887  -0.57059  -0.54887
  Beta  occ. eigenvalues --   -0.42980  -0.42346
  Beta virt. eigenvalues --    0.02215   0.03965   0.04409   0.05101   0.05853
  Beta virt. eigenvalues --    0.06424   0.06608   0.07506   0.09798   0.11298
  Beta virt. eigenvalues --    0.12714   0.13588   0.14063   0.14954   0.17324

 Mulliken charges and spin densities:
               1          2
     1  F   -0.487071  -0.023065
     2  B    0.496393   0.956454
     3  C    0.567788   0.000479
     4  O   -1.145322   0.051746
     5  N    0.452125   0.012555
     6  C   -0.320242   0.000346
     7  H    0.098778   0.001301
     8  H    0.076695   0.000049
     9  H    0.131102   0.000381
    10  H    0.129753  -0.000246
 Sum of Mulliken charges =  -0.00000   1.00000

 Dipole moment (field-independent basis, Debye):
    X=              1.9838    Y=             -3.3556    Z=             -0.1877  Tot=              3.9026
                          Isotropic Fermi Contact Couplings
        Atom                 a.u.       MegaHertz       Gauss      10(-4) cm-1
     1  F(19)              0.06763     284.54762     101.53367      94.91487
     2  B(11)              0.32411     464.89303     165.88539     155.07162
     3  C(13)              0.08018      90.13583      32.16271      30.06608
     4  O(17)              0.01376      -8.34064      -2.97615      -2.78214
     5  N(14)              0.00070       0.22705       0.08102       0.07574
     6  C(13)              0.00020       0.22592       0.08061       0.07536
     7  H(1)              -0.00024      -1.07624      -0.38403      -0.35900
     8  H(1)               0.00005       0.24067       0.08588       0.08028

 Normal termination of Gaussian 16 at Wed Apr  9 00:33:04 2025.
