 Gaussian 16, Revision C.01,

 ----------------------------------------------------------------------
 #t hf aug-cc-pvdz symm=none int=(grid=ultrafine) guess=(read,tcheck) s
 table=opt
 ----------------------------------------------------------------------
 -----
 title
 -----
 Symbolic Z-matrix:
 Charge =  0 Multiplicity = 2

 SCF Done:  E(UHF) =  -440.472469691     A.U. after   14 cycles

 1\1\GINC-SE343\Stability\UHF\Aug-CC-pVDZ\H3O2Si1\OHZDE\08-Apr-2025\0\\
 #t hf aug-cc-pvdz symm=none int=(grid=ultrafine) guess=(read,tcheck) s
 table=opt\\title\\0,2\Si,0,0.000621,0.499863,-0.148563\O,0,-1.370675,-
 0.378927,0.098341\H,0,-1.434408,-1.246209,-0.310559\O,0,1.293665,-0.50
 4518,0.125722\H,0,2.13485,-0.270727,-0.274395\H,0,-0.093055,1.586421,0
 .872338\\Version=ES64L-G16RevC.01\HF=-440.4724697\S2=0.754806\S2-1=0.\
 S2A=0.750013\RMSD=9.287e-09\Dipole=0.5237401,-0.0667049,-0.5977759\Qua
 drupole=1.0203538,0.2980057,-1.3183595,2.1026328,-0.2397347,1.1919779\

 Normal termination of Gaussian 16 at Tue Apr  8 23:42:13 2025.
 Gaussian 16:  ES64L-G16RevC.01  3-Jul-2019

 ----------------------------------------------------------------------
 #t hf aug-cc-pvdz iop(5/13=1,5/36=2,99/5=2) pseudo=read geom=check gue
 ss=(read,tcheck) scf=(maxcycle=1)
 ----------------------------------------------------------------------
 -----
 title
 -----
 Structure from the checkpoint file:  "BDE49_nonexpt_1676_mol3.chk"
 Charge =  0 Multiplicity = 2

                         Standard orientation:
 ---------------------------------------------------------------------
 Center     Atomic      Atomic             Coordinates (Angstroms)
 Number     Number       Type             X           Y           Z
 ---------------------------------------------------------------------
      1         14           0        0.000621    0.499863   -0.148563
      2          8           0       -1.370675   -0.378927    0.098341
      3          1           0       -1.434408   -1.246209   -0.310559
      4          8           0        1.293665   -0.504518    0.125722
      5          1           0        2.134850   -0.270727   -0.274395
      6          1           0       -0.093055    1.586421    0.872338
 ---------------------------------------------------------------------

 SCF Done:  E(UHF) =  -440.650564184     A.U. after    2 cycles

 The electronic state is 2-A.
 Alpha  occ. eigenvalues --  -69.59196 -20.56103 -20.55617  -6.25484  -4.01249
 Alpha  occ. eigenvalues --   -4.00682  -4.00483  -1.45826  -1.43387  -0.78715
 Alpha  occ. eigenvalues --   -0.70650  -0.62107  -0.58514  -0.54837  -0.52767
 Alpha  occ. eigenvalues --   -0.50365  -0.33554
 Alpha virt. eigenvalues --    0.03459   0.04495   0.05685   0.06436   0.07657
 Alpha virt. eigenvalues --    0.08499   0.12908   0.16066   0.17075   0.19584
 Alpha virt. eigenvalues --    0.20873   0.21683   0.22582   0.24417   0.25248

  Beta  occ. eigenvalues --  -69.58697 -20.55693 -20.55248  -6.24675  -4.00382
  Beta  occ. eigenvalues --   -4.00234  -3.99423  -1.44731  -1.42314  -0.77067
  Beta  occ. eigenvalues --   -0.70230  -0.58908  -0.56538  -0.52403  -0.50961
  Beta  occ. eigenvalues --   -0.48579
  Beta virt. eigenvalues --    0.02551   0.04655   0.05048   0.05977   0.07537
  Beta virt. eigenvalues --    0.08042   0.09091   0.14862   0.17370   0.18826
  Beta virt. eigenvalues --    0.20061   0.21424   0.22637   0.23609   0.25049

 Mulliken charges and spin densities:
               1          2
     1  Si   1.908102   0.805258
     2  O   -1.281890   0.035668
     3  H    0.417369  -0.004683
     4  O   -1.257890   0.055127
     5  H    0.396354  -0.018710
     6  H   -0.182045   0.127340
 Sum of Mulliken charges =  -0.00000   1.00000

 Dipole moment (field-independent basis, Debye):
    X=              1.2986    Y=             -0.2287    Z=             -1.4195  Tot=              1.9374
                          Isotropic Fermi Contact Couplings
        Atom                 a.u.       MegaHertz       Gauss      10(-4) cm-1
     1  Si(29)             0.72229    -641.91649    -229.05177    -214.12029
     2  O(17)              0.03577     -21.68068      -7.73620      -7.23190
     3  H(1)              -0.00190      -8.48981      -3.02938      -2.83190
     4  O(17)              0.04197     -25.44040      -9.07777      -8.48601
     5  H(1)              -0.00124      -5.55289      -1.98141      -1.85224
     6  H(1)               0.03575     159.80095      57.02095      53.30386
 --------------------------------------------------------
       Center         ----  Spin Dipole Couplings  ----

 Normal termination of Gaussian 16 at Tue Apr  8 23:42:15 2025.
