 Gaussian 16, Revision C.01,

 ----------------------------------------------------------------------
 #t hf aug-cc-pvdz symm=none int=(grid=ultrafine) guess=(read,tcheck) s
 table=(opt,rrhf)
 ----------------------------------------------------------------------
 -----
 title
 -----
 Symbolic Z-matrix:
 Charge =  0 Multiplicity = 1

 SCF Done:  E(RHF) =  -230.987456819     A.U. after   13 cycles
 Normal termination of Gaussian 16 at Tue Apr  8 22:40:36 2025.
 Gaussian 16:  ES64L-G16RevC.01  3-Jul-2019

 ----------------------------------------------------------------------
 #t hf aug-cc-pvdz iop(5/13=1,5/36=2,99/5=2) pseudo=read geom=check gue
 ss=(read,tcheck) scf=(maxcycle=1)
 ----------------------------------------------------------------------
 -----
 title
 -----
 Structure from the checkpoint file:  "BDE49_expt_1360_mol1.chk"
 Charge =  0 Multiplicity = 1

                         Standard orientation:
 ---------------------------------------------------------------------
 Center     Atomic      Atomic             Coordinates (Angstroms)
 Number     Number       Type             X           Y           Z
 ---------------------------------------------------------------------
      1          6           0        1.356133   -0.555369   -0.000001
      2          8           0        0.010784   -0.712080   -0.000001
      3          6           0       -0.792544    0.469924    0.000001
      4          6           0       -2.247334    0.041708   -0.000000
      5          6           0        2.062221    0.576640    0.000001
      6          1           0        1.837024   -1.527804   -0.000002
      7          1           0        1.617458    1.562096    0.000002
      8          1           0        3.141976    0.517164    0.000001
      9          1           0       -0.555295    1.070832   -0.886888
     10          1           0       -0.555295    1.070830    0.886891
     11          1           0       -2.471992   -0.556613   -0.885569
     12          1           0       -2.899011    0.919332    0.000001
     13          1           0       -2.471992   -0.556615    0.885568
 ---------------------------------------------------------------------

 SCF Done:  E(RHF) =  -231.232911192     A.U. after    2 cycles

 The electronic state is 1-A.
 Alpha  occ. eigenvalues --  -20.56919 -11.30152 -11.29353 -11.23209 -11.22077
 Alpha  occ. eigenvalues --   -1.49318  -1.05257  -1.00521  -0.87401  -0.77679
 Alpha  occ. eigenvalues --   -0.69447  -0.67002  -0.66055  -0.56380  -0.55631
 Alpha  occ. eigenvalues --   -0.55609  -0.52685  -0.49493  -0.48376  -0.34726
 Alpha virt. eigenvalues --    0.03766   0.04053   0.04116   0.04800   0.06084
 Alpha virt. eigenvalues --    0.06403   0.07915   0.08414   0.12091   0.12390
 Alpha virt. eigenvalues --    0.13120   0.13380   0.14468   0.15419   0.16401

 Mulliken charges:
               1
     1  C    1.048362
     2  O   -1.381361
     3  C    0.363422
     4  C   -0.530741
     5  C    0.013665
     6  H   -0.087675
     7  H   -0.062491
     8  H   -0.078103
     9  H    0.078920
    10  H    0.078919
    11  H    0.189463
    12  H    0.178157
    13  H    0.189463
 Sum of Mulliken charges =  -0.00000

 Dipole moment (field-independent basis, Debye):
    X=             -0.5767    Y=              0.8256    Z=              0.0000  Tot=              1.0071

 Test job not archived.
 1\1\GINC-SE082\SP\RHF\Aug-CC-pVDZ\C4H8O1\OHZDE\08-Apr-2025\0\\#t hf au
 g-cc-pvdz iop(5/13=1,5/36=2,99/5=2) pseudo=read geom=check guess=(read
 ,tcheck) scf=(maxcycle=1)\\title\\0,1\C,0,1.356133,-0.555369,-0.000001
 \O,0,0.010784,-0.71208,-0.000001\C,0,-0.792544,0.469924,0.000001\C,0,-
 2.247334,0.041708,0.\C,0,2.062221,0.57664,0.000001\H,0,1.837024,-1.527
 804,-0.000002\H,0,1.617458,1.562096,0.000002\H,0,3.141976,0.517164,0.0
 00001\H,0,-0.555295,1.070832,-0.886888\H,0,-0.555295,1.07083,0.886891\
 H,0,-2.471992,-0.556613,-0.885569\H,0,-2.899011,0.919332,0.000001\H,0,

 Normal termination of Gaussian 16 at Tue Apr  8 22:40:40 2025.
