 Gaussian 16, Revision C.01,

 ----------------------------------------------------------------------
 #t hf aug-cc-pvdz symm=none int=(grid=ultrafine) guess=(read,tcheck) s
 table=opt
 ----------------------------------------------------------------------
 -----
 title
 -----
 Symbolic Z-matrix:
 Charge =  0 Multiplicity = 2

 SCF Done:  E(UHF) =  -515.404086491     A.U. after   14 cycles

 1\1\GINC-SE345\Stability\UHF\Aug-CC-pVDZ\H3O3Si1\OHZDE\09-Apr-2025\0\\
 #t hf aug-cc-pvdz symm=none int=(grid=ultrafine) guess=(read,tcheck) s
 table=opt\\title\\0,2\Si,0,0.000003,-0.000008,0.371703\O,0,1.366702,-0
 .710525,-0.215498\H,0,2.206962,-0.291046,-0.010648\O,0,-0.068013,1.538
 852,-0.215489\H,0,-0.851421,2.0568,-0.010647\O,0,-1.298685,-0.828318,-
 0.215512\H,0,-1.355622,-1.765712,-0.010552\\Version=ES64L-G16RevC.01\H
 F=-515.4040865\S2=0.753874\S2-1=0.\S2A=0.75001\RMSD=6.542e-09\Dipole=-
 0.0000486,0.000008,0.6775153\Quadrupole=1.5440433,1.5435281,-3.0875714

 Normal termination of Gaussian 16 at Wed Apr  9 00:09:30 2025.
 Gaussian 16:  ES64L-G16RevC.01  3-Jul-2019

 ----------------------------------------------------------------------
 #t hf aug-cc-pvdz iop(5/13=1,5/36=2,99/5=2) pseudo=read geom=check gue
 ss=(read,tcheck) scf=(maxcycle=1)
 ----------------------------------------------------------------------
 -----
 title
 -----
 Structure from the checkpoint file:  "BDE49_nonexpt_2332_mol3.chk"
 Charge =  0 Multiplicity = 2

                         Standard orientation:
 ---------------------------------------------------------------------
 Center     Atomic      Atomic             Coordinates (Angstroms)
 Number     Number       Type             X           Y           Z
 ---------------------------------------------------------------------
      1         14           0        0.000003   -0.000008    0.371703
      2          8           0        1.368148   -0.707736   -0.215498
      3          1           0        2.207551   -0.286545   -0.010648
      4          8           0       -0.071151    1.538710   -0.215489
      5          1           0       -0.855614    2.055059   -0.010647
      6          8           0       -1.296993   -0.830965   -0.215512
      7          1           0       -1.352018   -1.768473   -0.010552
 ---------------------------------------------------------------------

 SCF Done:  E(UHF) =  -515.654457207     A.U. after    2 cycles

 The electronic state is 2-A.
 Alpha  occ. eigenvalues --  -69.61241 -20.55907 -20.55907 -20.55903  -6.27285
 Alpha  occ. eigenvalues --   -4.02914  -4.02435  -4.02435  -1.47145  -1.43738
 Alpha  occ. eigenvalues --   -1.43737  -0.79511  -0.70964  -0.70964  -0.61744
 Alpha  occ. eigenvalues --   -0.56753  -0.56753  -0.53517  -0.51835  -0.51835
 Alpha  occ. eigenvalues --   -0.34179
 Alpha virt. eigenvalues --    0.03822   0.04777   0.04777   0.06228   0.07786
 Alpha virt. eigenvalues --    0.07786   0.12577   0.17156   0.17157   0.18898
 Alpha virt. eigenvalues --    0.19624   0.19624   0.23619   0.23619   0.23744

  Beta  occ. eigenvalues --  -69.60712 -20.55457 -20.55457 -20.55453  -6.26384
  Beta  occ. eigenvalues --   -4.02123  -4.02123  -4.01223  -1.45881  -1.42469
  Beta  occ. eigenvalues --   -1.42469  -0.78015  -0.70314  -0.70314  -0.57470
  Beta  occ. eigenvalues --   -0.55004  -0.55004  -0.52792  -0.50414  -0.50414
  Beta virt. eigenvalues --    0.02356   0.04950   0.04950   0.05956   0.07872
  Beta virt. eigenvalues --    0.07872   0.07947   0.15422   0.18337   0.18337
  Beta virt. eigenvalues --    0.19491   0.20277   0.20277   0.24037   0.24997

 Mulliken charges and spin densities:
               1          2
     1  Si   2.628432   0.925782
     2  O   -1.273626   0.033574
     3  H    0.397480  -0.008835
     4  O   -1.273630   0.033573
     5  H    0.397480  -0.008833
     6  O   -1.273613   0.033579
     7  H    0.397477  -0.008839
 Sum of Mulliken charges =  -0.00000   1.00000

 Dipole moment (field-independent basis, Debye):
    X=             -0.0001    Y=              0.0000    Z=              1.5736  Tot=              1.5736
                          Isotropic Fermi Contact Couplings
        Atom                 a.u.       MegaHertz       Gauss      10(-4) cm-1
     1  Si(29)             0.94210    -837.26828    -298.75814    -279.28264
     2  O(17)              0.07048     -42.72499     -15.24534     -14.25152
     3  H(1)              -0.00198      -8.82871      -3.15030      -2.94494
     4  O(17)              0.07048     -42.72273     -15.24453     -14.25077
     5  H(1)              -0.00198      -8.82835      -3.15017      -2.94482
     6  O(17)              0.07047     -42.72053     -15.24375     -14.25003
     7  H(1)              -0.00198      -8.82868      -3.15029      -2.94493
 --------------------------------------------------------

 Normal termination of Gaussian 16 at Wed Apr  9 00:09:32 2025.
