 Gaussian 16, Revision C.01,

 ----------------------------------------------------------------------
 #t hf aug-cc-pvdz symm=none int=(grid=ultrafine) guess=(read,tcheck) s
 table=(opt,rrhf)
 ----------------------------------------------------------------------
 -----
 title
 -----
 Symbolic Z-matrix:
 Charge =  0 Multiplicity = 1

 SCF Done:  E(RHF) =  -349.949792799     A.U. after   14 cycles
 Normal termination of Gaussian 16 at Wed Apr  9 00:39:50 2025.
 Gaussian 16:  ES64L-G16RevC.01  3-Jul-2019

 ----------------------------------------------------------------------
 #t hf aug-cc-pvdz iop(5/13=1,5/36=2,99/5=2) pseudo=read geom=check gue
 ss=(read,tcheck) scf=(maxcycle=1)
 ----------------------------------------------------------------------
 -----
 title
 -----
 Structure from the checkpoint file:  "BDE49_nonexpt_640_mol1.chk"
 Charge =  0 Multiplicity = 1

                         Standard orientation:
 ---------------------------------------------------------------------
 Center     Atomic      Atomic             Coordinates (Angstroms)
 Number     Number       Type             X           Y           Z
 ---------------------------------------------------------------------
      1          9           0        1.794120   -0.069862   -0.000026
      2          8           0        0.597345   -0.868938   -0.000002
      3          5           0       -0.499788    0.018967    0.000022
      4          8           0       -1.684371   -0.633853    0.000007
      5          1           0       -2.432315   -0.029425    0.000003
      6          8           0       -0.381879    1.365887    0.000009
      7          1           0        0.535413    1.658579    0.000003
 ---------------------------------------------------------------------

 SCF Done:  E(RHF) =  -350.283818411     A.U. after    2 cycles

 The electronic state is 1-A.
 Alpha  occ. eigenvalues --  -26.52661 -20.67782 -20.58631 -20.58247  -7.70615
 Alpha  occ. eigenvalues --   -1.67688  -1.51119  -1.47640  -1.36270  -0.81209
 Alpha  occ. eigenvalues --   -0.78299  -0.74911  -0.71886  -0.66486  -0.61354
 Alpha  occ. eigenvalues --   -0.60889  -0.58808  -0.57056  -0.52972  -0.51809
 Alpha virt. eigenvalues --    0.03760   0.04687   0.05262   0.06146   0.08168
 Alpha virt. eigenvalues --    0.09316   0.14068   0.18042   0.19766   0.19822
 Alpha virt. eigenvalues --    0.20787   0.21680   0.22488   0.23184   0.24016

 Mulliken charges:
               1
     1  F   -0.410129
     2  O   -0.402518
     3  B    1.907320
     4  O   -1.049865
     5  H    0.387578
     6  O   -0.986663
     7  H    0.554276
 Sum of Mulliken charges =  -0.00000

 Dipole moment (field-independent basis, Debye):
    X=             -0.9602    Y=              1.8108    Z=              0.0001  Tot=              2.0496

 Test job not archived.
 1\1\GINC-SE070\SP\RHF\Aug-CC-pVDZ\B1F1H2O3\OHZDE\09-Apr-2025\0\\#t hf
 aug-cc-pvdz iop(5/13=1,5/36=2,99/5=2) pseudo=read geom=check guess=(re
 ad,tcheck) scf=(maxcycle=1)\\title\\0,1\F,0,1.79412,-0.069862,-0.00002
 6\O,0,0.597345,-0.868938,-0.000002\B,0,-0.499788,0.018967,0.000022\O,0
 ,-1.684371,-0.633853,0.000007\H,0,-2.432315,-0.029426,0.000003\O,0,-0.
 381879,1.365887,0.000009\H,0,0.535413,1.658579,0.000003\\Version=ES64L
 -G16RevC.01\State=1-A\HF=-350.2838184\RMSD=8.604e-03\Dipole=-0.3777725
 ,0.7124282,0.0000257\Quadrupole=1.9291873,-1.7313273,-0.19786,0.719447

 Normal termination of Gaussian 16 at Wed Apr  9 00:39:52 2025.
