 Gaussian 16, Revision C.01,

 ----------------------------------------------------------------------
 #t hf aug-cc-pvdz symm=none int=(grid=ultrafine) guess=(read,tcheck) s
 table=(opt,rrhf)
 ----------------------------------------------------------------------
 -----
 title
 -----
 Symbolic Z-matrix:
 Charge =  0 Multiplicity = 1

 SCF Done:  E(RHF) =  -1724.68808976     A.U. after   14 cycles
 Normal termination of Gaussian 16 at Wed Apr  9 00:10:53 2025.
 Gaussian 16:  ES64L-G16RevC.01  3-Jul-2019

 ----------------------------------------------------------------------
 #t hf aug-cc-pvdz iop(5/13=1,5/36=2,99/5=2) pseudo=read geom=check gue
 ss=(read,tcheck) scf=(maxcycle=1)
 ----------------------------------------------------------------------
 -----
 title
 -----
 Structure from the checkpoint file:  "BDE49_nonexpt_2350_mol1.chk"
 Charge =  0 Multiplicity = 1

                         Standard orientation:
 ---------------------------------------------------------------------
 Center     Atomic      Atomic             Coordinates (Angstroms)
 Number     Number       Type             X           Y           Z
 ---------------------------------------------------------------------
      1         14           0        0.805115   -0.865012    1.175694
      2         14           0       -0.805117    0.864974    1.175721
      3          6           0        1.881248   -0.729158   -0.412101
      4          8           0        1.995393   -1.476119   -1.311922
      5          1           0        0.193222   -2.207257    1.192795
      6          1           0        1.720438   -0.663309    2.317471
      7         17           0        2.827317    0.896963   -0.411894
      8          6           0       -1.881243    0.729174   -0.412083
      9          1           0       -0.193226    2.207220    1.192867
     10          1           0       -1.720445    0.663234    2.317486
     11          8           0       -1.995379    1.476154   -1.311889
     12         17           0       -2.827323   -0.896947   -0.411920
 ---------------------------------------------------------------------

 SCF Done:  E(RHF) =  -1725.11728431     A.U. after    2 cycles

 The electronic state is 1-A.
 Alpha  occ. eigenvalues -- -105.57710-105.57710 -69.59048 -69.59047 -20.61717
 Alpha  occ. eigenvalues --  -20.61716 -11.42661 -11.42658 -10.62542 -10.62542
 Alpha  occ. eigenvalues --   -7.79435  -7.79434  -7.79109  -7.79108  -7.79098
 Alpha  occ. eigenvalues --   -7.79098  -6.26177  -6.26167  -4.01559  -4.01538
 Alpha  occ. eigenvalues --   -4.01503  -4.01468  -4.01462  -4.01434  -1.56019
 Alpha  occ. eigenvalues --   -1.56009  -1.07851  -1.07744  -0.88961  -0.85724
 Alpha  occ. eigenvalues --   -0.77464  -0.74483  -0.67516  -0.67506  -0.66113
 Alpha  occ. eigenvalues --   -0.63830  -0.62257  -0.61167  -0.55132  -0.53465
 Alpha  occ. eigenvalues --   -0.48480  -0.47896  -0.47678  -0.47529  -0.47272
 Alpha  occ. eigenvalues --   -0.43730  -0.43233
 Alpha virt. eigenvalues --    0.02584   0.02898   0.04251   0.04958   0.05598
 Alpha virt. eigenvalues --    0.05808   0.06431   0.06498   0.07003   0.08117
 Alpha virt. eigenvalues --    0.08753   0.08899   0.09123   0.09974   0.11851

 Mulliken charges:
               1
     1  Si   0.732022
     2  Si   0.732023
     3  C    0.523500
     4  O   -0.916785
     5  H   -0.067345
     6  H   -0.075263
     7  Cl  -0.196127
     8  C    0.523500
     9  H   -0.067347
    10  H   -0.075262
    11  O   -0.916783
    12  Cl  -0.196132
 Sum of Mulliken charges =  -0.00000

 Dipole moment (field-independent basis, Debye):
    X=              0.0000    Y=             -0.0000    Z=              4.4683  Tot=              4.4683

 Test job not archived.
 1\1\GINC-SE184\SP\RHF\Aug-CC-pVDZ\C2H4Cl2O2Si2\OHZDE\09-Apr-2025\0\\#t
  hf aug-cc-pvdz iop(5/13=1,5/36=2,99/5=2) pseudo=read geom=check guess
 =(read,tcheck) scf=(maxcycle=1)\\title\\0,1\Si,0,-0.805115,0.865012,1.
 175694\Si,0,0.805117,-0.864974,1.175721\C,0,-1.881248,0.729158,-0.4121
 01\O,0,-1.995393,1.476119,-1.311922\H,0,-0.193222,2.207257,1.192795\H,
 0,-1.720438,0.663309,2.317471\Cl,0,-2.827317,-0.896963,-0.411894\C,0,1
 .881243,-0.729174,-0.412083\H,0,0.193226,-2.20722,1.192867\H,0,1.72044
 5,-0.663234,2.317486\O,0,1.995379,-1.476154,-1.311889\Cl,0,2.827323,0.

 Normal termination of Gaussian 16 at Wed Apr  9 00:11:01 2025.
