 Gaussian 16, Revision C.01,

 ----------------------------------------------------------------------
 #t hf aug-cc-pvdz symm=none int=(grid=ultrafine) guess=(read,tcheck) s
 table=opt
 ----------------------------------------------------------------------
 -----
 title
 -----
 Symbolic Z-matrix:
 Charge =  0 Multiplicity = 2

 SCF Done:  E(UHF) =  -561.308522445     A.U. after   17 cycles
 Normal termination of Gaussian 16 at Wed Apr  9 00:30:44 2025.
 Gaussian 16:  ES64L-G16RevC.01  3-Jul-2019

 ----------------------------------------------------------------------
 #t hf aug-cc-pvdz iop(5/13=1,5/36=2,99/5=2) pseudo=read geom=check gue
 ss=(read,tcheck) scf=(maxcycle=1)
 ----------------------------------------------------------------------
 -----
 title
 -----
 Structure from the checkpoint file:  "BDE49_nonexpt_349_mol2.chk"
 Charge =  0 Multiplicity = 2

                         Standard orientation:
 ---------------------------------------------------------------------
 Center     Atomic      Atomic             Coordinates (Angstroms)
 Number     Number       Type             X           Y           Z
 ---------------------------------------------------------------------
      1          9           0       -2.201958    0.166685    0.000018
      2         16           0        0.427374   -0.605375   -0.000027
      3          5           0       -0.942937    0.551621    0.000035
      4          6           0        1.868570    0.534963    0.000010
      5          1           0        2.757701   -0.095282   -0.000357
      6          1           0        1.862782    1.156354    0.893370
      7          1           0        1.862416    1.156880   -0.892981
 ---------------------------------------------------------------------

 SCF Done:  E(UHF) =  -561.521926522     A.U. after    2 cycles

 The electronic state is 2-A.
 Alpha  occ. eigenvalues --  -93.96001 -26.48679 -11.28382  -8.24347  -7.70750
 Alpha  occ. eigenvalues --   -6.22282  -6.21992  -6.21764  -1.61888  -1.08093
 Alpha  occ. eigenvalues --   -0.91280  -0.77942  -0.69360  -0.67009  -0.63566
 Alpha  occ. eigenvalues --   -0.61171  -0.54998  -0.50342  -0.39362  -0.35376
 Alpha virt. eigenvalues --    0.03401   0.04476   0.04498   0.05731   0.06822
 Alpha virt. eigenvalues --    0.07264   0.08654   0.10320   0.12497   0.13488
 Alpha virt. eigenvalues --    0.14395   0.15135   0.16942   0.17337   0.18296

  Beta  occ. eigenvalues --  -93.95920 -26.48349 -11.28324  -8.24252  -7.68772
  Beta  occ. eigenvalues --   -6.22031  -6.21816  -6.21747  -1.60985  -1.07393
  Beta  occ. eigenvalues --   -0.90614  -0.76529  -0.66805  -0.66590  -0.62191
  Beta  occ. eigenvalues --   -0.61169  -0.53366  -0.47560  -0.39493
  Beta virt. eigenvalues --    0.02665   0.04367   0.04824   0.05483   0.06689
  Beta virt. eigenvalues --    0.07011   0.07381   0.10658   0.12698   0.12903
  Beta virt. eigenvalues --    0.13804   0.16097   0.16453   0.17336   0.17496

 Mulliken charges and spin densities:
               1          2
     1  F   -0.509388  -0.044476
     2  S   -0.072735   0.040446
     3  B    0.730665   1.036906
     4  C   -0.665430  -0.008608
     5  H    0.181782  -0.004435
     6  H    0.167573  -0.009916
     7  H    0.167534  -0.009917
 Sum of Mulliken charges =   0.00000   1.00000

 Dipole moment (field-independent basis, Debye):
    X=              2.0049    Y=              0.9248    Z=              0.0000  Tot=              2.2080
                          Isotropic Fermi Contact Couplings
        Atom                 a.u.       MegaHertz       Gauss      10(-4) cm-1
     1  F(19)              0.07064     297.22241     106.05635      99.14273
     2  S(33)              0.02237       7.68366       2.74172       2.56299
     3  B(11)              0.35896     514.87514     183.72025     171.74386
     4  C(13)              0.01704      19.15834       6.83617       6.39053
     5  H(1)              -0.00062      -2.75774      -0.98403      -0.91988
     6  H(1)              -0.00039      -1.73797      -0.62015      -0.57972
     7  H(1)              -0.00039      -1.73785      -0.62011      -0.57968
 --------------------------------------------------------

 Normal termination of Gaussian 16 at Wed Apr  9 00:30:46 2025.
