 Gaussian 16, Revision C.01,

 ----------------------------------------------------------------------
 #t hf aug-cc-pvdz symm=none int=(grid=ultrafine) guess=(read,tcheck) s
 table=opt
 ----------------------------------------------------------------------
 -----
 title
 -----
 Symbolic Z-matrix:
 Charge =  0 Multiplicity = 2

 SCF Done:  E(UHF) =  -872.104179145     A.U. after   23 cycles
 Normal termination of Gaussian 16 at Tue Apr  8 23:27:52 2025.
 Gaussian 16:  ES64L-G16RevC.01  3-Jul-2019

 ----------------------------------------------------------------------
 #t hf aug-cc-pvdz iop(5/13=1,5/36=2,99/5=2) pseudo=read geom=check gue
 ss=(read,tcheck) scf=(maxcycle=1)
 ----------------------------------------------------------------------
 -----
 title
 -----
 Structure from the checkpoint file:  "BDE49_nonexpt_1247_mol2.chk"
 Charge =  0 Multiplicity = 2

                         Standard orientation:
 ---------------------------------------------------------------------
 Center     Atomic      Atomic             Coordinates (Angstroms)
 Number     Number       Type             X           Y           Z
 ---------------------------------------------------------------------
      1         15           0        0.311138    1.957567   -0.902777
      2          6           0        0.411869    1.722642    0.917850
      3          6           0        0.022949    0.453671    0.203987
      4          6           0       -1.429337    0.056839    0.320729
      5          8           0       -2.201674    0.552558    1.105080
      6          8           0       -1.762631   -0.871051   -0.583320
      7          6           0       -3.119466   -1.346560   -0.520188
      8          6           0        1.019557   -0.669829    0.161920
      9          8           0        0.771006   -1.832261    0.346156
     10          8           0        2.267113   -0.198922   -0.067443
     11          6           0        3.314580   -1.186605   -0.076447
     12          1           0        1.402153    1.753342    1.358316
     13          1           0       -0.376150    2.165743    1.519411
     14          1           0       -3.819244   -0.527123   -0.691032
     15          1           0       -3.319437   -1.793014    0.454698
     16          1           0       -3.199498   -2.093165   -1.306499
     17          1           0        3.130320   -1.928325   -0.854468
     18          1           0        4.229671   -0.635250   -0.279634
     19          1           0        3.373693   -1.689248    0.889982
 ---------------------------------------------------------------------

 SCF Done:  E(UHF) =  -872.668177474     A.U. after    2 cycles

 The electronic state is 2-A.
 Alpha  occ. eigenvalues --  -84.30720 -20.60043 -20.59136 -20.54288 -20.54044
 Alpha  occ. eigenvalues --  -11.40605 -11.40038 -11.30506 -11.29643 -11.29302
 Alpha  occ. eigenvalues --  -11.27247  -6.77786  -4.30747  -4.30138  -4.29567
 Alpha  occ. eigenvalues --   -1.55483  -1.54746  -1.46136  -1.45605  -1.15277
 Alpha  occ. eigenvalues --   -0.99562  -0.99300  -0.90530  -0.82811  -0.80401
 Alpha  occ. eigenvalues --   -0.77041  -0.74912  -0.69480  -0.68424  -0.67858
 Alpha  occ. eigenvalues --   -0.67095  -0.64654  -0.62159  -0.59700  -0.57596
 Alpha  occ. eigenvalues --   -0.56747  -0.55553  -0.54222  -0.53170  -0.47244
 Alpha  occ. eigenvalues --   -0.46963  -0.45833  -0.44959  -0.41240  -0.39384
 Alpha  occ. eigenvalues --   -0.33667
 Alpha virt. eigenvalues --    0.03330   0.04012   0.04227   0.04954   0.05597
 Alpha virt. eigenvalues --    0.05796   0.06274   0.06695   0.07417   0.07940
 Alpha virt. eigenvalues --    0.10222   0.10458   0.11601   0.12001   0.13059

  Beta  occ. eigenvalues --  -84.29977 -20.59987 -20.59139 -20.54323 -20.53998
  Beta  occ. eigenvalues --  -11.40544 -11.40009 -11.30508 -11.29642 -11.29471
  Beta  occ. eigenvalues --  -11.27430  -6.76850  -4.29691  -4.28886  -4.27256
  Beta  occ. eigenvalues --   -1.55421  -1.54709  -1.46144  -1.45537  -1.14600
  Beta  occ. eigenvalues --   -0.99357  -0.99164  -0.90371  -0.82555  -0.77352
  Beta  occ. eigenvalues --   -0.76247  -0.74562  -0.69311  -0.68273  -0.67763
  Beta  occ. eigenvalues --   -0.66942  -0.63566  -0.61610  -0.59057  -0.57172
  Beta  occ. eigenvalues --   -0.56215  -0.55440  -0.53990  -0.53135  -0.47077
  Beta  occ. eigenvalues --   -0.46860  -0.45648  -0.44769  -0.40200  -0.38716
  Beta virt. eigenvalues --    0.03292   0.03723   0.04049   0.04444   0.05105
  Beta virt. eigenvalues --    0.05635   0.06027   0.06580   0.06846   0.07507
  Beta virt. eigenvalues --    0.08006   0.10337   0.11301   0.11718   0.12380

 Mulliken charges and spin densities:
               1          2
     1  P    0.573330   1.255809
     2  C   -0.215625  -0.190996
     3  C    0.027684  -0.152114
     4  C    2.134991   0.027128
     5  O   -1.340535   0.017972
     6  O   -1.404549   0.004672
     7  C    0.191757  -0.000816
     8  C    1.930792   0.088957
     9  O   -1.308419  -0.008288
    10  O   -1.382093  -0.056013
    11  C    0.229901  -0.026484
    12  H   -0.102268   0.028325
    13  H   -0.068138   0.018392
    14  H    0.176249  -0.003077
    15  H    0.180934   0.000107
    16  H    0.017224  -0.000102
    17  H    0.176774  -0.000960
    18  H    0.002623  -0.002928
    19  H    0.179367   0.000418
 Sum of Mulliken charges =   0.00000   1.00000

 Dipole moment (field-independent basis, Debye):
    X=              1.9720    Y=              0.8243    Z=             -1.4928  Tot=              2.6071
                          Isotropic Fermi Contact Couplings
        Atom                 a.u.       MegaHertz       Gauss      10(-4) cm-1
     1  P(31)              0.20232     366.41391     130.74559     122.22252
     2  C(13)             -0.02866     -32.21927     -11.49664     -10.74719
     3  C(13)             -0.02530     -28.43834     -10.14751      -9.48601
     4  C(13)              0.01076      12.09834       4.31699       4.03557
     5  O(17)              0.00385      -2.33637      -0.83368      -0.77933
     6  O(17)              0.00039      -0.23651      -0.08439      -0.07889
     7  C(13)              0.00025       0.28030       0.10002       0.09350
     8  C(13)              0.01360      15.29003       5.45586       5.10020

 Normal termination of Gaussian 16 at Tue Apr  8 23:28:06 2025.
