 Gaussian 16, Revision C.01,

 ----------------------------------------------------------------------
 #t hf aug-cc-pvdz symm=none int=(grid=ultrafine) guess=(read,tcheck) s
 table=(opt,rrhf)
 ----------------------------------------------------------------------
 -----
 title
 -----
 Symbolic Z-matrix:
 Charge =  0 Multiplicity = 1

 SCF Done:  E(RHF) =  -576.011429856     A.U. after   13 cycles

 1\1\GINC-SE343\Stability\RHF\Aug-CC-pVDZ\C3H5Cl1\OHZDE\08-Apr-2025\0\\
 #t hf aug-cc-pvdz symm=none int=(grid=ultrafine) guess=(read,tcheck) s
 table=(opt,rrhf)\\title\\0,1\C,0,-2.22347,-0.216465,-0.304909\C,0,-1.1
 39959,-0.103177,0.457128\H,0,-2.310294,0.303871,-1.253705\H,0,-3.06357
 5,-0.832342,-0.006177\C,0,0.025835,0.755081,0.106827\H,0,-1.069694,-0.
 643018,1.397265\H,0,-0.119884,1.285081,-0.832243\Cl,0,1.5482,-0.246468
 ,-0.10335\H,0,0.26961,1.463735,0.897536\\Version=ES64L-G16RevC.01\HF=-
 576.0114299\RMSD=4.935e-09\Dipole=-0.8224495,0.442789,0.0981246\Quadru

 Normal termination of Gaussian 16 at Tue Apr  8 22:43:28 2025.
 Gaussian 16:  ES64L-G16RevC.01  3-Jul-2019

 ----------------------------------------------------------------------
 #t hf aug-cc-pvdz iop(5/13=1,5/36=2,99/5=2) pseudo=read geom=check gue
 ss=(read,tcheck) scf=(maxcycle=1)
 ----------------------------------------------------------------------
 -----
 title
 -----
 Structure from the checkpoint file:  "BDE49_expt_148_mol1.chk"
 Charge =  0 Multiplicity = 1

                         Standard orientation:
 ---------------------------------------------------------------------
 Center     Atomic      Atomic             Coordinates (Angstroms)
 Number     Number       Type             X           Y           Z
 ---------------------------------------------------------------------
      1          6           0       -2.223470   -0.216465   -0.304909
      2          6           0       -1.139959   -0.103177    0.457128
      3          1           0       -2.310294    0.303871   -1.253705
      4          1           0       -3.063575   -0.832342   -0.006177
      5          6           0        0.025835    0.755081    0.106827
      6          1           0       -1.069694   -0.643018    1.397265
      7          1           0       -0.119884    1.285081   -0.832243
      8         17           0        1.548200   -0.246468   -0.103350
      9          1           0        0.269610    1.463735    0.897536
 ---------------------------------------------------------------------

 SCF Done:  E(RHF) =  -576.214159914     A.U. after    2 cycles

 The electronic state is 1-A.
 Alpha  occ. eigenvalues -- -105.55361 -11.31416 -11.26195 -11.25421 -10.60142
 Alpha  occ. eigenvalues --   -7.77072  -7.76706  -7.76697  -1.12407  -1.03899
 Alpha  occ. eigenvalues --   -0.91116  -0.78781  -0.68078  -0.63694  -0.60151
 Alpha  occ. eigenvalues --   -0.55183  -0.53397  -0.44831  -0.44320  -0.39069
 Alpha virt. eigenvalues --    0.03607   0.04168   0.04247   0.06176   0.06838
 Alpha virt. eigenvalues --    0.08409   0.09400   0.12363   0.13435   0.14765
 Alpha virt. eigenvalues --    0.15299   0.15786   0.16582   0.16660   0.16978

 Mulliken charges:
               1
     1  C   -0.112597
     2  C    0.790647
     3  H   -0.046952
     4  H   -0.068863
     5  C   -0.809013
     6  H   -0.091671
     7  H    0.183940
     8  Cl  -0.092994
     9  H    0.247502
 Sum of Mulliken charges =  -0.00000

 Dipole moment (field-independent basis, Debye):
    X=             -2.0970    Y=              1.1280    Z=              0.2456  Tot=              2.3938

 Test job not archived.
 1\1\GINC-SE343\SP\RHF\Aug-CC-pVDZ\C3H5Cl1\OHZDE\08-Apr-2025\0\\#t hf a
 ug-cc-pvdz iop(5/13=1,5/36=2,99/5=2) pseudo=read geom=check guess=(rea
 d,tcheck) scf=(maxcycle=1)\\title\\0,1\C,0,-2.22347,-0.216465,-0.30490
 9\C,0,-1.139959,-0.103177,0.457128\H,0,-2.310294,0.303871,-1.253705\H,
 0,-3.063575,-0.832342,-0.006177\C,0,0.025835,0.755081,0.106827\H,0,-1.
 069694,-0.643018,1.397265\H,0,-0.119884,1.285081,-0.832243\Cl,0,1.5482
 ,-0.246468,-0.10335\H,0,0.26961,1.463735,0.897536\\Version=ES64L-G16Re
 vC.01\State=1-A\HF=-576.2141599\RMSD=1.053e-02\Dipole=-0.8250381,0.443

 Normal termination of Gaussian 16 at Tue Apr  8 22:43:31 2025.
