 Gaussian 16, Revision C.01,

 ----------------------------------------------------------------------
 #t hf aug-cc-pvdz symm=none int=(grid=ultrafine) guess=(read,tcheck) s
 table=(opt,rrhf)
 ----------------------------------------------------------------------
 -----
 title
 -----
 Symbolic Z-matrix:
 Charge =  0 Multiplicity = 1

 SCF Done:  E(RHF) =  -1377.45135681     A.U. after   16 cycles
 Normal termination of Gaussian 16 at Wed Apr  9 00:16:22 2025.
 Gaussian 16:  ES64L-G16RevC.01  3-Jul-2019

 ----------------------------------------------------------------------
 #t hf aug-cc-pvdz iop(5/13=1,5/36=2,99/5=2) pseudo=read geom=check gue
 ss=(read,tcheck) scf=(maxcycle=1)
 ----------------------------------------------------------------------
 -----
 title
 -----
 Structure from the checkpoint file:  "BDE49_nonexpt_247_mol1.chk"
 Charge =  0 Multiplicity = 1

                         Standard orientation:
 ---------------------------------------------------------------------
 Center     Atomic      Atomic             Coordinates (Angstroms)
 Number     Number       Type             X           Y           Z
 ---------------------------------------------------------------------
      1         17           0       -3.443157    0.786635   -0.000020
      2         17           0       -2.219362   -1.966287   -0.000029
      3          5           0       -1.988452   -0.217190    0.000045
      4          6           0       -0.572270    0.413883    0.000029
      5          6           0        0.574993   -0.398100    0.000018
      6          6           0        1.830730    0.187781    0.000003
      7          6           0        2.006913    1.567637   -0.000003
      8          6           0       -0.391825    1.811095    0.000022
      9          1           0       -1.260926    2.457342    0.000030
     10          6           0        0.877846    2.380014    0.000007
     11          1           0        0.991050    3.457267    0.000002
     12          1           0        3.008427    1.975062   -0.000015
     13          7           0        3.030674   -0.685331   -0.000006
     14          8           0        2.850099   -1.893775    0.000019
     15          8           0        4.123860   -0.137423    0.000001
     16          1           0        0.501813   -1.476606    0.000022
 ---------------------------------------------------------------------

 SCF Done:  E(RHF) =  -1378.05014989     A.U. after    2 cycles

 The electronic state is 1-A.
 Alpha  occ. eigenvalues -- -105.58750-105.58622 -20.59953 -20.59920 -15.80273
 Alpha  occ. eigenvalues --  -11.32757 -11.30451 -11.30286 -11.29976 -11.28390
 Alpha  occ. eigenvalues --  -11.27296 -10.63765 -10.63634  -7.80661  -7.80532
 Alpha  occ. eigenvalues --   -7.80375  -7.80343  -7.80246  -7.80213  -7.73174
 Alpha  occ. eigenvalues --   -1.67999  -1.51729  -1.21939  -1.13200  -1.11270
 Alpha  occ. eigenvalues --   -1.07170  -1.06403  -0.99433  -0.89413  -0.86198
 Alpha  occ. eigenvalues --   -0.81814  -0.75938  -0.75543  -0.73730  -0.71378
 Alpha  occ. eigenvalues --   -0.69379  -0.66030  -0.63707  -0.59082  -0.57324
 Alpha  occ. eigenvalues --   -0.56883  -0.55623  -0.53375  -0.50856  -0.49800
 Alpha  occ. eigenvalues --   -0.49092  -0.48863  -0.47426  -0.46030  -0.40184
 Alpha  occ. eigenvalues --   -0.39401
 Alpha virt. eigenvalues --    0.00812   0.02464   0.02635   0.03802   0.04146
 Alpha virt. eigenvalues --    0.04472   0.05567   0.05887   0.07507   0.08626
 Alpha virt. eigenvalues --    0.09621   0.10687   0.11185   0.12354   0.12544

 Mulliken charges:
               1
     1  Cl  -0.366491
     2  Cl  -0.332551
     3  B    0.475742
     4  C    0.972260
     5  C   -0.227895
     6  C   -0.052234
     7  C    0.273721
     8  C   -0.203866
     9  H   -0.354086
    10  C    0.459036
    11  H   -0.213745
    12  H   -0.192917
    13  N    3.081271
    14  O   -1.490353
    15  O   -1.525900
    16  H   -0.301990
 Sum of Mulliken charges =  -0.00000

 Dipole moment (field-independent basis, Debye):
    X=             -1.7364    Y=              3.6823    Z=              0.0001  Tot=              4.0711

 Test job not archived.
 1\1\GINC-SE252\SP\RHF\Aug-CC-pVDZ\C6H4B1Cl2N1O2\OHZDE\09-Apr-2025\0\\#
 t hf aug-cc-pvdz iop(5/13=1,5/36=2,99/5=2) pseudo=read geom=check gues
 s=(read,tcheck) scf=(maxcycle=1)\\title\\0,1\Cl,0,-3.443157,0.786635,-
 0.00002\Cl,0,-2.219362,-1.966287,-0.000029\B,0,-1.988452,-0.21719,0.00
 0045\C,0,-0.57227,0.413883,0.000029\C,0,0.574993,-0.3981,0.000018\C,0,
 1.83073,0.187781,0.000003\C,0,2.006913,1.567637,-0.000003\C,0,-0.39182
 5,1.811095,0.000022\H,0,-1.260926,2.457342,0.00003\C,0,0.877846,2.3800
 14,0.000007\H,0,0.99105,3.457267,0.000002\H,0,3.008427,1.975062,-0.000

 Normal termination of Gaussian 16 at Wed Apr  9 00:16:32 2025.
