 Gaussian 16, Revision C.01,

 ----------------------------------------------------------------------
 #t hf aug-cc-pvdz symm=none int=(grid=ultrafine) guess=(read,tcheck) s
 table=(opt,rrhf)
 ----------------------------------------------------------------------
 -----
 title
 -----
 Symbolic Z-matrix:
 Charge =  0 Multiplicity = 1

 SCF Done:  E(RHF) =  -624.156761123     A.U. after   16 cycles
 Normal termination of Gaussian 16 at Wed Apr  9 00:50:24 2025.
 Gaussian 16:  ES64L-G16RevC.01  3-Jul-2019

 ----------------------------------------------------------------------
 #t hf aug-cc-pvdz iop(5/13=1,5/36=2,99/5=2) pseudo=read geom=check gue
 ss=(read,tcheck) scf=(maxcycle=1)
 ----------------------------------------------------------------------
 -----
 title
 -----
 Structure from the checkpoint file:  "BDE49_nonexpt_861_mol1.chk"
 Charge =  0 Multiplicity = 1

                         Standard orientation:
 ---------------------------------------------------------------------
 Center     Atomic      Atomic             Coordinates (Angstroms)
 Number     Number       Type             X           Y           Z
 ---------------------------------------------------------------------
      1          6           0       -0.354110    0.009543   -0.005965
      2          6           0       -1.088450   -1.190138   -0.010211
      3          6           0       -2.480655   -1.188907   -0.042938
      4          6           0       -3.176515    0.018303   -0.065070
      5          6           0       -2.471982    1.220093   -0.052806
      6          6           0       -1.078958    1.213159   -0.019427
      7          5           0        1.823112   -0.509184    2.001964
      8          1           0       -3.022397   -2.128582   -0.051024
      9          1           0       -4.260625    0.022106   -0.090762
     10          1           0       -3.007238    2.163404   -0.070539
     11          1           0       -0.552382    2.161692   -0.013197
     12          1           0       -0.568131   -2.142835    0.006740
     13         14           0        1.544785   -0.019328    0.069489
     14          6           0        2.232123    1.677488   -0.388824
     15          1           0        1.900879    2.451749    0.308550
     16          1           0        1.928454    1.973814   -1.397561
     17          1           0        3.326189    1.664084   -0.363245
     18          6           0        2.209019   -1.308663   -1.140313
     19          1           0        1.946045   -1.051968   -2.170900
     20          1           0        1.809854   -2.304200   -0.928483
     21          1           0        3.299961   -1.373510   -1.079370
     22          1           0        1.928401    0.321715    2.853498
     23          1           0        1.785600   -1.646223    2.366942
 ---------------------------------------------------------------------

 SCF Done:  E(RHF) =  -624.543986397     A.U. after    2 cycles

 The electronic state is 1-A.
 Alpha  occ. eigenvalues --  -69.50351 -11.24442 -11.24423 -11.24364 -11.24192
 Alpha  occ. eigenvalues --  -11.24159 -11.22775 -11.21189 -11.21109  -7.59362
 Alpha  occ. eigenvalues --   -6.17533  -3.92881  -3.92851  -3.92823  -1.14954
 Alpha  occ. eigenvalues --   -1.01514  -1.01425  -0.96031  -0.92781  -0.82965
 Alpha  occ. eigenvalues --   -0.82770  -0.73639  -0.70526  -0.64759  -0.63724
 Alpha  occ. eigenvalues --   -0.61877  -0.59786  -0.57576  -0.56707  -0.55019
 Alpha  occ. eigenvalues --   -0.54604  -0.53991  -0.50994  -0.50269  -0.49358
 Alpha  occ. eigenvalues --   -0.44554  -0.43932  -0.40560  -0.34477  -0.33662
 Alpha virt. eigenvalues --    0.02548   0.03117   0.03305   0.03803   0.04283
 Alpha virt. eigenvalues --    0.04654   0.05408   0.05899   0.06181   0.07317
 Alpha virt. eigenvalues --    0.07394   0.07731   0.09100   0.09223   0.10128

 Mulliken charges:
               1
     1  C   -0.519386
     2  C    0.538240
     3  C    0.190002
     4  C    0.423398
     5  C    0.211466
     6  C    0.323331
     7  B   -1.305971
     8  H   -0.238536
     9  H   -0.214306
    10  H   -0.247817
    11  H   -0.367550
    12  H   -0.399278
    13  Si   1.766837
    14  C   -0.552932
    15  H   -0.023076
    16  H    0.042933
    17  H   -0.090408
    18  C   -0.599075
    19  H   -0.009760
    20  H   -0.002565
    21  H   -0.006479
    22  H    0.542996
    23  H    0.537937
 Sum of Mulliken charges =  -0.00000

 Dipole moment (field-independent basis, Debye):
    X=              0.0941    Y=              0.1089    Z=             -0.4230  Tot=              0.4468

 Test job not archived.
 1\1\GINC-SE424\SP\RHF\Aug-CC-pVDZ\C8H13B1Si1\OHZDE\09-Apr-2025\0\\#t h
 f aug-cc-pvdz iop(5/13=1,5/36=2,99/5=2) pseudo=read geom=check guess=(
 read,tcheck) scf=(maxcycle=1)\\title\\0,1\C,0,-0.35411,0.009543,-0.005
 965\C,0,-1.08845,-1.190138,-0.010211\C,0,-2.480655,-1.188907,-0.042938
 \C,0,-3.176515,0.018303,-0.06507\C,0,-2.471982,1.220093,-0.052806\C,0,
 -1.078958,1.213159,-0.019427\B,0,1.823112,-0.509184,2.001964\H,0,-3.02
 2397,-2.128582,-0.051024\H,0,-4.260625,0.022106,-0.090762\H,0,-3.00723
 8,2.163404,-0.070539\H,0,-0.552382,2.161692,-0.013197\H,0,-0.568131,-2

 Normal termination of Gaussian 16 at Wed Apr  9 00:50:39 2025.
