 Gaussian 16, Revision C.01,

 ----------------------------------------------------------------------
 #t hf aug-cc-pvdz symm=none int=(grid=ultrafine) guess=(read,tcheck) s
 table=opt
 ----------------------------------------------------------------------
 -----
 title
 -----
 Symbolic Z-matrix:
 Charge =  0 Multiplicity = 2

 SCF Done:  E(UHF) =  -1914.28714310     A.U. after   18 cycles

 1\1\GINC-SE125\Stability\UHF\Aug-CC-pVDZ\C2H1Cl4\OHZDE\08-Apr-2025\0\\
 #t hf aug-cc-pvdz symm=none int=(grid=ultrafine) guess=(read,tcheck) s
 table=opt\\title\\0,2\C,0,-0.621319,-0.362818,-0.486471\C,0,0.72307,0.
 173783,-0.20116\H,0,-0.588302,-1.010144,-1.35576\Cl,0,-1.805489,0.9392
 7,-0.839527\Cl,0,-1.24568,-1.419107,0.877278\Cl,0,0.972737,1.348682,1.
 011013\Cl,0,2.077126,-0.742706,-0.72632\\Version=ES64L-G16RevC.01\HF=-
 1914.2871431\S2=0.772999\S2-1=0.\S2A=0.750455\RMSD=8.653e-09\Dipole=0.
 2436313,-0.1273886,-0.4238088\Quadrupole=-1.1089513,0.1522119,0.956739

 Normal termination of Gaussian 16 at Tue Apr  8 22:40:41 2025.
 Gaussian 16:  ES64L-G16RevC.01  3-Jul-2019

 ----------------------------------------------------------------------
 #t hf aug-cc-pvdz iop(5/13=1,5/36=2,99/5=2) pseudo=read geom=check gue
 ss=(read,tcheck) scf=(maxcycle=1)
 ----------------------------------------------------------------------
 -----
 title
 -----
 Structure from the checkpoint file:  "BDE49_expt_132_mol2.chk"
 Charge =  0 Multiplicity = 2

                         Standard orientation:
 ---------------------------------------------------------------------
 Center     Atomic      Atomic             Coordinates (Angstroms)
 Number     Number       Type             X           Y           Z
 ---------------------------------------------------------------------
      1          6           0        0.621319    0.362818   -0.486471
      2          6           0       -0.723070   -0.173783   -0.201160
      3          1           0        0.588302    1.010144   -1.355760
      4         17           0        1.805489   -0.939270   -0.839527
      5         17           0        1.245680    1.419107    0.877278
      6         17           0       -0.972737   -1.348682    1.011013
      7         17           0       -2.077126    0.742706   -0.726320
 ---------------------------------------------------------------------

 SCF Done:  E(UHF) =  -1914.66218282     A.U. after    2 cycles

 The electronic state is 2-A.
 Alpha  occ. eigenvalues -- -105.61698-105.61168-105.59678-105.59059 -11.41053
 Alpha  occ. eigenvalues --  -11.40216 -10.66508 -10.66002 -10.64476 -10.63825
 Alpha  occ. eigenvalues --   -7.83339  -7.83180  -7.83031  -7.82842  -7.82665
 Alpha  occ. eigenvalues --   -7.82516  -7.81472  -7.81005  -7.80981  -7.80955
 Alpha  occ. eigenvalues --   -7.80335  -7.80313  -1.24749  -1.15216  -1.09700
 Alpha  occ. eigenvalues --   -1.06376  -0.96698  -0.81573  -0.70965  -0.67327
 Alpha  occ. eigenvalues --   -0.66991  -0.60983  -0.58019  -0.52676  -0.52026
 Alpha  occ. eigenvalues --   -0.49705  -0.49380  -0.48435  -0.47580  -0.46642
 Alpha  occ. eigenvalues --   -0.38516
 Alpha virt. eigenvalues --    0.04091   0.06779   0.06913   0.08141   0.08834
 Alpha virt. eigenvalues --    0.10219   0.11605   0.12862   0.13755   0.14215
 Alpha virt. eigenvalues --    0.14551   0.15909   0.16550   0.16898   0.17416

  Beta  occ. eigenvalues -- -105.61673-105.61143-105.59641-105.58922 -11.41455
  Beta  occ. eigenvalues --  -11.37325 -10.66479 -10.65972 -10.64436 -10.63681
  Beta  occ. eigenvalues --   -7.83599  -7.83091  -7.83013  -7.82819  -7.82498
  Beta  occ. eigenvalues --   -7.82315  -7.81341  -7.80967  -7.80958  -7.80449
  Beta  occ. eigenvalues --   -7.80236  -7.80205  -1.21736  -1.14548  -1.09334
  Beta  occ. eigenvalues --   -1.05589  -0.94705  -0.78683  -0.69685  -0.66236
  Beta  occ. eigenvalues --   -0.61731  -0.60203  -0.54492  -0.52499  -0.50146
  Beta  occ. eigenvalues --   -0.49171  -0.48733  -0.48039  -0.47290  -0.46486
  Beta virt. eigenvalues --    0.03692   0.04252   0.06968   0.07111   0.08671
  Beta virt. eigenvalues --    0.08976   0.10793   0.11977   0.13464   0.13883
  Beta virt. eigenvalues --    0.14407   0.14730   0.16056   0.16876   0.17106

 Mulliken charges and spin densities:
               1          2
     1  C   -0.632295  -0.244408
     2  C    0.160812   1.155826
     3  H    0.350402   0.003773
     4  Cl   0.084754   0.017009
     5  Cl   0.028512   0.087328
     6  Cl   0.039405  -0.005084
     7  Cl  -0.031590  -0.014444
 Sum of Mulliken charges =  -0.00000   1.00000

 Dipole moment (field-independent basis, Debye):
    X=             -0.6249    Y=              0.3204    Z=             -1.0753  Tot=              1.2843
                          Isotropic Fermi Contact Couplings
        Atom                 a.u.       MegaHertz       Gauss      10(-4) cm-1
     1  C(13)             -0.05900     -66.32800     -23.66748     -22.12464
     2  C(13)              0.31367     352.62879     125.82672     117.62430
     3  H(1)               0.00291      12.99263       4.63609       4.33387
     4  Cl(35)             0.01441       6.31870       2.25467       2.10769
     5  Cl(35)             0.03932      17.24165       6.15225       5.75119
     6  Cl(35)             0.03367      14.76102       5.26710       4.92375
     7  Cl(35)             0.03378      14.81132       5.28505       4.94052
 --------------------------------------------------------

 Normal termination of Gaussian 16 at Tue Apr  8 22:40:45 2025.
