 Gaussian 16, Revision C.01,

 ----------------------------------------------------------------------
 #t hf aug-cc-pvdz symm=none int=(grid=ultrafine) guess=(read,tcheck) s
 table=opt
 ----------------------------------------------------------------------
 -----
 title
 -----
 Symbolic Z-matrix:
 Charge =  0 Multiplicity = 2

 SCF Done:  E(UHF) =  -630.052427938     A.U. after   24 cycles
 Normal termination of Gaussian 16 at Tue Apr  8 23:55:58 2025.
 Gaussian 16:  ES64L-G16RevC.01  3-Jul-2019

 ----------------------------------------------------------------------
 #t hf aug-cc-pvdz iop(5/13=1,5/36=2,99/5=2) pseudo=read geom=check gue
 ss=(read,tcheck) scf=(maxcycle=1)
 ----------------------------------------------------------------------
 -----
 title
 -----
 Structure from the checkpoint file:  "BDE49_nonexpt_1969_mol2.chk"
 Charge =  0 Multiplicity = 2

                         Standard orientation:
 ---------------------------------------------------------------------
 Center     Atomic      Atomic             Coordinates (Angstroms)
 Number     Number       Type             X           Y           Z
 ---------------------------------------------------------------------
      1         14           0        2.421213   -0.521703   -0.260026
      2          6           0        0.804222    0.362902    0.220000
      3          1           0        3.573898    0.178878    0.342295
      4          1           0        2.403196   -1.975071    0.015186
      5          8           0        0.727928    1.500145    0.581148
      6          8           0       -0.299038   -0.486510    0.085072
      7          6           0       -1.591607    0.010620   -0.159889
      8          8           0       -1.797952    1.050525   -0.699213
      9          6           0       -2.608568   -0.989992    0.312401
     10          1           0       -2.551606   -1.077364    1.400434
     11          1           0       -2.390937   -1.974490   -0.106248
     12          1           0       -3.603329   -0.662572    0.017569
 ---------------------------------------------------------------------

 SCF Done:  E(UHF) =  -630.411581515     A.U. after    2 cycles

 The electronic state is 2-A.
 Alpha  occ. eigenvalues --  -69.57005 -20.61309 -20.56911 -20.55739 -11.41226
 Alpha  occ. eigenvalues --  -11.39807 -11.26685  -6.24206  -4.00198  -3.99281
 Alpha  occ. eigenvalues --   -3.99233  -1.57216  -1.50829  -1.46832  -1.05013
 Alpha  occ. eigenvalues --   -0.91856  -0.80083  -0.74647  -0.70981  -0.69211
 Alpha  occ. eigenvalues --   -0.67579  -0.62293  -0.61140  -0.59637  -0.56898
 Alpha  occ. eigenvalues --   -0.54192  -0.52489  -0.48641  -0.47356  -0.43285
 Alpha  occ. eigenvalues --   -0.36023
 Alpha virt. eigenvalues --    0.03086   0.03917   0.04776   0.05164   0.05825
 Alpha virt. eigenvalues --    0.06267   0.06975   0.08629   0.09267   0.10357
 Alpha virt. eigenvalues --    0.12052   0.12206   0.12922   0.13425   0.14491

  Beta  occ. eigenvalues --  -69.56420 -20.61361 -20.56273 -20.55746 -11.41216
  Beta  occ. eigenvalues --  -11.40082 -11.26685  -6.23328  -3.98860  -3.98817
  Beta  occ. eigenvalues --   -3.97945  -1.57137  -1.50155  -1.46351  -1.05000
  Beta  occ. eigenvalues --   -0.91406  -0.77744  -0.74189  -0.70809  -0.68774
  Beta  occ. eigenvalues --   -0.66824  -0.61688  -0.60742  -0.59594  -0.56365
  Beta  occ. eigenvalues --   -0.53003  -0.51791  -0.47674  -0.46926  -0.42409
  Beta virt. eigenvalues --    0.00250   0.03155   0.04168   0.04963   0.05353
  Beta virt. eigenvalues --    0.06049   0.06980   0.07219   0.08992   0.10084
  Beta virt. eigenvalues --    0.11724   0.12237   0.12733   0.13464   0.13733

 Mulliken charges and spin densities:
               1          2
     1  Si   0.600726   1.013564
     2  C    1.137444  -0.162742
     3  H   -0.123097  -0.002365
     4  H   -0.100869  -0.011718
     5  O   -0.967878   0.158217
     6  O   -1.230269  -0.016785
     7  C    1.751310   0.019842
     8  O   -1.117443  -0.000453
     9  C   -0.616688   0.002096
    10  H    0.250539  -0.000137
    11  H    0.231346   0.000437
    12  H    0.184878   0.000047
 Sum of Mulliken charges =  -0.00000   1.00000

 Dipole moment (field-independent basis, Debye):
    X=              0.3277    Y=             -4.0231    Z=              0.5438  Tot=              4.0729
                          Isotropic Fermi Contact Couplings
        Atom                 a.u.       MegaHertz       Gauss      10(-4) cm-1
     1  Si(29)             0.57549    -511.45637    -182.50035    -170.60348
     2  C(13)             -0.02305     -25.91067      -9.24557      -8.64287
     3  H(1)              -0.00035      -1.58307      -0.56488      -0.52806
     4  H(1)              -0.00128      -5.72389      -2.04243      -1.90928
     5  O(17)              0.04763     -28.87393     -10.30294      -9.63131
     6  O(17)             -0.00479       2.90440       1.03636       0.96880
     7  C(13)              0.00121       1.35639       0.48399       0.45244
     8  O(17)             -0.00021       0.12945       0.04619       0.04318

 Normal termination of Gaussian 16 at Tue Apr  8 23:56:03 2025.
