 Gaussian 16, Revision C.01,

 ----------------------------------------------------------------------
 #t hf aug-cc-pvdz symm=none int=(grid=ultrafine) guess=(read,tcheck) s
 table=(opt,rrhf)
 ----------------------------------------------------------------------
 -----
 title
 -----
 Symbolic Z-matrix:
 Charge =  0 Multiplicity = 1

 SCF Done:  E(RHF) =  -2065.68459594     A.U. after   14 cycles
 Normal termination of Gaussian 16 at Wed Apr  9 00:16:06 2025.
 Gaussian 16:  ES64L-G16RevC.01  3-Jul-2019

 ----------------------------------------------------------------------
 #t hf aug-cc-pvdz iop(5/13=1,5/36=2,99/5=2) pseudo=read geom=check gue
 ss=(read,tcheck) scf=(maxcycle=1)
 ----------------------------------------------------------------------
 -----
 title
 -----
 Structure from the checkpoint file:  "BDE49_nonexpt_2532_mol1.chk"
 Charge =  0 Multiplicity = 1

                         Standard orientation:
 ---------------------------------------------------------------------
 Center     Atomic      Atomic             Coordinates (Angstroms)
 Number     Number       Type             X           Y           Z
 ---------------------------------------------------------------------
      1         17           0       -2.595266    0.051802    0.211087
      2         16           0       -0.984923   -1.077157   -0.484554
      3         14           0        0.580179    0.048275    0.466155
      4         17           0        2.265953   -1.046399    0.014215
      5         17           0        0.755273    1.960583   -0.265872
      6          1           0        0.394942    0.136913    1.916382
 ---------------------------------------------------------------------

 SCF Done:  E(RHF) =  -2066.00812020     A.U. after    2 cycles

 The electronic state is 1-A.
 Alpha  occ. eigenvalues -- -105.60801-105.59217-105.58715 -94.02513 -69.66935
 Alpha  occ. eigenvalues --  -10.65442 -10.64235 -10.63746  -8.30443  -7.82389
 Alpha  occ. eigenvalues --   -7.81931  -7.81894  -7.81122  -7.80794  -7.80786
 Alpha  occ. eigenvalues --   -7.80636  -7.80301  -7.80296  -6.32926  -6.28221
 Alpha  occ. eigenvalues --   -6.27981  -6.27722  -4.08320  -4.08260  -4.08106
 Alpha  occ. eigenvalues --   -1.14058  -1.10224  -1.06921  -0.95607  -0.74345
 Alpha  occ. eigenvalues --   -0.60430  -0.59351  -0.58888  -0.55026  -0.53662
 Alpha  occ. eigenvalues --   -0.51447  -0.50317  -0.49440  -0.48826  -0.45243
 Alpha  occ. eigenvalues --   -0.40512
 Alpha virt. eigenvalues --    0.02349   0.04909   0.05430   0.05603   0.06419
 Alpha virt. eigenvalues --    0.08425   0.10317   0.11538   0.11904   0.12127
 Alpha virt. eigenvalues --    0.12864   0.14010   0.14579   0.15304   0.16602

 Mulliken charges:
               1
     1  Cl  -0.300739
     2  S   -0.344927
     3  Si   1.753080
     4  Cl  -0.500668
     5  Cl  -0.499135
     6  H   -0.107611
 Sum of Mulliken charges =  -0.00000

 Dipole moment (field-independent basis, Debye):
    X=              0.2890    Y=             -0.2773    Z=              0.8457  Tot=              0.9357

 Test job not archived.
 1\1\GINC-SE250\SP\RHF\Aug-CC-pVDZ\Cl3H1S1Si1\OHZDE\09-Apr-2025\0\\#t h
 f aug-cc-pvdz iop(5/13=1,5/36=2,99/5=2) pseudo=read geom=check guess=(
 read,tcheck) scf=(maxcycle=1)\\title\\0,1\Cl,0,-2.595266,0.051802,0.21
 1087\S,0,-0.984923,-1.077157,-0.484554\Si,0,0.580179,0.048275,0.466155
 \Cl,0,2.265953,-1.046399,0.014215\Cl,0,0.755273,1.960583,-0.265872\H,0
 ,0.394942,0.136913,1.916382\\Version=ES64L-G16RevC.01\State=1-A\HF=-20
 66.0081202\RMSD=3.231e-03\Dipole=0.1137179,-0.1090822,0.3327222\Quadru
 pole=-0.8445871,-0.1990678,1.0436549,-0.4416229,0.2428913,0.8184377\PG

 Normal termination of Gaussian 16 at Wed Apr  9 00:16:09 2025.
