 Gaussian 16, Revision C.01,

 ----------------------------------------------------------------------
 #t hf aug-cc-pvdz symm=none int=(grid=ultrafine) guess=(read,tcheck) s
 table=(opt,rrhf)
 ----------------------------------------------------------------------
 -----
 title
 -----
 Symbolic Z-matrix:
 Charge =  0 Multiplicity = 1

 SCF Done:  E(RHF) =  -439.155518023     A.U. after   13 cycles
 Normal termination of Gaussian 16 at Tue Apr  8 23:59:24 2025.
 Gaussian 16:  ES64L-G16RevC.01  3-Jul-2019

 ----------------------------------------------------------------------
 #t hf aug-cc-pvdz iop(5/13=1,5/36=2,99/5=2) pseudo=read geom=check gue
 ss=(read,tcheck) scf=(maxcycle=1)
 ----------------------------------------------------------------------
 -----
 title
 -----
 Structure from the checkpoint file:  "BDE49_nonexpt_2078_mol1.chk"
 Charge =  0 Multiplicity = 1

                         Standard orientation:
 ---------------------------------------------------------------------
 Center     Atomic      Atomic             Coordinates (Angstroms)
 Number     Number       Type             X           Y           Z
 ---------------------------------------------------------------------
      1         14           0       -1.630283    0.041800    0.000001
      2          7           0        0.087149   -0.469951    0.000009
      3          7           0        0.936914    0.438047   -0.000007
      4          6           0        2.321708   -0.053883   -0.000004
      5          1           0        2.820282    0.362424   -0.880528
      6          1           0        2.364909   -1.146775    0.000023
      7          1           0        2.820296    0.362471    0.880489
      8          1           0       -2.235110   -0.564259    1.205862
      9          1           0       -2.235125   -0.564344   -1.205809
     10          1           0       -1.809976    1.511898   -0.000049
 ---------------------------------------------------------------------

 SCF Done:  E(RHF) =  -439.342246765     A.U. after    2 cycles

 The electronic state is 1-A.
 Alpha  occ. eigenvalues --  -69.54959 -15.57878 -15.53834 -11.26246  -6.21913
 Alpha  occ. eigenvalues --   -3.97302  -3.97238  -3.97232  -1.35244  -1.04005
 Alpha  occ. eigenvalues --   -0.86458  -0.74926  -0.66933  -0.64955  -0.63108
 Alpha  occ. eigenvalues --   -0.54876  -0.53653  -0.49431  -0.47756  -0.40902
 Alpha virt. eigenvalues --    0.03700   0.04623   0.05451   0.05706   0.05969
 Alpha virt. eigenvalues --    0.06144   0.06294   0.07305   0.09080   0.09471
 Alpha virt. eigenvalues --    0.11955   0.14573   0.15026   0.15204   0.15866

 Mulliken charges:
               1
     1  Si   0.872672
     2  N   -0.357998
     3  N   -0.130457
     4  C   -0.294025
     5  H    0.167000
     6  H    0.077762
     7  H    0.166996
     8  H   -0.187109
     9  H   -0.187107
    10  H   -0.127734
 Sum of Mulliken charges =  -0.00000

 Dipole moment (field-independent basis, Debye):
    X=              0.4523    Y=              0.1026    Z=             -0.0000  Tot=              0.4638

 Test job not archived.
 1\1\GINC-SE322\SP\RHF\Aug-CC-pVDZ\C1H6N2Si1\OHZDE\08-Apr-2025\0\\#t hf
  aug-cc-pvdz iop(5/13=1,5/36=2,99/5=2) pseudo=read geom=check guess=(r
 ead,tcheck) scf=(maxcycle=1)\\title\\0,1\Si,0,-1.630283,0.0418,0.00000
 1\N,0,0.087149,-0.469951,0.000009\N,0,0.936914,0.438047,-0.000007\C,0,
 2.321708,-0.053883,-0.000004\H,0,2.820282,0.362424,-0.880528\H,0,2.364
 909,-1.146775,0.000023\H,0,2.820296,0.362471,0.880489\H,0,-2.23511,-0.
 564259,1.205862\H,0,-2.235125,-0.564344,-1.205809\H,0,-1.809976,1.5118
 98,-0.000049\\Version=ES64L-G16RevC.01\State=1-A\HF=-439.3422468\RMSD=

 Normal termination of Gaussian 16 at Tue Apr  8 23:59:28 2025.
