 Gaussian 16, Revision C.01,

 ----------------------------------------------------------------------
 #t hf aug-cc-pvdz symm=none int=(grid=ultrafine) guess=(read,tcheck) s
 table=(opt,rrhf)
 ----------------------------------------------------------------------
 -----
 title
 -----
 Symbolic Z-matrix:
 Charge =  0 Multiplicity = 1

 SCF Done:  E(RHF) =  -418.855567490     A.U. after   14 cycles
 Normal termination of Gaussian 16 at Wed Apr  9 00:28:50 2025.
 Gaussian 16:  ES64L-G16RevC.01  3-Jul-2019

 ----------------------------------------------------------------------
 #t hf aug-cc-pvdz iop(5/13=1,5/36=2,99/5=2) pseudo=read geom=check gue
 ss=(read,tcheck) scf=(maxcycle=1)
 ----------------------------------------------------------------------
 -----
 title
 -----
 Structure from the checkpoint file:  "BDE49_nonexpt_305_mol1.chk"
 Charge =  0 Multiplicity = 1

                         Standard orientation:
 ---------------------------------------------------------------------
 Center     Atomic      Atomic             Coordinates (Angstroms)
 Number     Number       Type             X           Y           Z
 ---------------------------------------------------------------------
      1          6           0        0.085287   -0.795874    0.447878
      2          7           0        1.344496   -0.088783    0.031686
      3          5           0       -1.256393   -0.038256    0.011681
      4          1           0        0.128434   -0.827866    1.541381
      5          1           0        0.154450   -1.812185    0.068588
      6          8           0        2.238398   -0.744137   -0.462701
      7          8           0        1.398189    1.127360    0.232916
      8          8           0       -2.357351   -0.825512   -0.103808
      9          8           0       -1.319331    1.296117   -0.192940
     10          1           0       -0.455927    1.714368   -0.046694
     11          1           0       -3.147430   -0.316937   -0.318485
 ---------------------------------------------------------------------

 SCF Done:  E(RHF) =  -419.264564517     A.U. after    2 cycles

 The electronic state is 1-A.
 Alpha  occ. eigenvalues --  -20.61210 -20.60056 -20.57966 -20.57170 -15.80190
 Alpha  occ. eigenvalues --  -11.30611  -7.67241  -1.68448  -1.52216  -1.50122
 Alpha  occ. eigenvalues --   -1.46211  -1.13040  -0.90835  -0.81563  -0.77485
 Alpha  occ. eigenvalues --   -0.77298  -0.75990  -0.73258  -0.66290  -0.62303
 Alpha  occ. eigenvalues --   -0.58299  -0.57722  -0.53616  -0.51181  -0.50200
 Alpha  occ. eigenvalues --   -0.49897  -0.46628
 Alpha virt. eigenvalues --    0.03047   0.03641   0.04606   0.05123   0.05654
 Alpha virt. eigenvalues --    0.06929   0.08245   0.08430   0.09519   0.12264
 Alpha virt. eigenvalues --    0.13830   0.14771   0.16196   0.16651   0.17055

 Mulliken charges:
               1
     1  C   -0.512676
     2  N    2.395073
     3  B    1.726431
     4  H    0.157056
     5  H    0.042080
     6  O   -1.275387
     7  O   -1.340365
     8  O   -1.165944
     9  O   -1.193003
    10  H    0.663079
    11  H    0.503654
 Sum of Mulliken charges =  -0.00000

 Dipole moment (field-independent basis, Debye):
    X=             -2.3801    Y=             -0.8393    Z=              1.0575  Tot=              2.7364

 Test job not archived.
 1\1\GINC-SE159\SP\RHF\Aug-CC-pVDZ\C1H4B1N1O4\OHZDE\09-Apr-2025\0\\#t h
 f aug-cc-pvdz iop(5/13=1,5/36=2,99/5=2) pseudo=read geom=check guess=(
 read,tcheck) scf=(maxcycle=1)\\title\\0,1\C,0,0.085287,-0.795874,0.447
 878\N,0,1.344496,-0.088783,0.031686\B,0,-1.256393,-0.038256,0.011681\H
 ,0,0.128434,-0.827866,1.541381\H,0,0.15445,-1.812185,0.068588\O,0,2.23
 8398,-0.744137,-0.462701\O,0,1.398189,1.12736,0.232916\O,0,-2.357351,-
 0.825512,-0.103808\O,0,-1.319331,1.296117,-0.19294\H,0,-0.455927,1.714
 368,-0.046694\H,0,-3.14743,-0.316937,-0.318485\\Version=ES64L-G16RevC.

 Normal termination of Gaussian 16 at Wed Apr  9 00:28:54 2025.
