 Gaussian 16, Revision C.01,

 ----------------------------------------------------------------------
 #t hf aug-cc-pvdz symm=none int=(grid=ultrafine) guess=(read,tcheck) s
 table=(opt,rrhf)
 ----------------------------------------------------------------------
 -----
 title
 -----
 Symbolic Z-matrix:
 Charge =  0 Multiplicity = 1

 SCF Done:  E(RHF) =  -761.985059767     A.U. after   15 cycles
 Normal termination of Gaussian 16 at Tue Apr  8 23:33:55 2025.
 Gaussian 16:  ES64L-G16RevC.01  3-Jul-2019

 ----------------------------------------------------------------------
 #t hf aug-cc-pvdz iop(5/13=1,5/36=2,99/5=2) pseudo=read geom=check gue
 ss=(read,tcheck) scf=(maxcycle=1)
 ----------------------------------------------------------------------
 -----
 title
 -----
 Structure from the checkpoint file:  "BDE49_nonexpt_1405_mol1.chk"
 Charge =  0 Multiplicity = 1

                         Standard orientation:
 ---------------------------------------------------------------------
 Center     Atomic      Atomic             Coordinates (Angstroms)
 Number     Number       Type             X           Y           Z
 ---------------------------------------------------------------------
      1          6           0        0.800281   -1.444841   -0.200089
      2          6           0       -0.689674   -1.271773   -0.481522
      3         15           0        1.751666   -0.000000    0.533129
      4          6           0        0.800282    1.444840   -0.200091
      5          6           0       -0.689674    1.271776   -0.481517
      6          6           0       -1.397981    0.000000    0.039167
      7          1           0       -0.773047    1.313894   -1.575695
      8          1           0       -1.189246    2.171981   -0.108548
      9          1           0       -1.189248   -2.171980   -0.108561
     10          1           0       -0.773041   -1.313884   -1.575701
     11          8           0        1.369596    2.487258   -0.414264
     12          8           0        1.369594   -2.487258   -0.414265
     13          6           0       -1.478769   -0.000003    1.580234
     14          1           0       -2.017387   -0.883545    1.934094
     15          1           0       -2.017388    0.883537    1.934097
     16          1           0       -0.498053   -0.000003    2.062167
     17          6           0       -2.834884    0.000002   -0.517669
     18          1           0       -2.838218    0.000004   -1.611615
     19          1           0       -3.383457    0.883698   -0.179457
     20          1           0       -3.383457   -0.883695   -0.179460
     21          1           0        2.816551   -0.000002   -0.391092
 ---------------------------------------------------------------------

 SCF Done:  E(RHF) =  -762.458329337     A.U. after    2 cycles

 The electronic state is 1-A.
 Alpha  occ. eigenvalues --  -84.29734 -20.55762 -20.55761 -11.36316 -11.36306
 Alpha  occ. eigenvalues --  -11.27974 -11.26512 -11.26495 -11.24914 -11.24838
 Alpha  occ. eigenvalues --   -6.77053  -4.29750  -4.29668  -4.28924  -1.49240
 Alpha  occ. eigenvalues --   -1.49219  -1.15342  -1.01517  -1.01165  -0.96357
 Alpha  occ. eigenvalues --   -0.92931  -0.80814  -0.78863  -0.71081  -0.68277
 Alpha  occ. eigenvalues --   -0.67332  -0.66391  -0.63182  -0.62760  -0.62261
 Alpha  occ. eigenvalues --   -0.58358  -0.57381  -0.56766  -0.56322  -0.53480
 Alpha  occ. eigenvalues --   -0.52237  -0.51240  -0.49529  -0.49244  -0.43693
 Alpha  occ. eigenvalues --   -0.38396  -0.35217
 Alpha virt. eigenvalues --    0.02777   0.03248   0.03569   0.04201   0.05756
 Alpha virt. eigenvalues --    0.05833   0.05920   0.06326   0.07096   0.08352
 Alpha virt. eigenvalues --    0.08855   0.09078   0.09241   0.10255   0.11310

 Mulliken charges:
               1
     1  C    0.477379
     2  C    0.202751
     3  P    0.100790
     4  C    0.477377
     5  C    0.202751
     6  C   -2.202844
     7  H    0.288363
     8  H    0.177785
     9  H    0.177784
    10  H    0.288364
    11  O   -1.286628
    12  O   -1.286628
    13  C    0.026702
    14  H    0.203201
    15  H    0.203200
    16  H    0.248375
    17  C    0.468629
    18  H    0.156756
    19  H    0.204158
    20  H    0.204157
    21  H    0.667581
 Sum of Mulliken charges =  -0.00000

 Dipole moment (field-independent basis, Debye):
    X=             -3.6347    Y=             -0.0000    Z=              0.4446  Tot=              3.6618

 Test job not archived.
 1\1\GINC-SE090\SP\RHF\Aug-CC-pVDZ\C7H11O2P1\OHZDE\08-Apr-2025\0\\#t hf
  aug-cc-pvdz iop(5/13=1,5/36=2,99/5=2) pseudo=read geom=check guess=(r
 ead,tcheck) scf=(maxcycle=1)\\title\\0,1\C,0,-0.800281,1.444841,-0.200
 089\C,0,0.689674,1.271773,-0.481522\P,0,-1.751666,0.,0.533129\C,0,-0.8
 00282,-1.44484,-0.200091\C,0,0.689674,-1.271776,-0.481517\C,0,1.397981
 ,0.,0.039167\H,0,0.773047,-1.313894,-1.575695\H,0,1.189246,-2.171981,-
 0.108548\H,0,1.189248,2.17198,-0.108561\H,0,0.773041,1.313884,-1.57570
 1\O,0,-1.369595,-2.487258,-0.414264\O,0,-1.369594,2.487258,-0.414265\C

 Normal termination of Gaussian 16 at Tue Apr  8 23:34:09 2025.
