 Gaussian 16, Revision C.01,

 ----------------------------------------------------------------------
 #t hf aug-cc-pvdz symm=none int=(grid=ultrafine) guess=(read,tcheck) s
 table=(opt,rrhf)
 ----------------------------------------------------------------------
 -----
 title
 -----
 Symbolic Z-matrix:
 Charge =  0 Multiplicity = 1

 SCF Done:  E(RHF) =  -1247.42923422     A.U. after   17 cycles
 Normal termination of Gaussian 16 at Tue Apr  8 22:48:57 2025.
 Gaussian 16:  ES64L-G16RevC.01  3-Jul-2019

 ----------------------------------------------------------------------
 #t hf aug-cc-pvdz iop(5/13=1,5/36=2,99/5=2) pseudo=read geom=check gue
 ss=(read,tcheck) scf=(maxcycle=1)
 ----------------------------------------------------------------------
 -----
 title
 -----
 Structure from the checkpoint file:  "BDE49_expt_1680_mol1.chk"
 Charge =  0 Multiplicity = 1

                         Standard orientation:
 ---------------------------------------------------------------------
 Center     Atomic      Atomic             Coordinates (Angstroms)
 Number     Number       Type             X           Y           Z
 ---------------------------------------------------------------------
      1          6           0       -0.003770   -1.670001   -0.000000
      2          6           0       -1.206238   -0.970340   -0.000000
      3          6           0       -1.213290    0.421219    0.000000
      4          6           0       -0.000000    1.106117    0.000000
      5          6           0        1.209638    0.428562   -0.000000
      6          6           0        1.194066   -0.961710   -0.000000
      7          1           0        0.002052   -2.751449   -0.000000
      8          1           0       -2.148341   -1.502838    0.000000
      9          1           0        2.134120    0.989561   -0.000000
     10         17           0        2.713841   -1.830428   -0.000000
     11          9           0        0.010105    2.446091    0.000000
     12         17           0       -2.711559    1.308476    0.000000
 ---------------------------------------------------------------------

 SCF Done:  E(RHF) =  -1247.90068520     A.U. after    2 cycles

 The electronic state is 1-A'.
 Alpha  occ. eigenvalues -- -105.59049-105.59018 -26.50088 -11.37025 -11.33808
 Alpha  occ. eigenvalues --  -11.33220 -11.28791 -11.28270 -11.27922 -10.63843
 Alpha  occ. eigenvalues --  -10.63807  -7.80812  -7.80779  -7.80403  -7.80387
 Alpha  occ. eigenvalues --   -7.80357  -7.80343  -1.63332  -1.21944  -1.15027
 Alpha  occ. eigenvalues --   -1.08226  -1.06042  -0.98537  -0.89473  -0.85528
 Alpha  occ. eigenvalues --   -0.75510  -0.74094  -0.70818  -0.69990  -0.65735
 Alpha  occ. eigenvalues --   -0.63047  -0.61789  -0.58296  -0.57997  -0.54883
 Alpha  occ. eigenvalues --   -0.53462  -0.48566  -0.48113  -0.47457  -0.38246
 Alpha  occ. eigenvalues --   -0.35849
 Alpha virt. eigenvalues --    0.03322   0.04088   0.04772   0.06733   0.07462
 Alpha virt. eigenvalues --    0.08067   0.08480   0.10442   0.10862   0.11444
 Alpha virt. eigenvalues --    0.12515   0.12682   0.13022   0.13342   0.14064

 Mulliken charges:
               1
     1  C    0.301119
     2  C    0.705641
     3  C   -0.723872
     4  C    1.652810
     5  C   -0.041212
     6  C    0.088865
     7  H   -0.166593
     8  H   -0.154013
     9  H   -0.118460
    10  Cl  -0.301006
    11  F   -0.971922
    12  Cl  -0.271357
 Sum of Mulliken charges =  -0.00000

 Dipole moment (field-independent basis, Debye):
    X=             -0.1018    Y=             -1.4690    Z=             -0.0000  Tot=              1.4725

 Test job not archived.
 1\1\GINC-SE273\SP\RHF\Aug-CC-pVDZ\C6H3Cl2F1\OHZDE\08-Apr-2025\0\\#t hf
  aug-cc-pvdz iop(5/13=1,5/36=2,99/5=2) pseudo=read geom=check guess=(r
 ead,tcheck) scf=(maxcycle=1)\\title\\0,1\C,0,0.003771,-1.670001,0.\C,0
 ,1.206238,-0.97034,0.\C,0,1.21329,0.421219,0.\C,0,0.,1.106117,0.\C,0,-
 1.209638,0.428562,0.\C,0,-1.194066,-0.96171,0.\H,0,-0.002051,-2.751449
 ,0.\H,0,2.148342,-1.502837,0.\H,0,-2.13412,0.989561,0.\Cl,0,-2.71384,-
 1.830428,0.\F,0,-0.010105,2.446091,0.\Cl,0,2.711559,1.308477,0.\\Versi
 on=ES64L-G16RevC.01\State=1-A'\HF=-1247.9006852\RMSD=3.782e-02\Dipole=

 Normal termination of Gaussian 16 at Tue Apr  8 22:49:06 2025.
