 Gaussian 16, Revision C.01,

 ----------------------------------------------------------------------
 #t hf aug-cc-pvdz symm=none int=(grid=ultrafine) guess=(read,tcheck) s
 table=(opt,rrhf)
 ----------------------------------------------------------------------
 -----
 title
 -----
 Symbolic Z-matrix:
 Charge =  0 Multiplicity = 1

 SCF Done:  E(RHF) =  -508.567712558     A.U. after   12 cycles
 Normal termination of Gaussian 16 at Tue Apr  8 23:54:48 2025.
 Gaussian 16:  ES64L-G16RevC.01  3-Jul-2019

 ----------------------------------------------------------------------
 #t hf aug-cc-pvdz iop(5/13=1,5/36=2,99/5=2) pseudo=read geom=check gue
 ss=(read,tcheck) scf=(maxcycle=1)
 ----------------------------------------------------------------------
 -----
 title
 -----
 Structure from the checkpoint file:  "BDE49_nonexpt_1962_mol1.chk"
 Charge =  0 Multiplicity = 1

                         Standard orientation:
 ---------------------------------------------------------------------
 Center     Atomic      Atomic             Coordinates (Angstroms)
 Number     Number       Type             X           Y           Z
 ---------------------------------------------------------------------
      1         14           0        2.034710   -0.281802   -0.257493
      2          6           0        0.590633    0.083210    0.903626
      3          5           0       -0.708243    0.577848    0.154312
      4          1           0        1.689367   -1.366405   -1.209614
      5          1           0        3.228325   -0.710510    0.511383
      6          8           0       -1.686356   -0.274948   -0.262516
      7          6           0       -0.942674    2.104485   -0.163451
      8          1           0        2.394797    0.921762   -1.044208
      9          1           0       -0.052681    2.577672   -0.593045
     10          1           0       -1.148777    2.649374    0.767302
     11          1           0       -1.786271    2.268218   -0.837585
     12          6           0       -1.668176   -1.682019   -0.037679
     13          1           0       -2.549508   -2.099888   -0.524792
     14          1           0       -1.714392   -1.912748    1.031059
     15          1           0       -0.774753   -2.145400   -0.465584
     16          1           0        0.952122    0.862203    1.584799
     17          1           0        0.429208   -0.822759    1.498777
 ---------------------------------------------------------------------

 SCF Done:  E(RHF) =  -508.836425341     A.U. after    2 cycles

 The electronic state is 1-A.
 Alpha  occ. eigenvalues --  -69.52927 -20.54479 -11.29021 -11.20434 -11.19424
 Alpha  occ. eigenvalues --   -7.60306  -6.19950  -3.95327  -3.95325  -3.95316
 Alpha  occ. eigenvalues --   -1.45724  -0.97867  -0.95106  -0.91714  -0.72654
 Alpha  occ. eigenvalues --   -0.70481  -0.63742  -0.63470  -0.60370  -0.55940
 Alpha  occ. eigenvalues --   -0.54637  -0.52555  -0.50380  -0.48938  -0.47462
 Alpha  occ. eigenvalues --   -0.47413  -0.45226  -0.42652
 Alpha virt. eigenvalues --    0.03332   0.03540   0.03743   0.04192   0.05976
 Alpha virt. eigenvalues --    0.06167   0.06602   0.06922   0.07462   0.08752
 Alpha virt. eigenvalues --    0.09335   0.09842   0.09881   0.10341   0.10942

 Mulliken charges:
               1
     1  Si   0.778359
     2  C   -0.688369
     3  B    1.814855
     4  H   -0.167945
     5  H   -0.185676
     6  O   -1.409451
     7  C   -0.513446
     8  H   -0.136241
     9  H    0.050872
    10  H    0.103456
    11  H   -0.087521
    12  C    0.456140
    13  H   -0.067285
    14  H    0.102014
    15  H    0.155982
    16  H   -0.090535
    17  H   -0.115208
 Sum of Mulliken charges =  -0.00000

 Dipole moment (field-independent basis, Debye):
    X=              0.1069    Y=             -1.0033    Z=              1.0002  Tot=              1.4207

 Test job not archived.
 1\1\GINC-SE331\SP\RHF\Aug-CC-pVDZ\C3H11B1O1Si1\OHZDE\08-Apr-2025\0\\#t
  hf aug-cc-pvdz iop(5/13=1,5/36=2,99/5=2) pseudo=read geom=check guess
 =(read,tcheck) scf=(maxcycle=1)\\title\\0,1\Si,0,2.03471,-0.281802,-0.
 257493\C,0,0.590633,0.08321,0.903626\B,0,-0.708243,0.577848,0.154312\H
 ,0,1.689367,-1.366405,-1.209614\H,0,3.228325,-0.71051,0.511383\O,0,-1.
 686356,-0.274948,-0.262516\C,0,-0.942674,2.104485,-0.163451\H,0,2.3947
 97,0.921762,-1.044208\H,0,-0.052681,2.577672,-0.593045\H,0,-1.148777,2
 .649374,0.767302\H,0,-1.786271,2.268218,-0.837585\C,0,-1.668176,-1.682

 Normal termination of Gaussian 16 at Tue Apr  8 23:54:53 2025.
