 Gaussian 16, Revision C.01,

 ----------------------------------------------------------------------
 #t hf aug-cc-pvdz symm=none int=(grid=ultrafine) guess=(read,tcheck) s
 table=(opt,rrhf)
 ----------------------------------------------------------------------
 -----
 title
 -----
 Symbolic Z-matrix:
 Charge =  0 Multiplicity = 1

 SCF Done:  E(RHF) =  -1223.45571777     A.U. after   15 cycles
 Normal termination of Gaussian 16 at Wed Apr  9 00:24:59 2025.
 Gaussian 16:  ES64L-G16RevC.01  3-Jul-2019

 ----------------------------------------------------------------------
 #t hf aug-cc-pvdz iop(5/13=1,5/36=2,99/5=2) pseudo=read geom=check gue
 ss=(read,tcheck) scf=(maxcycle=1)
 ----------------------------------------------------------------------
 -----
 title
 -----
 Structure from the checkpoint file:  "BDE49_nonexpt_2700_mol1.chk"
 Charge =  0 Multiplicity = 1

                         Standard orientation:
 ---------------------------------------------------------------------
 Center     Atomic      Atomic             Coordinates (Angstroms)
 Number     Number       Type             X           Y           Z
 ---------------------------------------------------------------------
      1          9           0       -3.621239   -0.134035    1.150600
      2         16           0       -3.127534   -0.147620   -0.469420
      3          6           0       -1.386623    0.008668   -0.276712
      4          6           0       -0.791739    1.278445   -0.194668
      5          1           0       -1.417659    2.161291   -0.230154
      6          6           0       -0.573301   -1.132273   -0.230698
      7          1           0       -1.031915   -2.111579   -0.290064
      8          9           0        3.635308   -1.076880    0.117333
      9         16           0        3.112989    0.498178    0.132724
     10          6           0        1.380213    0.251626   -0.025736
     11          6           0        0.805398   -1.020067   -0.108441
     12          1           0        1.431927   -1.900307   -0.074986
     13          6           0        0.581643    1.405081   -0.067691
     14          1           0        1.030208    2.391011   -0.005378
 ---------------------------------------------------------------------

 SCF Done:  E(RHF) =  -1223.98081796     A.U. after    2 cycles

 The electronic state is 1-A.
 Alpha  occ. eigenvalues --  -94.06512 -94.03775 -26.49731 -26.45820 -11.32447
 Alpha  occ. eigenvalues --  -11.29321 -11.28904 -11.28800 -11.28136 -11.27533
 Alpha  occ. eigenvalues --   -8.33828  -8.31004  -6.31630  -6.31326  -6.31030
 Alpha  occ. eigenvalues --   -6.28796  -6.28525  -6.28240  -1.59999  -1.55270
 Alpha  occ. eigenvalues --   -1.20776  -1.11937  -1.05991  -1.03259  -0.94505
 Alpha  occ. eigenvalues --   -0.88189  -0.83559  -0.74495  -0.70604  -0.68694
 Alpha  occ. eigenvalues --   -0.68032  -0.66955  -0.65153  -0.64002  -0.63642
 Alpha  occ. eigenvalues --   -0.63116  -0.61697  -0.56069  -0.54848  -0.52796
 Alpha  occ. eigenvalues --   -0.49631  -0.45505  -0.38986  -0.38443  -0.35027
 Alpha virt. eigenvalues --    0.02986   0.03559   0.03752   0.04699   0.04918
 Alpha virt. eigenvalues --    0.06723   0.07463   0.07722   0.08328   0.08969
 Alpha virt. eigenvalues --    0.09813   0.10479   0.12185   0.12910   0.13741

 Mulliken charges:
               1
     1  F   -0.651135
     2  S    0.759125
     3  C    0.123500
     4  C    0.131717
     5  H   -0.208219
     6  C    0.191525
     7  H   -0.198085
     8  F   -0.709154
     9  S    0.806662
    10  C    0.062424
    11  C    0.221866
    12  H   -0.182519
    13  C   -0.126527
    14  H   -0.221179
 Sum of Mulliken charges =  -0.00000

 Dipole moment (field-independent basis, Debye):
    X=              1.6118    Y=              1.0206    Z=             -1.1053  Tot=              2.2048

 Test job not archived.
 1\1\GINC-SE109\SP\RHF\Aug-CC-pVDZ\C6H4F2S2\OHZDE\09-Apr-2025\0\\#t hf
 aug-cc-pvdz iop(5/13=1,5/36=2,99/5=2) pseudo=read geom=check guess=(re
 ad,tcheck) scf=(maxcycle=1)\\title\\0,1\F,0,-3.621239,-0.134035,1.1506
 \S,0,-3.127534,-0.14762,-0.46942\C,0,-1.386623,0.008668,-0.276712\C,0,
 -0.791739,1.278445,-0.194668\H,0,-1.417659,2.161291,-0.230154\C,0,-0.5
 73301,-1.132273,-0.230698\H,0,-1.031915,-2.111579,-0.290064\F,0,3.6353
 08,-1.07688,0.117333\S,0,3.112989,0.498178,0.132724\C,0,1.380213,0.251
 626,-0.025736\C,0,0.805398,-1.020067,-0.108441\H,0,1.431927,-1.900307,

 Normal termination of Gaussian 16 at Wed Apr  9 00:25:06 2025.
