 Gaussian 16, Revision C.01,

 ----------------------------------------------------------------------
 #t hf aug-cc-pvdz symm=none int=(grid=ultrafine) guess=(read,tcheck) s
 table=(opt,rrhf)
 ----------------------------------------------------------------------
 -----
 title
 -----
 Symbolic Z-matrix:
 Charge =  0 Multiplicity = 1

 SCF Done:  E(RHF) =  -2417.26458669     A.U. after   11 cycles
 Normal termination of Gaussian 16 at Wed Apr  9 00:09:05 2025.
 Gaussian 16:  ES64L-G16RevC.01  3-Jul-2019

 ----------------------------------------------------------------------
 #t hf aug-cc-pvdz iop(5/13=1,5/36=2,99/5=2) pseudo=read geom=check gue
 ss=(read,tcheck) scf=(maxcycle=1)
 ----------------------------------------------------------------------
 -----
 title
 -----
 Structure from the checkpoint file:  "BDE49_nonexpt_2318_mol1.chk"
 Charge =  0 Multiplicity = 1

                         Standard orientation:
 ---------------------------------------------------------------------
 Center     Atomic      Atomic             Coordinates (Angstroms)
 Number     Number       Type             X           Y           Z
 ---------------------------------------------------------------------
      1         14           0       -1.419934    1.154272   -0.000000
      2         14           0        0.629594    0.001501   -0.000000
      3         17           0        2.154832    1.399244   -0.000001
      4          1           0       -1.515205    1.980723   -1.218468
      5         17           0        0.826429   -1.183962   -1.674753
      6         17           0       -2.978565   -0.216160    0.000001
      7         17           0        0.826430   -1.183961    1.674754
      8          1           0       -1.515205    1.980724    1.218466
 ---------------------------------------------------------------------

 SCF Done:  E(RHF) =  -2417.63804271     A.U. after    2 cycles

 The electronic state is 1-A.
 Alpha  occ. eigenvalues -- -105.58921-105.58820-105.58819-105.57781 -69.67747
 Alpha  occ. eigenvalues --  -69.60612 -10.63922 -10.63835 -10.63824 -10.62775
 Alpha  occ. eigenvalues --   -7.80809  -7.80723  -7.80716  -7.80483  -7.80479
 Alpha  occ. eigenvalues --   -7.80388  -7.80386  -7.80384  -7.80382  -7.79665
 Alpha  occ. eigenvalues --   -7.79342  -7.79337  -6.33611  -6.27332  -4.08937
 Alpha  occ. eigenvalues --   -4.08935  -4.08741  -4.02750  -4.02602  -4.02581
 Alpha  occ. eigenvalues --   -1.11977  -1.07313  -1.06719  -1.06716  -0.78803
 Alpha  occ. eigenvalues --   -0.70890  -0.59569  -0.59511  -0.57336  -0.55887
 Alpha  occ. eigenvalues --   -0.55659  -0.51814  -0.51793  -0.50512  -0.49179
 Alpha  occ. eigenvalues --   -0.49150  -0.47855  -0.47557  -0.43121
 Alpha virt. eigenvalues --    0.03567   0.04415   0.05030   0.05724   0.06973
 Alpha virt. eigenvalues --    0.07017   0.07617   0.08823   0.09120   0.09372
 Alpha virt. eigenvalues --    0.10639   0.11064   0.12652   0.13838   0.13895

 Mulliken charges:
               1
     1  Si   0.806502
     2  Si   1.530606
     3  Cl  -0.539250
     4  H   -0.100468
     5  Cl  -0.532403
     6  Cl  -0.532116
     7  Cl  -0.532403
     8  H   -0.100467
 Sum of Mulliken charges =  -0.00000

 Dipole moment (field-independent basis, Debye):
    X=             -0.4292    Y=              1.6164    Z=             -0.0000  Tot=              1.6724

 Test job not archived.
 1\1\GINC-SE365\SP\RHF\Aug-CC-pVDZ\Cl4H2Si2\OHZDE\09-Apr-2025\0\\#t hf
 aug-cc-pvdz iop(5/13=1,5/36=2,99/5=2) pseudo=read geom=check guess=(re
 ad,tcheck) scf=(maxcycle=1)\\title\\0,1\Si,0,-1.419934,1.154272,0.\Si,
 0,0.629594,0.001501,0.\Cl,0,2.154832,1.399244,-0.000001\H,0,-1.515205,
 1.980723,-1.218468\Cl,0,0.826429,-1.183962,-1.674753\Cl,0,-2.978565,-0
 .21616,0.000001\Cl,0,0.82643,-1.183961,1.674754\H,0,-1.515205,1.980724
 ,1.218466\\Version=ES64L-G16RevC.01\State=1-A\HF=-2417.6380427\RMSD=3.
 023e-03\Dipole=-0.1688587,0.6359221,-0.0000003\Quadrupole=-2.3545376,1

 Normal termination of Gaussian 16 at Wed Apr  9 00:09:08 2025.
