 Gaussian 16, Revision C.01,

 ----------------------------------------------------------------------
 #t hf aug-cc-pvdz symm=none int=(grid=ultrafine) guess=(read,tcheck) s
 table=(opt,rrhf)
 ----------------------------------------------------------------------
 -----
 title
 -----
 Symbolic Z-matrix:
 Charge =  0 Multiplicity = 1

 SCF Done:  E(RHF) =  -896.320717748     A.U. after   13 cycles
 Normal termination of Gaussian 16 at Tue Apr  8 23:42:31 2025.
 Gaussian 16:  ES64L-G16RevC.01  3-Jul-2019

 ----------------------------------------------------------------------
 #t hf aug-cc-pvdz iop(5/13=1,5/36=2,99/5=2) pseudo=read geom=check gue
 ss=(read,tcheck) scf=(maxcycle=1)
 ----------------------------------------------------------------------
 -----
 title
 -----
 Structure from the checkpoint file:  "BDE49_nonexpt_1679_mol1.chk"
 Charge =  0 Multiplicity = 1

                         Standard orientation:
 ---------------------------------------------------------------------
 Center     Atomic      Atomic             Coordinates (Angstroms)
 Number     Number       Type             X           Y           Z
 ---------------------------------------------------------------------
      1         14           0       -1.331841    0.743010   -0.079570
      2         15           0        0.767866   -0.106802    0.108314
      3          8           0        1.083203   -0.815245    1.363825
      4          8           0        0.882548   -0.964128   -1.251808
      5          6           0       -2.588328   -0.633490    0.108767
      6          1           0       -2.493818   -1.358327   -0.702957
      7          1           0       -3.603277   -0.227182    0.090819
      8          1           0       -2.443568   -1.157835    1.056096
      9          8           0        1.798768    1.117585   -0.182508
     10          1           0        2.268793    1.360212    0.625312
     11          1           0        1.689889   -1.494278   -1.303513
     12          1           0       -1.445667    1.437992   -1.381007
     13          1           0       -1.430755    1.734556    1.015855
 ---------------------------------------------------------------------

 SCF Done:  E(RHF) =  -896.668062155     A.U. after    2 cycles

 The electronic state is 1-A.
 Alpha  occ. eigenvalues --  -84.41478 -69.54991 -20.59097 -20.58657 -20.49966
 Alpha  occ. eigenvalues --  -11.23570  -6.86894  -6.22122  -4.40916  -4.40231
 Alpha  occ. eigenvalues --   -4.39201  -3.97487  -3.97428  -3.97419  -1.52412
 Alpha  occ. eigenvalues --   -1.46662  -1.38008  -0.97224  -0.86494  -0.73595
 Alpha  occ. eigenvalues --   -0.72349  -0.66436  -0.62468  -0.60176  -0.58560
 Alpha  occ. eigenvalues --   -0.57641  -0.54286  -0.53900  -0.49944  -0.49021
 Alpha  occ. eigenvalues --   -0.47639  -0.45044  -0.40885
 Alpha virt. eigenvalues --    0.03325   0.03895   0.04303   0.05205   0.06078
 Alpha virt. eigenvalues --    0.06623   0.07875   0.08321   0.08900   0.10501
 Alpha virt. eigenvalues --    0.11913   0.12109   0.12975   0.14917   0.15133

 Mulliken charges:
               1
     1  Si   1.199209
     2  P    3.043859
     3  O   -1.509183
     4  O   -1.268712
     5  C   -0.644250
     6  H    0.130631
     7  H   -0.014012
     8  H    0.112705
     9  O   -1.323339
    10  H    0.330787
    11  H    0.323175
    12  H   -0.160833
    13  H   -0.220036
 Sum of Mulliken charges =  -0.00000

 Dipole moment (field-independent basis, Debye):
    X=             -0.7932    Y=              0.8629    Z=             -1.4174  Tot=              1.8392

 Test job not archived.
 1\1\GINC-SE403\SP\RHF\Aug-CC-pVDZ\C1H7O3P1Si1\OHZDE\08-Apr-2025\0\\#t
 hf aug-cc-pvdz iop(5/13=1,5/36=2,99/5=2) pseudo=read geom=check guess=
 (read,tcheck) scf=(maxcycle=1)\\title\\0,1\Si,0,-1.331841,0.74301,-0.0
 7957\P,0,0.767866,-0.106802,0.108314\O,0,1.083203,-0.815245,1.363825\O
 ,0,0.882548,-0.964128,-1.251808\C,0,-2.588328,-0.63349,0.108767\H,0,-2
 .493818,-1.358327,-0.702957\H,0,-3.603277,-0.227182,0.090819\H,0,-2.44
 3568,-1.157835,1.056096\O,0,1.798768,1.117585,-0.182508\H,0,2.268793,1
 .360212,0.625312\H,0,1.689889,-1.494278,-1.303513\H,0,-1.445667,1.4379

 Normal termination of Gaussian 16 at Tue Apr  8 23:42:35 2025.
