 Gaussian 16, Revision C.01,

 ----------------------------------------------------------------------
 #t hf aug-cc-pvdz symm=none int=(grid=ultrafine) guess=(read,tcheck) s
 table=(opt,rrhf)
 ----------------------------------------------------------------------
 -----
 title
 -----
 Symbolic Z-matrix:
 Charge =  0 Multiplicity = 1

 SCF Done:  E(RHF) =  -840.563637087     A.U. after   14 cycles
 Normal termination of Gaussian 16 at Tue Apr  8 23:53:23 2025.
 Gaussian 16:  ES64L-G16RevC.01  3-Jul-2019

 ----------------------------------------------------------------------
 #t hf aug-cc-pvdz iop(5/13=1,5/36=2,99/5=2) pseudo=read geom=check gue
 ss=(read,tcheck) scf=(maxcycle=1)
 ----------------------------------------------------------------------
 -----
 title
 -----
 Structure from the checkpoint file:  "BDE49_nonexpt_1943_mol1.chk"
 Charge =  0 Multiplicity = 1

                         Standard orientation:
 ---------------------------------------------------------------------
 Center     Atomic      Atomic             Coordinates (Angstroms)
 Number     Number       Type             X           Y           Z
 ---------------------------------------------------------------------
      1         14           0       -2.053265   -0.296524   -0.263347
      2          6           0       -0.572484   -0.011450    0.908446
      3          6           0        0.694597    0.333997    0.181603
      4         16           0        1.899876   -0.721119   -0.140598
      5          8           0        0.776652    1.606786   -0.255867
      6          1           0       -2.327649    0.953583   -1.011246
      7          1           0       -3.234447   -0.637399    0.560227
      8          1           0       -0.007874    2.105991    0.008814
      9          1           0       -1.751235   -1.389145   -1.208208
     10          1           0       -0.427737   -0.923359    1.486772
     11          1           0       -0.849258    0.789995    1.606714
 ---------------------------------------------------------------------

 SCF Done:  E(RHF) =  -840.810570630     A.U. after    2 cycles

 The electronic state is 1-A.
 Alpha  occ. eigenvalues --  -93.91452 -69.55709 -20.62269 -11.39615 -11.26806
 Alpha  occ. eigenvalues --   -8.19772  -6.22752  -6.17621  -6.17356  -6.17186
 Alpha  occ. eigenvalues --   -3.98136  -3.98118  -3.98104  -1.54117  -1.09595
 Alpha  occ. eigenvalues --   -0.99413  -0.82378  -0.76463  -0.71661  -0.65367
 Alpha  occ. eigenvalues --   -0.61566  -0.57579  -0.53522  -0.50654  -0.50338
 Alpha  occ. eigenvalues --   -0.49843  -0.37304  -0.34834
 Alpha virt. eigenvalues --    0.02320   0.03452   0.04067   0.04991   0.06304
 Alpha virt. eigenvalues --    0.06877   0.07534   0.08444   0.08651   0.09172
 Alpha virt. eigenvalues --    0.10520   0.12276   0.13707   0.14358   0.14449

 Mulliken charges:
               1
     1  Si   0.995805
     2  C   -0.755426
     3  C    0.873693
     4  S    0.129990
     5  O   -1.413926
     6  H   -0.185051
     7  H   -0.156018
     8  H    0.418696
     9  H   -0.138544
    10  H    0.139717
    11  H    0.091065
 Sum of Mulliken charges =  -0.00000

 Dipole moment (field-independent basis, Debye):
    X=             -4.2458    Y=              1.7776    Z=              1.6426  Tot=              4.8872

 Test job not archived.
 1\1\GINC-SE333\SP\RHF\Aug-CC-pVDZ\C2H6O1S1Si1\OHZDE\08-Apr-2025\0\\#t
 hf aug-cc-pvdz iop(5/13=1,5/36=2,99/5=2) pseudo=read geom=check guess=
 (read,tcheck) scf=(maxcycle=1)\\title\\0,1\Si,0,-2.053265,-0.296524,-0
 .263347\C,0,-0.572484,-0.01145,0.908446\C,0,0.694597,0.333997,0.181603
 \S,0,1.899876,-0.721119,-0.140598\O,0,0.776652,1.606786,-0.255867\H,0,
 -2.327649,0.953583,-1.011246\H,0,-3.234447,-0.6374,0.560227\H,0,-0.007
 874,2.105991,0.008814\H,0,-1.751235,-1.389145,-1.208208\H,0,-0.427737,
 -0.923359,1.486772\H,0,-0.849258,0.789995,1.606714\\Version=ES64L-G16R

 Normal termination of Gaussian 16 at Tue Apr  8 23:53:27 2025.
