 Gaussian 16, Revision C.01,

 ----------------------------------------------------------------------
 #t hf aug-cc-pvdz symm=none int=(grid=ultrafine) guess=(read,tcheck) s
 table=(opt,rrhf)
 ----------------------------------------------------------------------
 -----
 title
 -----
 Symbolic Z-matrix:
 Charge =  0 Multiplicity = 1

 SCF Done:  E(RHF) =  -342.575113247     A.U. after   15 cycles
 Normal termination of Gaussian 16 at Tue Apr  8 23:20:48 2025.
 Gaussian 16:  ES64L-G16RevC.01  3-Jul-2019

 ----------------------------------------------------------------------
 #t hf aug-cc-pvdz iop(5/13=1,5/36=2,99/5=2) pseudo=read geom=check gue
 ss=(read,tcheck) scf=(maxcycle=1)
 ----------------------------------------------------------------------
 -----
 title
 -----
 Structure from the checkpoint file:  "BDE49_nonexpt_1139_mol1.chk"
 Charge =  0 Multiplicity = 1

                         Standard orientation:
 ---------------------------------------------------------------------
 Center     Atomic      Atomic             Coordinates (Angstroms)
 Number     Number       Type             X           Y           Z
 ---------------------------------------------------------------------
      1          9           0        1.754089   -0.010976   -0.000031
      2          8           0        0.548735   -0.838033    0.000008
      3          6           0       -0.601739   -0.047863    0.000052
      4          8           0       -1.622063   -0.677957   -0.000022
      5          7           0       -0.411130    1.280973    0.000014
      6          1           0        0.513428    1.676224    0.000014
      7          1           0       -1.225261    1.870848   -0.000034
 ---------------------------------------------------------------------

 SCF Done:  E(RHF) =  -342.901493153     A.U. after    2 cycles

 The electronic state is 1-A.
 Alpha  occ. eigenvalues --  -26.54144 -20.72226 -20.55469 -15.57046 -11.45608
 Alpha  occ. eigenvalues --   -1.69179  -1.52783  -1.39708  -1.27121  -0.90002
 Alpha  occ. eigenvalues --   -0.83435  -0.77383  -0.74456  -0.69693  -0.66092
 Alpha  occ. eigenvalues --   -0.64974  -0.61697  -0.54475  -0.48898  -0.47919
 Alpha virt. eigenvalues --    0.02454   0.05258   0.09617   0.09796   0.11370
 Alpha virt. eigenvalues --    0.11628   0.12295   0.14745   0.16189   0.18246
 Alpha virt. eigenvalues --    0.18619   0.21510   0.23166   0.24570   0.25945

 Mulliken charges:
               1
     1  F   -0.402347
     2  O   -0.410066
     3  C    1.096168
     4  O   -0.992205
     5  N    0.470862
     6  H    0.112899
     7  H    0.124688
 Sum of Mulliken charges =  -0.00000

 Dipole moment (field-independent basis, Debye):
    X=              0.7741    Y=              3.7124    Z=              0.0001  Tot=              3.7923

 Test job not archived.
 1\1\GINC-SE058\SP\RHF\Aug-CC-pVDZ\C1H2F1N1O2\OHZDE\08-Apr-2025\0\\#t h
 f aug-cc-pvdz iop(5/13=1,5/36=2,99/5=2) pseudo=read geom=check guess=(
 read,tcheck) scf=(maxcycle=1)\\title\\0,1\F,0,-1.754089,-0.010976,0.00
 0031\O,0,-0.548735,-0.838033,-0.000008\C,0,0.601739,-0.047863,-0.00005
 2\O,0,1.622063,-0.677957,0.000022\N,0,0.41113,1.280973,-0.000014\H,0,-
 0.513428,1.676224,-0.000014\H,0,1.225261,1.870848,0.000034\\Version=ES
 64L-G16RevC.01\State=1-A\HF=-342.9014932\RMSD=1.252e-02\Dipole=-0.3045
 665,1.4605754,-0.0000455\Quadrupole=-2.7884488,3.0760603,-0.2876115,2.

 Normal termination of Gaussian 16 at Tue Apr  8 23:20:50 2025.
