 Gaussian 16, Revision C.01,

 ----------------------------------------------------------------------
 #t hf aug-cc-pvdz symm=none int=(grid=ultrafine) guess=(read,tcheck) s
 table=opt
 ----------------------------------------------------------------------
 -----
 title
 -----
 Symbolic Z-matrix:
 Charge =  0 Multiplicity = 2

 SCF Done:  E(UHF) =  -921.354051147     A.U. after   16 cycles
 Normal termination of Gaussian 16 at Tue Apr  8 23:40:13 2025.
 Gaussian 16:  ES64L-G16RevC.01  3-Jul-2019

 ----------------------------------------------------------------------
 #t hf aug-cc-pvdz iop(5/13=1,5/36=2,99/5=2) pseudo=read geom=check gue
 ss=(read,tcheck) scf=(maxcycle=1)
 ----------------------------------------------------------------------
 -----
 title
 -----
 Structure from the checkpoint file:  "BDE49_nonexpt_161_mol2.chk"
 Charge =  0 Multiplicity = 2

                         Standard orientation:
 ---------------------------------------------------------------------
 Center     Atomic      Atomic             Coordinates (Angstroms)
 Number     Number       Type             X           Y           Z
 ---------------------------------------------------------------------
      1         17           0        1.824937    0.213651   -0.000042
      2         16           0       -1.234698   -0.663051    0.000034
      3          5           0        0.498569   -0.917798    0.000011
      4          6           0       -1.506168    1.170297    0.000015
      5          1           0       -2.585241    1.321271    0.000031
      6          1           0       -1.069696    1.611332   -0.893908
      7          1           0       -1.069666    1.611356    0.893910
 ---------------------------------------------------------------------

 SCF Done:  E(UHF) =  -921.553988590     A.U. after    2 cycles

 The electronic state is 2-A.
 Alpha  occ. eigenvalues -- -105.58048 -93.96498 -11.28649 -10.63054  -8.24851
 Alpha  occ. eigenvalues --   -7.79976  -7.79674  -7.79618  -7.69261  -6.22619
 Alpha  occ. eigenvalues --   -6.22430  -6.22269  -1.10371  -1.06690  -0.91991
 Alpha  occ. eigenvalues --   -0.67825  -0.61719  -0.61445  -0.57319  -0.52884
 Alpha  occ. eigenvalues --   -0.51031  -0.45847  -0.39677  -0.35162
 Alpha virt. eigenvalues --    0.03267   0.04705   0.04904   0.05823   0.06585
 Alpha virt. eigenvalues --    0.06944   0.07832   0.08757   0.12400   0.13055
 Alpha virt. eigenvalues --    0.13779   0.13993   0.15842   0.16958   0.17221

  Beta  occ. eigenvalues -- -105.57974 -93.96527 -11.28413 -10.62968  -8.24852
  Beta  occ. eigenvalues --   -7.79874  -7.79607  -7.79432  -7.67139  -6.22710
  Beta  occ. eigenvalues --   -6.22469  -6.22422  -1.09315  -1.06141  -0.91013
  Beta  occ. eigenvalues --   -0.65322  -0.61367  -0.60602  -0.55328  -0.50743
  Beta  occ. eigenvalues --   -0.50257  -0.45279  -0.39955
  Beta virt. eigenvalues --    0.03260   0.03969   0.04801   0.05065   0.06911
  Beta virt. eigenvalues --    0.07122   0.07723   0.09936   0.11339   0.12563
  Beta virt. eigenvalues --    0.13347   0.13878   0.14963   0.16504   0.17123

 Mulliken charges and spin densities:
               1          2
     1  Cl  -0.180006  -0.008496
     2  S    0.123877  -0.130951
     3  B    0.321596   1.048831
     4  C   -0.740941   0.107258
     5  H    0.162177  -0.004070
     6  H    0.156650  -0.006286
     7  H    0.156646  -0.006286
 Sum of Mulliken charges =  -0.00000   1.00000

 Dipole moment (field-independent basis, Debye):
    X=             -1.1601    Y=              1.8110    Z=             -0.0000  Tot=              2.1507
                          Isotropic Fermi Contact Couplings
        Atom                 a.u.       MegaHertz       Gauss      10(-4) cm-1
     1  Cl(35)             0.07393      32.41483      11.56642      10.81242
     2  S(33)              0.15149      52.03215      18.56637      17.35606
     3  B(11)              0.34737     498.25627     177.79023     166.20040
     4  C(13)              0.03954      44.45481      15.86258      14.82853
     5  H(1)               0.00054       2.40460       0.85802       0.80209
     6  H(1)              -0.00200      -8.93383      -3.18781      -2.98000
     7  H(1)              -0.00200      -8.93384      -3.18781      -2.98001
 --------------------------------------------------------

 1\1\GINC-SE038\SP\UHF\Aug-CC-pVDZ\C1H3B1Cl1S1(2)\OHZDE\08-Apr-2025\0\\
 #t hf aug-cc-pvdz iop(5/13=1,5/36=2,99/5=2) pseudo=read geom=check gue
 ss=(read,tcheck) scf=(maxcycle=1)\\title\\0,2\Cl,0,-1.824937,0.213651,
 0.000042\S,0,1.234698,-0.663051,-0.000034\B,0,-0.498569,-0.917798,-0.0
 00011\C,0,1.506168,1.170297,-0.000015\H,0,2.585241,1.321271,-0.000031\
 H,0,1.069696,1.611332,0.893908\H,0,1.069666,1.611356,-0.89391\\Version
 =ES64L-G16RevC.01\State=2-A\HF=-921.5539886\S2=0.759668\S2-1=0.\S2A=0.
 75007\RMSD=4.561e-03\Dipole=0.4564211,0.7124939,0.\Quadrupole=0.036920

 Normal termination of Gaussian 16 at Tue Apr  8 23:40:17 2025.
