 Gaussian 16, Revision C.01,

 ----------------------------------------------------------------------
 #t hf aug-cc-pvdz symm=none int=(grid=ultrafine) guess=(read,tcheck) s
 table=(opt,rrhf)
 ----------------------------------------------------------------------
 -----
 title
 -----
 Symbolic Z-matrix:
 Charge =  0 Multiplicity = 1

 SCF Done:  E(RHF) =  -675.403926977     A.U. after   16 cycles
 Normal termination of Gaussian 16 at Wed Apr  9 00:45:12 2025.
 Gaussian 16:  ES64L-G16RevC.01  3-Jul-2019

 ----------------------------------------------------------------------
 #t hf aug-cc-pvdz iop(5/13=1,5/36=2,99/5=2) pseudo=read geom=check gue
 ss=(read,tcheck) scf=(maxcycle=1)
 ----------------------------------------------------------------------
 -----
 title
 -----
 Structure from the checkpoint file:  "BDE49_nonexpt_714_mol1.chk"
 Charge =  0 Multiplicity = 1

                         Standard orientation:
 ---------------------------------------------------------------------
 Center     Atomic      Atomic             Coordinates (Angstroms)
 Number     Number       Type             X           Y           Z
 ---------------------------------------------------------------------
      1          5           0       -2.313564    0.241284    0.208431
      2          6           0       -2.022389    1.682969    0.758599
      3          6           0        0.613837   -0.317360   -0.375872
      4          6           0       -3.701750   -0.450698    0.478373
      5          1           0       -3.946146   -1.290852   -0.176709
      6          1           0       -3.669877   -0.846465    1.504689
      7          1           0       -4.533632    0.262697    0.461412
      8          1           0       -0.965917    1.951255    0.828360
      9          1           0       -2.494991    1.847007    1.733431
     10          1           0       -2.494743    2.406205    0.076878
     11          6           0        1.274928    0.840806   -0.807914
     12          6           0        1.299294   -1.202444    0.467840
     13          6           0        2.603832   -0.931962    0.872478
     14          6           0        3.243526    0.232822    0.452177
     15          6           0        2.573434    1.119649   -0.387037
     16          1           0        3.065811    2.023756   -0.727901
     17          1           0        0.775275    1.524684   -1.485962
     18          1           0        3.118778   -1.629879    1.523644
     19          1           0        4.257655    0.443999    0.771753
     20          1           0        0.810040   -2.106245    0.813516
     21         15           0       -1.093516   -0.643390   -0.970400
     22          1           0       -1.259961   -1.984414   -0.561123
 ---------------------------------------------------------------------

 SCF Done:  E(RHF) =  -675.802764128     A.U. after    2 cycles

 The electronic state is 1-A.
 Alpha  occ. eigenvalues --  -84.24981 -11.25356 -11.24661 -11.24628 -11.24588
 Alpha  occ. eigenvalues --  -11.24533 -11.24462 -11.20940 -11.20607  -7.59643
 Alpha  occ. eigenvalues --   -6.72404  -4.25496  -4.25073  -4.24425  -1.15667
 Alpha  occ. eigenvalues --   -1.02824  -1.01883  -0.98181  -0.93012  -0.87331
 Alpha  occ. eigenvalues --   -0.83659  -0.79706  -0.70757  -0.64548  -0.64026
 Alpha  occ. eigenvalues --   -0.61854  -0.60165  -0.58208  -0.56747  -0.56548
 Alpha  occ. eigenvalues --   -0.54392  -0.53658  -0.51434  -0.50793  -0.48774
 Alpha  occ. eigenvalues --   -0.46101  -0.42469  -0.36927  -0.34875  -0.29872
 Alpha virt. eigenvalues --    0.03203   0.03449   0.03534   0.04333   0.04612
 Alpha virt. eigenvalues --    0.04764   0.06298   0.06858   0.07075   0.07396
 Alpha virt. eigenvalues --    0.08129   0.08973   0.09233   0.09875   0.10125

 Mulliken charges:
               1
     1  B    1.104886
     2  C   -0.363676
     3  C   -0.049168
     4  C   -0.452769
     5  H   -0.064628
     6  H    0.127561
     7  H   -0.012734
     8  H   -0.046909
     9  H    0.042621
    10  H    0.150071
    11  C    0.086766
    12  C    0.146206
    13  C    0.484163
    14  C    0.211990
    15  C    0.293454
    16  H   -0.232609
    17  H   -0.279764
    18  H   -0.231384
    19  H   -0.211521
    20  H   -0.302780
    21  P   -0.662701
    22  H    0.262926
 Sum of Mulliken charges =  -0.00000

 Dipole moment (field-independent basis, Debye):
    X=              0.1037    Y=              0.2574    Z=              1.0260  Tot=              1.0628

 Test job not archived.
 1\1\GINC-SE103\SP\RHF\Aug-CC-pVDZ\C8H12B1P1\OHZDE\09-Apr-2025\0\\#t hf
  aug-cc-pvdz iop(5/13=1,5/36=2,99/5=2) pseudo=read geom=check guess=(r
 ead,tcheck) scf=(maxcycle=1)\\title\\0,1\B,0,-2.313564,0.241284,0.2084
 31\C,0,-2.022389,1.682969,0.758599\C,0,0.613837,-0.31736,-0.375872\C,0
 ,-3.70175,-0.450698,0.478373\H,0,-3.946146,-1.290852,-0.176709\H,0,-3.
 669877,-0.846465,1.504689\H,0,-4.533632,0.262697,0.461412\H,0,-0.96591
 7,1.951255,0.82836\H,0,-2.494991,1.847007,1.733431\H,0,-2.494743,2.406
 205,0.076878\C,0,1.274928,0.840806,-0.807914\C,0,1.299294,-1.202444,0.

 Normal termination of Gaussian 16 at Wed Apr  9 00:45:26 2025.
