 Gaussian 16, Revision C.01,

 ----------------------------------------------------------------------
 #t hf aug-cc-pvdz symm=none int=(grid=ultrafine) guess=(read,tcheck) s
 table=(opt,rrhf)
 ----------------------------------------------------------------------
 -----
 title
 -----
 Symbolic Z-matrix:
 Charge =  0 Multiplicity = 1

 SCF Done:  E(RHF) =  -1377.01600161     A.U. after   14 cycles
 Normal termination of Gaussian 16 at Tue Apr  8 23:46:21 2025.
 Gaussian 16:  ES64L-G16RevC.01  3-Jul-2019

 ----------------------------------------------------------------------
 #t hf aug-cc-pvdz iop(5/13=1,5/36=2,99/5=2) pseudo=read geom=check gue
 ss=(read,tcheck) scf=(maxcycle=1)
 ----------------------------------------------------------------------
 -----
 title
 -----
 Structure from the checkpoint file:  "BDE49_nonexpt_1782_mol1.chk"
 Charge =  0 Multiplicity = 1

                         Standard orientation:
 ---------------------------------------------------------------------
 Center     Atomic      Atomic             Coordinates (Angstroms)
 Number     Number       Type             X           Y           Z
 ---------------------------------------------------------------------
      1         14           0       -0.282370   -0.098086    0.545600
      2          6           0        1.564520   -0.005677    0.061786
      3         17           0       -1.151129   -1.688021   -0.438266
      4         17           0       -1.296211    1.649383    0.036875
      5          7           0        2.003122    0.936697   -0.806941
      6          1           0        1.382658    1.629162   -1.194075
      7          1           0        2.983590    0.961003   -1.052076
      8          8           0        2.274076   -0.846686    0.589973
      9          1           0       -0.409883   -0.309460    1.989486
 ---------------------------------------------------------------------

 SCF Done:  E(RHF) =  -1377.36808850     A.U. after    2 cycles

 The electronic state is 1-A.
 Alpha  occ. eigenvalues -- -105.58642-105.58067 -69.64499 -20.54026 -15.55380
 Alpha  occ. eigenvalues --  -11.37519 -10.63638 -10.63076  -7.80518  -7.80214
 Alpha  occ. eigenvalues --   -7.80203  -7.79968  -7.79636  -7.79635  -6.30733
 Alpha  occ. eigenvalues --   -4.06140  -4.06040  -4.05913  -1.48132  -1.24554
 Alpha  occ. eigenvalues --   -1.09726  -1.06170  -0.88535  -0.80573  -0.75091
 Alpha  occ. eigenvalues --   -0.67713  -0.61820  -0.60324  -0.57839  -0.57067
 Alpha  occ. eigenvalues --   -0.51887  -0.49987  -0.48720  -0.48256  -0.45684
 Alpha  occ. eigenvalues --   -0.42133
 Alpha virt. eigenvalues --    0.02828   0.05109   0.05389   0.05601   0.06757
 Alpha virt. eigenvalues --    0.07322   0.08687   0.09525   0.11556   0.12122
 Alpha virt. eigenvalues --    0.12251   0.13545   0.14561   0.16130   0.16466

 Mulliken charges:
               1
     1  Si   1.571235
     2  C    0.062015
     3  Cl  -0.516843
     4  Cl  -0.561673
     5  N    0.557433
     6  H    0.048890
     7  H    0.075904
     8  O   -1.109639
     9  H   -0.127323
 Sum of Mulliken charges =  -0.00000

 Dipole moment (field-independent basis, Debye):
    X=              0.1505    Y=              2.5198    Z=             -0.9972  Tot=              2.7141

 Test job not archived.
 1\1\GINC-SE072\SP\RHF\Aug-CC-pVDZ\C1H3Cl2N1O1Si1\OHZDE\08-Apr-2025\0\\
 #t hf aug-cc-pvdz iop(5/13=1,5/36=2,99/5=2) pseudo=read geom=check gue
 ss=(read,tcheck) scf=(maxcycle=1)\\title\\0,1\Si,0,-0.28237,-0.098086,
 0.5456\C,0,1.56452,-0.005676,0.061786\Cl,0,-1.151128,-1.688021,-0.4382
 66\Cl,0,-1.296211,1.649383,0.036875\N,0,2.003122,0.936698,-0.806941\H,
 0,1.382658,1.629163,-1.194075\H,0,2.98359,0.961004,-1.052076\O,0,2.274
 077,-0.846685,0.589973\H,0,-0.409883,-0.30946,1.989486\\Version=ES64L-
 G16RevC.01\State=1-A\HF=-1377.3680885\RMSD=9.375e-03\Dipole=0.0592058,

 Normal termination of Gaussian 16 at Tue Apr  8 23:46:24 2025.
