 Gaussian 16, Revision C.01,

 ----------------------------------------------------------------------
 #t hf aug-cc-pvdz symm=none int=(grid=ultrafine) guess=(read,tcheck) s
 table=(opt,rrhf)
 ----------------------------------------------------------------------
 -----
 title
 -----
 Symbolic Z-matrix:
 Charge =  0 Multiplicity = 1

 SCF Done:  E(RHF) =  -311.067990642     A.U. after   15 cycles
 Normal termination of Gaussian 16 at Wed Apr  9 00:38:27 2025.
 Gaussian 16:  ES64L-G16RevC.01  3-Jul-2019

 ----------------------------------------------------------------------
 #t hf aug-cc-pvdz iop(5/13=1,5/36=2,99/5=2) pseudo=read geom=check gue
 ss=(read,tcheck) scf=(maxcycle=1)
 ----------------------------------------------------------------------
 -----
 title
 -----
 Structure from the checkpoint file:  "BDE49_nonexpt_572_mol1.chk"
 Charge =  0 Multiplicity = 1

                         Standard orientation:
 ---------------------------------------------------------------------
 Center     Atomic      Atomic             Coordinates (Angstroms)
 Number     Number       Type             X           Y           Z
 ---------------------------------------------------------------------
      1          6           0        1.346889    1.321858   -0.000001
      2          6           0       -0.026248    1.104234   -0.000003
      3          6           0       -0.528528   -0.202052   -0.000002
      4          6           0        2.241950    0.252619    0.000002
      5          6           0        1.744638   -1.047403    0.000003
      6          6           0        0.371632   -1.273498    0.000001
      7          1           0        1.720076    2.339960   -0.000001
      8          1           0       -0.708426    1.943616   -0.000006
      9          1           0       -0.008761   -2.290728    0.000001
     10          1           0        3.310569    0.431710    0.000004
     11          1           0        2.424301   -1.892094    0.000005
     12          5           0       -3.023587    0.379925    0.000003
     13          7           0       -1.918061   -0.476606   -0.000005
     14          1           0       -2.884313    1.560331    0.000019
     15          1           0       -4.104537   -0.120184    0.000006
     16          1           0       -2.106547   -1.470546   -0.000012
 ---------------------------------------------------------------------

 SCF Done:  E(RHF) =  -311.391280490     A.U. after    2 cycles

 The electronic state is 1-A.
 Alpha  occ. eigenvalues --  -15.51775 -11.29008 -11.24869 -11.24775 -11.24190
 Alpha  occ. eigenvalues --  -11.23818 -11.23698  -7.59185  -1.23320  -1.13912
 Alpha  occ. eigenvalues --   -1.02180  -1.00347  -0.85404  -0.84400  -0.75953
 Alpha  occ. eigenvalues --   -0.73754  -0.68721  -0.63547  -0.62402  -0.60129
 Alpha  occ. eigenvalues --   -0.58594  -0.56447  -0.52754  -0.50863  -0.48115
 Alpha  occ. eigenvalues --   -0.48111  -0.35132  -0.32360
 Alpha virt. eigenvalues --    0.03044   0.03704   0.03944   0.04595   0.04723
 Alpha virt. eigenvalues --    0.04810   0.06797   0.07538   0.09409   0.09626
 Alpha virt. eigenvalues --    0.10356   0.10618   0.12191   0.12400   0.13047

 Mulliken charges:
               1
     1  C    0.439527
     2  C    0.820951
     3  C   -1.545624
     4  C    0.046775
     5  C    0.396948
     6  C    0.294095
     7  H   -0.229415
     8  H   -0.331669
     9  H   -0.341109
    10  H   -0.218697
    11  H   -0.221506
    12  B   -0.770020
    13  N    1.275626
    14  H    0.165757
    15  H    0.319935
    16  H   -0.101575
 Sum of Mulliken charges =   0.00000

 Dipole moment (field-independent basis, Debye):
    X=              0.5535    Y=             -0.8156    Z=             -0.0000  Tot=              0.9856

 Test job not archived.
 1\1\GINC-SE329\SP\RHF\Aug-CC-pVDZ\C6H8B1N1\OHZDE\09-Apr-2025\0\\#t hf
 aug-cc-pvdz iop(5/13=1,5/36=2,99/5=2) pseudo=read geom=check guess=(re
 ad,tcheck) scf=(maxcycle=1)\\title\\0,1\C,0,1.346889,1.321858,-0.00000
 1\C,0,-0.026248,1.104234,-0.000003\C,0,-0.528528,-0.202052,-0.000002\C
 ,0,2.24195,0.252619,0.000002\C,0,1.744638,-1.047403,0.000003\C,0,0.371
 632,-1.273498,0.000001\H,0,1.720076,2.33996,-0.000001\H,0,-0.708426,1.
 943616,-0.000006\H,0,-0.008761,-2.290728,0.000001\H,0,3.310569,0.43171
 ,0.000004\H,0,2.424301,-1.892094,0.000005\B,0,-3.023587,0.379925,0.000

 Normal termination of Gaussian 16 at Wed Apr  9 00:38:33 2025.
