 Gaussian 16, Revision C.01,

 ----------------------------------------------------------------------
 #t hf aug-cc-pvdz symm=none int=(grid=ultrafine) guess=(read,tcheck) s
 table=(opt,rrhf)
 ----------------------------------------------------------------------
 -----
 title
 -----
 Symbolic Z-matrix:
 Charge =  0 Multiplicity = 1

 SCF Done:  E(RHF) =  -879.656754918     A.U. after   14 cycles
 Normal termination of Gaussian 16 at Wed Apr  9 00:15:56 2025.
 Gaussian 16:  ES64L-G16RevC.01  3-Jul-2019

 ----------------------------------------------------------------------
 #t hf aug-cc-pvdz iop(5/13=1,5/36=2,99/5=2) pseudo=read geom=check gue
 ss=(read,tcheck) scf=(maxcycle=1)
 ----------------------------------------------------------------------
 -----
 title
 -----
 Structure from the checkpoint file:  "BDE49_nonexpt_2515_mol1.chk"
 Charge =  0 Multiplicity = 1

                         Standard orientation:
 ---------------------------------------------------------------------
 Center     Atomic      Atomic             Coordinates (Angstroms)
 Number     Number       Type             X           Y           Z
 ---------------------------------------------------------------------
      1         14           0       -1.592131   -0.356089   -0.415120
      2         16           0        0.351594   -1.132658    0.225477
      3          6           0        1.338325    0.360360   -0.090963
      4          6           0        2.812630    0.187761    0.198121
      5          6           0       -2.242867    1.001936    0.692996
      6          1           0       -2.325040    0.657129    1.726488
      7          1           0       -3.237461    1.309079    0.354178
      8          1           0       -1.581941    1.868991    0.659884
      9          8           0        0.847767    1.382153   -0.498676
     10          1           0        3.233757   -0.572779   -0.464279
     11          1           0        2.962119   -0.151294    1.225748
     12          1           0        3.319987    1.138780    0.038852
     13          1           0       -2.440863   -1.566746   -0.321930
     14          1           0       -1.496904    0.067042   -1.826402
 ---------------------------------------------------------------------

 SCF Done:  E(RHF) =  -879.950260930     A.U. after    2 cycles

 The electronic state is 1-A.
 Alpha  occ. eigenvalues --  -93.94933 -69.55417 -20.55660 -11.38348 -11.25993
 Alpha  occ. eigenvalues --  -11.22277  -8.23333  -6.22225  -6.21120  -6.20964
 Alpha  occ. eigenvalues --   -6.20798  -3.97634  -3.97526  -3.97495  -1.49791
 Alpha  occ. eigenvalues --   -1.06631  -0.99711  -0.95437  -0.76906  -0.70469
 Alpha  occ. eigenvalues --   -0.65274  -0.64269  -0.62513  -0.57900  -0.57109
 Alpha  occ. eigenvalues --   -0.55807  -0.53206  -0.48328  -0.47781  -0.45266
 Alpha  occ. eigenvalues --   -0.41117  -0.38513
 Alpha virt. eigenvalues --    0.03533   0.03888   0.04371   0.04642   0.05972
 Alpha virt. eigenvalues --    0.06201   0.06556   0.08219   0.08486   0.09088
 Alpha virt. eigenvalues --    0.10529   0.11289   0.11962   0.12818   0.13261

 Mulliken charges:
               1
     1  Si   1.559366
     2  S   -0.426817
     3  C    0.819764
     4  C   -0.633166
     5  C   -0.619608
     6  H    0.073554
     7  H    0.033180
     8  H    0.094852
     9  O   -1.165851
    10  H    0.271771
    11  H    0.262766
    12  H    0.147337
    13  H   -0.242426
    14  H   -0.174721
 Sum of Mulliken charges =  -0.00000

 Dipole moment (field-independent basis, Debye):
    X=              0.5414    Y=             -0.2748    Z=              0.7461  Tot=              0.9619

 Test job not archived.
 1\1\GINC-SE454\SP\RHF\Aug-CC-pVDZ\C3H8O1S1Si1\OHZDE\09-Apr-2025\0\\#t
 hf aug-cc-pvdz iop(5/13=1,5/36=2,99/5=2) pseudo=read geom=check guess=
 (read,tcheck) scf=(maxcycle=1)\\title\\0,1\Si,0,-1.592131,-0.356089,-0
 .41512\S,0,0.351594,-1.132658,0.225477\C,0,1.338325,0.36036,-0.090963\
 C,0,2.81263,0.187761,0.198121\C,0,-2.242867,1.001936,0.692996\H,0,-2.3
 2504,0.657129,1.726488\H,0,-3.237461,1.309079,0.354178\H,0,-1.581941,1
 .868991,0.659884\O,0,0.847767,1.382153,-0.498676\H,0,3.233757,-0.57277
 9,-0.464279\H,0,2.962119,-0.151294,1.225748\H,0,3.319987,1.13878,0.038

 Normal termination of Gaussian 16 at Wed Apr  9 00:16:01 2025.
