 Gaussian 16, Revision C.01,

 ----------------------------------------------------------------------
 #t hf aug-cc-pvdz symm=none int=(grid=ultrafine) guess=(read,tcheck) s
 table=(opt,rrhf)
 ----------------------------------------------------------------------
 -----
 title
 -----
 Symbolic Z-matrix:
 Charge =  0 Multiplicity = 1

 SCF Done:  E(RHF) =  -1616.65901211     A.U. after   13 cycles
 Normal termination of Gaussian 16 at Wed Apr  9 00:50:01 2025.
 Gaussian 16:  ES64L-G16RevC.01  3-Jul-2019

 ----------------------------------------------------------------------
 #t hf aug-cc-pvdz iop(5/13=1,5/36=2,99/5=2) pseudo=read geom=check gue
 ss=(read,tcheck) scf=(maxcycle=1)
 ----------------------------------------------------------------------
 -----
 title
 -----
 Structure from the checkpoint file:  "BDE49_nonexpt_901_mol1.chk"
 Charge =  0 Multiplicity = 1

                         Standard orientation:
 ---------------------------------------------------------------------
 Center     Atomic      Atomic             Coordinates (Angstroms)
 Number     Number       Type             X           Y           Z
 ---------------------------------------------------------------------
      1         16           0       -0.672067   -1.148285   -0.019850
      2          5           0        0.717348    0.047151   -0.002561
      3         16           0        0.603922    1.846259   -0.004308
      4         16           0        2.386233   -0.681075    0.013379
      5         16           0       -2.455767   -0.028469   -0.065824
      6          1           0        2.014305   -1.974672    0.028497
      7          1           0       -0.744681    1.891750   -0.055822
      8          1           0       -2.653490    0.032280    1.265788
 ---------------------------------------------------------------------

 SCF Done:  E(RHF) =  -1616.92516861     A.U. after    2 cycles

 The electronic state is 1-A.
 Alpha  occ. eigenvalues --  -94.00276 -93.99200 -93.96696 -93.96343  -8.28183
 Alpha  occ. eigenvalues --   -8.27300  -8.24983  -8.24683  -7.68931  -6.25999
 Alpha  occ. eigenvalues --   -6.25834  -6.25587  -6.25106  -6.24863  -6.24707
 Alpha  occ. eigenvalues --   -6.22815  -6.22679  -6.22509  -6.22497  -6.22386
 Alpha  occ. eigenvalues --   -6.22212  -1.11394  -1.05544  -1.01690  -0.93527
 Alpha  occ. eigenvalues --   -0.67886  -0.62089  -0.58549  -0.54735  -0.53150
 Alpha  occ. eigenvalues --   -0.47613  -0.46801  -0.45937  -0.40035  -0.39187
 Alpha  occ. eigenvalues --   -0.38484
 Alpha virt. eigenvalues --    0.03206   0.04047   0.05235   0.05434   0.06636
 Alpha virt. eigenvalues --    0.06959   0.08925   0.09110   0.09656   0.10669
 Alpha virt. eigenvalues --    0.10869   0.11779   0.12813   0.13716   0.14780

 Mulliken charges:
               1
     1  S   -0.444264
     2  B    1.245349
     3  S   -0.594834
     4  S   -0.696024
     5  S   -0.532766
     6  H    0.262688
     7  H    0.340704
     8  H    0.419147
 Sum of Mulliken charges =  -0.00000

 Dipole moment (field-independent basis, Debye):
    X=             -1.4722    Y=             -0.3508    Z=              0.9200  Tot=              1.7711

 Test job not archived.
 1\1\GINC-SE083\SP\RHF\Aug-CC-pVDZ\B1H3S4\OHZDE\09-Apr-2025\0\\#t hf au
 g-cc-pvdz iop(5/13=1,5/36=2,99/5=2) pseudo=read geom=check guess=(read
 ,tcheck) scf=(maxcycle=1)\\title\\0,1\S,0,-0.672067,-1.148285,-0.01985
 \B,0,0.717348,0.047151,-0.002561\S,0,0.603922,1.846259,-0.004308\S,0,2
 .386233,-0.681075,0.013379\S,0,-2.455767,-0.028469,-0.065824\H,0,2.014
 305,-1.974672,0.028497\H,0,-0.744681,1.89175,-0.055822\H,0,-2.65349,0.
 03228,1.265788\\Version=ES64L-G16RevC.01\State=1-A\HF=-1616.9251686\RM
 SD=5.059e-03\Dipole=-0.5791968,-0.1379988,0.3619715\Quadrupole=0.35085

 Normal termination of Gaussian 16 at Wed Apr  9 00:50:05 2025.
