 Gaussian 16, Revision C.01,

 ----------------------------------------------------------------------
 #t hf aug-cc-pvdz symm=none int=(grid=ultrafine) guess=(read,tcheck) s
 table=(opt,rrhf)
 ----------------------------------------------------------------------
 -----
 title
 -----
 Symbolic Z-matrix:
 Charge =  0 Multiplicity = 1

 SCF Done:  E(RHF) =  -571.525875440     A.U. after   14 cycles

 1\1\GINC-SE016\Stability\RHF\Aug-CC-pVDZ\C7H12O4\OHZDE\08-Apr-2025\0\\
 #t hf aug-cc-pvdz symm=none int=(grid=ultrafine) guess=(read,tcheck) s
 table=(opt,rrhf)\\title\\0,1\C,0,-1.626367,0.037821,-0.186731\O,0,-1.0
 97543,1.106421,-0.138198\O,0,-1.002456,-1.128006,-0.58882\O,0,0.381456
 ,-0.90826,-0.927888\C,0,1.188421,-0.916175,0.196644\O,0,0.783347,-1.04
 2092,1.311741\C,0,-3.052183,-0.308804,0.185006\C,0,2.621906,-0.719222,
 -0.244238\C,0,3.21588,0.56788,0.35979\H,0,2.681297,-0.703701,-1.334422
 \H,0,3.174473,-1.592921,0.114067\C,0,2.590911,1.846695,-0.204714\H,0,4

 Normal termination of Gaussian 16 at Tue Apr  8 23:00:01 2025.
 Gaussian 16:  ES64L-G16RevC.01  3-Jul-2019

 ----------------------------------------------------------------------
 #t hf aug-cc-pvdz iop(5/13=1,5/36=2,99/5=2) pseudo=read geom=check gue
 ss=(read,tcheck) scf=(maxcycle=1)
 ----------------------------------------------------------------------
 -----
 title
 -----
 Structure from the checkpoint file:  "BDE49_expt_1892_mol1.chk"
 Charge =  0 Multiplicity = 1

                         Standard orientation:
 ---------------------------------------------------------------------
 Center     Atomic      Atomic             Coordinates (Angstroms)
 Number     Number       Type             X           Y           Z
 ---------------------------------------------------------------------
      1          6           0       -1.626367    0.037821   -0.186731
      2          8           0       -1.097543    1.106421   -0.138198
      3          8           0       -1.002456   -1.128006   -0.588820
      4          8           0        0.381456   -0.908260   -0.927888
      5          6           0        1.188421   -0.916175    0.196644
      6          8           0        0.783347   -1.042092    1.311741
      7          6           0       -3.052183   -0.308804    0.185006
      8          6           0        2.621906   -0.719222   -0.244238
      9          6           0        3.215880    0.567880    0.359790
     10          1           0        2.681297   -0.703701   -1.334422
     11          1           0        3.174473   -1.592921    0.114067
     12          6           0        2.590911    1.846695   -0.204714
     13          1           0        4.293386    0.561579    0.168619
     14          1           0        3.086747    0.530441    1.445155
     15          1           0        1.513287    1.883160   -0.026271
     16          1           0        2.749891    1.917783   -1.285178
     17          1           0        3.038245    2.730824    0.256407
     18          6           0       -3.952744    0.925068    0.231321
     19          1           0       -3.000967   -0.795070    1.165492
     20          1           0       -3.426399   -1.064081   -0.510424
     21          1           0       -3.548868    1.673949    0.913631
     22          1           0       -4.952925    0.647598    0.570250
     23          1           0       -4.041538    1.386353   -0.754464
 ---------------------------------------------------------------------

 SCF Done:  E(RHF) =  -572.103515887     A.U. after    2 cycles

 The electronic state is 1-A.
 Alpha  occ. eigenvalues --  -20.66472 -20.66229 -20.55323 -20.55176 -11.40534
 Alpha  occ. eigenvalues --  -11.40424 -11.26669 -11.26209 -11.24530 -11.24107
 Alpha  occ. eigenvalues --  -11.22378  -1.65461  -1.51138  -1.49068  -1.36424
 Alpha  occ. eigenvalues --   -1.09018  -1.07166  -0.97633  -0.91760  -0.85467
 Alpha  occ. eigenvalues --   -0.81344  -0.77756  -0.72658  -0.72363  -0.70764
 Alpha  occ. eigenvalues --   -0.66558  -0.65265  -0.64551  -0.62824  -0.59379
 Alpha  occ. eigenvalues --   -0.58734  -0.57541  -0.57116  -0.54245  -0.54062
 Alpha  occ. eigenvalues --   -0.51701  -0.50775  -0.50252  -0.49476  -0.49263
 Alpha  occ. eigenvalues --   -0.48527  -0.45467  -0.44918
 Alpha virt. eigenvalues --    0.03531   0.03594   0.04195   0.04347   0.05052
 Alpha virt. eigenvalues --    0.05279   0.05426   0.06911   0.07054   0.07399
 Alpha virt. eigenvalues --    0.08173   0.09588   0.10976   0.11231   0.12166

 Mulliken charges:
               1
     1  C    1.923048
     2  O   -1.201873
     3  O   -0.895210
     4  O   -0.833295
     5  C    2.330518
     6  O   -1.333900
     7  C   -0.515488
     8  C   -0.664207
     9  C   -0.346069
    10  H    0.140919
    11  H    0.280156
    12  C   -0.196601
    13  H    0.128160
    14  H    0.137177
    15  H    0.089288
    16  H    0.155762
    17  H    0.130301
    18  C   -0.305185
    19  H    0.278672
    20  H    0.204255
    21  H    0.189999
    22  H    0.130313
    23  H    0.173262
 Sum of Mulliken charges =   0.00000

 Dipole moment (field-independent basis, Debye):
    X=             -0.1617    Y=             -0.5676    Z=             -0.9307  Tot=              1.1020

 Test job not archived.
 1\1\GINC-SE016\SP\RHF\Aug-CC-pVDZ\C7H12O4\OHZDE\08-Apr-2025\0\\#t hf a
 ug-cc-pvdz iop(5/13=1,5/36=2,99/5=2) pseudo=read geom=check guess=(rea
 d,tcheck) scf=(maxcycle=1)\\title\\0,1\C,0,-1.626367,0.037821,-0.18673
 1\O,0,-1.097543,1.106421,-0.138198\O,0,-1.002456,-1.128006,-0.58882\O,
 0,0.381456,-0.90826,-0.927888\C,0,1.188421,-0.916175,0.196644\O,0,0.78
 3347,-1.042092,1.311741\C,0,-3.052183,-0.308804,0.185006\C,0,2.621906,
 -0.719222,-0.244238\C,0,3.21588,0.56788,0.35979\H,0,2.681297,-0.703701
 ,-1.334422\H,0,3.174473,-1.592921,0.114067\C,0,2.590911,1.846695,-0.20

 Normal termination of Gaussian 16 at Tue Apr  8 23:00:15 2025.
