 Gaussian 16, Revision C.01,

 ----------------------------------------------------------------------
 #t hf aug-cc-pvdz symm=none int=(grid=ultrafine) guess=(read,tcheck) s
 table=(opt,rrhf)
 ----------------------------------------------------------------------
 -----
 title
 -----
 Symbolic Z-matrix:
 Charge =  0 Multiplicity = 1

 SCF Done:  E(RHF) =  -801.522745710     A.U. after   13 cycles
 Normal termination of Gaussian 16 at Tue Apr  8 23:58:23 2025.
 Gaussian 16:  ES64L-G16RevC.01  3-Jul-2019

 ----------------------------------------------------------------------
 #t hf aug-cc-pvdz iop(5/13=1,5/36=2,99/5=2) pseudo=read geom=check gue
 ss=(read,tcheck) scf=(maxcycle=1)
 ----------------------------------------------------------------------
 -----
 title
 -----
 Structure from the checkpoint file:  "BDE49_nonexpt_2054_mol1.chk"
 Charge =  0 Multiplicity = 1

                         Standard orientation:
 ---------------------------------------------------------------------
 Center     Atomic      Atomic             Coordinates (Angstroms)
 Number     Number       Type             X           Y           Z
 ---------------------------------------------------------------------
      1         14           0       -1.625464   -0.407738   -0.000010
      2          6           0        0.084034    0.490945   -0.000087
      3          8           0        0.125552    1.692808    0.000042
      4         16           0        1.643817   -0.455814    0.000014
      5          1           0        1.084233   -1.676926    0.000083
      6          1           0       -2.339519    0.033826   -1.214679
      7          1           0       -2.339414    0.033818    1.214724
      8          1           0       -1.458492   -1.877494   -0.000022
 ---------------------------------------------------------------------

 SCF Done:  E(RHF) =  -801.724856147     A.U. after    2 cycles

 The electronic state is 1-A.
 Alpha  occ. eigenvalues --  -93.98006 -69.56478 -20.56950 -11.37720  -8.26187
 Alpha  occ. eigenvalues --   -6.23998  -6.23865  -6.23656  -6.23577  -3.98968
 Alpha  occ. eigenvalues --   -3.98929  -3.98919  -1.50483  -1.05978  -0.84074
 Alpha  occ. eigenvalues --   -0.74239  -0.65255  -0.61798  -0.57916  -0.54945
 Alpha  occ. eigenvalues --   -0.51085  -0.50718  -0.40150  -0.39509
 Alpha virt. eigenvalues --    0.02983   0.04538   0.04888   0.05387   0.06614
 Alpha virt. eigenvalues --    0.07247   0.07983   0.09516   0.10059   0.11462
 Alpha virt. eigenvalues --    0.12924   0.14001   0.14615   0.15723   0.15838

 Mulliken charges:
               1
     1  Si   0.960824
     2  C    0.173914
     3  O   -0.989624
     4  S    0.049173
     5  H    0.346471
     6  H   -0.169324
     7  H   -0.169330
     8  H   -0.202103
 Sum of Mulliken charges =  -0.00000

 Dipole moment (field-independent basis, Debye):
    X=             -1.5860    Y=             -2.9014    Z=             -0.0001  Tot=              3.3066

 Test job not archived.
 1\1\GINC-SE099\SP\RHF\Aug-CC-pVDZ\C1H4O1S1Si1\OHZDE\08-Apr-2025\0\\#t
 hf aug-cc-pvdz iop(5/13=1,5/36=2,99/5=2) pseudo=read geom=check guess=
 (read,tcheck) scf=(maxcycle=1)\\title\\0,1\Si,0,-1.625464,-0.407738,-0
 .00001\C,0,0.084034,0.490945,-0.000087\O,0,0.125552,1.692808,0.000042\
 S,0,1.643817,-0.455814,0.000014\H,0,1.084233,-1.676926,0.000083\H,0,-2
 .339519,0.033827,-1.214679\H,0,-2.339414,0.033819,1.214724\H,0,-1.4584
 92,-1.877494,-0.000022\\Version=ES64L-G16RevC.01\State=1-A\HF=-801.724
 8561\RMSD=5.617e-03\Dipole=-0.6239847,-1.1414939,-0.0000241\Quadrupole

 Normal termination of Gaussian 16 at Tue Apr  8 23:58:26 2025.
