 Gaussian 16, Revision C.01,

 ----------------------------------------------------------------------
 #t hf aug-cc-pvdz symm=none int=(grid=ultrafine) guess=(read,tcheck) s
 table=(opt,rrhf)
 ----------------------------------------------------------------------
 -----
 title
 -----
 Symbolic Z-matrix:
 Charge =  0 Multiplicity = 1

 SCF Done:  E(RHF) =  -499.624313857     A.U. after   16 cycles
 Normal termination of Gaussian 16 at Tue Apr  8 23:06:26 2025.
 Gaussian 16:  ES64L-G16RevC.01  3-Jul-2019

 ----------------------------------------------------------------------
 #t hf aug-cc-pvdz iop(5/13=1,5/36=2,99/5=2) pseudo=read geom=check gue
 ss=(read,tcheck) scf=(maxcycle=1)
 ----------------------------------------------------------------------
 -----
 title
 -----
 Structure from the checkpoint file:  "BDE49_expt_238_mol1.chk"
 Charge =  0 Multiplicity = 1

                         Standard orientation:
 ---------------------------------------------------------------------
 Center     Atomic      Atomic             Coordinates (Angstroms)
 Number     Number       Type             X           Y           Z
 ---------------------------------------------------------------------
      1          6           0       -3.053396    0.939445    0.000015
      2          6           0       -1.702221    1.257516    0.000086
      3          6           0       -3.456855   -0.395529   -0.000128
      4          6           0       -2.496772   -1.403055   -0.000200
      5          6           0       -1.141108   -1.082425   -0.000129
      6          6           0       -0.718930    0.254679    0.000019
      7          1           0       -1.373081    2.288477    0.000197
      8          1           0       -3.793646    1.731597    0.000070
      9          6           0        1.936792   -0.230385    0.000048
     10          1           0       -4.511372   -0.647918   -0.000184
     11          6           0        0.719801    0.734075    0.000106
     12          1           0       -0.426398   -1.891065   -0.000194
     13          1           0       -2.800448   -2.443784   -0.000314
     14          8           0        0.920323    1.933706    0.000114
     15          6           0        3.220809    0.619787   -0.000106
     16          1           0        4.094288   -0.038516   -0.000151
     17          1           0        3.270316    1.264220    0.878867
     18          1           0        3.270161    1.264135   -0.879151
     19          6           0        1.941013   -1.102830   -1.277141
     20          1           0        1.089103   -1.778292   -1.347705
     21          1           0        2.850425   -1.710565   -1.296517
     22          1           0        1.942700   -0.475490   -2.172814
     23          6           0        1.941245   -1.102706    1.277321
     24          1           0        1.943082   -0.475278    2.172933
     25          1           0        2.850667   -1.710429    1.296598
     26          1           0        1.089356   -1.778172    1.348103
 ---------------------------------------------------------------------

 SCF Done:  E(RHF) =  -500.144175437     A.U. after    2 cycles

 The electronic state is 1-A.
 Alpha  occ. eigenvalues --  -20.52995 -11.33851 -11.25929 -11.25862 -11.25746
 Alpha  occ. eigenvalues --  -11.25517 -11.25103 -11.24975 -11.24822 -11.23525
 Alpha  occ. eigenvalues --  -11.23517 -11.21871  -1.46698  -1.16587  -1.10790
 Alpha  occ. eigenvalues --   -1.03797  -1.02611  -0.94713  -0.93314  -0.89256
 Alpha  occ. eigenvalues --   -0.84714  -0.82149  -0.75365  -0.70399  -0.67561
 Alpha  occ. eigenvalues --   -0.65563  -0.63636  -0.62896  -0.61987  -0.61205
 Alpha  occ. eigenvalues --   -0.59000  -0.57024  -0.54932  -0.54094  -0.53681
 Alpha  occ. eigenvalues --   -0.52412  -0.52205  -0.50824  -0.50124  -0.47822
 Alpha  occ. eigenvalues --   -0.47470  -0.40367  -0.35612  -0.35153
 Alpha virt. eigenvalues --    0.02771   0.03165   0.03909   0.03922   0.04630
 Alpha virt. eigenvalues --    0.04826   0.06016   0.06378   0.06604   0.07217
 Alpha virt. eigenvalues --    0.07411   0.07660   0.08867   0.09744   0.10390

 Mulliken charges:
               1
     1  C    0.150620
     2  C   -0.337267
     3  C    0.180004
     4  C   -0.168870
     5  C    0.797872
     6  C    1.907830
     7  H   -0.369034
     8  H   -0.230414
     9  C   -2.178074
    10  H   -0.221600
    11  C    0.638687
    12  H   -0.328099
    13  H   -0.292485
    14  O   -1.547160
    15  C    0.397361
    16  H    0.195507
    17  H    0.213480
    18  H    0.213435
    19  C    0.004117
    20  H    0.118207
    21  H    0.188167
    22  H    0.178674
    23  C    0.003991
    24  H    0.178663
    25  H    0.188154
    26  H    0.118234
 Sum of Mulliken charges =   0.00000

 Dipole moment (field-independent basis, Debye):
    X=             -0.8761    Y=             -2.7129    Z=             -0.0001  Tot=              2.8509

 Test job not archived.
 1\1\GINC-SE054\SP\RHF\Aug-CC-pVDZ\C11H14O1\OHZDE\08-Apr-2025\0\\#t hf
 aug-cc-pvdz iop(5/13=1,5/36=2,99/5=2) pseudo=read geom=check guess=(re
 ad,tcheck) scf=(maxcycle=1)\\title\\0,1\C,0,3.053396,0.939445,-0.00001
 5\C,0,1.702221,1.257516,-0.000086\C,0,3.456855,-0.395529,0.000128\C,0,
 2.496772,-1.403055,0.0002\C,0,1.141108,-1.082425,0.000129\C,0,0.71893,
 0.254679,-0.000019\H,0,1.373081,2.288477,-0.000197\H,0,3.793646,1.7315
 97,-0.00007\C,0,-1.936792,-0.230385,-0.000048\H,0,4.511372,-0.647918,0
 .000184\C,0,-0.719801,0.734075,-0.000106\H,0,0.426398,-1.891065,0.0001

 Normal termination of Gaussian 16 at Tue Apr  8 23:06:49 2025.
