 Gaussian 16, Revision C.01,

 ----------------------------------------------------------------------
 #t hf aug-cc-pvdz symm=none int=(grid=ultrafine) guess=(read,tcheck) s
 table=opt
 ----------------------------------------------------------------------
 -----
 title
 -----
 Symbolic Z-matrix:
 Charge =  0 Multiplicity = 2

 SCF Done:  E(UHF) =  -524.864655777     A.U. after   15 cycles
 Normal termination of Gaussian 16 at Tue Apr  8 23:45:59 2025.
 Gaussian 16:  ES64L-G16RevC.01  3-Jul-2019

 ----------------------------------------------------------------------
 #t hf aug-cc-pvdz iop(5/13=1,5/36=2,99/5=2) pseudo=read geom=check gue
 ss=(read,tcheck) scf=(maxcycle=1)
 ----------------------------------------------------------------------
 -----
 title
 -----
 Structure from the checkpoint file:  "BDE49_nonexpt_1731_mol2.chk"
 Charge =  0 Multiplicity = 2

                         Standard orientation:
 ---------------------------------------------------------------------
 Center     Atomic      Atomic             Coordinates (Angstroms)
 Number     Number       Type             X           Y           Z
 ---------------------------------------------------------------------
      1         14           0        3.703169   -0.243640    0.000001
      2          6           0        2.056344    0.689496   -0.000001
      3          6           0        0.810157   -0.221890    0.000000
      4          1           0        2.036252    1.348364   -0.875944
      5          1           0        2.036252    1.348366    0.875941
      6          6           0       -0.510144    0.562556   -0.000001
      7          1           0        0.837064   -0.880433    0.876122
      8          1           0        0.837064   -0.880435   -0.876120
      9          6           0       -1.752848   -0.334878    0.000000
     10          1           0       -0.536488    1.221433   -0.877217
     11          1           0       -0.536488    1.221435    0.877214
     12          6           0       -3.072982    0.444917   -0.000001
     13          1           0       -1.723880   -0.994583    0.876888
     14          1           0       -1.723880   -0.994585   -0.876886
     15          6           0       -4.309418   -0.458562    0.000000
     16          1           0       -3.102205    1.103836   -0.876229
     17          1           0       -3.102205    1.103838    0.876226
     18          1           0       -4.326727   -1.105282   -0.882827
     19          1           0       -5.232577    0.127384   -0.000001
     20          1           0       -4.326727   -1.105280    0.882829
     21          1           0        3.846760   -1.096465   -1.211369
     22          1           0        3.846760   -1.096460    1.211374
 ---------------------------------------------------------------------

 SCF Done:  E(UHF) =  -525.159769461     A.U. after    2 cycles

 The electronic state is 2-A.
 Alpha  occ. eigenvalues --  -69.52858 -11.23541 -11.22670 -11.22658 -11.22566
 Alpha  occ. eigenvalues --  -11.22491 -11.22213  -6.19996  -3.95960  -3.95049
 Alpha  occ. eigenvalues --   -3.95037  -1.09184  -1.04124  -0.96617  -0.88023
 Alpha  occ. eigenvalues --   -0.80941  -0.79261  -0.71354  -0.66147  -0.62243
 Alpha  occ. eigenvalues --   -0.59735  -0.57714  -0.56883  -0.54433  -0.51745
 Alpha  occ. eigenvalues --   -0.51055  -0.48278  -0.47962  -0.47393  -0.47153
 Alpha  occ. eigenvalues --   -0.46731  -0.43572  -0.32474
 Alpha virt. eigenvalues --    0.03393   0.03563   0.03590   0.03966   0.04695
 Alpha virt. eigenvalues --    0.05481   0.05494   0.06513   0.06853   0.07874
 Alpha virt. eigenvalues --    0.07919   0.09304   0.09317   0.09984   0.10828

  Beta  occ. eigenvalues --  -69.52301 -11.23445 -11.22657 -11.22638 -11.22529
  Beta  occ. eigenvalues --  -11.22487 -11.22212  -6.19156  -3.94666  -3.94656
  Beta  occ. eigenvalues --   -3.93801  -1.09068  -1.03933  -0.96390  -0.87720
  Beta  occ. eigenvalues --   -0.80680  -0.79236  -0.67424  -0.66108  -0.62179
  Beta  occ. eigenvalues --   -0.59639  -0.57291  -0.56803  -0.54041  -0.51630
  Beta  occ. eigenvalues --   -0.50827  -0.48092  -0.47730  -0.47075  -0.46801
  Beta  occ. eigenvalues --   -0.46698  -0.42725
  Beta virt. eigenvalues --    0.02529   0.03571   0.03596   0.03870   0.04258
  Beta virt. eigenvalues --    0.04954   0.05542   0.06454   0.06524   0.07155
  Beta virt. eigenvalues --    0.07986   0.08849   0.09324   0.09493   0.10119

 Mulliken charges and spin densities:
               1          2
     1  Si   0.583316   1.030977
     2  C   -0.717910  -0.059493
     3  C   -0.257435   0.023191
     4  H    0.158858  -0.001209
     5  H    0.158860  -0.001209
     6  C   -0.091635   0.011298
     7  H    0.106100  -0.007861
     8  H    0.106099  -0.007861
     9  C   -0.246713  -0.012404
    10  H    0.103007  -0.000177
    11  H    0.103008  -0.000177
    12  C   -0.193248  -0.000401
    13  H    0.107421   0.000095
    14  H    0.107420   0.000095
    15  C   -0.404125   0.000253
    16  H    0.118724  -0.000037
    17  H    0.118725  -0.000037
    18  H    0.159859  -0.000019
    19  H    0.115363   0.000038
    20  H    0.159860  -0.000019
    21  H   -0.147777   0.012478
    22  H   -0.147776   0.012478
 Sum of Mulliken charges =  -0.00000   1.00000

 Dipole moment (field-independent basis, Debye):
    X=             -0.9482    Y=              0.4102    Z=             -0.0000  Tot=              1.0331
                          Isotropic Fermi Contact Couplings
        Atom                 a.u.       MegaHertz       Gauss      10(-4) cm-1
     1  Si(29)             0.56059    -498.21501    -177.77551    -166.18664
     2  C(13)              0.01130      12.69949       4.53149       4.23609
     3  C(13)              0.02463      27.69350       9.88173       9.23756
     4  H(1)               0.00029       1.29595       0.46243       0.43228
     5  H(1)               0.00029       1.29593       0.46242       0.43228
     6  C(13)              0.00564       6.33995       2.26225       2.11478
     7  H(1)              -0.00030      -1.34085      -0.47845      -0.44726
     8  H(1)              -0.00030      -1.34086      -0.47845      -0.44726

 Normal termination of Gaussian 16 at Tue Apr  8 23:46:10 2025.
