 Gaussian 16, Revision C.01,

 ----------------------------------------------------------------------
 #t hf aug-cc-pvdz symm=none int=(grid=ultrafine) guess=(read,tcheck) s
 table=(opt,rrhf)
 ----------------------------------------------------------------------
 -----
 title
 -----
 Symbolic Z-matrix:
 Charge =  0 Multiplicity = 1

 SCF Done:  E(RHF) =  -1409.95107100     A.U. after   14 cycles
 Normal termination of Gaussian 16 at Wed Apr  9 00:50:44 2025.
 Gaussian 16:  ES64L-G16RevC.01  3-Jul-2019

 ----------------------------------------------------------------------
 #t hf aug-cc-pvdz iop(5/13=1,5/36=2,99/5=2) pseudo=read geom=check gue
 ss=(read,tcheck) scf=(maxcycle=1)
 ----------------------------------------------------------------------
 -----
 title
 -----
 Structure from the checkpoint file:  "BDE49_nonexpt_904_mol1.chk"
 Charge =  0 Multiplicity = 1

                         Standard orientation:
 ---------------------------------------------------------------------
 Center     Atomic      Atomic             Coordinates (Angstroms)
 Number     Number       Type             X           Y           Z
 ---------------------------------------------------------------------
      1          6           0        2.836200   -0.804102    0.000052
      2          6           0        1.560567    0.020314   -0.000025
      3         16           0        0.081267   -1.058885   -0.000117
      4          8           0        1.541205    1.222210   -0.000122
      5          5           0       -1.434991   -0.015252   -0.000193
      6         16           0       -1.575025    1.781139    0.000075
      7          6           0        4.102318    0.049657    0.000067
      8          1           0        2.799036   -1.466307   -0.872047
      9          1           0        2.798971   -1.466242    0.872197
     10          1           0        4.143559    0.692534   -0.880774
     11          1           0        4.985946   -0.591949    0.000124
     12          1           0        4.143493    0.692599    0.880863
     13         16           0       -2.940062   -1.044989    0.000081
     14          1           0       -0.251316    2.040540    0.000142
     15          1           0       -3.827778   -0.034046    0.000251
 ---------------------------------------------------------------------

 SCF Done:  E(RHF) =  -1410.35120796     A.U. after    2 cycles

 The electronic state is 1-A.
 Alpha  occ. eigenvalues --  -93.97124 -93.96108 -93.95295 -20.57400 -11.39764
 Alpha  occ. eigenvalues --  -11.27287 -11.24582  -8.25509  -8.24404  -8.23668
 Alpha  occ. eigenvalues --   -7.68767  -6.23329  -6.23120  -6.23001  -6.22242
 Alpha  occ. eigenvalues --   -6.22099  -6.21926  -6.21495  -6.21370  -6.21209
 Alpha  occ. eigenvalues --   -1.51646  -1.10156  -1.07125  -1.02436  -1.00596
 Alpha  occ. eigenvalues --   -0.90956  -0.77447  -0.70941  -0.67568  -0.66143
 Alpha  occ. eigenvalues --   -0.61517  -0.59154  -0.57200  -0.56887  -0.54295
 Alpha  occ. eigenvalues --   -0.53044  -0.51918  -0.47648  -0.46568  -0.45218
 Alpha  occ. eigenvalues --   -0.41824  -0.39089  -0.37818
 Alpha virt. eigenvalues --    0.03142   0.04054   0.04152   0.04575   0.05103
 Alpha virt. eigenvalues --    0.06176   0.06700   0.07381   0.07607   0.08114
 Alpha virt. eigenvalues --    0.08819   0.09907   0.10624   0.12150   0.12501

 Mulliken charges:
               1
     1  C   -0.588885
     2  C    0.577761
     3  S   -0.019526
     4  O   -1.286693
     5  B    1.204096
     6  S   -0.605514
     7  C   -0.309428
     8  H    0.290603
     9  H    0.290596
    10  H    0.170133
    11  H    0.135919
    12  H    0.170131
    13  S   -0.670357
    14  H    0.388514
    15  H    0.252652
 Sum of Mulliken charges =  -0.00000

 Dipole moment (field-independent basis, Debye):
    X=              2.2298    Y=             -0.7423    Z=              0.0002  Tot=              2.3501

 Test job not archived.
 1\1\GINC-SE227\SP\RHF\Aug-CC-pVDZ\C3H7B1O1S3\OHZDE\09-Apr-2025\0\\#t h
 f aug-cc-pvdz iop(5/13=1,5/36=2,99/5=2) pseudo=read geom=check guess=(
 read,tcheck) scf=(maxcycle=1)\\title\\0,1\C,0,-2.8362,-0.804102,-0.000
 052\C,0,-1.560567,0.020314,0.000025\S,0,-0.081267,-1.058885,0.000117\O
 ,0,-1.541205,1.22221,0.000122\B,0,1.434991,-0.015252,0.000193\S,0,1.57
 5025,1.781139,-0.000075\C,0,-4.102318,0.049657,-0.000067\H,0,-2.799036
 ,-1.466307,0.872047\H,0,-2.798971,-1.466242,-0.872197\H,0,-4.143559,0.
 692534,0.880774\H,0,-4.985946,-0.591949,-0.000124\H,0,-4.143493,0.6925

 Normal termination of Gaussian 16 at Wed Apr  9 00:50:51 2025.
