 Gaussian 16, Revision C.01,

 ----------------------------------------------------------------------
 #t hf aug-cc-pvdz symm=none int=(grid=ultrafine) guess=(read,tcheck) s
 table=(opt,rrhf)
 ----------------------------------------------------------------------
 -----
 title
 -----
 Symbolic Z-matrix:
 Charge =  0 Multiplicity = 1

 SCF Done:  E(RHF) =  -429.231450484     A.U. after   11 cycles
 Normal termination of Gaussian 16 at Tue Apr  8 23:49:22 2025.
 Gaussian 16:  ES64L-G16RevC.01  3-Jul-2019

 ----------------------------------------------------------------------
 #t hf aug-cc-pvdz iop(5/13=1,5/36=2,99/5=2) pseudo=read geom=check gue
 ss=(read,tcheck) scf=(maxcycle=1)
 ----------------------------------------------------------------------
 -----
 title
 -----
 Structure from the checkpoint file:  "BDE49_nonexpt_1842_mol1.chk"
 Charge =  0 Multiplicity = 1

                         Standard orientation:
 ---------------------------------------------------------------------
 Center     Atomic      Atomic             Coordinates (Angstroms)
 Number     Number       Type             X           Y           Z
 ---------------------------------------------------------------------
      1          6           0        1.509474   -0.359401    0.000001
      2         14           0       -0.149785    0.484602    0.000001
      3          1           0       -0.332645    1.313905    1.210777
      4          9           0       -1.319368   -0.629827   -0.000003
      5          1           0       -0.332643    1.313910   -1.210772
      6          1           0        1.634898   -0.987640    0.886067
      7          1           0        2.309947    0.387874    0.000007
      8          1           0        1.634903   -0.987631   -0.886072
 ---------------------------------------------------------------------

 SCF Done:  E(RHF) =  -429.403595417     A.U. after    2 cycles

 The electronic state is 1-A.
 Alpha  occ. eigenvalues --  -69.57443 -26.44201 -11.22946  -6.24037  -3.99493
 Alpha  occ. eigenvalues --   -3.99266  -3.99265  -1.55273  -0.96785  -0.75293
 Alpha  occ. eigenvalues --   -0.63957  -0.63862  -0.61633  -0.57634  -0.56596
 Alpha  occ. eigenvalues --   -0.47893  -0.47183
 Alpha virt. eigenvalues --    0.03556   0.04630   0.04843   0.05072   0.07911
 Alpha virt. eigenvalues --    0.08161   0.08466   0.10233   0.14709   0.15173
 Alpha virt. eigenvalues --    0.15710   0.15804   0.17119   0.17425   0.22543

 Mulliken charges:
               1
     1  C   -0.615881
     2  Si   1.811336
     3  H   -0.253348
     4  F   -0.850337
     5  H   -0.253348
     6  H    0.065849
     7  H    0.029878
     8  H    0.065851
 Sum of Mulliken charges =  -0.00000

 Dipole moment (field-independent basis, Debye):
    X=              1.7104    Y=              0.6008    Z=              0.0000  Tot=              1.8128

 Test job not archived.
 1\1\GINC-SE344\SP\RHF\Aug-CC-pVDZ\C1H5F1Si1\OHZDE\08-Apr-2025\0\\#t hf
  aug-cc-pvdz iop(5/13=1,5/36=2,99/5=2) pseudo=read geom=check guess=(r
 ead,tcheck) scf=(maxcycle=1)\\title\\0,1\C,0,1.509474,-0.3594,0.000001
 \Si,0,-0.149785,0.484602,0.000001\H,0,-0.332646,1.313905,1.210777\F,0,
 -1.319368,-0.629828,-0.000003\H,0,-0.332644,1.31391,-1.210772\H,0,1.63
 4898,-0.987639,0.886067\H,0,2.309947,0.387875,0.000007\H,0,1.634903,-0
 .98763,-0.886072\\Version=ES64L-G16RevC.01\State=1-A\HF=-429.4035954\R
 MSD=5.174e-03\Dipole=0.672904,0.2363883,0.0000018\Quadrupole=-0.513484

 Normal termination of Gaussian 16 at Tue Apr  8 23:49:25 2025.
