 Gaussian 16, Revision C.01,

 ----------------------------------------------------------------------
 #t hf aug-cc-pvdz symm=none int=(grid=ultrafine) guess=(read,tcheck) s
 table=(opt,rrhf)
 ----------------------------------------------------------------------
 -----
 title
 -----
 Symbolic Z-matrix:
 Charge =  0 Multiplicity = 1

 SCF Done:  E(RHF) =  -606.540026633     A.U. after   17 cycles
 Normal termination of Gaussian 16 at Wed Apr  9 00:37:38 2025.
 Gaussian 16:  ES64L-G16RevC.01  3-Jul-2019

 ----------------------------------------------------------------------
 #t hf aug-cc-pvdz iop(5/13=1,5/36=2,99/5=2) pseudo=read geom=check gue
 ss=(read,tcheck) scf=(maxcycle=1)
 ----------------------------------------------------------------------
 -----
 title
 -----
 Structure from the checkpoint file:  "BDE49_nonexpt_438_mol1.chk"
 Charge =  0 Multiplicity = 1

                         Standard orientation:
 ---------------------------------------------------------------------
 Center     Atomic      Atomic             Coordinates (Angstroms)
 Number     Number       Type             X           Y           Z
 ---------------------------------------------------------------------
      1          9           0        3.484559   -0.080677   -0.000005
      2          9           0        2.244129   -1.952576   -0.000006
      3          6           0        1.010243    0.283492    0.000003
      4          5           0        2.264543   -0.619487    0.000004
      5          6           0       -0.350755   -0.187198    0.000002
      6          6           0       -0.704829   -1.563559    0.000002
      7          1           0        0.075856   -2.310177    0.000003
      8          6           0       -2.021860   -1.959231    0.000001
      9          1           0       -2.263021   -3.016362    0.000002
     10          6           0       -3.064312   -1.007235    0.000000
     11          1           0       -4.097051   -1.336658   -0.000001
     12          6           0       -2.763013    0.331362    0.000000
     13          1           0       -3.553619    1.074442   -0.000001
     14          6           0       -1.414732    0.774310    0.000001
     15          6           0       -1.104039    2.158218    0.000000
     16          1           0       -1.921157    2.872592   -0.000001
     17          6           0        0.198047    2.592703    0.000001
     18          1           0        0.424327    3.652617    0.000001
     19          6           0        1.245924    1.652508    0.000002
     20          1           0        2.269710    2.008041    0.000003
 ---------------------------------------------------------------------

 SCF Done:  E(RHF) =  -607.132471477     A.U. after    2 cycles

 The electronic state is 1-A.
 Alpha  occ. eigenvalues --  -26.47346 -26.46970 -11.26819 -11.26727 -11.26702
 Alpha  occ. eigenvalues --  -11.25977 -11.25428 -11.25361 -11.25256 -11.25071
 Alpha  occ. eigenvalues --  -11.24645 -11.24069  -7.71645  -1.62392  -1.58160
 Alpha  occ. eigenvalues --   -1.18845  -1.12347  -1.06346  -1.02180  -0.99697
 Alpha  occ. eigenvalues --   -0.87733  -0.85862  -0.84146  -0.79773  -0.74149
 Alpha  occ. eigenvalues --   -0.73226  -0.72204  -0.70383  -0.69088  -0.68654
 Alpha  occ. eigenvalues --   -0.64333  -0.62628  -0.62502  -0.61033  -0.60839
 Alpha  occ. eigenvalues --   -0.59004  -0.57813  -0.55178  -0.54296  -0.51073
 Alpha  occ. eigenvalues --   -0.48815  -0.46836  -0.40760  -0.33973  -0.31290
 Alpha virt. eigenvalues --    0.02941   0.03140   0.03787   0.04220   0.04571
 Alpha virt. eigenvalues --    0.04739   0.04993   0.06366   0.07054   0.07649
 Alpha virt. eigenvalues --    0.08564   0.09742   0.09918   0.10707   0.11568

 Mulliken charges:
               1
     1  F   -0.871292
     2  F   -0.765494
     3  C    0.815652
     4  B    1.061524
     5  C    1.090580
     6  C    0.328505
     7  H   -0.366038
     8  C   -0.434042
     9  H   -0.249625
    10  C   -0.181139
    11  H   -0.231936
    12  C    0.370220
    13  H   -0.308032
    14  C    0.933137
    15  C    0.146591
    16  H   -0.310298
    17  C   -0.395069
    18  H   -0.224356
    19  C   -0.071264
    20  H   -0.337622
 Sum of Mulliken charges =   0.00000

 Dipole moment (field-independent basis, Debye):
    X=             -2.2349    Y=              1.4204    Z=              0.0000  Tot=              2.6481

 Test job not archived.
 1\1\GINC-SE103\SP\RHF\Aug-CC-pVDZ\C10H7B1F2\OHZDE\09-Apr-2025\0\\#t hf
  aug-cc-pvdz iop(5/13=1,5/36=2,99/5=2) pseudo=read geom=check guess=(r
 ead,tcheck) scf=(maxcycle=1)\\title\\0,1\F,0,3.484559,-0.080677,-0.000
 005\F,0,2.244129,-1.952576,-0.000006\C,0,1.010243,0.283492,0.000003\B,
 0,2.264543,-0.619487,0.000004\C,0,-0.350755,-0.187198,0.000002\C,0,-0.
 704829,-1.563559,0.000002\H,0,0.075856,-2.310177,0.000003\C,0,-2.02186
 ,-1.959231,0.000001\H,0,-2.263021,-3.016362,0.000002\C,0,-3.064312,-1.
 007235,0.\H,0,-4.097051,-1.336658,-0.000001\C,0,-2.763013,0.331362,0.\

 Normal termination of Gaussian 16 at Wed Apr  9 00:37:54 2025.
