 Gaussian 16, Revision C.01,

 ----------------------------------------------------------------------
 #t hf aug-cc-pvdz symm=none int=(grid=ultrafine) guess=(read,tcheck) s
 table=(opt,rrhf)
 ----------------------------------------------------------------------
 -----
 title
 -----
 Symbolic Z-matrix:
 Charge =  0 Multiplicity = 1

 SCF Done:  E(RHF) =  -907.561690499     A.U. after   14 cycles
 Normal termination of Gaussian 16 at Wed Apr  9 00:52:16 2025.
 Gaussian 16:  ES64L-G16RevC.01  3-Jul-2019

 ----------------------------------------------------------------------
 #t hf aug-cc-pvdz iop(5/13=1,5/36=2,99/5=2) pseudo=read geom=check gue
 ss=(read,tcheck) scf=(maxcycle=1)
 ----------------------------------------------------------------------
 -----
 title
 -----
 Structure from the checkpoint file:  "BDE49_nonexpt_920_mol1.chk"
 Charge =  0 Multiplicity = 1

                         Standard orientation:
 ---------------------------------------------------------------------
 Center     Atomic      Atomic             Coordinates (Angstroms)
 Number     Number       Type             X           Y           Z
 ---------------------------------------------------------------------
      1         16           0       -1.760691   -1.085667    0.000007
      2          7           0       -0.045287   -1.039626    0.000007
      3          5           0       -2.221886    0.676746   -0.000015
      4          9           0       -1.324980    1.645351   -0.000051
      5          9           0       -3.510114    0.987153    0.000029
      6          6           0        0.643941   -0.804342   -1.203847
      7          6           0        1.905101   -0.368422   -1.234642
      8          6           0        2.690942    0.013458    0.000002
      9          6           0        1.905103   -0.368416    1.234649
     10          6           0        0.643943   -0.804337    1.203858
     11          6           0        3.056974    1.515254   -0.000002
     12          1           0        0.086245   -1.054118    2.097118
     13          1           0        0.086241   -1.054129   -2.097105
     14          1           0        2.389141   -0.274655   -2.200726
     15          1           0        3.646993    1.772758    0.885110
     16          1           0        2.151423    2.126708   -0.000003
     17          1           0        2.389144   -0.274644    2.200732
     18          1           0        3.646992    1.772753   -0.885117
     19          1           0        3.641133   -0.542054    0.000002
 ---------------------------------------------------------------------

 SCF Done:  E(RHF) =  -908.120638646     A.U. after    2 cycles

 The electronic state is 1-A.
 Alpha  occ. eigenvalues --  -94.00403 -26.49508 -26.49416 -15.55385 -11.28215
 Alpha  occ. eigenvalues --  -11.28197 -11.25103 -11.23452 -11.23446 -11.22598
 Alpha  occ. eigenvalues --   -8.28286  -7.75548  -6.26092  -6.25868  -6.25731
 Alpha  occ. eigenvalues --   -1.64586  -1.60830  -1.28677  -1.11065  -1.04531
 Alpha  occ. eigenvalues --   -1.03433  -0.94978  -0.86515  -0.84936  -0.81749
 Alpha  occ. eigenvalues --   -0.76305  -0.74994  -0.70967  -0.70444  -0.68032
 Alpha  occ. eigenvalues --   -0.66613  -0.64868  -0.64649  -0.62354  -0.62020
 Alpha  occ. eigenvalues --   -0.60960  -0.57918  -0.55784  -0.53568  -0.49947
 Alpha  occ. eigenvalues --   -0.48332  -0.47883  -0.42699  -0.38717  -0.31551
 Alpha virt. eigenvalues --    0.03459   0.03717   0.03761   0.04392   0.04975
 Alpha virt. eigenvalues --    0.05011   0.05723   0.06433   0.06863   0.08719
 Alpha virt. eigenvalues --    0.08750   0.10107   0.10363   0.10944   0.11531

 Mulliken charges:
               1
     1  S   -0.046607
     2  N    0.801820
     3  B    1.733547
     4  F   -0.529736
     5  F   -0.732652
     6  C   -0.468813
     7  C    0.884870
     8  C   -1.376983
     9  C    0.884879
    10  C   -0.468831
    11  C   -0.273525
    12  H   -0.357127
    13  H   -0.357130
    14  H   -0.195151
    15  H    0.138166
    16  H    0.209128
    17  H   -0.195151
    18  H    0.138168
    19  H    0.211128
 Sum of Mulliken charges =  -0.00000

 Dipole moment (field-independent basis, Debye):
    X=              0.9384    Y=             -0.0243    Z=             -0.0000  Tot=              0.9387

 Test job not archived.
 1\1\GINC-SE090\SP\RHF\Aug-CC-pVDZ\C6H8B1F2N1S1\OHZDE\09-Apr-2025\0\\#t
  hf aug-cc-pvdz iop(5/13=1,5/36=2,99/5=2) pseudo=read geom=check guess
 =(read,tcheck) scf=(maxcycle=1)\\title\\0,1\S,0,-1.760691,-1.085667,0.
 000007\N,0,-0.045287,-1.039626,0.000007\B,0,-2.221886,0.676746,-0.0000
 15\F,0,-1.32498,1.645351,-0.000051\F,0,-3.510114,0.987153,0.000029\C,0
 ,0.643941,-0.804342,-1.203847\C,0,1.905101,-0.368422,-1.234642\C,0,2.6
 90942,0.013458,0.000002\C,0,1.905103,-0.368416,1.234649\C,0,0.643943,-
 0.804337,1.203858\C,0,3.056974,1.515254,-0.000002\H,0,0.086245,-1.0541

 Normal termination of Gaussian 16 at Wed Apr  9 00:52:29 2025.
