 Gaussian 16, Revision C.01,

 ----------------------------------------------------------------------
 #t hf aug-cc-pvdz symm=none int=(grid=ultrafine) guess=(read,tcheck) s
 table=(opt,rrhf)
 ----------------------------------------------------------------------
 -----
 title
 -----
 Symbolic Z-matrix:
 Charge =  0 Multiplicity = 1

 SCF Done:  E(RHF) =  -1100.52558183     A.U. after   12 cycles
 Normal termination of Gaussian 16 at Tue Apr  8 23:48:53 2025.
 Gaussian 16:  ES64L-G16RevC.01  3-Jul-2019

 ----------------------------------------------------------------------
 #t hf aug-cc-pvdz iop(5/13=1,5/36=2,99/5=2) pseudo=read geom=check gue
 ss=(read,tcheck) scf=(maxcycle=1)
 ----------------------------------------------------------------------
 -----
 title
 -----
 Structure from the checkpoint file:  "BDE49_nonexpt_181_mol1.chk"
 Charge =  0 Multiplicity = 1

                         Standard orientation:
 ---------------------------------------------------------------------
 Center     Atomic      Atomic             Coordinates (Angstroms)
 Number     Number       Type             X           Y           Z
 ---------------------------------------------------------------------
      1         17           0        1.971704   -0.642733   -0.880952
      2         17           0        0.774950    1.525351    0.840325
      3          5           0        0.568552   -0.016087   -0.004541
      4          6           0       -0.766072   -0.835142    0.084153
      5          6           0       -2.054463    0.006895   -0.031331
      6          6           0       -0.744750   -1.633443    1.416940
      7          1           0       -0.755369   -0.962149    2.279939
      8          1           0        0.136414   -2.275280    1.497158
      9          1           0       -1.629654   -2.273294    1.478662
     10          1           0       -0.761055   -1.567093   -0.732675
     11          6           0       -2.223363    0.698548   -1.387515
     12          1           0       -2.075099    0.752922    0.770033
     13          1           0       -2.909853   -0.655634    0.145079
     14          1           0       -1.420463    1.417283   -1.579002
     15          1           0       -3.167949    1.246502   -1.433867
     16          1           0       -2.220950   -0.028474   -2.205456
 ---------------------------------------------------------------------

 SCF Done:  E(RHF) =  -1100.87710506     A.U. after    2 cycles

 The electronic state is 1-A.
 Alpha  occ. eigenvalues -- -105.57253-105.57233 -11.24279 -11.23974 -11.23411
 Alpha  occ. eigenvalues --  -11.23150 -10.62255 -10.62219  -7.79150  -7.79120
 Alpha  occ. eigenvalues --   -7.78875  -7.78852  -7.78832  -7.78803  -7.70650
 Alpha  occ. eigenvalues --   -1.11763  -1.07646  -1.05244  -0.99642  -0.87911
 Alpha  occ. eigenvalues --   -0.81672  -0.69297  -0.64496  -0.61483  -0.60177
 Alpha  occ. eigenvalues --   -0.58931  -0.56964  -0.54329  -0.52902  -0.51804
 Alpha  occ. eigenvalues --   -0.50484  -0.48619  -0.47818  -0.47338  -0.45886
 Alpha  occ. eigenvalues --   -0.44619
 Alpha virt. eigenvalues --    0.03523   0.03689   0.03978   0.04088   0.06169
 Alpha virt. eigenvalues --    0.06298   0.06525   0.06823   0.07189   0.08523
 Alpha virt. eigenvalues --    0.09293   0.09472   0.09921   0.11978   0.13104

 Mulliken charges:
               1
     1  Cl  -0.447776
     2  Cl  -0.448594
     3  B    0.819762
     4  C   -0.030128
     5  C   -0.329574
     6  C   -0.417633
     7  H    0.193351
     8  H    0.093363
     9  H    0.134244
    10  H    0.105491
    11  C   -0.385080
    12  H    0.131969
    13  H    0.145563
    14  H    0.153469
    15  H    0.100233
    16  H    0.181339
 Sum of Mulliken charges =  -0.00000

 Dipole moment (field-independent basis, Debye):
    X=             -1.7055    Y=             -0.8723    Z=              0.1495  Tot=              1.9214

 Test job not archived.
 1\1\GINC-SE072\SP\RHF\Aug-CC-pVDZ\C4H9B1Cl2\OHZDE\08-Apr-2025\0\\#t hf
  aug-cc-pvdz iop(5/13=1,5/36=2,99/5=2) pseudo=read geom=check guess=(r
 ead,tcheck) scf=(maxcycle=1)\\title\\0,1\Cl,0,-1.971704,-0.642733,0.88
 0952\Cl,0,-0.77495,1.525351,-0.840325\B,0,-0.568552,-0.016087,0.004541
 \C,0,0.766072,-0.835142,-0.084153\C,0,2.054463,0.006895,0.031331\C,0,0
 .74475,-1.633443,-1.41694\H,0,0.755369,-0.962149,-2.279939\H,0,-0.1364
 14,-2.27528,-1.497158\H,0,1.629654,-2.273294,-1.478662\H,0,0.761055,-1
 .567093,0.732675\C,0,2.223363,0.698548,1.387515\H,0,2.075099,0.752922,

 Normal termination of Gaussian 16 at Tue Apr  8 23:49:01 2025.
