 Gaussian 16, Revision C.01,

 ----------------------------------------------------------------------
 #t hf aug-cc-pvdz symm=none int=(grid=ultrafine) guess=(read,tcheck) s
 table=(opt,rrhf)
 ----------------------------------------------------------------------
 -----
 title
 -----
 Symbolic Z-matrix:
 Charge =  0 Multiplicity = 1

 SCF Done:  E(RHF) =  -991.419682180     A.U. after   14 cycles

 1\1\GINC-SE249\Stability\RHF\Aug-CC-pVDZ\C5H12S2\OHZDE\08-Apr-2025\0\\
 #t hf aug-cc-pvdz symm=none int=(grid=ultrafine) guess=(read,tcheck) s
 table=(opt,rrhf)\\title\\0,1\C,0,-1.309001,0.162421,0.075547\S,0,0.101
 84,-0.792685,-0.730979\S,0,1.772929,-0.504798,0.467581\C,0,2.651318,0.
 895071,-0.324014\H,0,3.600928,0.985266,0.209554\H,0,2.092439,1.824683,
 -0.230053\H,0,2.846812,0.672921,-1.371966\C,0,-2.484329,-0.08708,-0.88
 2062\H,0,-2.284017,0.315943,-1.877999\H,0,-3.380755,0.40529,-0.491985\
 H,0,-2.703127,-1.153607,-0.978848\C,0,-1.60515,-0.414266,1.462345\H,0,

 Normal termination of Gaussian 16 at Tue Apr  8 22:47:27 2025.
 Gaussian 16:  ES64L-G16RevC.01  3-Jul-2019

 ----------------------------------------------------------------------
 #t hf aug-cc-pvdz iop(5/13=1,5/36=2,99/5=2) pseudo=read geom=check gue
 ss=(read,tcheck) scf=(maxcycle=1)
 ----------------------------------------------------------------------
 -----
 title
 -----
 Structure from the checkpoint file:  "BDE49_expt_1594_mol1.chk"
 Charge =  0 Multiplicity = 1

                         Standard orientation:
 ---------------------------------------------------------------------
 Center     Atomic      Atomic             Coordinates (Angstroms)
 Number     Number       Type             X           Y           Z
 ---------------------------------------------------------------------
      1          6           0       -1.309001    0.162421    0.075547
      2         16           0        0.101840   -0.792685   -0.730979
      3         16           0        1.772929   -0.504798    0.467581
      4          6           0        2.651318    0.895071   -0.324014
      5          1           0        3.600928    0.985266    0.209554
      6          1           0        2.092439    1.824683   -0.230053
      7          1           0        2.846812    0.672921   -1.371966
      8          6           0       -2.484329   -0.087080   -0.882062
      9          1           0       -2.284017    0.315943   -1.877999
     10          1           0       -3.380755    0.405290   -0.491985
     11          1           0       -2.703127   -1.153607   -0.978848
     12          6           0       -1.605150   -0.414266    1.462345
     13          1           0       -0.744350   -0.304411    2.125425
     14          1           0       -1.859060   -1.474641    1.402322
     15          1           0       -2.449561    0.117844    1.914662
     16          6           0       -0.983698    1.655186    0.159535
     17          1           0       -0.760694    2.069966   -0.825980
     18          1           0       -0.129858    1.833896    0.816723
     19          1           0       -1.839902    2.198585    0.574426
 ---------------------------------------------------------------------

 SCF Done:  E(RHF) =  -991.761506366     A.U. after    2 cycles

 The electronic state is 1-A.
 Alpha  occ. eigenvalues --  -93.96485 -93.95819 -11.28452 -11.26781 -11.23696
 Alpha  occ. eigenvalues --  -11.23359 -11.22914  -8.24384  -8.23727  -6.22191
 Alpha  occ. eigenvalues --   -6.21989  -6.21771  -6.21532  -6.21302  -6.21108
 Alpha  occ. eigenvalues --   -1.13156  -1.07334  -0.96443  -0.94771  -0.94364
 Alpha  occ. eigenvalues --   -0.84029  -0.73897  -0.63342  -0.62133  -0.61975
 Alpha  occ. eigenvalues --   -0.59835  -0.59263  -0.56179  -0.55589  -0.53099
 Alpha  occ. eigenvalues --   -0.51738  -0.49704  -0.49279  -0.45993  -0.43885
 Alpha  occ. eigenvalues --   -0.35821  -0.35093
 Alpha virt. eigenvalues --    0.03578   0.03586   0.03989   0.04365   0.05688
 Alpha virt. eigenvalues --    0.05918   0.06411   0.06988   0.07237   0.08427
 Alpha virt. eigenvalues --    0.09577   0.09975   0.10540   0.11216   0.12884

 Mulliken charges:
               1
     1  C   -1.547052
     2  S   -0.026509
     3  S    0.067712
     4  C   -0.662790
     5  H    0.185920
     6  H    0.131424
     7  H    0.207863
     8  C    0.141213
     9  H    0.184722
    10  H    0.222527
    11  H    0.179300
    12  C   -0.126675
    13  H    0.198980
    14  H    0.185606
    15  H    0.203957
    16  C   -0.110113
    17  H    0.165790
    18  H    0.224695
    19  H    0.173432
 Sum of Mulliken charges =  -0.00000

 Dipole moment (field-independent basis, Debye):
    X=             -0.7726    Y=              2.1987    Z=              0.1228  Tot=              2.3338

 Test job not archived.
 1\1\GINC-SE249\SP\RHF\Aug-CC-pVDZ\C5H12S2\OHZDE\08-Apr-2025\0\\#t hf a
 ug-cc-pvdz iop(5/13=1,5/36=2,99/5=2) pseudo=read geom=check guess=(rea
 d,tcheck) scf=(maxcycle=1)\\title\\0,1\C,0,-1.309001,0.162421,0.075547
 \S,0,0.10184,-0.792685,-0.730979\S,0,1.772929,-0.504798,0.467581\C,0,2
 .651318,0.895071,-0.324014\H,0,3.600928,0.985266,0.209554\H,0,2.092439
 ,1.824683,-0.230053\H,0,2.846812,0.672921,-1.371966\C,0,-2.484329,-0.0
 8708,-0.882062\H,0,-2.284017,0.315943,-1.877999\H,0,-3.380755,0.40529,
 -0.491985\H,0,-2.703127,-1.153607,-0.978848\C,0,-1.60515,-0.414266,1.4

 Normal termination of Gaussian 16 at Tue Apr  8 22:47:37 2025.
