 Gaussian 16, Revision C.01,

 ----------------------------------------------------------------------
 #t hf aug-cc-pvdz symm=none int=(grid=ultrafine) guess=(read,tcheck) s
 table=(opt,rrhf)
 ----------------------------------------------------------------------
 -----
 title
 -----
 Symbolic Z-matrix:
 Charge =  0 Multiplicity = 1

 SCF Done:  E(RHF) =  -268.018988623     A.U. after   12 cycles
 Normal termination of Gaussian 16 at Tue Apr  8 22:32:49 2025.
 Gaussian 16:  ES64L-G16RevC.01  3-Jul-2019

 ----------------------------------------------------------------------
 #t hf aug-cc-pvdz iop(5/13=1,5/36=2,99/5=2) pseudo=read geom=check gue
 ss=(read,tcheck) scf=(maxcycle=1)
 ----------------------------------------------------------------------
 -----
 title
 -----
 Structure from the checkpoint file:  "BDE49_expt_1070_mol1.chk"
 Charge =  0 Multiplicity = 1

                         Standard orientation:
 ---------------------------------------------------------------------
 Center     Atomic      Atomic             Coordinates (Angstroms)
 Number     Number       Type             X           Y           Z
 ---------------------------------------------------------------------
      1          6           0       -0.445837    0.027532   -0.337041
      2          6           0        0.750218   -0.738616    0.215444
      3          8           0       -0.317669    1.348514    0.219712
      4          1           0       -0.902457    1.942118   -0.259720
      5          8           0        1.971248   -0.112425   -0.135342
      6          1           0        0.774450   -1.748594   -0.200637
      7          1           0        0.641164   -0.819405    1.307917
      8          1           0        1.855486    0.817621    0.094696
      9          6           0       -1.784467   -0.602650    0.029305
     10          1           0       -0.336342    0.082175   -1.428851
     11          1           0       -1.897224   -0.653208    1.115278
     12          1           0       -1.868266   -1.613933   -0.380041
     13          1           0       -2.614926   -0.013078   -0.369851
 ---------------------------------------------------------------------

 SCF Done:  E(RHF) =  -268.301198082     A.U. after    2 cycles

 The electronic state is 1-A.
 Alpha  occ. eigenvalues --  -20.55846 -20.53824 -11.29475 -11.28069 -11.23751
 Alpha  occ. eigenvalues --   -1.46364  -1.43283  -1.05018  -0.93120  -0.81906
 Alpha  occ. eigenvalues --   -0.73071  -0.66404  -0.64303  -0.61355  -0.57683
 Alpha  occ. eigenvalues --   -0.56407  -0.55244  -0.51371  -0.48866  -0.45358
 Alpha  occ. eigenvalues --   -0.43148
 Alpha virt. eigenvalues --    0.03176   0.03991   0.04347   0.04908   0.06797
 Alpha virt. eigenvalues --    0.07111   0.07380   0.08041   0.11932   0.12957
 Alpha virt. eigenvalues --    0.14540   0.15405   0.15447   0.16508   0.16723

 Mulliken charges:
               1
     1  C    0.301396
     2  C    0.910165
     3  O   -1.276537
     4  H    0.284158
     5  O   -1.220869
     6  H    0.094551
     7  H    0.143188
     8  H    0.353283
     9  C   -0.279481
    10  H    0.146898
    11  H    0.222080
    12  H    0.208094
    13  H    0.113075
 Sum of Mulliken charges =  -0.00000

 Dipole moment (field-independent basis, Debye):
    X=             -2.6896    Y=              0.3325    Z=             -0.6380  Tot=              2.7842

 Test job not archived.
 1\1\GINC-SE118\SP\RHF\Aug-CC-pVDZ\C3H8O2\OHZDE\08-Apr-2025\0\\#t hf au
 g-cc-pvdz iop(5/13=1,5/36=2,99/5=2) pseudo=read geom=check guess=(read
 ,tcheck) scf=(maxcycle=1)\\title\\0,1\C,0,-0.445837,0.027532,-0.337041
 \C,0,0.750218,-0.738616,0.215444\O,0,-0.317669,1.348514,0.219712\H,0,-
 0.902457,1.942118,-0.25972\O,0,1.971248,-0.112426,-0.135342\H,0,0.7744
 5,-1.748594,-0.200637\H,0,0.641164,-0.819405,1.307917\H,0,1.855486,0.8
 1762,0.094696\C,0,-1.784467,-0.60265,0.029305\H,0,-0.336342,0.082175,-
 1.428851\H,0,-1.897224,-0.653208,1.115278\H,0,-1.868266,-1.613933,-0.3

 Normal termination of Gaussian 16 at Tue Apr  8 22:32:52 2025.
