 Gaussian 16, Revision C.01,

 ----------------------------------------------------------------------
 #t hf aug-cc-pvdz symm=none int=(grid=ultrafine) guess=(read,tcheck) s
 table=(opt,rrhf)
 ----------------------------------------------------------------------
 -----
 title
 -----
 Symbolic Z-matrix:
 Charge =  0 Multiplicity = 1

 SCF Done:  E(RHF) =  -441.603316946     A.U. after   15 cycles
 Normal termination of Gaussian 16 at Tue Apr  8 23:21:16 2025.
 Gaussian 16:  ES64L-G16RevC.01  3-Jul-2019

 ----------------------------------------------------------------------
 #t hf aug-cc-pvdz iop(5/13=1,5/36=2,99/5=2) pseudo=read geom=check gue
 ss=(read,tcheck) scf=(maxcycle=1)
 ----------------------------------------------------------------------
 -----
 title
 -----
 Structure from the checkpoint file:  "BDE49_nonexpt_1164_mol1.chk"
 Charge =  0 Multiplicity = 1

                         Standard orientation:
 ---------------------------------------------------------------------
 Center     Atomic      Atomic             Coordinates (Angstroms)
 Number     Number       Type             X           Y           Z
 ---------------------------------------------------------------------
      1          9           0       -0.990056    2.006439    0.056070
      2          8           0       -0.135754    1.020987   -0.565428
      3          6           0        0.087127    0.008911    0.447007
      4          8           0        1.107280   -0.739147   -0.111520
      5          8           0       -1.013965   -0.747397    0.702482
      6          6           0        2.406321   -0.142912   -0.040417
      7          1           0        3.104074   -0.891682   -0.410867
      8          1           0        2.659171    0.107304    0.996317
      9          1           0        2.465472    0.755110   -0.658755
     10          6           0       -1.540197   -1.493827   -0.407521
     11          1           0       -2.456758   -1.951319   -0.040917
     12          1           0       -0.837133   -2.266974   -0.722391
     13          1           0       -1.766970   -0.831530   -1.245367
     14          1           0        0.362652    0.512556    1.378660
 ---------------------------------------------------------------------

 SCF Done:  E(RHF) =  -442.039774848     A.U. after    2 cycles

 The electronic state is 1-A.
 Alpha  occ. eigenvalues --  -26.50018 -20.67204 -20.58285 -20.57260 -11.42079
 Alpha  occ. eigenvalues --  -11.30596 -11.29005  -1.65720  -1.54258  -1.47088
 Alpha  occ. eigenvalues --   -1.34663  -1.00108  -0.95970  -0.86108  -0.75609
 Alpha  occ. eigenvalues --   -0.73939  -0.73450  -0.67710  -0.65853  -0.63497
 Alpha  occ. eigenvalues --   -0.62759  -0.60686  -0.59384  -0.56842  -0.52954
 Alpha  occ. eigenvalues --   -0.51213  -0.50171  -0.46913  -0.45861
 Alpha virt. eigenvalues --    0.03442   0.04283   0.04614   0.05479   0.06566
 Alpha virt. eigenvalues --    0.06972   0.07307   0.10502   0.11951   0.12692
 Alpha virt. eigenvalues --    0.13949   0.14697   0.15129   0.16198   0.16830

 Mulliken charges:
               1
     1  F   -0.473830
     2  O   -0.515441
     3  C    2.652913
     4  O   -1.371100
     5  O   -1.397229
     6  C    0.169545
     7  H    0.005316
     8  H    0.179098
     9  H    0.169423
    10  C    0.058607
    11  H   -0.014884
    12  H    0.188060
    13  H    0.182574
    14  H    0.166949
 Sum of Mulliken charges =  -0.00000

 Dipole moment (field-independent basis, Debye):
    X=              1.9049    Y=             -1.2372    Z=              0.0358  Tot=              2.2717

 Test job not archived.
 1\1\GINC-SE339\SP\RHF\Aug-CC-pVDZ\C3H7F1O3\OHZDE\08-Apr-2025\0\\#t hf
 aug-cc-pvdz iop(5/13=1,5/36=2,99/5=2) pseudo=read geom=check guess=(re
 ad,tcheck) scf=(maxcycle=1)\\title\\0,1\F,0,-0.990057,2.006439,0.05607
 \O,0,-0.135754,1.020987,-0.565428\C,0,0.087127,0.008911,0.447007\O,0,1
 .10728,-0.739147,-0.11152\O,0,-1.013965,-0.747397,0.702482\C,0,2.40632
 1,-0.142911,-0.040417\H,0,3.104074,-0.891681,-0.410867\H,0,2.659171,0.
 107305,0.996317\H,0,2.465472,0.755111,-0.658755\C,0,-1.540197,-1.49382
 7,-0.407521\H,0,-2.456758,-1.95132,-0.040917\H,0,-0.837133,-2.266974,-

 Normal termination of Gaussian 16 at Tue Apr  8 23:21:21 2025.
