 Gaussian 16, Revision C.01,

 ----------------------------------------------------------------------
 #t hf aug-cc-pvdz symm=none int=(grid=ultrafine) guess=(read,tcheck) s
 table=opt
 ----------------------------------------------------------------------
 -----
 title
 -----
 Symbolic Z-matrix:
 Charge =  0 Multiplicity = 2

 SCF Done:  E(UHF) =  -576.572580172     A.U. after   17 cycles

 1\1\GINC-SE340\Stability\UHF\Aug-CC-pVDZ\C3H6Cl1\OHZDE\08-Apr-2025\0\\
 #t hf aug-cc-pvdz symm=none int=(grid=ultrafine) guess=(read,tcheck) s
 table=opt\\title\\0,2\C,0,1.82757,-0.77326,0.159573\C,0,1.222388,0.498
 92,-0.322308\C,0,-0.106616,0.865094,0.32926\H,0,-0.468024,1.831536,-0.
 017086\H,0,-0.037092,0.867822,1.415913\Cl,0,-1.425522,-0.323897,-0.079
 705\H,0,1.200697,-1.607438,0.447152\H,0,2.893049,-0.939437,0.066475\H,
 0,1.074562,0.473028,-1.414525\H,0,1.910627,1.336205,-0.142098\\Version
 =ES64L-G16RevC.01\HF=-576.5725802\S2=0.762773\S2-1=0.\S2A=0.750107\RMS

 Normal termination of Gaussian 16 at Tue Apr  8 22:47:35 2025.
 Gaussian 16:  ES64L-G16RevC.01  3-Jul-2019

 ----------------------------------------------------------------------
 #t hf aug-cc-pvdz iop(5/13=1,5/36=2,99/5=2) pseudo=read geom=check gue
 ss=(read,tcheck) scf=(maxcycle=1)
 ----------------------------------------------------------------------
 -----
 title
 -----
 Structure from the checkpoint file:  "BDE49_expt_1647_mol2.chk"
 Charge =  0 Multiplicity = 2

                         Standard orientation:
 ---------------------------------------------------------------------
 Center     Atomic      Atomic             Coordinates (Angstroms)
 Number     Number       Type             X           Y           Z
 ---------------------------------------------------------------------
      1          6           0        1.827570   -0.773260    0.159573
      2          6           0        1.222388    0.498920   -0.322308
      3          6           0       -0.106616    0.865094    0.329260
      4          1           0       -0.468023    1.831536   -0.017086
      5          1           0       -0.037092    0.867822    1.415913
      6         17           0       -1.425522   -0.323896   -0.079705
      7          1           0        1.200697   -1.607438    0.447152
      8          1           0        2.893049   -0.939438    0.066475
      9          1           0        1.074562    0.473028   -1.414525
     10          1           0        1.910627    1.336205   -0.142098
 ---------------------------------------------------------------------

 SCF Done:  E(UHF) =  -576.777346133     A.U. after    2 cycles

 The electronic state is 2-A.
 Alpha  occ. eigenvalues -- -105.55118 -11.30796 -11.25453 -11.24760 -10.59923
 Alpha  occ. eigenvalues --   -7.76851  -7.76499  -7.76489  -1.12185  -1.03041
 Alpha  occ. eigenvalues --   -0.91807  -0.81230  -0.66034  -0.65143  -0.59033
 Alpha  occ. eigenvalues --   -0.55489  -0.54956  -0.51114  -0.44303  -0.44029
 Alpha  occ. eigenvalues --   -0.36712
 Alpha virt. eigenvalues --    0.03446   0.04075   0.04499   0.05236   0.06832
 Alpha virt. eigenvalues --    0.07110   0.09569   0.12053   0.13013   0.14277
 Alpha virt. eigenvalues --    0.14865   0.15402   0.16196   0.16491   0.18059

  Beta  occ. eigenvalues -- -105.55121 -11.30725 -11.25775 -11.22327 -10.59927
  Beta  occ. eigenvalues --   -7.76864  -7.76499  -7.76491  -1.11575  -1.00960
  Beta  occ. eigenvalues --   -0.88292  -0.78358  -0.65350  -0.64213  -0.57803
  Beta  occ. eigenvalues --   -0.54400  -0.53566  -0.50582  -0.44192  -0.43999
  Beta virt. eigenvalues --    0.03410   0.04137   0.04404   0.05278   0.06822
  Beta virt. eigenvalues --    0.07127   0.08519   0.09601   0.12602   0.14252
  Beta virt. eigenvalues --    0.14790   0.14985   0.16034   0.16428   0.17799

 Mulliken charges and spin densities:
               1          2
     1  C    0.065606   1.385787
     2  C   -0.283863  -0.239715
     3  C   -0.541411   0.015710
     4  H    0.220232   0.000534
     5  H    0.251338  -0.002187
     6  Cl  -0.099322  -0.001508
     7  H    0.013358  -0.101633
     8  H   -0.032970  -0.101181
     9  H    0.212490   0.036307
    10  H    0.194542   0.007886
 Sum of Mulliken charges =   0.00000   1.00000

 Dipole moment (field-independent basis, Debye):
    X=              1.8583    Y=              1.5009    Z=              0.2407  Tot=              2.4008
                          Isotropic Fermi Contact Couplings
        Atom                 a.u.       MegaHertz       Gauss      10(-4) cm-1
     1  C(13)              0.20896     234.91540      83.82366      78.35934
     2  C(13)             -0.05909     -66.43102     -23.70424     -22.15900
     3  C(13)              0.01643      18.46562       6.58899       6.15947
     4  H(1)              -0.00038      -1.68605      -0.60163      -0.56241
     5  H(1)              -0.00073      -3.27035      -1.16694      -1.09087
     6  Cl(35)            -0.00141      -0.61625      -0.21989      -0.20556
     7  H(1)              -0.02390    -106.82380     -38.11739     -35.63259
     8  H(1)              -0.02408    -107.62746     -38.40415     -35.90066

 Normal termination of Gaussian 16 at Tue Apr  8 22:47:38 2025.
