 Gaussian 16, Revision C.01,

 ----------------------------------------------------------------------
 #t hf aug-cc-pvdz symm=none int=(grid=ultrafine) guess=(read,tcheck) s
 table=(opt,rrhf)
 ----------------------------------------------------------------------
 -----
 title
 -----
 Symbolic Z-matrix:
 Charge =  0 Multiplicity = 1

 SCF Done:  E(RHF) =  -578.934205813     A.U. after   13 cycles
 Normal termination of Gaussian 16 at Tue Apr  8 23:38:00 2025.
 Gaussian 16:  ES64L-G16RevC.01  3-Jul-2019

 ----------------------------------------------------------------------
 #t hf aug-cc-pvdz iop(5/13=1,5/36=2,99/5=2) pseudo=read geom=check gue
 ss=(read,tcheck) scf=(maxcycle=1)
 ----------------------------------------------------------------------
 -----
 title
 -----
 Structure from the checkpoint file:  "BDE49_nonexpt_1547_mol1.chk"
 Charge =  0 Multiplicity = 1

                         Standard orientation:
 ---------------------------------------------------------------------
 Center     Atomic      Atomic             Coordinates (Angstroms)
 Number     Number       Type             X           Y           Z
 ---------------------------------------------------------------------
      1          6           0       -2.851595   -0.668488    0.414203
      2          5           0       -1.559097    0.071852   -0.098004
      3          1           0       -3.125723   -0.227284    1.383756
      4          1           0       -2.742804   -1.744533    0.576077
      5          1           0       -3.713046   -0.500591   -0.242290
      6          6           0       -1.642231    1.523968   -0.692634
      7          1           0       -2.200123    1.485742   -1.639199
      8          1           0       -0.676267    1.989577   -0.897343
      9          1           0       -2.226647    2.184916   -0.040579
     10         15           0        0.051454   -0.935684   -0.174274
     11          7           0        1.380871    0.145380   -0.073752
     12          6           0        2.651719   -0.329861   -0.621565
     13          1           0        3.209286   -0.973469    0.078359
     14          1           0        3.287803    0.527076   -0.868249
     15          1           0        2.472162   -0.896184   -1.535947
     16          6           0        1.553289    0.953861    1.129563
     17          1           0        2.296715    1.737209    0.946328
     18          1           0        1.893501    0.360631    1.994770
     19          1           0        0.612132    1.436074    1.397526
     20          1           0        0.003500   -1.597722    1.089786
 ---------------------------------------------------------------------

 SCF Done:  E(RHF) =  -579.240995173     A.U. after    2 cycles

 The electronic state is 1-A.
 Alpha  occ. eigenvalues --  -84.25972 -15.49098 -11.26012 -11.25647 -11.20689
 Alpha  occ. eigenvalues --  -11.20340  -7.58997  -6.73083  -4.26209  -4.25557
 Alpha  occ. eigenvalues --   -4.25094  -1.20673  -0.98042  -0.96147  -0.92758
 Alpha  occ. eigenvalues --   -0.90482  -0.79040  -0.65382  -0.64415  -0.63182
 Alpha  occ. eigenvalues --   -0.60340  -0.56757  -0.56529  -0.55369  -0.54803
 Alpha  occ. eigenvalues --   -0.53418  -0.52861  -0.51780  -0.46863  -0.43515
 Alpha  occ. eigenvalues --   -0.38358  -0.31271
 Alpha virt. eigenvalues --    0.03393   0.04061   0.04172   0.04457   0.05457
 Alpha virt. eigenvalues --    0.05523   0.05706   0.06294   0.06466   0.08416
 Alpha virt. eigenvalues --    0.08793   0.08845   0.08970   0.09363   0.10293

 Mulliken charges:
               1
     1  C   -0.456409
     2  B    0.987769
     3  H    0.114578
     4  H   -0.059982
     5  H   -0.016679
     6  C   -0.491203
     7  H    0.153373
     8  H    0.006311
     9  H    0.127085
    10  P   -0.586908
    11  N    0.341809
    12  C   -0.453675
    13  H    0.212852
    14  H    0.105726
    15  H    0.058201
    16  C   -0.533805
    17  H    0.115455
    18  H    0.178989
    19  H   -0.001859
    20  H    0.198374
 Sum of Mulliken charges =  -0.00000

 Dipole moment (field-independent basis, Debye):
    X=              0.2516    Y=              0.6532    Z=              0.8669  Tot=              1.1143

 Test job not archived.
 1\1\GINC-SE454\SP\RHF\Aug-CC-pVDZ\C4H13B1N1P1\OHZDE\08-Apr-2025\0\\#t
 hf aug-cc-pvdz iop(5/13=1,5/36=2,99/5=2) pseudo=read geom=check guess=
 (read,tcheck) scf=(maxcycle=1)\\title\\0,1\C,0,-2.851595,-0.668488,0.4
 14203\B,0,-1.559097,0.071852,-0.098004\H,0,-3.125723,-0.227284,1.38375
 6\H,0,-2.742804,-1.744533,0.576077\H,0,-3.713046,-0.500591,-0.24229\C,
 0,-1.642231,1.523968,-0.692634\H,0,-2.200123,1.485742,-1.639199\H,0,-0
 .676267,1.989577,-0.897343\H,0,-2.226647,2.184916,-0.040579\P,0,0.0514
 54,-0.935684,-0.174274\N,0,1.380871,0.14538,-0.073752\C,0,2.651719,-0.

 Normal termination of Gaussian 16 at Tue Apr  8 23:38:09 2025.
