 Gaussian 16, Revision C.01,

 ----------------------------------------------------------------------
 #t hf aug-cc-pvdz symm=none int=(grid=ultrafine) guess=(read,tcheck) s
 table=opt
 ----------------------------------------------------------------------
 -----
 title
 -----
 Symbolic Z-matrix:
 Charge =  0 Multiplicity = 2

 SCF Done:  E(UHF) =  -908.369796227     A.U. after   19 cycles
 Normal termination of Gaussian 16 at Wed Apr  9 00:22:38 2025.
 Gaussian 16:  ES64L-G16RevC.01  3-Jul-2019

 ----------------------------------------------------------------------
 #t hf aug-cc-pvdz iop(5/13=1,5/36=2,99/5=2) pseudo=read geom=check gue
 ss=(read,tcheck) scf=(maxcycle=1)
 ----------------------------------------------------------------------
 -----
 title
 -----
 Structure from the checkpoint file:  "BDE49_nonexpt_2664_mol2.chk"
 Charge =  0 Multiplicity = 2

                         Standard orientation:
 ---------------------------------------------------------------------
 Center     Atomic      Atomic             Coordinates (Angstroms)
 Number     Number       Type             X           Y           Z
 ---------------------------------------------------------------------
      1         16           0       -1.524609   -0.525511   -0.000000
      2          6           0       -0.047260    0.443068   -0.000000
      3          8           0       -0.152221    1.642143   -0.000001
      4         16           0        1.550955   -0.360406    0.000001
      5          1           0        1.079782   -1.620891    0.000002
 ---------------------------------------------------------------------

 SCF Done:  E(UHF) =  -908.586769514     A.U. after    2 cycles

 The electronic state is 2-A.
 Alpha  occ. eigenvalues --  -94.01917 -94.00542 -20.57428 -11.42308  -8.30095
 Alpha  occ. eigenvalues --   -8.28698  -6.29266  -6.27473  -6.27154  -6.26510
 Alpha  occ. eigenvalues --   -6.26408  -6.26130  -1.52036  -1.12444  -1.05305
 Alpha  occ. eigenvalues --   -0.78011  -0.68362  -0.64902  -0.60515  -0.57079
 Alpha  occ. eigenvalues --   -0.48409  -0.43768  -0.43251  -0.42040
 Alpha virt. eigenvalues --    0.03417   0.06506   0.07032   0.08730   0.09610
 Alpha virt. eigenvalues --    0.10926   0.12006   0.12779   0.13232   0.14997
 Alpha virt. eigenvalues --    0.15142   0.15529   0.16774   0.18908   0.24889

  Beta  occ. eigenvalues --  -94.00990 -94.00532 -20.57272 -11.42424  -8.29030
  Beta  occ. eigenvalues --   -8.28689  -6.26965  -6.26574  -6.26517  -6.26330
  Beta  occ. eigenvalues --   -6.26132  -6.25153  -1.51603  -1.10255  -0.99616
  Beta  occ. eigenvalues --   -0.76641  -0.66835  -0.63436  -0.60347  -0.55317
  Beta  occ. eigenvalues --   -0.42765  -0.42310  -0.40714
  Beta virt. eigenvalues --   -0.03181   0.03664   0.06727   0.07384   0.08635
  Beta virt. eigenvalues --    0.09839   0.11634   0.12112   0.13164   0.13308
  Beta virt. eigenvalues --    0.15021   0.15602   0.15933   0.17022   0.19606

 Mulliken charges and spin densities:
               1          2
     1  S    0.337724   1.090187
     2  C    0.117827  -0.102259
     3  O   -0.919085   0.010937
     4  S    0.094728   0.004284
     5  H    0.368806  -0.003150
 Sum of Mulliken charges =  -0.00000   1.00000

 Dipole moment (field-independent basis, Debye):
    X=              0.1126    Y=             -2.9517    Z=              0.0000  Tot=              2.9538
                          Isotropic Fermi Contact Couplings
        Atom                 a.u.       MegaHertz       Gauss      10(-4) cm-1
     1  S(33)              0.20534      70.52993      25.16683      23.52625
     2  C(13)             -0.02090     -23.49095      -8.38215      -7.83574
     3  O(17)              0.02006     -12.16165      -4.33958      -4.05669
     4  S(33)             -0.01239      -4.25652      -1.51883      -1.41982
     5  H(1)               0.00101       4.49697       1.60463       1.50003
 --------------------------------------------------------
       Center         ----  Spin Dipole Couplings  ----
                      3XX-RR        3YY-RR        3ZZ-RR

 Normal termination of Gaussian 16 at Wed Apr  9 00:22:40 2025.
