 Gaussian 16, Revision C.01,

 ----------------------------------------------------------------------
 #t hf aug-cc-pvdz symm=none int=(grid=ultrafine) guess=(read,tcheck) s
 table=(opt,rrhf)
 ----------------------------------------------------------------------
 -----
 title
 -----
 Symbolic Z-matrix:
 Charge =  0 Multiplicity = 1

 SCF Done:  E(RHF) =  -663.782271266     A.U. after   16 cycles
 Normal termination of Gaussian 16 at Tue Apr  8 23:32:50 2025.
 Gaussian 16:  ES64L-G16RevC.01  3-Jul-2019

 ----------------------------------------------------------------------
 #t hf aug-cc-pvdz iop(5/13=1,5/36=2,99/5=2) pseudo=read geom=check gue
 ss=(read,tcheck) scf=(maxcycle=1)
 ----------------------------------------------------------------------
 -----
 title
 -----
 Structure from the checkpoint file:  "BDE49_nonexpt_1422_mol1.chk"
 Charge =  0 Multiplicity = 1

                         Standard orientation:
 ---------------------------------------------------------------------
 Center     Atomic      Atomic             Coordinates (Angstroms)
 Number     Number       Type             X           Y           Z
 ---------------------------------------------------------------------
      1          6           0        0.186711    2.076333    0.004671
      2          6           0       -1.033450    1.402703   -0.017580
      3          6           0       -1.084686    0.002946   -0.012517
      4          6           0        1.378657    1.364560    0.011973
      5          6           0        1.343833   -0.037297    0.001295
      6          6           0        0.115655   -0.711750   -0.006783
      7          1           0        0.206130    3.159757    0.006202
      8          1           0       -1.956519    1.971804   -0.044358
      9         15           0       -2.750731   -0.806792   -0.048629
     10          1           0        2.332226    1.877365    0.020254
     11          6           0        2.565265   -0.784123    0.002298
     12          7           0        3.550344   -1.387284    0.003259
     13          1           0        0.111867   -1.794610   -0.006888
     14          1           0       -2.797836   -1.197394    1.316191
     15          1           0       -2.319218   -2.084293   -0.484928
 ---------------------------------------------------------------------

 SCF Done:  E(RHF) =  -664.148371066     A.U. after    2 cycles

 The electronic state is 1-A.
 Alpha  occ. eigenvalues --  -84.29354 -15.52009 -11.30131 -11.28826 -11.28597
 Alpha  occ. eigenvalues --  -11.28466 -11.28030 -11.27890 -11.27355  -6.76409
 Alpha  occ. eigenvalues --   -4.29295  -4.28733  -4.28409  -1.24067  -1.19226
 Alpha  occ. eigenvalues --   -1.07328  -1.05856  -0.90995  -0.89955  -0.84266
 Alpha  occ. eigenvalues --   -0.75330  -0.71378  -0.68879  -0.64543  -0.61110
 Alpha  occ. eigenvalues --   -0.59842  -0.57663  -0.55332  -0.53302  -0.51526
 Alpha  occ. eigenvalues --   -0.50218  -0.49206  -0.39132  -0.37809  -0.35479
 Alpha virt. eigenvalues --    0.02737   0.03443   0.03941   0.04779   0.05428
 Alpha virt. eigenvalues --    0.05695   0.05862   0.07482   0.07786   0.09233
 Alpha virt. eigenvalues --    0.10028   0.10589   0.10918   0.11315   0.12883

 Mulliken charges:
               1
     1  C    0.271261
     2  C   -0.415752
     3  C    0.231449
     4  C    0.091902
     5  C    2.632127
     6  C    0.022656
     7  H   -0.203403
     8  H   -0.246385
     9  P   -0.577695
    10  H   -0.275686
    11  C   -3.118235
    12  N    1.099784
    13  H   -0.283617
    14  H    0.456287
    15  H    0.315307
 Sum of Mulliken charges =  -0.00000

 Dipole moment (field-independent basis, Debye):
    X=             -4.0956    Y=              2.8225    Z=              0.2024  Tot=              4.9781

 Test job not archived.
 1\1\GINC-SE398\SP\RHF\Aug-CC-pVDZ\C7H6N1P1\OHZDE\08-Apr-2025\0\\#t hf
 aug-cc-pvdz iop(5/13=1,5/36=2,99/5=2) pseudo=read geom=check guess=(re
 ad,tcheck) scf=(maxcycle=1)\\title\\0,1\C,0,0.186711,2.076333,0.004671
 \C,0,-1.03345,1.402703,-0.01758\C,0,-1.084686,0.002946,-0.012517\C,0,1
 .378657,1.36456,0.011973\C,0,1.343833,-0.037297,0.001295\C,0,0.115655,
 -0.71175,-0.006783\H,0,0.20613,3.159757,0.006202\H,0,-1.956519,1.97180
 4,-0.044358\P,0,-2.750731,-0.806792,-0.048629\H,0,2.332226,1.877365,0.
 020254\C,0,2.565265,-0.784123,0.002298\N,0,3.550344,-1.387284,0.003259

 Normal termination of Gaussian 16 at Tue Apr  8 23:32:56 2025.
