 Gaussian 16, Revision C.01,

 ----------------------------------------------------------------------
 #t hf aug-cc-pvdz symm=none int=(grid=ultrafine) guess=(read,tcheck) s
 table=(opt,rrhf)
 ----------------------------------------------------------------------
 -----
 title
 -----
 Symbolic Z-matrix:
 Charge =  0 Multiplicity = 1

 SCF Done:  E(RHF) =  -2832.71273265     A.U. after   12 cycles
 Normal termination of Gaussian 16 at Tue Apr  8 22:29:28 2025.
 Gaussian 16:  ES64L-G16RevC.01  3-Jul-2019

 ----------------------------------------------------------------------
 #t hf aug-cc-pvdz iop(5/13=1,5/36=2,99/5=2) pseudo=read geom=check gue
 ss=(read,tcheck) scf=(maxcycle=1)
 ----------------------------------------------------------------------
 -----
 title
 -----
 Structure from the checkpoint file:  "BDE49_expt_1011_mol1.chk"
 Charge =  0 Multiplicity = 1

                         Standard orientation:
 ---------------------------------------------------------------------
 Center     Atomic      Atomic             Coordinates (Angstroms)
 Number     Number       Type             X           Y           Z
 ---------------------------------------------------------------------
      1          6           0        0.795513   -0.000004   -0.000020
      2          6           0       -0.795513    0.000004    0.000020
      3         17           0        1.406392    0.729108    1.514357
      4         17           0        1.406234    0.947080   -1.388614
      5         17           0        1.406442   -1.676022   -0.125892
      6         17           0       -1.406234   -0.947051    1.388633
      7         17           0       -1.406393   -0.729139   -1.514342
      8         17           0       -1.406441    1.676024    0.125858
 ---------------------------------------------------------------------

 SCF Done:  E(RHF) =  -2833.23643758     A.U. after    2 cycles

 The electronic state is 1-A.
 Alpha  occ. eigenvalues -- -105.60966-105.60966-105.60965-105.60965-105.60965
 Alpha  occ. eigenvalues -- -105.60964 -11.48326 -11.48314 -10.65799 -10.65799
 Alpha  occ. eigenvalues --  -10.65796 -10.65795 -10.65788 -10.65776  -7.82750
 Alpha  occ. eigenvalues --   -7.82749  -7.82747  -7.82747  -7.82739  -7.82734
 Alpha  occ. eigenvalues --   -7.82301  -7.82300  -7.82300  -7.82298  -7.82298
 Alpha  occ. eigenvalues --   -7.82295  -7.82294  -7.82290  -7.82290  -7.82289
 Alpha  occ. eigenvalues --   -7.82286  -7.82286  -1.27288  -1.18814  -1.09705
 Alpha  occ. eigenvalues --   -1.09705  -1.07145  -1.07144  -0.93222  -0.79108
 Alpha  occ. eigenvalues --   -0.70307  -0.68178  -0.68177  -0.62659  -0.62659
 Alpha  occ. eigenvalues --   -0.53447  -0.53446  -0.52183  -0.51763  -0.51763
 Alpha  occ. eigenvalues --   -0.50106  -0.50105  -0.48936  -0.48204  -0.46474
 Alpha  occ. eigenvalues --   -0.46474  -0.45990
 Alpha virt. eigenvalues --    0.05375   0.07004   0.07443   0.07443   0.08946
 Alpha virt. eigenvalues --    0.09005   0.09005   0.10655   0.11647   0.11647
 Alpha virt. eigenvalues --    0.13909   0.13910   0.14929   0.16167   0.17119

 Mulliken charges:
               1
     1  C   -0.456815
     2  C   -0.456815
     3  Cl   0.152276
     4  Cl   0.152270
     5  Cl   0.152268
     6  Cl   0.152270
     7  Cl   0.152276
     8  Cl   0.152269
 Sum of Mulliken charges =  -0.00000

 Dipole moment (field-independent basis, Debye):
    X=             -0.0000    Y=              0.0000    Z=             -0.0000  Tot=              0.0000

 Test job not archived.
 1\1\GINC-SE343\SP\RHF\Aug-CC-pVDZ\C2Cl6\OHZDE\08-Apr-2025\0\\#t hf aug
 -cc-pvdz iop(5/13=1,5/36=2,99/5=2) pseudo=read geom=check guess=(read,
 tcheck) scf=(maxcycle=1)\\title\\0,1\C,0,-0.795513,0.000004,-0.00002\C
 ,0,0.795513,-0.000004,0.00002\Cl,0,-1.406393,-0.726962,1.515388\Cl,0,-
 1.406233,-0.949046,-1.387271\Cl,0,-1.406442,1.675842,-0.128267\Cl,0,1.
 406233,0.949018,1.387291\Cl,0,1.406394,0.726993,-1.515373\Cl,0,1.40644
 1,-1.675844,0.128233\\Version=ES64L-G16RevC.01\State=1-A\HF=-2833.2364
 376\RMSD=5.985e-03\Dipole=0.,-0.0000016,-0.0000004\Quadrupole=-1.21357

 Normal termination of Gaussian 16 at Tue Apr  8 22:29:33 2025.
