 Gaussian 16, Revision C.01,

 ----------------------------------------------------------------------
 #t hf aug-cc-pvdz symm=none int=(grid=ultrafine) guess=(read,tcheck) s
 table=opt
 ----------------------------------------------------------------------
 -----
 title
 -----
 Symbolic Z-matrix:
 Charge =  0 Multiplicity = 2

 SCF Done:  E(UHF) =  -191.299370952     A.U. after   18 cycles
 Normal termination of Gaussian 16 at Tue Apr  8 22:59:42 2025.
 Gaussian 16:  ES64L-G16RevC.01  3-Jul-2019

 ----------------------------------------------------------------------
 #t hf aug-cc-pvdz iop(5/13=1,5/36=2,99/5=2) pseudo=read geom=check gue
 ss=(read,tcheck) scf=(maxcycle=1)
 ----------------------------------------------------------------------
 -----
 title
 -----
 Structure from the checkpoint file:  "BDE49_expt_196_mol2.chk"
 Charge =  0 Multiplicity = 2

                         Standard orientation:
 ---------------------------------------------------------------------
 Center     Atomic      Atomic             Coordinates (Angstroms)
 Number     Number       Type             X           Y           Z
 ---------------------------------------------------------------------
      1          8           0       -0.778411    0.837253    0.104493
      2          6           0        0.147187   -0.031744   -0.415729
      3          6           0       -1.106091   -0.598497    0.047522
      4          1           0       -1.881858   -0.859800   -0.665714
      5          1           0       -1.187643   -1.061473    1.029627
      6          6           0        1.550785   -0.105341    0.069436
      7          1           0        1.583742   -0.233400    1.162012
      8          1           0        2.087279    0.814579   -0.176460
      9          1           0        2.074475   -0.944439   -0.392780
 ---------------------------------------------------------------------

 SCF Done:  E(UHF) =  -191.495805216     A.U. after    2 cycles

 The electronic state is 2-A.
 Alpha  occ. eigenvalues --  -20.57257 -11.30815 -11.30057 -11.24708  -1.51267
 Alpha  occ. eigenvalues --   -1.02722  -0.93556  -0.80521  -0.70303  -0.65780
 Alpha  occ. eigenvalues --   -0.60571  -0.57998  -0.54007  -0.49702  -0.46238
 Alpha  occ. eigenvalues --   -0.36037
 Alpha virt. eigenvalues --    0.03665   0.04303   0.04619   0.05584   0.07158
 Alpha virt. eigenvalues --    0.08821   0.09932   0.13114   0.13658   0.15308
 Alpha virt. eigenvalues --    0.16096   0.16250   0.17173   0.17312   0.18021

  Beta  occ. eigenvalues --  -20.56739 -11.30179 -11.28181 -11.24734  -1.49651
  Beta  occ. eigenvalues --   -1.00391  -0.92836  -0.76923  -0.66845  -0.63096
  Beta  occ. eigenvalues --   -0.59618  -0.56899  -0.53090  -0.45831  -0.44865
  Beta virt. eigenvalues --    0.03481   0.04297   0.04664   0.05578   0.07159
  Beta virt. eigenvalues --    0.08164   0.09891   0.11984   0.13490   0.14331
  Beta virt. eigenvalues --    0.15723   0.16174   0.16313   0.17337   0.18110

 Mulliken charges and spin densities:
               1          2
     1  O   -1.173881   0.056098
     2  C    0.506815   1.164588
     3  C    0.479868  -0.124494
     4  H    0.029151  -0.003344
     5  H   -0.001663   0.009693
     6  C   -0.493044  -0.134749
     7  H    0.209691   0.044227
     8  H    0.220253  -0.003896
     9  H    0.222810  -0.008122
 Sum of Mulliken charges =  -0.00000   1.00000

 Dipole moment (field-independent basis, Debye):
    X=              0.6959    Y=             -1.8604    Z=              0.2769  Tot=              2.0055
                          Isotropic Fermi Contact Couplings
        Atom                 a.u.       MegaHertz       Gauss      10(-4) cm-1
     1  O(17)              0.05946     -36.04233     -12.86080     -12.02243
     2  C(13)              0.40774     458.38147     163.56191     152.89960
     3  C(13)             -0.01641     -18.44439      -6.58142      -6.15239
     4  H(1)               0.00292      13.03127       4.64988       4.34676
     5  H(1)               0.00243      10.88051       3.88244       3.62935
     6  C(13)              0.00530       5.95394       2.12451       1.98602
     7  H(1)               0.01890      84.45944      30.13723      28.17264
     8  H(1)               0.00358      16.02316       5.71746       5.34475

 Normal termination of Gaussian 16 at Tue Apr  8 22:59:44 2025.
