 Gaussian 16, Revision C.01,

 ----------------------------------------------------------------------
 #t hf aug-cc-pvdz symm=none int=(grid=ultrafine) guess=(read,tcheck) s
 table=opt
 ----------------------------------------------------------------------
 -----
 title
 -----
 Symbolic Z-matrix:
 Charge =  0 Multiplicity = 2

 SCF Done:  E(UHF) =  -256.679765461     A.U. after   18 cycles
 Normal termination of Gaussian 16 at Wed Apr  9 00:34:55 2025.
 Gaussian 16:  ES64L-G16RevC.01  3-Jul-2019

 ----------------------------------------------------------------------
 #t hf aug-cc-pvdz iop(5/13=1,5/36=2,99/5=2) pseudo=read geom=check gue
 ss=(read,tcheck) scf=(maxcycle=1)
 ----------------------------------------------------------------------
 -----
 title
 -----
 Structure from the checkpoint file:  "BDE49_nonexpt_444_mol2.chk"
 Charge =  0 Multiplicity = 2

                         Standard orientation:
 ---------------------------------------------------------------------
 Center     Atomic      Atomic             Coordinates (Angstroms)
 Number     Number       Type             X           Y           Z
 ---------------------------------------------------------------------
      1          5           0        1.290084    0.040823   -0.000055
      2          9           0        2.561485   -0.245714    0.000078
      3          7           0        0.073946    0.327937   -0.000007
      4          6           0       -1.241204    0.593525   -0.000045
      5          6           0       -2.247805   -0.509807   -0.000030
      6          1           0       -2.138150   -1.157301    0.880748
      7          1           0       -2.137553   -1.157823   -0.880337
      8          1           0       -3.263379   -0.108994   -0.000475
      9          1           0       -1.548264    1.633563    0.000135
 ---------------------------------------------------------------------

 SCF Done:  E(UHF) =  -256.928570128     A.U. after    2 cycles

 The electronic state is 2-A.
 Alpha  occ. eigenvalues --  -26.51545 -15.48726 -11.27069 -11.23006  -7.68510
 Alpha  occ. eigenvalues --   -1.64352  -1.19403  -1.01189  -0.88405  -0.79249
 Alpha  occ. eigenvalues --   -0.71041  -0.70892  -0.70050  -0.60975  -0.60343
 Alpha  occ. eigenvalues --   -0.54111  -0.50899  -0.43606  -0.29775
 Alpha virt. eigenvalues --    0.03486   0.04681   0.04972   0.05344   0.05763
 Alpha virt. eigenvalues --    0.06039   0.06797   0.09191   0.12800   0.13137
 Alpha virt. eigenvalues --    0.14799   0.15600   0.15847   0.17173   0.17440

  Beta  occ. eigenvalues --  -26.51431 -15.49679 -11.24668 -11.23347  -7.67972
  Beta  occ. eigenvalues --   -1.64090  -1.19331  -0.99150  -0.86119  -0.79080
  Beta  occ. eigenvalues --   -0.70318  -0.69639  -0.68353  -0.60295  -0.56524
  Beta  occ. eigenvalues --   -0.53914  -0.50110  -0.44556
  Beta virt. eigenvalues --    0.03583   0.04716   0.05020   0.05297   0.05781
  Beta virt. eigenvalues --    0.06054   0.06819   0.09341   0.09438   0.13211
  Beta virt. eigenvalues --    0.14914   0.15842   0.16101   0.16223   0.17237

 Mulliken charges and spin densities:
               1          2
     1  B    0.725008   0.311585
     2  F   -1.164385   0.015978
     3  N    0.940400  -0.275533
     4  C   -0.590890   1.232486
     5  C   -0.354818  -0.243186
     6  H    0.194204   0.030340
     7  H    0.194125   0.030300
     8  H    0.123562   0.005910
     9  H   -0.067207  -0.107880
 Sum of Mulliken charges =  -0.00000   1.00000

 Dipole moment (field-independent basis, Debye):
    X=              0.0184    Y=             -0.1688    Z=             -0.0001  Tot=              0.1698
                          Isotropic Fermi Contact Couplings
        Atom                 a.u.       MegaHertz       Gauss      10(-4) cm-1
     1  B(11)              0.03156      45.27161      16.15404      15.10098
     2  F(19)              0.01273      53.57639      19.11739      17.87116
     3  N(14)             -0.18173     -58.71747     -20.95185     -19.58604
     4  C(13)              0.20324     228.48177      81.52798      76.21332
     5  C(13)             -0.06022     -67.70328     -24.15821     -22.58338
     6  H(1)               0.01779      79.52422      28.37622      26.52642
     7  H(1)               0.01777      79.43711      28.34514      26.49737
     8  H(1)               0.00178       7.94100       2.83355       2.64883

 Normal termination of Gaussian 16 at Wed Apr  9 00:34:57 2025.
