 Gaussian 16, Revision C.01,

 ----------------------------------------------------------------------
 #t hf aug-cc-pvdz symm=none int=(grid=ultrafine) guess=(read,tcheck) s
 table=(opt,rrhf)
 ----------------------------------------------------------------------
 -----
 title
 -----
 Symbolic Z-matrix:
 Charge =  0 Multiplicity = 1

 SCF Done:  E(RHF) =  -1099.84127966     A.U. after   15 cycles
 Normal termination of Gaussian 16 at Tue Apr  8 23:42:26 2025.
 Gaussian 16:  ES64L-G16RevC.01  3-Jul-2019

 ----------------------------------------------------------------------
 #t hf aug-cc-pvdz iop(5/13=1,5/36=2,99/5=2) pseudo=read geom=check gue
 ss=(read,tcheck) scf=(maxcycle=1)
 ----------------------------------------------------------------------
 -----
 title
 -----
 Structure from the checkpoint file:  "BDE49_nonexpt_1644_mol1.chk"
 Charge =  0 Multiplicity = 1

                         Standard orientation:
 ---------------------------------------------------------------------
 Center     Atomic      Atomic             Coordinates (Angstroms)
 Number     Number       Type             X           Y           Z
 ---------------------------------------------------------------------
      1         14           0       -0.627456    0.704311   -0.550738
      2         15           0        1.382295   -0.100869    0.143051
      3          7           0       -1.820178   -0.669883   -0.010985
      4          8           0        1.625631    0.193465    1.564655
      5          8           0        2.465153    0.530445   -0.864704
      6          8           0       -2.999521   -0.367376    0.082915
      7          8           0       -1.386782   -1.811032    0.191530
      8          6           0       -1.176604    2.261949    0.290808
      9          1           0       -1.005371    2.191916    1.366966
     10          1           0       -2.239059    2.432290    0.105507
     11          1           0       -0.610711    3.115145   -0.093477
     12          1           0        3.161973    0.992859   -0.381587
     13          8           0        1.394202   -1.617986   -0.348960
     14          1           0        0.564129   -2.062103   -0.089738
     15          1           0       -0.809600    0.679934   -2.014546
 ---------------------------------------------------------------------

 SCF Done:  E(RHF) =  -1100.37681469     A.U. after    2 cycles

 The electronic state is 1-A.
 Alpha  occ. eigenvalues --  -84.44191 -69.61790 -20.61721 -20.61010 -20.60988
 Alpha  occ. eigenvalues --  -20.59701 -20.51974 -15.77657 -11.26570  -6.89510
 Alpha  occ. eigenvalues --   -6.28688  -4.43623  -4.42961  -4.41900  -4.04048
 Alpha  occ. eigenvalues --   -4.03902  -4.03872  -1.67660  -1.54598  -1.51741
 Alpha  occ. eigenvalues --   -1.48347  -1.40094  -1.03217  -0.98714  -0.87711
 Alpha  occ. eigenvalues --   -0.84161  -0.76169  -0.74544  -0.73428  -0.71352
 Alpha  occ. eigenvalues --   -0.67948  -0.64926  -0.61807  -0.60741  -0.59294
 Alpha  occ. eigenvalues --   -0.58177  -0.55952  -0.53238  -0.51365  -0.49894
 Alpha  occ. eigenvalues --   -0.48741  -0.46904  -0.46863  -0.43035
 Alpha virt. eigenvalues --    0.02252   0.03309   0.04039   0.04678   0.05095
 Alpha virt. eigenvalues --    0.06037   0.06890   0.07216   0.07622   0.08797
 Alpha virt. eigenvalues --    0.09789   0.10597   0.11661   0.13085   0.13698

 Mulliken charges:
               1
     1  Si   1.284998
     2  P    3.383765
     3  N    1.796995
     4  O   -1.536895
     5  O   -1.328362
     6  O   -1.211325
     7  O   -1.200495
     8  C   -0.629422
     9  H    0.170935
    10  H    0.084321
    11  H    0.042250
    12  H    0.348519
    13  O   -1.562835
    14  H    0.571848
    15  H   -0.214298
 Sum of Mulliken charges =  -0.00000

 Dipole moment (field-independent basis, Debye):
    X=              0.5655    Y=              3.8646    Z=             -2.5574  Tot=              4.6686

 Test job not archived.
 1\1\GINC-SE094\SP\RHF\Aug-CC-pVDZ\C1H6N1O5P1Si1\OHZDE\08-Apr-2025\0\\#
 t hf aug-cc-pvdz iop(5/13=1,5/36=2,99/5=2) pseudo=read geom=check gues
 s=(read,tcheck) scf=(maxcycle=1)\\title\\0,1\Si,0,-0.627456,0.704311,-
 0.550738\P,0,1.382295,-0.100869,0.143051\N,0,-1.820178,-0.669883,-0.01
 0985\O,0,1.625631,0.193465,1.564655\O,0,2.465153,0.530444,-0.864704\O,
 0,-2.999521,-0.367376,0.082915\O,0,-1.386782,-1.811032,0.19153\C,0,-1.
 176604,2.261949,0.290808\H,0,-1.005371,2.191916,1.366966\H,0,-2.239059
 ,2.43229,0.105507\H,0,-0.610711,3.115145,-0.093477\H,0,3.161973,0.9928

 Normal termination of Gaussian 16 at Tue Apr  8 23:42:34 2025.
