 Gaussian 16, Revision C.01,

 ----------------------------------------------------------------------
 #t hf aug-cc-pvdz symm=none int=(grid=ultrafine) guess=(read,tcheck) s
 table=(opt,rrhf)
 ----------------------------------------------------------------------
 -----
 title
 -----
 Symbolic Z-matrix:
 Charge =  0 Multiplicity = 1

 SCF Done:  E(RHF) =  -866.169059389     A.U. after   12 cycles
 Normal termination of Gaussian 16 at Tue Apr  8 23:48:21 2025.
 Gaussian 16:  ES64L-G16RevC.01  3-Jul-2019

 ----------------------------------------------------------------------
 #t hf aug-cc-pvdz iop(5/13=1,5/36=2,99/5=2) pseudo=read geom=check gue
 ss=(read,tcheck) scf=(maxcycle=1)
 ----------------------------------------------------------------------
 -----
 title
 -----
 Structure from the checkpoint file:  "BDE49_nonexpt_1814_mol1.chk"
 Charge =  0 Multiplicity = 1

                         Standard orientation:
 ---------------------------------------------------------------------
 Center     Atomic      Atomic             Coordinates (Angstroms)
 Number     Number       Type             X           Y           Z
 ---------------------------------------------------------------------
      1         14           0        0.749765    0.814694    0.032983
      2          6           0       -0.875899    0.067239    0.490888
      3          6           0       -1.938248    0.097609   -0.324191
      4         17           0        2.237634   -0.655781   -0.081674
      5          6           0       -3.293133   -0.466636   -0.020074
      6          1           0       -0.981697   -0.409944    1.465180
      7          1           0       -1.839633    0.566537   -1.303462
      8          1           0       -3.329314   -0.923051    0.970992
      9          1           0       -3.570518   -1.223535   -0.762089
     10          1           0       -4.058968    0.315217   -0.071543
     11          1           0        1.231387    1.776977    1.043983
     12          1           0        0.655926    1.451078   -1.296100
 ---------------------------------------------------------------------

 SCF Done:  E(RHF) =  -866.407720253     A.U. after    2 cycles

 The electronic state is 1-A.
 Alpha  occ. eigenvalues -- -105.54668 -69.57311 -11.27256 -11.24755 -11.23349
 Alpha  occ. eigenvalues --  -10.59669  -7.76553  -7.76253  -7.76248  -6.23973
 Alpha  occ. eigenvalues --   -3.99407  -3.99275  -3.99247  -1.08727  -1.04077
 Alpha  occ. eigenvalues --   -0.95286  -0.78601  -0.73098  -0.61930  -0.61463
 Alpha  occ. eigenvalues --   -0.58814  -0.53879  -0.52974  -0.52412  -0.49612
 Alpha  occ. eigenvalues --   -0.44781  -0.44467  -0.38627
 Alpha virt. eigenvalues --    0.03324   0.03919   0.04241   0.04638   0.06056
 Alpha virt. eigenvalues --    0.06490   0.06595   0.08550   0.09152   0.09896
 Alpha virt. eigenvalues --    0.10127   0.12177   0.13580   0.13675   0.14721

 Mulliken charges:
               1
     1  Si   1.267433
     2  C   -0.467120
     3  C    0.545658
     4  Cl  -0.594964
     5  C   -0.686279
     6  H   -0.133118
     7  H   -0.173495
     8  H    0.117111
     9  H    0.242196
    10  H    0.242020
    11  H   -0.174452
    12  H   -0.184990
 Sum of Mulliken charges =  -0.00000

 Dipole moment (field-independent basis, Debye):
    X=             -2.9535    Y=              0.8019    Z=             -0.0170  Tot=              3.0605

 Test job not archived.
 1\1\GINC-SE333\SP\RHF\Aug-CC-pVDZ\C3H7Cl1Si1\OHZDE\08-Apr-2025\0\\#t h
 f aug-cc-pvdz iop(5/13=1,5/36=2,99/5=2) pseudo=read geom=check guess=(
 read,tcheck) scf=(maxcycle=1)\\title\\0,1\Si,0,0.749765,0.814694,0.032
 983\C,0,-0.875899,0.067239,0.490888\C,0,-1.938248,0.097609,-0.324191\C
 l,0,2.237634,-0.655781,-0.081674\C,0,-3.293133,-0.466636,-0.020074\H,0
 ,-0.981697,-0.409944,1.46518\H,0,-1.839633,0.566537,-1.303462\H,0,-3.3
 29314,-0.923051,0.970992\H,0,-3.570518,-1.223535,-0.762089\H,0,-4.0589
 68,0.315217,-0.071543\H,0,1.231387,1.776977,1.043983\H,0,0.655926,1.45

 Normal termination of Gaussian 16 at Tue Apr  8 23:48:25 2025.
