 Gaussian 16, Revision C.01,

 ----------------------------------------------------------------------
 #t hf aug-cc-pvdz symm=none int=(grid=ultrafine) guess=(read,tcheck) s
 table=(opt,rrhf)
 ----------------------------------------------------------------------
 -----
 title
 -----
 Symbolic Z-matrix:
 Charge =  0 Multiplicity = 1

 SCF Done:  E(RHF) =  -1018.84672886     A.U. after   15 cycles
 Normal termination of Gaussian 16 at Tue Apr  8 23:47:24 2025.
 Gaussian 16:  ES64L-G16RevC.01  3-Jul-2019

 ----------------------------------------------------------------------
 #t hf aug-cc-pvdz iop(5/13=1,5/36=2,99/5=2) pseudo=read geom=check gue
 ss=(read,tcheck) scf=(maxcycle=1)
 ----------------------------------------------------------------------
 -----
 title
 -----
 Structure from the checkpoint file:  "BDE49_nonexpt_1773_mol1.chk"
 Charge =  0 Multiplicity = 1

                         Standard orientation:
 ---------------------------------------------------------------------
 Center     Atomic      Atomic             Coordinates (Angstroms)
 Number     Number       Type             X           Y           Z
 ---------------------------------------------------------------------
      1          6           0       -0.399083    1.614517    0.034735
      2          6           0       -1.730928    1.808626   -0.324137
      3          6           0       -2.609577    0.730827   -0.355854
      4          6           0       -2.179983   -0.561606   -0.029498
      5          6           0       -0.842772   -0.738609    0.328882
      6          6           0        0.064231    0.333443    0.365200
      7          1           0        0.276425    2.463433    0.058335
      8          1           0       -2.084707    2.801803   -0.577873
      9         14           0        1.840792    0.059645    0.841652
     10          6           0       -3.142371   -1.724271   -0.067667
     11          1           0       -3.646081    0.892668   -0.635629
     12          1           0       -0.502603   -1.737637    0.586936
     13         17           0        3.001336   -0.482482   -0.815400
     14          1           0       -3.996254   -1.553693    0.594867
     15          1           0       -2.658067   -2.652173    0.241851
     16          1           0       -3.539236   -1.874585   -1.076365
     17          1           0        1.965070   -1.052241    1.804180
     18          1           0        2.434559    1.302040    1.372411
 ---------------------------------------------------------------------

 SCF Done:  E(RHF) =  -1019.23857565     A.U. after    2 cycles

 The electronic state is 1-A.
 Alpha  occ. eigenvalues -- -105.54810 -69.57577 -11.25780 -11.25511 -11.25360
 Alpha  occ. eigenvalues --  -11.25222 -11.25130 -11.24266 -11.24179 -10.59795
 Alpha  occ. eigenvalues --   -7.76681  -7.76381  -7.76379  -6.24242  -3.99666
 Alpha  occ. eigenvalues --   -3.99532  -3.99528  -1.16576  -1.05770  -1.04403
 Alpha  occ. eigenvalues --   -1.02174  -0.94635  -0.84730  -0.82147  -0.74106
 Alpha  occ. eigenvalues --   -0.69793  -0.66378  -0.63307  -0.59215  -0.59081
 Alpha  occ. eigenvalues --   -0.57372  -0.55590  -0.53611  -0.52914  -0.50897
 Alpha  occ. eigenvalues --   -0.50198  -0.49267  -0.44804  -0.44519  -0.35671
 Alpha  occ. eigenvalues --   -0.34534
 Alpha virt. eigenvalues --    0.03222   0.03326   0.03682   0.04497   0.04990
 Alpha virt. eigenvalues --    0.05108   0.05896   0.06924   0.07595   0.08075
 Alpha virt. eigenvalues --    0.08757   0.09255   0.10489   0.10854   0.11180

 Mulliken charges:
               1
     1  C    0.182982
     2  C    0.229700
     3  C    0.691527
     4  C    0.687435
     5  C    0.643078
     6  C   -1.229390
     7  H   -0.306960
     8  H   -0.229851
     9  Si   1.030738
    10  C   -0.734021
    11  H   -0.290308
    12  H   -0.317217
    13  Cl  -0.615958
    14  H    0.243450
    15  H    0.033487
    16  H    0.253231
    17  H   -0.143470
    18  H   -0.128452
 Sum of Mulliken charges =   0.00000

 Dipole moment (field-independent basis, Debye):
    X=             -2.6758    Y=              0.3557    Z=              1.0012  Tot=              2.8790

 Test job not archived.
 1\1\GINC-SE454\SP\RHF\Aug-CC-pVDZ\C7H9Cl1Si1\OHZDE\08-Apr-2025\0\\#t h
 f aug-cc-pvdz iop(5/13=1,5/36=2,99/5=2) pseudo=read geom=check guess=(
 read,tcheck) scf=(maxcycle=1)\\title\\0,1\C,0,-0.399083,1.614517,0.034
 735\C,0,-1.730928,1.808626,-0.324137\C,0,-2.609577,0.730827,-0.355854\
 C,0,-2.179983,-0.561606,-0.029498\C,0,-0.842772,-0.738609,0.328882\C,0
 ,0.064231,0.333443,0.3652\H,0,0.276425,2.463433,0.058335\H,0,-2.084707
 ,2.801803,-0.577873\Si,0,1.840792,0.059645,0.841652\C,0,-3.142371,-1.7
 24271,-0.067667\H,0,-3.646081,0.892668,-0.635629\H,0,-0.502603,-1.7376

 Normal termination of Gaussian 16 at Tue Apr  8 23:47:33 2025.
