 Gaussian 16, Revision C.01,

 ----------------------------------------------------------------------
 #t hf aug-cc-pvdz symm=none int=(grid=ultrafine) guess=(read,tcheck) s
 table=(opt,rrhf)
 ----------------------------------------------------------------------
 -----
 title
 -----
 Symbolic Z-matrix:
 Charge =  0 Multiplicity = 1

 SCF Done:  E(RHF) =  -1197.38549647     A.U. after   13 cycles
 Normal termination of Gaussian 16 at Tue Apr  8 22:58:14 2025.
 Gaussian 16:  ES64L-G16RevC.01  3-Jul-2019

 ----------------------------------------------------------------------
 #t hf aug-cc-pvdz iop(5/13=1,5/36=2,99/5=2) pseudo=read geom=check gue
 ss=(read,tcheck) scf=(maxcycle=1)
 ----------------------------------------------------------------------
 -----
 title
 -----
 Structure from the checkpoint file:  "BDE49_expt_1875_mol1.chk"
 Charge =  0 Multiplicity = 1

                         Standard orientation:
 ---------------------------------------------------------------------
 Center     Atomic      Atomic             Coordinates (Angstroms)
 Number     Number       Type             X           Y           Z
 ---------------------------------------------------------------------
      1          8           0       -0.628839   -1.317474   -0.335077
      2          8           0        0.628871   -1.317712    0.334166
      3          6           0        1.458144   -0.390792   -0.255698
      4          6           0       -1.458258   -0.391283    0.255727
      5          8           0       -1.193131    0.372073    1.116066
      6          8           0        1.192951    0.373251   -1.115408
      7          6           0        3.710007    0.237380    0.069748
      8          6           0       -3.709963    0.237467   -0.069700
      9          9           0       -4.062460    0.088690    1.203730
     10          9           0       -4.709474   -0.145591   -0.849393
     11          9           0       -3.434405    1.516716   -0.300458
     12          9           0        4.062156    0.089771   -1.203915
     13          9           0        4.709672   -0.146539    0.848819
     14          9           0        3.434664    1.516442    0.301793
     15          8           0       -2.634210   -0.581937   -0.397167
     16          8           0        2.634238   -0.582205    0.396714
 ---------------------------------------------------------------------

 SCF Done:  E(RHF) =  -1198.48817515     A.U. after    2 cycles

 The electronic state is 1-A.
 Alpha  occ. eigenvalues --  -26.54835 -26.54835 -26.54687 -26.54687 -26.54671
 Alpha  occ. eigenvalues --  -26.54671 -20.72528 -20.72525 -20.68296 -20.68295
 Alpha  occ. eigenvalues --  -20.60822 -20.60818 -11.61983 -11.61981 -11.51680
 Alpha  occ. eigenvalues --  -11.51675  -1.78010  -1.77955  -1.73585  -1.66423
 Alpha  occ. eigenvalues --   -1.66403  -1.66191  -1.66188  -1.64108  -1.60947
 Alpha  occ. eigenvalues --   -1.55021  -1.54917  -1.41523  -1.05585  -1.02208
 Alpha  occ. eigenvalues --   -0.94461  -0.92228  -0.88273  -0.87278  -0.87167
 Alpha  occ. eigenvalues --   -0.87047  -0.84960  -0.83490  -0.79033  -0.78889
 Alpha  occ. eigenvalues --   -0.75869  -0.74806  -0.74783  -0.72995  -0.72559
 Alpha  occ. eigenvalues --   -0.71308  -0.70821  -0.70090  -0.68197  -0.67852
 Alpha  occ. eigenvalues --   -0.67349  -0.67259  -0.65943  -0.65895  -0.65729
 Alpha  occ. eigenvalues --   -0.64339  -0.63923  -0.58852  -0.58257  -0.55357
 Alpha  occ. eigenvalues --   -0.54363  -0.53254  -0.52697
 Alpha virt. eigenvalues --    0.07144   0.07203   0.07824   0.08158   0.08701
 Alpha virt. eigenvalues --    0.08743   0.09335   0.10799   0.11636   0.11706
 Alpha virt. eigenvalues --    0.14161   0.14408   0.15112   0.15146   0.15515

 Mulliken charges:
               1
     1  O   -0.780095
     2  O   -0.780142
     3  C    2.149126
     4  C    2.149390
     5  O   -0.844097
     6  O   -0.844044
     7  C    2.849975
     8  C    2.849854
     9  F   -0.675210
    10  F   -0.666057
    11  F   -0.670219
    12  F   -0.675226
    13  F   -0.666070
    14  F   -0.670218
    15  O   -1.363505
    16  O   -1.363463
 Sum of Mulliken charges =  -0.00000

 Dipole moment (field-independent basis, Debye):
    X=             -0.0001    Y=             -1.1766    Z=             -0.0003  Tot=              1.1766

 Test job not archived.
 1\1\GINC-SE058\SP\RHF\Aug-CC-pVDZ\C4F6O6\OHZDE\08-Apr-2025\0\\#t hf au
 g-cc-pvdz iop(5/13=1,5/36=2,99/5=2) pseudo=read geom=check guess=(read
 ,tcheck) scf=(maxcycle=1)\\title\\0,1\O,0,-0.628839,-1.317474,-0.33507
 7\O,0,0.628871,-1.317712,0.334166\C,0,1.458144,-0.390792,-0.255698\C,0
 ,-1.458258,-0.391283,0.255727\O,0,-1.193131,0.372073,1.116066\O,0,1.19
 2951,0.373251,-1.115408\C,0,3.710007,0.23738,0.069748\C,0,-3.709963,0.
 237467,-0.0697\F,0,-4.06246,0.08869,1.20373\F,0,-4.709474,-0.145591,-0
 .849393\F,0,-3.434405,1.516716,-0.300458\F,0,4.062156,0.089771,-1.2039

 Normal termination of Gaussian 16 at Tue Apr  8 22:58:25 2025.
