 Gaussian 16, Revision C.01,

 ----------------------------------------------------------------------
 #t hf aug-cc-pvdz symm=none int=(grid=ultrafine) guess=(read,tcheck) s
 table=(opt,rrhf)
 ----------------------------------------------------------------------
 -----
 title
 -----
 Symbolic Z-matrix:
 Charge =  0 Multiplicity = 1

 SCF Done:  E(RHF) =  -1083.74954700     A.U. after   15 cycles
 Normal termination of Gaussian 16 at Wed Apr  9 00:22:42 2025.
 Gaussian 16:  ES64L-G16RevC.01  3-Jul-2019

 ----------------------------------------------------------------------
 #t hf aug-cc-pvdz iop(5/13=1,5/36=2,99/5=2) pseudo=read geom=check gue
 ss=(read,tcheck) scf=(maxcycle=1)
 ----------------------------------------------------------------------
 -----
 title
 -----
 Structure from the checkpoint file:  "BDE49_nonexpt_2671_mol1.chk"
 Charge =  0 Multiplicity = 1

                         Standard orientation:
 ---------------------------------------------------------------------
 Center     Atomic      Atomic             Coordinates (Angstroms)
 Number     Number       Type             X           Y           Z
 ---------------------------------------------------------------------
      1          9           0       -2.088166    0.718413    0.212966
      2         16           0       -1.283367   -0.650717   -0.285858
      3         16           0        0.724435   -0.080475    0.157996
      4          8           0        1.419729   -1.298482   -0.196069
      5          6           0        1.081436    1.200899   -1.045255
      6          8           0        0.803602    0.511504    1.467410
      7          1           0        1.045971    0.762446   -2.039991
      8          1           0        2.078507    1.575031   -0.807769
      9          1           0        0.336667    1.986299   -0.922340
 ---------------------------------------------------------------------

 SCF Done:  E(RHF) =  -1084.14996266     A.U. after    2 cycles

 The electronic state is 1-A.
 Alpha  occ. eigenvalues --  -94.23476 -94.08175 -26.50713 -20.57452 -20.57337
 Alpha  occ. eigenvalues --  -11.31536  -8.48716  -8.35491  -6.46791  -6.46598
 Alpha  occ. eigenvalues --   -6.46470  -6.33204  -6.32946  -6.32607  -1.60746
 Alpha  occ. eigenvalues --   -1.59080  -1.47455  -1.10691  -1.03568  -0.86404
 Alpha  occ. eigenvalues --   -0.74461  -0.70994  -0.69805  -0.68505  -0.67115
 Alpha  occ. eigenvalues --   -0.64838  -0.63400  -0.61002  -0.52638  -0.51625
 Alpha  occ. eigenvalues --   -0.49852  -0.45155  -0.43172
 Alpha virt. eigenvalues --    0.02786   0.04072   0.04988   0.05395   0.07066
 Alpha virt. eigenvalues --    0.08769   0.10488   0.11326   0.12447   0.12658
 Alpha virt. eigenvalues --    0.14203   0.15026   0.15590   0.16049   0.16993

 Mulliken charges:
               1
     1  F   -0.645287
     2  S    0.762083
     3  S    2.948517
     4  O   -1.464068
     5  C   -0.864277
     6  O   -1.467819
     7  H    0.241865
     8  H    0.250475
     9  H    0.238512
 Sum of Mulliken charges =  -0.00000

 Dipole moment (field-independent basis, Debye):
    X=             -0.1148    Y=              1.9685    Z=             -3.3210  Tot=              3.8623

 Test job not archived.
 1\1\GINC-SE435\SP\RHF\Aug-CC-pVDZ\C1H3F1O2S2\OHZDE\09-Apr-2025\0\\#t h
 f aug-cc-pvdz iop(5/13=1,5/36=2,99/5=2) pseudo=read geom=check guess=(
 read,tcheck) scf=(maxcycle=1)\\title\\0,1\F,0,-2.088166,0.718413,0.212
 966\S,0,-1.283367,-0.650717,-0.285858\S,0,0.724435,-0.080475,0.157996\
 O,0,1.419729,-1.298482,-0.196069\C,0,1.081436,1.200899,-1.045255\O,0,0
 .803602,0.511504,1.46741\H,0,1.045971,0.762446,-2.039991\H,0,2.078507,
 1.575031,-0.807769\H,0,0.336667,1.986299,-0.92234\\Version=ES64L-G16Re
 vC.01\State=1-A\HF=-1084.1499627\RMSD=6.572e-03\Dipole=-0.0451673,0.77

 Normal termination of Gaussian 16 at Wed Apr  9 00:22:45 2025.
