 Gaussian 16, Revision C.01,

 ----------------------------------------------------------------------
 #t hf aug-cc-pvdz symm=none int=(grid=ultrafine) guess=(read,tcheck) s
 table=(opt,rrhf)
 ----------------------------------------------------------------------
 -----
 title
 -----
 Symbolic Z-matrix:
 Charge =  0 Multiplicity = 1

 SCF Done:  E(RHF) =  -1007.21366657     A.U. after   16 cycles
 Normal termination of Gaussian 16 at Wed Apr  9 00:17:05 2025.
 Gaussian 16:  ES64L-G16RevC.01  3-Jul-2019

 ----------------------------------------------------------------------
 #t hf aug-cc-pvdz iop(5/13=1,5/36=2,99/5=2) pseudo=read geom=check gue
 ss=(read,tcheck) scf=(maxcycle=1)
 ----------------------------------------------------------------------
 -----
 title
 -----
 Structure from the checkpoint file:  "BDE49_nonexpt_2558_mol1.chk"
 Charge =  0 Multiplicity = 1

                         Standard orientation:
 ---------------------------------------------------------------------
 Center     Atomic      Atomic             Coordinates (Angstroms)
 Number     Number       Type             X           Y           Z
 ---------------------------------------------------------------------
      1         17           0        1.604364   -0.480432    0.027388
      2         16           0        0.020688    0.878374   -0.164489
      3          8           0       -1.215079    0.191376    0.577905
      4          8           0       -1.997474   -0.733527   -0.330362
      5          1           0       -1.904780   -1.549433    0.185877
 ---------------------------------------------------------------------

 SCF Done:  E(RHF) =  -1007.49085312     A.U. after    2 cycles

 The electronic state is 1-A.
 Alpha  occ. eigenvalues -- -105.59469 -94.08032 -20.68556 -20.65889 -10.64213
 Alpha  occ. eigenvalues --   -8.35188  -7.81137  -7.80711  -7.80666  -6.32967
 Alpha  occ. eigenvalues --   -6.32728  -6.32347  -1.61203  -1.37167  -1.10412
 Alpha  occ. eigenvalues --   -0.92491  -0.74318  -0.67961  -0.66922  -0.60026
 Alpha  occ. eigenvalues --   -0.53370  -0.52067  -0.49177  -0.48704  -0.39159
 Alpha virt. eigenvalues --    0.03806   0.04295   0.07588   0.10204   0.11232
 Alpha virt. eigenvalues --    0.11635   0.13281   0.15410   0.15984   0.16190
 Alpha virt. eigenvalues --    0.18465   0.18634   0.23596   0.24433   0.25345

 Mulliken charges:
               1
     1  Cl  -0.308733
     2  S    0.973854
     3  O   -0.647342
     4  O   -0.492320
     5  H    0.474542
 Sum of Mulliken charges =  -0.00000

 Dipole moment (field-independent basis, Debye):
    X=             -0.6247    Y=             -0.8410    Z=              0.3162  Tot=              1.0943

 Test job not archived.
 1\1\GINC-SE187\SP\RHF\Aug-CC-pVDZ\Cl1H1O2S1\OHZDE\09-Apr-2025\0\\#t hf
  aug-cc-pvdz iop(5/13=1,5/36=2,99/5=2) pseudo=read geom=check guess=(r
 ead,tcheck) scf=(maxcycle=1)\\title\\0,1\Cl,0,1.604364,-0.480432,0.027
 388\S,0,0.020688,0.878374,-0.164489\O,0,-1.215079,0.191376,0.577905\O,
 0,-1.997474,-0.733527,-0.330362\H,0,-1.90478,-1.549433,0.185877\\Versi
 on=ES64L-G16RevC.01\State=1-A\HF=-1007.4908531\RMSD=5.217e-03\Dipole=-
 0.245767,-0.3308714,0.1244045\Quadrupole=-1.2695402,3.1387489,-1.86920
 87,2.0723355,-0.9610114,-1.4377413\PG=C01 [X(Cl1H1O2S1)]\\@

 Normal termination of Gaussian 16 at Wed Apr  9 00:17:07 2025.
