 Gaussian 16, Revision C.01,

 ----------------------------------------------------------------------
 #t hf aug-cc-pvdz symm=none int=(grid=ultrafine) guess=(read,tcheck) s
 table=(opt,rrhf)
 ----------------------------------------------------------------------
 -----
 title
 -----
 Symbolic Z-matrix:
 Charge =  0 Multiplicity = 1

 SCF Done:  E(RHF) =  -528.013087922     A.U. after   11 cycles
 Normal termination of Gaussian 16 at Tue Apr  8 23:56:20 2025.
 Gaussian 16:  ES64L-G16RevC.01  3-Jul-2019

 ----------------------------------------------------------------------
 #t hf aug-cc-pvdz iop(5/13=1,5/36=2,99/5=2) pseudo=read geom=check gue
 ss=(read,tcheck) scf=(maxcycle=1)
 ----------------------------------------------------------------------
 -----
 title
 -----
 Structure from the checkpoint file:  "BDE49_nonexpt_2017_mol1.chk"
 Charge =  0 Multiplicity = 1

                         Standard orientation:
 ---------------------------------------------------------------------
 Center     Atomic      Atomic             Coordinates (Angstroms)
 Number     Number       Type             X           Y           Z
 ---------------------------------------------------------------------
      1         14           0       -1.340883   -0.000000   -0.039642
      2          6           0        0.525174   -0.000000    0.396939
      3          9           0        1.123900   -1.112703   -0.158873
      4          9           0        1.123900    1.112703   -0.158873
      5          1           0        0.771397    0.000000    1.463457
      6          1           0       -1.461087   -0.000000   -1.510936
      7          1           0       -1.959596    1.211425    0.540272
      8          1           0       -1.959597   -1.211424    0.540272
 ---------------------------------------------------------------------

 SCF Done:  E(RHF) =  -528.269392187     A.U. after    2 cycles

 The electronic state is 1-A.
 Alpha  occ. eigenvalues --  -69.55212 -26.47526 -26.47525 -11.40411  -6.22405
 Alpha  occ. eigenvalues --   -3.97772  -3.97752  -3.97744  -1.63167  -1.56824
 Alpha  occ. eigenvalues --   -0.94922  -0.79190  -0.75355  -0.72955  -0.68436
 Alpha  occ. eigenvalues --   -0.63820  -0.60082  -0.58496  -0.51141  -0.51140
 Alpha  occ. eigenvalues --   -0.46837
 Alpha virt. eigenvalues --    0.03322   0.04114   0.05746   0.05780   0.07119
 Alpha virt. eigenvalues --    0.08828   0.08852   0.11418   0.11481   0.14445
 Alpha virt. eigenvalues --    0.15504   0.17031   0.17834   0.18550   0.21152

 Mulliken charges:
               1
     1  Si   1.119731
     2  C    0.905174
     3  F   -0.697769
     4  F   -0.697769
     5  H    0.008940
     6  H   -0.231073
     7  H   -0.203617
     8  H   -0.203617
 Sum of Mulliken charges =  -0.00000

 Dipole moment (field-independent basis, Debye):
    X=             -1.7181    Y=             -0.0000    Z=              1.2610  Tot=              2.1312

 Test job not archived.
 1\1\GINC-SE364\SP\RHF\Aug-CC-pVDZ\C1H4F2Si1\OHZDE\08-Apr-2025\0\\#t hf
  aug-cc-pvdz iop(5/13=1,5/36=2,99/5=2) pseudo=read geom=check guess=(r
 ead,tcheck) scf=(maxcycle=1)\\title\\0,1\Si,0,1.340883,0.,-0.039642\C,
 0,-0.525174,0.,0.396939\F,0,-1.1239,1.112703,-0.158873\F,0,-1.1239,-1.
 112703,-0.158873\H,0,-0.771397,0.,1.463457\H,0,1.461087,0.,-1.510936\H
 ,0,1.959596,-1.211425,0.540272\H,0,1.959597,1.211424,0.540272\\Version
 =ES64L-G16RevC.01\State=1-A\HF=-528.2693922\RMSD=3.828e-03\Dipole=0.67
 59617,0.0000005,0.4960962\Quadrupole=-0.2206228,-1.4906267,1.7112495,0

 Normal termination of Gaussian 16 at Tue Apr  8 23:56:22 2025.
