 Gaussian 16, Revision C.01,

 ----------------------------------------------------------------------
 #t hf aug-cc-pvdz symm=none int=(grid=ultrafine) guess=(read,tcheck) s
 table=(opt,rrhf)
 ----------------------------------------------------------------------
 -----
 title
 -----
 Symbolic Z-matrix:
 Charge =  0 Multiplicity = 1

 SCF Done:  E(RHF) =  -691.034443510     A.U. after   14 cycles
 Normal termination of Gaussian 16 at Tue Apr  8 23:17:09 2025.
 Gaussian 16:  ES64L-G16RevC.01  3-Jul-2019

 ----------------------------------------------------------------------
 #t hf aug-cc-pvdz iop(5/13=1,5/36=2,99/5=2) pseudo=read geom=check gue
 ss=(read,tcheck) scf=(maxcycle=1)
 ----------------------------------------------------------------------
 -----
 title
 -----
 Structure from the checkpoint file:  "BDE49_nonexpt_1038_mol1.chk"
 Charge =  0 Multiplicity = 1

                         Standard orientation:
 ---------------------------------------------------------------------
 Center     Atomic      Atomic             Coordinates (Angstroms)
 Number     Number       Type             X           Y           Z
 ---------------------------------------------------------------------
      1         17           0       -2.640597   -0.309507    0.042061
      2          8           0       -0.963877   -0.226706   -0.400500
      3          6           0       -0.314136    0.888829    0.231257
      4          6           0        1.147061    0.812169   -0.195642
      5          1           0       -0.777255    1.822761   -0.103587
      6          6           0        1.896573   -0.411998    0.343367
      7          1           0        1.630615    1.732718    0.154391
      8          1           0        1.193585    0.832185   -1.289965
      9          6           0        3.358557   -0.455341   -0.107625
     10          1           0        1.380042   -1.318919    0.017602
     11          1           0        1.849239   -0.406471    1.438971
     12          1           0        3.434646   -0.495683   -1.198534
     13          1           0        3.870322   -1.334321    0.292457
     14          1           0        3.906551    0.430247    0.229862
     15          1           0       -0.414911    0.810788    1.319621
 ---------------------------------------------------------------------

 SCF Done:  E(RHF) =  -691.356869123     A.U. after    2 cycles

 The electronic state is 1-A.
 Alpha  occ. eigenvalues -- -105.61194 -20.62140 -11.30283 -11.24228 -11.23311
 Alpha  occ. eigenvalues --  -11.22758 -10.65429  -7.82409  -7.81891  -7.81867
 Alpha  occ. eigenvalues --   -1.47416  -1.08938  -1.02836  -0.97003  -0.87176
 Alpha  occ. eigenvalues --   -0.80514  -0.67856  -0.67017  -0.63098  -0.62370
 Alpha  occ. eigenvalues --   -0.57730  -0.55219  -0.54140  -0.52076  -0.48968
 Alpha  occ. eigenvalues --   -0.48325  -0.48033  -0.46205  -0.42972
 Alpha virt. eigenvalues --    0.03614   0.03808   0.04018   0.04868   0.06254
 Alpha virt. eigenvalues --    0.06417   0.07009   0.07633   0.08319   0.09557
 Alpha virt. eigenvalues --    0.11522   0.12096   0.13477   0.14512   0.15076

 Mulliken charges:
               1
     1  Cl   0.286488
     2  O   -1.063087
     3  C    0.565177
     4  C   -0.385120
     5  H    0.090649
     6  C   -0.258675
     7  H    0.163406
     8  H    0.125959
     9  C   -0.369799
    10  H    0.152384
    11  H    0.107648
    12  H    0.169859
    13  H    0.118590
    14  H    0.162515
    15  H    0.134006
 Sum of Mulliken charges =  -0.00000

 Dipole moment (field-independent basis, Debye):
    X=              1.5334    Y=              1.2883    Z=              0.6447  Tot=              2.1040

 Test job not archived.
 1\1\GINC-SE366\SP\RHF\Aug-CC-pVDZ\C4H9Cl1O1\OHZDE\08-Apr-2025\0\\#t hf
  aug-cc-pvdz iop(5/13=1,5/36=2,99/5=2) pseudo=read geom=check guess=(r
 ead,tcheck) scf=(maxcycle=1)\\title\\0,1\Cl,0,-2.640597,-0.309507,0.04
 2061\O,0,-0.963877,-0.226706,-0.4005\C,0,-0.314136,0.888829,0.231257\C
 ,0,1.147061,0.812169,-0.195642\H,0,-0.777255,1.822761,-0.103587\C,0,1.
 896573,-0.411998,0.343367\H,0,1.630615,1.732718,0.154391\H,0,1.193585,
 0.832185,-1.289965\C,0,3.358557,-0.455341,-0.107625\H,0,1.380042,-1.31
 8919,0.017602\H,0,1.849239,-0.406471,1.438971\H,0,3.434646,-0.495683,-

 Normal termination of Gaussian 16 at Tue Apr  8 23:17:13 2025.
