 Gaussian 16, Revision C.01,

 ----------------------------------------------------------------------
 #t hf aug-cc-pvdz symm=none int=(grid=ultrafine) guess=(read,tcheck) s
 table=opt
 ----------------------------------------------------------------------
 -----
 title
 -----
 Symbolic Z-matrix:
 Charge =  0 Multiplicity = 2

 SCF Done:  E(UHF) =  -1013.22855507     A.U. after   27 cycles
 Normal termination of Gaussian 16 at Tue Apr  8 23:25:55 2025.
 Gaussian 16:  ES64L-G16RevC.01  3-Jul-2019

 ----------------------------------------------------------------------
 #t hf aug-cc-pvdz iop(5/13=1,5/36=2,99/5=2) pseudo=read geom=check gue
 ss=(read,tcheck) scf=(maxcycle=1)
 ----------------------------------------------------------------------
 -----
 title
 -----
 Structure from the checkpoint file:  "BDE49_expt_714_mol2.chk"
 Charge =  0 Multiplicity = 2

                         Standard orientation:
 ---------------------------------------------------------------------
 Center     Atomic      Atomic             Coordinates (Angstroms)
 Number     Number       Type             X           Y           Z
 ---------------------------------------------------------------------
      1          6           0        0.429644    1.129671    0.487048
      2          6           0        1.407918   -0.045537    0.321240
      3          6           0        0.824731   -1.392131    0.759029
      4          6           0       -0.682388   -1.561136    0.665433
      5          6           0       -1.491350   -0.566659   -0.195869
      6          1           0       -1.031472   -1.520482    1.703942
      7          1           0       -0.878326   -2.583119    0.333536
      8          7           0       -0.860282    0.795106   -0.184709
      9          6           0        0.187019    1.352025    2.001254
     10          1           0       -0.145695    0.450180    2.518385
     11          1           0       -0.581787    2.117011    2.121519
     12          1           0        1.101653    1.701805    2.486584
     13          6           0        0.985163    2.422509   -0.120622
     14          1           0        1.079064    2.342534   -1.201857
     15          1           0        1.970207    2.626765    0.306695
     16          1           0        0.319606    3.254055    0.102223
     17          6           0       -2.911580   -0.438900    0.383164
     18          1           0       -2.883260   -0.064883    1.409877
     19          1           0       -3.400111   -1.416786    0.384382
     20          1           0       -3.500589    0.252416   -0.217555
     21          6           0       -1.575270   -1.033277   -1.661554
     22          1           0       -0.586144   -1.211920   -2.084159
     23          1           0       -2.073097   -0.265722   -2.255414
     24          1           0       -2.154942   -1.957977   -1.725607
     25          8           0       -1.556295    1.754377   -0.658227
     26          8           0        1.533599   -2.250993    1.220811
     27         17           0        1.976858   -0.273462   -1.400911
     28          1           0        2.318535    0.132765    0.890482
 ---------------------------------------------------------------------

 SCF Done:  E(UHF) =  -1013.87104373     A.U. after    2 cycles

 The electronic state is 2-A.
 Alpha  occ. eigenvalues -- -105.57467 -20.57642 -20.55955 -15.60295 -11.36656
 Alpha  occ. eigenvalues --  -11.33220 -11.31615 -11.30487 -11.26772 -11.25615
 Alpha  occ. eigenvalues --  -11.23903 -11.23845 -11.23383 -10.62217  -7.79156
 Alpha  occ. eigenvalues --   -7.78796  -7.78787  -1.54038  -1.49642  -1.21501
 Alpha  occ. eigenvalues --   -1.13787  -1.09466  -1.03399  -1.00808  -0.96563
 Alpha  occ. eigenvalues --   -0.95562  -0.94373  -0.84805  -0.80879  -0.74277
 Alpha  occ. eigenvalues --   -0.73979  -0.72511  -0.69020  -0.66087  -0.64847
 Alpha  occ. eigenvalues --   -0.63772  -0.62269  -0.61478  -0.60595  -0.58665
 Alpha  occ. eigenvalues --   -0.57852  -0.57030  -0.56042  -0.55523  -0.54984
 Alpha  occ. eigenvalues --   -0.54010  -0.52264  -0.51540  -0.50958  -0.49714
 Alpha  occ. eigenvalues --   -0.47116  -0.46395  -0.45219  -0.41966  -0.40152
 Alpha virt. eigenvalues --    0.03178   0.03317   0.03725   0.04035   0.04579
 Alpha virt. eigenvalues --    0.04851   0.05010   0.05990   0.06442   0.08126
 Alpha virt. eigenvalues --    0.08383   0.08688   0.08800   0.09221   0.09947

  Beta  occ. eigenvalues -- -105.57468 -20.55947 -20.54732 -15.58186 -11.36664
  Beta  occ. eigenvalues --  -11.33184 -11.31809 -11.30681 -11.26763 -11.25517
  Beta  occ. eigenvalues --  -11.23842 -11.23823 -11.23311 -10.62219  -7.79164
  Beta  occ. eigenvalues --   -7.78796  -7.78786  -1.49631  -1.47216  -1.19261
  Beta  occ. eigenvalues --   -1.13342  -1.08524  -1.01676  -0.98946  -0.96345
  Beta  occ. eigenvalues --   -0.95225  -0.94233  -0.84355  -0.80425  -0.73006
  Beta  occ. eigenvalues --   -0.72399  -0.68901  -0.66884  -0.65022  -0.63646
  Beta  occ. eigenvalues --   -0.62395  -0.61352  -0.60418  -0.59958  -0.58157
  Beta  occ. eigenvalues --   -0.57124  -0.56570  -0.55345  -0.55029  -0.53672
  Beta  occ. eigenvalues --   -0.52744  -0.51367  -0.50768  -0.49929  -0.47106
  Beta  occ. eigenvalues --   -0.46115  -0.43746  -0.42923  -0.41804
  Beta virt. eigenvalues --    0.03184   0.03322   0.03737   0.04040   0.04579
  Beta virt. eigenvalues --    0.04850   0.05013   0.05942   0.06449   0.08013
  Beta virt. eigenvalues --    0.08361   0.08646   0.08793   0.09183   0.09942

 Mulliken charges and spin densities:
               1          2
     1  C   -2.483321  -0.052729
     2  C    0.135161   0.020690
     3  C    1.627848  -0.009377
     4  C    0.152205   0.019881
     5  C   -2.889381  -0.057798
     6  H    0.318664   0.000414
     7  H    0.194194  -0.001364
     8  N    3.103942   0.382199
     9  C    0.231545   0.018394
    10  H    0.160804  -0.003432
    11  H    0.185371  -0.004904
    12  H    0.230291  -0.000010
    13  C    0.055404   0.007025
    14  H    0.252470  -0.005679
    15  H    0.252516  -0.000847
    16  H    0.296685  -0.005968
    17  C    0.214727   0.009616
    18  H    0.123992  -0.004539
    19  H    0.248668  -0.002150
    20  H    0.234777  -0.007984
    21  C    0.067498   0.010820
    22  H    0.177126  -0.004327
    23  H    0.222043  -0.005060
    24  H    0.221543  -0.001149
    25  O   -1.664265   0.703212
    26  O   -1.542402   0.002046
    27  Cl  -0.091328  -0.004199
    28  H   -0.036775  -0.002779
 Sum of Mulliken charges =   0.00000   1.00000

 Dipole moment (field-independent basis, Debye):
    X=             -1.4193    Y=              0.7429    Z=              1.7310  Tot=              2.3585
                          Isotropic Fermi Contact Couplings
        Atom                 a.u.       MegaHertz       Gauss      10(-4) cm-1
     1  C(13)             -0.03259     -36.63393     -13.07190     -12.21976
     2  C(13)              0.00857       9.63677       3.43864       3.21448
     3  C(13)             -0.00141      -1.58682      -0.56622      -0.52931
     4  C(13)              0.00187       2.09857       0.74882       0.70001
     5  C(13)             -0.03167     -35.60211     -12.70372     -11.87559
     6  H(1)              -0.00031      -1.38009      -0.49245      -0.46035
     7  H(1)              -0.00050      -2.23825      -0.79866      -0.74660
     8  N(14)              0.24240      78.31946      27.94633      26.12456

 Normal termination of Gaussian 16 at Tue Apr  8 23:26:31 2025.
