 Gaussian 16, Revision C.01,

 ----------------------------------------------------------------------
 #t hf aug-cc-pvdz symm=none int=(grid=ultrafine) guess=(read,tcheck) s
 table=(opt,rrhf)
 ----------------------------------------------------------------------
 -----
 title
 -----
 Symbolic Z-matrix:
 Charge =  0 Multiplicity = 1

 SCF Done:  E(RHF) =  -763.853858875     A.U. after   16 cycles
 Normal termination of Gaussian 16 at Tue Apr  8 23:31:27 2025.
 Gaussian 16:  ES64L-G16RevC.01  3-Jul-2019

 ----------------------------------------------------------------------
 #t hf aug-cc-pvdz iop(5/13=1,5/36=2,99/5=2) pseudo=read geom=check gue
 ss=(read,tcheck) scf=(maxcycle=1)
 ----------------------------------------------------------------------
 -----
 title
 -----
 Structure from the checkpoint file:  "BDE49_nonexpt_1364_mol1.chk"
 Charge =  0 Multiplicity = 1

                         Standard orientation:
 ---------------------------------------------------------------------
 Center     Atomic      Atomic             Coordinates (Angstroms)
 Number     Number       Type             X           Y           Z
 ---------------------------------------------------------------------
      1          9           0       -2.087413   -0.972864    1.141380
      2         15           0       -1.632946   -0.704223   -0.428711
      3          6           0       -1.817601    1.156028   -0.448046
      4          7           0       -0.597775    1.728374    0.112784
      5          1           0       -0.431257    2.715180   -0.017753
      6          6           0        0.153269   -0.470723   -0.230495
      7          6           0        1.156246   -1.439650   -0.302655
      8          1           0        0.895410   -2.469436   -0.523124
      9          6           0        2.800859    0.251122    0.189036
     10          1           0        3.836937    0.529816    0.348863
     11          6           0        0.482477    0.873031    0.053442
     12          6           0        2.483791   -1.083056   -0.093751
     13          1           0        3.267901   -1.828101   -0.150082
     14          6           0        1.821300    1.233403    0.264870
     15          1           0        2.087540    2.261154    0.486935
     16          1           0       -2.704240    1.436830    0.125069
     17          1           0       -1.969006    1.454134   -1.495569
 ---------------------------------------------------------------------

 SCF Done:  E(RHF) =  -764.319861264     A.U. after    2 cycles

 The electronic state is 1-A.
 Alpha  occ. eigenvalues --  -84.33472 -26.43724 -15.52463 -11.30035 -11.28341
 Alpha  occ. eigenvalues --  -11.26167 -11.26124 -11.24369 -11.23698 -11.23685
 Alpha  occ. eigenvalues --   -6.79804  -4.32702  -4.32224  -4.31692  -1.54470
 Alpha  occ. eigenvalues --   -1.26748  -1.14605  -1.04011  -1.01376  -0.97222
 Alpha  occ. eigenvalues --   -0.86657  -0.82797  -0.79827  -0.74590  -0.69211
 Alpha  occ. eigenvalues --   -0.67144  -0.65833  -0.63001  -0.62844  -0.62116
 Alpha  occ. eigenvalues --   -0.60967  -0.59834  -0.54727  -0.53642  -0.52553
 Alpha  occ. eigenvalues --   -0.46719  -0.45702  -0.37109  -0.35066  -0.31691
 Alpha virt. eigenvalues --    0.02976   0.03601   0.03969   0.04734   0.05246
 Alpha virt. eigenvalues --    0.05676   0.07461   0.07553   0.08655   0.09404
 Alpha virt. eigenvalues --    0.10114   0.10886   0.12190   0.12256   0.13096

 Mulliken charges:
               1
     1  F   -0.867773
     2  P    1.893434
     3  C   -0.922955
     4  N    0.899222
     5  H    0.024863
     6  C    0.642410
     7  C   -0.044893
     8  H   -0.257883
     9  C    0.026230
    10  H   -0.217356
    11  C   -2.659802
    12  C    0.548994
    13  H   -0.221922
    14  C    1.342942
    15  H   -0.294610
    16  H    0.004967
    17  H    0.104130
 Sum of Mulliken charges =  -0.00000

 Dipole moment (field-independent basis, Debye):
    X=              1.1792    Y=              2.0555    Z=             -1.6170  Tot=              2.8689

 Test job not archived.
 1\1\GINC-SE179\SP\RHF\Aug-CC-pVDZ\C7H7F1N1P1\OHZDE\08-Apr-2025\0\\#t h
 f aug-cc-pvdz iop(5/13=1,5/36=2,99/5=2) pseudo=read geom=check guess=(
 read,tcheck) scf=(maxcycle=1)\\title\\0,1\F,0,-2.087413,-0.972864,1.14
 138\P,0,-1.632946,-0.704223,-0.428711\C,0,-1.817601,1.156028,-0.448046
 \N,0,-0.597775,1.728374,0.112784\H,0,-0.431257,2.71518,-0.017753\C,0,0
 .153269,-0.470723,-0.230495\C,0,1.156246,-1.43965,-0.302655\H,0,0.8954
 1,-2.469436,-0.523124\C,0,2.800859,0.251122,0.189036\H,0,3.836937,0.52
 9816,0.348863\C,0,0.482477,0.873031,0.053442\C,0,2.483791,-1.083056,-0

 Normal termination of Gaussian 16 at Tue Apr  8 23:31:36 2025.
