 Gaussian 16, Revision C.01,

 ----------------------------------------------------------------------
 #t hf aug-cc-pvdz symm=none int=(grid=ultrafine) guess=(read,tcheck) s
 table=(opt,rrhf)
 ----------------------------------------------------------------------
 -----
 title
 -----
 Symbolic Z-matrix:
 Charge =  0 Multiplicity = 1

 SCF Done:  E(RHF) =  -524.330860431     A.U. after   12 cycles
 Normal termination of Gaussian 16 at Tue Apr  8 22:46:29 2025.
 Gaussian 16:  ES64L-G16RevC.01  3-Jul-2019

 ----------------------------------------------------------------------
 #t hf aug-cc-pvdz iop(5/13=1,5/36=2,99/5=2) pseudo=read geom=check gue
 ss=(read,tcheck) scf=(maxcycle=1)
 ----------------------------------------------------------------------
 -----
 title
 -----
 Structure from the checkpoint file:  "BDE49_expt_1543_mol1.chk"
 Charge =  0 Multiplicity = 1

                         Standard orientation:
 ---------------------------------------------------------------------
 Center     Atomic      Atomic             Coordinates (Angstroms)
 Number     Number       Type             X           Y           Z
 ---------------------------------------------------------------------
      1         14           0        0.760755   -0.022833    0.018509
      2          6           0        1.056178    1.566978    0.986844
      3          1           0        1.978891    1.502162    1.571986
      4          1           0        0.237934    1.769219    1.684174
      5          1           0        1.148557    2.430426    0.320485
      6          6           0        0.567278   -1.469975    1.205871
      7          6           0        2.212206   -0.334671   -1.143738
      8          1           0        1.443347   -1.569087    1.854353
      9          1           0        0.447017   -2.413795    0.664908
     10          1           0       -0.310626   -1.339791    1.844860
     11          1           0        3.145866   -0.454849   -0.585290
     12          1           0        2.349790    0.496343   -1.842519
     13          1           0        2.061941   -1.243712   -1.734412
     14          6           0       -0.819940    0.148141   -1.035181
     15          6           0       -2.043573    0.515995   -0.251827
     16          6           0       -3.055833   -0.296802    0.048344
     17          1           0       -3.081170   -1.327036   -0.294700
     18          1           0       -3.896887    0.040693    0.643235
     19          1           0       -0.975137   -0.798976   -1.565055
     20          1           0       -0.618913    0.909823   -1.799880
     21          1           0       -2.079077    1.540251    0.116851
 ---------------------------------------------------------------------

 SCF Done:  E(RHF) =  -524.627938405     A.U. after    2 cycles

 The electronic state is 1-A.
 Alpha  occ. eigenvalues --  -69.50851 -11.24317 -11.22291 -11.21604 -11.20812
 Alpha  occ. eigenvalues --  -11.20781 -11.20457  -6.17849  -3.93186  -3.93181
 Alpha  occ. eigenvalues --   -3.93177  -1.06446  -0.97804  -0.92632  -0.92436
 Alpha  occ. eigenvalues --   -0.91961  -0.75897  -0.65469  -0.63433  -0.59628
 Alpha  occ. eigenvalues --   -0.57603  -0.56908  -0.56228  -0.54857  -0.54378
 Alpha  occ. eigenvalues --   -0.53423  -0.52891  -0.49807  -0.45717  -0.43671
 Alpha  occ. eigenvalues --   -0.43547  -0.34886
 Alpha virt. eigenvalues --    0.03149   0.03553   0.03717   0.03863   0.05579
 Alpha virt. eigenvalues --    0.05906   0.06182   0.06301   0.06597   0.08169
 Alpha virt. eigenvalues --    0.08955   0.09154   0.09462   0.09712   0.11207

 Mulliken charges:
               1
     1  Si   2.676343
     2  C   -0.580961
     3  H   -0.049948
     4  H   -0.040140
     5  H   -0.042376
     6  C   -0.555239
     7  C   -0.558890
     8  H   -0.067225
     9  H   -0.025035
    10  H   -0.019105
    11  H   -0.042399
    12  H   -0.035613
    13  H   -0.016964
    14  C   -0.619016
    15  C    0.634736
    16  C   -0.083341
    17  H   -0.126508
    18  H   -0.111744
    19  H   -0.118396
    20  H    0.020896
    21  H   -0.239078
 Sum of Mulliken charges =  -0.00000

 Dipole moment (field-independent basis, Debye):
    X=              0.6198    Y=              0.0952    Z=             -0.0837  Tot=              0.6326

 Test job not archived.
 1\1\GINC-SE049\SP\RHF\Aug-CC-pVDZ\C6H14Si1\OHZDE\08-Apr-2025\0\\#t hf
 aug-cc-pvdz iop(5/13=1,5/36=2,99/5=2) pseudo=read geom=check guess=(re
 ad,tcheck) scf=(maxcycle=1)\\title\\0,1\Si,0,0.760755,-0.022833,0.0185
 09\C,0,1.056178,1.566978,0.986844\H,0,1.978891,1.502162,1.571986\H,0,0
 .237934,1.769219,1.684174\H,0,1.148557,2.430426,0.320485\C,0,0.567278,
 -1.469975,1.205871\C,0,2.212206,-0.334671,-1.143738\H,0,1.443347,-1.56
 9087,1.854353\H,0,0.447017,-2.413795,0.664908\H,0,-0.310626,-1.339791,
 1.84486\H,0,3.145866,-0.454849,-0.58529\H,0,2.34979,0.496343,-1.842519

 Normal termination of Gaussian 16 at Tue Apr  8 22:46:39 2025.
