 Gaussian 16, Revision C.01,

 ----------------------------------------------------------------------
 #t hf aug-cc-pvdz symm=none int=(grid=ultrafine) guess=(read,tcheck) s
 table=(opt,rrhf)
 ----------------------------------------------------------------------
 -----
 title
 -----
 Symbolic Z-matrix:
 Charge =  0 Multiplicity = 1

 SCF Done:  E(RHF) =  -608.794148394     A.U. after   12 cycles
 Normal termination of Gaussian 16 at Tue Apr  8 23:55:17 2025.
 Gaussian 16:  ES64L-G16RevC.01  3-Jul-2019

 ----------------------------------------------------------------------
 #t hf aug-cc-pvdz iop(5/13=1,5/36=2,99/5=2) pseudo=read geom=check gue
 ss=(read,tcheck) scf=(maxcycle=1)
 ----------------------------------------------------------------------
 -----
 title
 -----
 Structure from the checkpoint file:  "BDE49_nonexpt_1963_mol1.chk"
 Charge =  0 Multiplicity = 1

                         Standard orientation:
 ---------------------------------------------------------------------
 Center     Atomic      Atomic             Coordinates (Angstroms)
 Number     Number       Type             X           Y           Z
 ---------------------------------------------------------------------
      1         14           0       -0.552494   -1.286665   -0.077730
      2          6           0        1.080309   -0.910752    0.844199
      3          5           0        1.922257    0.198256    0.139427
      4          8           0        1.406789    1.481346    0.210214
      5          6           0        3.263743   -0.080116   -0.637814
      6          1           0        3.140042   -0.913468   -1.337968
      7          1           0        4.041567   -0.398539    0.067081
      8          1           0        3.656613    0.774935   -1.198633
      9          5           0       -1.865287    0.296572   -0.062239
     10          1           0       -1.159220   -2.504084    0.527786
     11          1           0       -0.219063   -1.661351   -1.483853
     12          8           0       -1.424556    1.557419    0.164645
     13          6           0       -3.405425    0.084557   -0.308313
     14          1           0       -3.590299   -0.466472   -1.238414
     15          1           0       -3.957351    1.028348   -0.346085
     16          1           0       -3.837118   -0.535262    0.487887
     17          1           0        1.935787    2.137200   -0.254944
     18          1           0       -0.464298    1.633856    0.293922
     19          1           0        1.636092   -1.846321    0.951854
     20          1           0        0.777686   -0.581927    1.846360
 ---------------------------------------------------------------------

 SCF Done:  E(RHF) =  -609.162644255     A.U. after    2 cycles

 The electronic state is 1-A.
 Alpha  occ. eigenvalues --  -69.50602 -20.57650 -20.54148 -11.21662 -11.19922
 Alpha  occ. eigenvalues --  -11.19338  -7.62006  -7.60072  -6.17767  -3.93130
 Alpha  occ. eigenvalues --   -3.93120  -3.93057  -1.47694  -1.44141  -0.97965
 Alpha  occ. eigenvalues --   -0.94364  -0.94120  -0.76121  -0.73981  -0.71423
 Alpha  occ. eigenvalues --   -0.64295  -0.60328  -0.59249  -0.57890  -0.55288
 Alpha  occ. eigenvalues --   -0.54842  -0.54604  -0.53562  -0.52872  -0.51358
 Alpha  occ. eigenvalues --   -0.49973  -0.48719  -0.45498  -0.43518  -0.37901
 Alpha virt. eigenvalues --    0.02473   0.03557   0.03743   0.04186   0.05521
 Alpha virt. eigenvalues --    0.05725   0.05776   0.06847   0.06920   0.07891
 Alpha virt. eigenvalues --    0.08288   0.08517   0.09202   0.09556   0.09959

 Mulliken charges:
               1
     1  Si   0.474213
     2  C   -0.640367
     3  B    1.781073
     4  O   -1.351650
     5  C   -0.448058
     6  H    0.083816
     7  H    0.103403
     8  H   -0.132804
     9  B    1.218197
    10  H   -0.135770
    11  H   -0.105472
    12  O   -1.722980
    13  C   -0.480271
    14  H    0.075542
    15  H   -0.096932
    16  H    0.086424
    17  H    0.584613
    18  H    0.987070
    19  H   -0.245327
    20  H   -0.034719
 Sum of Mulliken charges =   0.00000

 Dipole moment (field-independent basis, Debye):
    X=              2.8855    Y=              0.3225    Z=             -0.2346  Tot=              2.9129

 Test job not archived.
 1\1\GINC-SE335\SP\RHF\Aug-CC-pVDZ\C3H12B2O2Si1\OHZDE\08-Apr-2025\0\\#t
  hf aug-cc-pvdz iop(5/13=1,5/36=2,99/5=2) pseudo=read geom=check guess
 =(read,tcheck) scf=(maxcycle=1)\\title\\0,1\Si,0,0.552494,-1.286665,0.
 07773\C,0,-1.080309,-0.910752,-0.844199\B,0,-1.922257,0.198256,-0.1394
 27\O,0,-1.406789,1.481346,-0.210214\C,0,-3.263743,-0.080116,0.637814\H
 ,0,-3.140042,-0.913468,1.337968\H,0,-4.041567,-0.398539,-0.067081\H,0,
 -3.656613,0.774935,1.198633\B,0,1.865287,0.296572,0.062239\H,0,1.15922
 ,-2.504084,-0.527786\H,0,0.219063,-1.661351,1.483853\O,0,1.424556,1.55

 Normal termination of Gaussian 16 at Tue Apr  8 23:55:27 2025.
