 Gaussian 16, Revision C.01,

 ----------------------------------------------------------------------
 #t hf aug-cc-pvdz symm=none int=(grid=ultrafine) guess=(read,tcheck) s
 table=(opt,rrhf)
 ----------------------------------------------------------------------
 -----
 title
 -----
 Symbolic Z-matrix:
 Charge =  0 Multiplicity = 1

 SCF Done:  E(RHF) =  -1025.30917668     A.U. after   15 cycles
 Normal termination of Gaussian 16 at Tue Apr  8 22:49:48 2025.
 Gaussian 16:  ES64L-G16RevC.01  3-Jul-2019

 ----------------------------------------------------------------------
 #t hf aug-cc-pvdz iop(5/13=1,5/36=2,99/5=2) pseudo=read geom=check gue
 ss=(read,tcheck) scf=(maxcycle=1)
 ----------------------------------------------------------------------
 -----
 title
 -----
 Structure from the checkpoint file:  "BDE49_expt_1677_mol1.chk"
 Charge =  0 Multiplicity = 1

                         Standard orientation:
 ---------------------------------------------------------------------
 Center     Atomic      Atomic             Coordinates (Angstroms)
 Number     Number       Type             X           Y           Z
 ---------------------------------------------------------------------
      1          6           0        1.999221   -0.000000   -0.002827
      2          6           0        1.317205    1.213135   -0.011914
      3          6           0       -0.073024    1.208177   -0.027399
      4          6           0       -0.769221    0.000002   -0.035533
      5          6           0       -0.073025   -1.208173   -0.027399
      6          6           0        1.317203   -1.213134   -0.011914
      7         17           0        3.750898   -0.000001    0.015077
      8          1           0       -0.614806    2.145204   -0.042280
      9          1           0        1.867032    2.144934   -0.009692
     10          6           0       -2.272160    0.000001    0.001147
     11          9           0       -2.792955    1.088455   -0.605371
     12          9           0       -2.741526   -0.000043    1.271111
     13          9           0       -2.792953   -1.088416   -0.605444
     14          1           0       -0.614809   -2.145200   -0.042280
     15          1           0        1.867029   -2.144933   -0.009692
 ---------------------------------------------------------------------

 SCF Done:  E(RHF) =  -1025.92398437     A.U. after    2 cycles

 The electronic state is 1-A.
 Alpha  occ. eigenvalues -- -105.58859 -26.50965 -26.50960 -26.50472 -11.52853
 Alpha  occ. eigenvalues --  -11.33544 -11.28668 -11.28449 -11.28427 -11.27859
 Alpha  occ. eigenvalues --  -11.27847 -10.63656  -7.80623  -7.80218  -7.80204
 Alpha  occ. eigenvalues --   -1.71483  -1.61603  -1.61068  -1.21119  -1.13047
 Alpha  occ. eigenvalues --   -1.05994  -1.04263  -0.95101  -0.88736  -0.86383
 Alpha  occ. eigenvalues --   -0.80932  -0.80743  -0.80520  -0.70355  -0.70268
 Alpha  occ. eigenvalues --   -0.68809  -0.67570  -0.67022  -0.64731  -0.63666
 Alpha  occ. eigenvalues --   -0.62842  -0.62079  -0.59582  -0.57347  -0.55184
 Alpha  occ. eigenvalues --   -0.54628  -0.49929  -0.48131  -0.38336  -0.37249
 Alpha virt. eigenvalues --    0.03324   0.03540   0.04818   0.05512   0.06607
 Alpha virt. eigenvalues --    0.07615   0.07855   0.09082   0.09346   0.10353
 Alpha virt. eigenvalues --    0.12270   0.12289   0.12757   0.13365   0.14355

 Mulliken charges:
               1
     1  C   -0.541105
     2  C    0.431070
     3  C    0.041253
     4  C    0.623413
     5  C    0.041217
     6  C    0.431074
     7  Cl  -0.305285
     8  H   -0.266493
     9  H   -0.174050
    10  C    2.545026
    11  F   -0.819711
    12  F   -0.746155
    13  F   -0.819704
    14  H   -0.266496
    15  H   -0.174053
 Sum of Mulliken charges =  -0.00000

 Dipole moment (field-independent basis, Debye):
    X=              1.0805    Y=              0.0000    Z=             -0.0887  Tot=              1.0841

 Test job not archived.
 1\1\GINC-SE045\SP\RHF\Aug-CC-pVDZ\C7H4Cl1F3\OHZDE\08-Apr-2025\0\\#t hf
  aug-cc-pvdz iop(5/13=1,5/36=2,99/5=2) pseudo=read geom=check guess=(r
 ead,tcheck) scf=(maxcycle=1)\\title\\0,1\C,0,1.999221,0.,-0.002827\C,0
 ,1.317205,1.213135,-0.011914\C,0,-0.073024,1.208177,-0.027399\C,0,-0.7
 69221,0.000002,-0.035533\C,0,-0.073025,-1.208173,-0.027399\C,0,1.31720
 3,-1.213134,-0.011914\Cl,0,3.750898,-0.000001,0.015077\H,0,-0.614806,2
 .145204,-0.04228\H,0,1.867032,2.144934,-0.009692\C,0,-2.27216,0.000001
 ,0.001147\F,0,-2.792955,1.088455,-0.605371\F,0,-2.741526,-0.000043,1.2

 Normal termination of Gaussian 16 at Tue Apr  8 22:49:58 2025.
