 Gaussian 16, Revision C.01,

 ----------------------------------------------------------------------
 #t hf aug-cc-pvdz symm=none int=(grid=ultrafine) guess=(read,tcheck) s
 table=(opt,rrhf)
 ----------------------------------------------------------------------
 -----
 title
 -----
 Symbolic Z-matrix:
 Charge =  0 Multiplicity = 1

 SCF Done:  E(RHF) =  -348.457870598     A.U. after   12 cycles
 Normal termination of Gaussian 16 at Wed Apr  9 00:49:27 2025.
 Gaussian 16:  ES64L-G16RevC.01  3-Jul-2019

 ----------------------------------------------------------------------
 #t hf aug-cc-pvdz iop(5/13=1,5/36=2,99/5=2) pseudo=read geom=check gue
 ss=(read,tcheck) scf=(maxcycle=1)
 ----------------------------------------------------------------------
 -----
 title
 -----
 Structure from the checkpoint file:  "BDE49_nonexpt_8_mol1.chk"
 Charge =  0 Multiplicity = 1

                         Standard orientation:
 ---------------------------------------------------------------------
 Center     Atomic      Atomic             Coordinates (Angstroms)
 Number     Number       Type             X           Y           Z
 ---------------------------------------------------------------------
      1          5           0        1.084936   -0.000559    0.550190
      2          5           0       -0.561591   -0.000043    0.089221
      3          9           0        2.033746    0.000106   -0.382019
      4          9           0       -1.242954    1.126839   -0.080157
      5          9           0       -1.243556   -1.126505   -0.080529
      6          1           0        1.458153   -0.000953    1.687295
 ---------------------------------------------------------------------

 SCF Done:  E(RHF) =  -348.774893726     A.U. after    2 cycles

 The electronic state is 1-A.
 Alpha  occ. eigenvalues --  -26.48860 -26.48859 -26.48618  -7.72206  -7.67970
 Alpha  occ. eigenvalues --   -1.63957  -1.61243  -1.59862  -0.82971  -0.79396
 Alpha  occ. eigenvalues --   -0.74927  -0.73178  -0.70568  -0.68789  -0.66436
 Alpha  occ. eigenvalues --   -0.64068  -0.63247  -0.61293  -0.47330
 Alpha virt. eigenvalues --    0.03703   0.03995   0.04435   0.05090   0.07579
 Alpha virt. eigenvalues --    0.07829   0.07996   0.10128   0.11458   0.12572
 Alpha virt. eigenvalues --    0.14951   0.22159   0.24323   0.24843   0.25477

 Mulliken charges:
               1
     1  B    0.441708
     2  B    1.400698
     3  F   -0.612482
     4  F   -0.597955
     5  F   -0.597872
     6  H   -0.034097
 Sum of Mulliken charges =  -0.00000

 Dipole moment (field-independent basis, Debye):
    X=              0.5015    Y=             -0.0011    Z=              0.8692  Tot=              1.0035

 Test job not archived.
 1\1\GINC-SE249\SP\RHF\Aug-CC-pVDZ\B2F3H1\OHZDE\09-Apr-2025\0\\#t hf au
 g-cc-pvdz iop(5/13=1,5/36=2,99/5=2) pseudo=read geom=check guess=(read
 ,tcheck) scf=(maxcycle=1)\\title\\0,1\B,0,-1.084936,0.000559,0.55019\B
 ,0,0.561591,0.000043,0.089221\F,0,-2.033746,-0.000106,-0.382019\F,0,1.
 242954,-1.126839,-0.080157\F,0,1.243556,1.126505,-0.080529\H,0,-1.4581
 53,0.000953,1.687295\\Version=ES64L-G16RevC.01\State=1-A\HF=-348.77489
 37\RMSD=1.151e-02\Dipole=-0.1973024,0.0004429,0.3419662\Quadrupole=-2.
 2917558,0.4081235,1.8836323,-0.0011057,-0.3648229,-0.0001515\PG=C01 [X

 Normal termination of Gaussian 16 at Wed Apr  9 00:49:29 2025.
