 Gaussian 16, Revision C.01,

 ----------------------------------------------------------------------
 #t hf aug-cc-pvdz symm=none int=(grid=ultrafine) guess=(read,tcheck) s
 table=opt
 ----------------------------------------------------------------------
 -----
 title
 -----
 Symbolic Z-matrix:
 Charge =  0 Multiplicity = 2

 SCF Done:  E(UHF) =  -515.062474102     A.U. after   22 cycles
 Normal termination of Gaussian 16 at Tue Apr  8 23:19:51 2025.
 Gaussian 16:  ES64L-G16RevC.01  3-Jul-2019

 ----------------------------------------------------------------------
 #t hf aug-cc-pvdz iop(5/13=1,5/36=2,99/5=2) pseudo=read geom=check gue
 ss=(read,tcheck) scf=(maxcycle=1)
 ----------------------------------------------------------------------
 -----
 title
 -----
 Structure from the checkpoint file:  "BDE49_nonexpt_112_mol2.chk"
 Charge =  0 Multiplicity = 2

                         Standard orientation:
 ---------------------------------------------------------------------
 Center     Atomic      Atomic             Coordinates (Angstroms)
 Number     Number       Type             X           Y           Z
 ---------------------------------------------------------------------
      1          5           0        1.617067    0.935287    0.000008
      2         16           0        0.681255   -0.548649   -0.000005
      3          6           0       -0.964979   -0.020928   -0.000000
      4          7           0       -2.074571    0.307075    0.000004
      5          1           0        1.326463    2.077987    0.000019
 ---------------------------------------------------------------------

 SCF Done:  E(UHF) =  -515.227399902     A.U. after    2 cycles

 The electronic state is 2-A.
 Alpha  occ. eigenvalues --  -94.03297 -15.53918 -11.32049  -8.31504  -7.68910
 Alpha  occ. eigenvalues --   -6.29247  -6.29056  -6.28889  -1.25619  -1.11828
 Alpha  occ. eigenvalues --   -0.78653  -0.67907  -0.62158  -0.57115  -0.56557
 Alpha  occ. eigenvalues --   -0.49869  -0.44596  -0.39706
 Alpha virt. eigenvalues --    0.01711   0.03710   0.04383   0.05255   0.06935
 Alpha virt. eigenvalues --    0.09143   0.10209   0.10679   0.12078   0.12421
 Alpha virt. eigenvalues --    0.13366   0.14342   0.16002   0.16149   0.17712

  Beta  occ. eigenvalues --  -94.03333 -15.54054 -11.31647  -8.31507  -7.66925
  Beta  occ. eigenvalues --   -6.29418  -6.29097  -6.29006  -1.25566  -1.10955
  Beta  occ. eigenvalues --   -0.74664  -0.66103  -0.61870  -0.56670  -0.56210
  Beta  occ. eigenvalues --   -0.49386  -0.44892
  Beta virt. eigenvalues --    0.01920   0.03093   0.04151   0.05320   0.06226
  Beta virt. eigenvalues --    0.08479   0.09495   0.10480   0.10978   0.12209
  Beta virt. eigenvalues --    0.12463   0.13426   0.14782   0.16280   0.17299

 Mulliken charges and spin densities:
               1          2
     1  B   -0.056104   1.053256
     2  S    0.540939  -0.112749
     3  C   -1.486302   0.135002
     4  N    0.656475  -0.045929
     5  H    0.344992  -0.029580
 Sum of Mulliken charges =  -0.00000   1.00000

 Dipole moment (field-independent basis, Debye):
    X=              3.6671    Y=             -0.1806    Z=             -0.0000  Tot=              3.6715
                          Isotropic Fermi Contact Couplings
        Atom                 a.u.       MegaHertz       Gauss      10(-4) cm-1
     1  B(11)              0.28251     405.22313     144.59369     135.16789
     2  S(33)              0.16976      58.30917      20.80616      19.44985
     3  C(13)              0.10122     113.79197      40.60381      37.95692
     4  N(14)             -0.00698      -2.25681      -0.80529      -0.75279
     5  H(1)               0.00048       2.16637       0.77301       0.72262
 --------------------------------------------------------
       Center         ----  Spin Dipole Couplings  ----
                      3XX-RR        3YY-RR        3ZZ-RR

 Normal termination of Gaussian 16 at Tue Apr  8 23:19:52 2025.
