 Gaussian 16, Revision C.01,

 ----------------------------------------------------------------------
 #t hf aug-cc-pvdz symm=none int=(grid=ultrafine) guess=(read,tcheck) s
 table=(opt,rrhf)
 ----------------------------------------------------------------------
 -----
 title
 -----
 Symbolic Z-matrix:
 Charge =  0 Multiplicity = 1

 SCF Done:  E(RHF) =  -650.118615399     A.U. after   16 cycles

 1\1\GINC-SE044\Stability\RHF\Aug-CC-pVDZ\C8H11P1\OHZDE\08-Apr-2025\0\\
 #t hf aug-cc-pvdz symm=none int=(grid=ultrafine) guess=(read,tcheck) s
 table=(opt,rrhf)\\title\\0,1\C,0,-1.378866,-1.365791,-0.003288\C,0,0.0
 07177,-1.488122,0.011237\C,0,0.835338,-0.361175,0.014782\C,0,-1.982055
 ,-0.107575,-0.008513\C,0,-1.149834,1.015383,-0.008703\C,0,0.242717,0.9
 18464,-0.004031\H,0,-1.994518,-2.259577,-0.006927\H,0,0.448395,-2.4789
 41,0.02139\P,0,2.669401,-0.537066,-0.107255\H,0,-1.600731,2.003956,-0.
 019014\C,0,1.08536,2.170889,-0.000868\H,0,0.470127,3.059701,-0.150876\

 Normal termination of Gaussian 16 at Tue Apr  8 23:34:28 2025.
 Gaussian 16:  ES64L-G16RevC.01  3-Jul-2019

 ----------------------------------------------------------------------
 #t hf aug-cc-pvdz iop(5/13=1,5/36=2,99/5=2) pseudo=read geom=check gue
 ss=(read,tcheck) scf=(maxcycle=1)
 ----------------------------------------------------------------------
 -----
 title
 -----
 Structure from the checkpoint file:  "BDE49_nonexpt_1432_mol1.chk"
 Charge =  0 Multiplicity = 1

                         Standard orientation:
 ---------------------------------------------------------------------
 Center     Atomic      Atomic             Coordinates (Angstroms)
 Number     Number       Type             X           Y           Z
 ---------------------------------------------------------------------
      1          6           0       -1.378866   -1.365791   -0.003288
      2          6           0        0.007177   -1.488122    0.011237
      3          6           0        0.835338   -0.361175    0.014782
      4          6           0       -1.982055   -0.107575   -0.008513
      5          6           0       -1.149834    1.015383   -0.008703
      6          6           0        0.242717    0.918464   -0.004031
      7          1           0       -1.994518   -2.259577   -0.006927
      8          1           0        0.448395   -2.478941    0.021390
      9         15           0        2.669401   -0.537066   -0.107255
     10          1           0       -1.600731    2.003956   -0.019014
     11          6           0        1.085360    2.170889   -0.000868
     12          1           0        0.470127    3.059701   -0.150876
     13          1           0        1.842736    2.148021   -0.791467
     14          1           0        1.617648    2.292562    0.949084
     15          6           0       -3.483989    0.043008    0.009772
     16          1           0       -3.978804   -0.858357   -0.358185
     17          1           0       -3.808409    0.883881   -0.608516
     18          1           0       -3.848804    0.226842    1.026349
     19          1           0        2.735572   -1.888057    0.313773
     20          1           0        3.020685   -0.024533    1.170878
 ---------------------------------------------------------------------

 SCF Done:  E(RHF) =  -650.489029152     A.U. after    2 cycles

 The electronic state is 1-A.
 Alpha  occ. eigenvalues --  -84.27243 -11.25269 -11.24914 -11.24530 -11.24448
 Alpha  occ. eigenvalues --  -11.23661 -11.23649 -11.23516 -11.23446  -6.74318
 Alpha  occ. eigenvalues --   -4.27292  -4.26959  -4.26175  -1.16150  -1.06370
 Alpha  occ. eigenvalues --   -1.03558  -0.95097  -0.93996  -0.85626  -0.82461
 Alpha  occ. eigenvalues --   -0.77529  -0.66875  -0.66628  -0.62623  -0.59130
 Alpha  occ. eigenvalues --   -0.58324  -0.57775  -0.56418  -0.54540  -0.53524
 Alpha  occ. eigenvalues --   -0.50480  -0.49593  -0.48714  -0.46581  -0.37411
 Alpha  occ. eigenvalues --   -0.33902  -0.30691
 Alpha virt. eigenvalues --    0.03475   0.03568   0.03784   0.04617   0.05058
 Alpha virt. eigenvalues --    0.05078   0.06293   0.07371   0.07602   0.08540
 Alpha virt. eigenvalues --    0.08681   0.09691   0.10564   0.11099   0.11236

 Mulliken charges:
               1
     1  C    0.463234
     2  C   -0.285727
     3  C   -0.171918
     4  C    0.313209
     5  C    0.740093
     6  C    0.196287
     7  H   -0.297811
     8  H   -0.310872
     9  P   -0.655898
    10  H   -0.306940
    11  C   -0.855510
    12  H    0.005853
    13  H    0.331091
    14  H    0.275004
    15  C   -0.774901
    16  H    0.087298
    17  H    0.160303
    18  H    0.280508
    19  H    0.355348
    20  H    0.451350
 Sum of Mulliken charges =  -0.00000

 Dipole moment (field-independent basis, Debye):
    X=             -0.9661    Y=              0.3172    Z=              0.4093  Tot=              1.0962

 Test job not archived.
 1\1\GINC-SE044\SP\RHF\Aug-CC-pVDZ\C8H11P1\OHZDE\08-Apr-2025\0\\#t hf a
 ug-cc-pvdz iop(5/13=1,5/36=2,99/5=2) pseudo=read geom=check guess=(rea
 d,tcheck) scf=(maxcycle=1)\\title\\0,1\C,0,-1.378866,-1.365791,-0.0032
 88\C,0,0.007177,-1.488122,0.011237\C,0,0.835338,-0.361175,0.014782\C,0
 ,-1.982055,-0.107575,-0.008513\C,0,-1.149834,1.015383,-0.008703\C,0,0.
 242717,0.918464,-0.004031\H,0,-1.994518,-2.259577,-0.006927\H,0,0.4483
 95,-2.478941,0.02139\P,0,2.669401,-0.537066,-0.107255\H,0,-1.600731,2.
 003956,-0.019014\C,0,1.08536,2.170889,-0.000868\H,0,0.470127,3.059701,

 Normal termination of Gaussian 16 at Tue Apr  8 23:34:39 2025.
