 Gaussian 16, Revision C.01,

 ----------------------------------------------------------------------
 #t hf aug-cc-pvdz symm=none int=(grid=ultrafine) guess=(read,tcheck) s
 table=(opt,rrhf)
 ----------------------------------------------------------------------
 -----
 title
 -----
 Symbolic Z-matrix:
 Charge =  0 Multiplicity = 1

 SCF Done:  E(RHF) =  -212.354302597     A.U. after   12 cycles

 1\1\GINC-SE453\Stability\RHF\Aug-CC-pVDZ\C4H11N1\OHZDE\08-Apr-2025\0\\
 #t hf aug-cc-pvdz symm=none int=(grid=ultrafine) guess=(read,tcheck) s
 table=(opt,rrhf)\\title\\0,1\C,0,-1.258248,-0.797612,-0.368118\C,0,0.,
 -0.00496,0.015393\H,0,-2.163524,-0.251748,-0.081689\H,0,-1.268641,-1.7
 61408,0.145318\H,0,-1.301205,-0.971722,-1.446665\C,0,1.258248,-0.79761
 1,-0.368118\H,0,1.268642,-1.761408,0.145318\H,0,2.163524,-0.251747,-0.
 081689\H,0,1.301205,-0.971722,-1.446665\N,0,0.,0.134111,1.486172\H,0,0
 .813396,0.66951,1.780061\H,0,-0.813396,0.66951,1.780061\C,0,0.,1.36027

 Normal termination of Gaussian 16 at Tue Apr  8 22:37:39 2025.
 Gaussian 16:  ES64L-G16RevC.01  3-Jul-2019

 ----------------------------------------------------------------------
 #t hf aug-cc-pvdz iop(5/13=1,5/36=2,99/5=2) pseudo=read geom=check gue
 ss=(read,tcheck) scf=(maxcycle=1)
 ----------------------------------------------------------------------
 -----
 title
 -----
 Structure from the checkpoint file:  "BDE49_expt_1196_mol1.chk"
 Charge =  0 Multiplicity = 1

                         Standard orientation:
 ---------------------------------------------------------------------
 Center     Atomic      Atomic             Coordinates (Angstroms)
 Number     Number       Type             X           Y           Z
 ---------------------------------------------------------------------
      1          6           0       -1.258255   -0.797601   -0.368118
      2          6           0       -0.000000   -0.004960    0.015393
      3          1           0       -2.163526   -0.251729   -0.081689
      4          1           0       -1.268657   -1.761397    0.145318
      5          1           0       -1.301214   -0.971710   -1.446665
      6          6           0        1.258241   -0.797622   -0.368118
      7          1           0        1.268626   -1.761419    0.145318
      8          1           0        2.163522   -0.251766   -0.081689
      9          1           0        1.301196   -0.971733   -1.446665
     10          7           0        0.000001    0.134111    1.486172
     11          1           0        0.813402    0.669503    1.780061
     12          1           0       -0.813390    0.669517    1.780061
     13          6           0        0.000012    1.360277   -0.704153
     14          1           0        0.000011    1.247299   -1.793227
     15          1           0        0.885073    1.942037   -0.427026
     16          1           0       -0.885040    1.942052   -0.427026
 ---------------------------------------------------------------------

 SCF Done:  E(RHF) =  -212.592717745     A.U. after    2 cycles

 The electronic state is 1-A.
 Alpha  occ. eigenvalues --  -15.47866 -11.26473 -11.22197 -11.21846 -11.21816
 Alpha  occ. eigenvalues --   -1.18721  -1.03281  -0.93511  -0.93480  -0.76429
 Alpha  occ. eigenvalues --   -0.68266  -0.64409  -0.61338  -0.58695  -0.55543
 Alpha  occ. eigenvalues --   -0.53586  -0.52011  -0.51796  -0.48879  -0.47177
 Alpha  occ. eigenvalues --   -0.42100
 Alpha virt. eigenvalues --    0.03629   0.04257   0.04317   0.04578   0.06097
 Alpha virt. eigenvalues --    0.06281   0.06698   0.06874   0.07668   0.09982
 Alpha virt. eigenvalues --    0.10058   0.12446   0.14776   0.14802   0.15316

 Mulliken charges:
               1
     1  C    0.446205
     2  C   -4.489185
     3  H    0.163233
     4  H    0.230199
     5  H    0.215968
     6  C    0.446204
     7  H    0.230200
     8  H    0.163233
     9  H    0.215968
    10  N    1.024985
    11  H    0.174120
    12  H    0.174119
    13  C    0.419683
    14  H    0.247845
    15  H    0.168611
    16  H    0.168612
 Sum of Mulliken charges =  -0.00000

 Dipole moment (field-independent basis, Debye):
    X=              0.0000    Y=              1.1799    Z=             -0.6883  Tot=              1.3660

 Test job not archived.
 1\1\GINC-SE453\SP\RHF\Aug-CC-pVDZ\C4H11N1\OHZDE\08-Apr-2025\0\\#t hf a
 ug-cc-pvdz iop(5/13=1,5/36=2,99/5=2) pseudo=read geom=check guess=(rea
 d,tcheck) scf=(maxcycle=1)\\title\\0,1\C,0,-1.258248,-0.797612,-0.3681
 18\C,0,0.,-0.00496,0.015393\H,0,-2.163524,-0.251748,-0.081689\H,0,-1.2
 68641,-1.761408,0.145318\H,0,-1.301205,-0.971722,-1.446665\C,0,1.25824
 8,-0.797611,-0.368118\H,0,1.268642,-1.761408,0.145318\H,0,2.163524,-0.
 251747,-0.081689\H,0,1.301205,-0.971722,-1.446665\N,0,0.,0.134111,1.48
 6172\H,0,0.813396,0.66951,1.780061\H,0,-0.813396,0.66951,1.780061\C,0,

 Normal termination of Gaussian 16 at Tue Apr  8 22:37:44 2025.
