 Gaussian 16, Revision C.01,

 ----------------------------------------------------------------------
 #t hf aug-cc-pvdz symm=none int=(grid=ultrafine) guess=(read,tcheck) s
 table=opt
 ----------------------------------------------------------------------
 -----
 title
 -----
 Symbolic Z-matrix:
 Charge =  0 Multiplicity = 2

 SCF Done:  E(UHF) =  -1813.86131718     A.U. after   18 cycles

 1\1\GINC-SE338\Stability\UHF\Aug-CC-pVDZ\C1Cl3S1\OHZDE\09-Apr-2025\0\\
 #t hf aug-cc-pvdz symm=none int=(grid=ultrafine) guess=(read,tcheck) s
 table=opt\\title\\0,2\S,0,1.118185,0.,-1.438193\C,0,-0.011227,0.,-0.05
 4566\Cl,0,-1.067398,-1.456443,-0.005097\Cl,0,-1.067398,1.456443,-0.005
 097\Cl,0,1.086348,0.,1.383047\\Version=ES64L-G16RevC.01\HF=-1813.86131
 72\S2=0.762949\S2-1=0.\S2A=0.750069\RMSD=7.306e-09\Dipole=0.1484834,0.
 ,-0.1815558\Quadrupole=0.4335324,-1.1543808,0.7208484,0.,0.1624412,0.\
 PG=Unknown\\@

 Normal termination of Gaussian 16 at Wed Apr  9 00:16:37 2025.
 Gaussian 16:  ES64L-G16RevC.01  3-Jul-2019

 ----------------------------------------------------------------------
 #t hf aug-cc-pvdz iop(5/13=1,5/36=2,99/5=2) pseudo=read geom=check gue
 ss=(read,tcheck) scf=(maxcycle=1)
 ----------------------------------------------------------------------
 -----
 title
 -----
 Structure from the checkpoint file:  "BDE49_nonexpt_2538_mol2.chk"
 Charge =  0 Multiplicity = 2

                         Standard orientation:
 ---------------------------------------------------------------------
 Center     Atomic      Atomic             Coordinates (Angstroms)
 Number     Number       Type             X           Y           Z
 ---------------------------------------------------------------------
      1         16           0       -1.814635   -0.160739   -0.000000
      2          6           0       -0.039783    0.038998   -0.000000
      3         17           0        0.573978    0.899952    1.456443
      4         17           0        0.573978    0.899952   -1.456443
      5         17           0        0.573978   -1.662384    0.000000
 ---------------------------------------------------------------------

 SCF Done:  E(UHF) =  -1814.17586680     A.U. after    2 cycles

 The electronic state is 2-A'.
 Alpha  occ. eigenvalues -- -105.61230-105.60492-105.60491 -94.01976 -11.48136
 Alpha  occ. eigenvalues --  -10.66027 -10.65311 -10.65306  -8.30079  -7.83049
 Alpha  occ. eigenvalues --   -7.82572  -7.82493  -7.82270  -7.82264  -7.81816
 Alpha  occ. eigenvalues --   -7.81815  -7.81802  -7.81800  -6.29224  -6.27468
 Alpha  occ. eigenvalues --   -6.27090  -1.23875  -1.08541  -1.07580  -1.05773
 Alpha  occ. eigenvalues --   -0.81201  -0.66290  -0.65325  -0.63540  -0.54650
 Alpha  occ. eigenvalues --   -0.52737  -0.49560  -0.48633  -0.48161  -0.46860
 Alpha  occ. eigenvalues --   -0.46244  -0.42147
 Alpha virt. eigenvalues --    0.05073   0.07384   0.08222   0.08475   0.08612
 Alpha virt. eigenvalues --    0.10182   0.10582   0.12815   0.14271   0.14596
 Alpha virt. eigenvalues --    0.17571   0.17643   0.18454   0.18718   0.18960

  Beta  occ. eigenvalues -- -105.61126-105.60480-105.60479 -94.01058 -11.48332
  Beta  occ. eigenvalues --  -10.65915 -10.65298 -10.65293  -8.29023  -7.82805
  Beta  occ. eigenvalues --   -7.82431  -7.82351  -7.82230  -7.82224  -7.81802
  Beta  occ. eigenvalues --   -7.81799  -7.81791  -7.81790  -6.26964  -6.26540
  Beta  occ. eigenvalues --   -6.25132  -1.22993  -1.07887  -1.07490  -0.99256
  Beta  occ. eigenvalues --   -0.79295  -0.65210  -0.64809  -0.62117  -0.52522
  Beta  occ. eigenvalues --   -0.52496  -0.48521  -0.48463  -0.47410  -0.46797
  Beta  occ. eigenvalues --   -0.40084
  Beta virt. eigenvalues --   -0.03058   0.05309   0.07493   0.08565   0.08602
  Beta virt. eigenvalues --    0.08782   0.10605   0.10943   0.13154   0.14650
  Beta virt. eigenvalues --    0.14692   0.17629   0.18150   0.18729   0.18962

 Mulliken charges and spin densities:
               1          2
     1  S    0.629808   1.047512
     2  C   -1.399592  -0.103671
     3  Cl   0.257019   0.005006
     4  Cl   0.257019   0.005006
     5  Cl   0.255747   0.046146
 Sum of Mulliken charges =  -0.00000   1.00000

 Dipole moment (field-independent basis, Debye):
    X=             -0.5854    Y=             -0.0729    Z=             -0.0000  Tot=              0.5899
                          Isotropic Fermi Contact Couplings
        Atom                 a.u.       MegaHertz       Gauss      10(-4) cm-1
     1  S(33)              0.20518      70.47296      25.14650      23.50725
     2  C(13)             -0.03378     -37.97693     -13.55111     -12.66774
     3  Cl(35)             0.00189       0.82761       0.29531       0.27606
     4  Cl(35)             0.00189       0.82761       0.29531       0.27606
     5  Cl(35)             0.05539      24.28565       8.66572       8.10082
 --------------------------------------------------------
       Center         ----  Spin Dipole Couplings  ----
                      3XX-RR        3YY-RR        3ZZ-RR

 Normal termination of Gaussian 16 at Wed Apr  9 00:16:39 2025.
