 Gaussian 16, Revision C.01,

 ----------------------------------------------------------------------
 #t hf aug-cc-pvdz symm=none int=(grid=ultrafine) guess=(read,tcheck) s
 table=(opt,rrhf)
 ----------------------------------------------------------------------
 -----
 title
 -----
 Symbolic Z-matrix:
 Charge =  0 Multiplicity = 1

 SCF Done:  E(RHF) =  -857.821742011     A.U. after   16 cycles
 Normal termination of Gaussian 16 at Tue Apr  8 22:52:38 2025.
 Gaussian 16:  ES64L-G16RevC.01  3-Jul-2019

 ----------------------------------------------------------------------
 #t hf aug-cc-pvdz iop(5/13=1,5/36=2,99/5=2) pseudo=read geom=check gue
 ss=(read,tcheck) scf=(maxcycle=1)
 ----------------------------------------------------------------------
 -----
 title
 -----
 Structure from the checkpoint file:  "BDE49_expt_1583_mol1.chk"
 Charge =  0 Multiplicity = 1

                         Standard orientation:
 ---------------------------------------------------------------------
 Center     Atomic      Atomic             Coordinates (Angstroms)
 Number     Number       Type             X           Y           Z
 ---------------------------------------------------------------------
      1          6           0       -0.000000    1.405975    0.513572
      2          6           0        0.879889    2.458936    0.778556
      3          6           0       -0.902601    1.508219   -0.550772
      4          6           0       -0.908618    2.647861   -1.347944
      5          6           0        0.850741    3.608068   -0.010093
      6          6           0       -0.037389    3.703728   -1.077812
      7          1           0       -1.593193    0.698142   -0.750830
      8          1           0       -1.606645    2.717623   -2.174848
      9          1           0        1.586782    2.373146    1.595387
     10          1           0        1.534792    4.421507    0.204450
     11          1           0       -0.052142    4.593430   -1.696773
     12         16           0       -0.000000   -0.000000    1.623696
     13          6           0       -0.000000   -1.405975    0.513572
     14          6           0       -0.879889   -2.458936    0.778556
     15          6           0       -0.850741   -3.608068   -0.010093
     16          6           0        0.037389   -3.703728   -1.077812
     17          6           0        0.908618   -2.647861   -1.347944
     18          6           0        0.902601   -1.508219   -0.550772
     19          1           0       -1.586782   -2.373146    1.595387
     20          1           0       -1.534792   -4.421507    0.204450
     21          1           0        0.052142   -4.593430   -1.696773
     22          1           0        1.606645   -2.717623   -2.174848
     23          1           0        1.593193   -0.698142   -0.750830
 ---------------------------------------------------------------------

 SCF Done:  E(RHF) =  -858.352518308     A.U. after    2 cycles

 The electronic state is 1-A.
 Alpha  occ. eigenvalues --  -93.95685 -11.27778 -11.27766 -11.25108 -11.25105
 Alpha  occ. eigenvalues --  -11.25051 -11.25050 -11.25010 -11.25007 -11.24957
 Alpha  occ. eigenvalues --  -11.24951 -11.24871 -11.24867  -8.23742  -6.21575
 Alpha  occ. eigenvalues --   -6.21403  -6.21199  -1.17603  -1.16162  -1.08257
 Alpha  occ. eigenvalues --   -1.02653  -1.02474  -1.02184  -0.95095  -0.84542
 Alpha  occ. eigenvalues --   -0.84442  -0.83442  -0.80295  -0.72337  -0.70651
 Alpha  occ. eigenvalues --   -0.65657  -0.65335  -0.64731  -0.63674  -0.60728
 Alpha  occ. eigenvalues --   -0.60691  -0.59562  -0.55952  -0.52643  -0.52515
 Alpha  occ. eigenvalues --   -0.51597  -0.51475  -0.49792  -0.46362  -0.41038
 Alpha  occ. eigenvalues --   -0.36003  -0.35407  -0.35058  -0.30962
 Alpha virt. eigenvalues --    0.03215   0.03313   0.03729   0.03834   0.04448
 Alpha virt. eigenvalues --    0.04991   0.05865   0.05882   0.07428   0.07884
 Alpha virt. eigenvalues --    0.08712   0.09069   0.09231   0.10036   0.10894

 Mulliken charges:
               1
     1  C    0.394048
     2  C   -0.094783
     3  C    0.051023
     4  C    0.228693
     5  C    0.238274
     6  C    0.195262
     7  H   -0.240647
     8  H   -0.240837
     9  H   -0.231784
    10  H   -0.218623
    11  H   -0.211896
    12  S    0.262540
    13  C    0.394048
    14  C   -0.094783
    15  C    0.238274
    16  C    0.195262
    17  C    0.228693
    18  C    0.051023
    19  H   -0.231784
    20  H   -0.218623
    21  H   -0.211896
    22  H   -0.240837
    23  H   -0.240647
 Sum of Mulliken charges =  -0.00000

 Dipole moment (field-independent basis, Debye):
    X=             -0.0000    Y=             -0.0000    Z=             -1.8130  Tot=              1.8130

 Test job not archived.
 1\1\GINC-SE127\SP\RHF\Aug-CC-pVDZ\C12H10S1\OHZDE\08-Apr-2025\0\\#t hf
 aug-cc-pvdz iop(5/13=1,5/36=2,99/5=2) pseudo=read geom=check guess=(re
 ad,tcheck) scf=(maxcycle=1)\\title\\0,1\C,0,0.,1.405975,0.513572\C,0,0
 .879889,2.458936,0.778556\C,0,-0.902601,1.508219,-0.550772\C,0,-0.9086
 18,2.647861,-1.347944\C,0,0.850741,3.608068,-0.010093\C,0,-0.037389,3.
 703728,-1.077812\H,0,-1.593193,0.698142,-0.75083\H,0,-1.606645,2.71762
 3,-2.174848\H,0,1.586782,2.373146,1.595387\H,0,1.534792,4.421507,0.204
 45\H,0,-0.052142,4.59343,-1.696773\S,0,0.,0.,1.623696\C,0,0.,-1.405975

 Normal termination of Gaussian 16 at Tue Apr  8 22:52:51 2025.
