 Gaussian 16, Revision C.01,

 ----------------------------------------------------------------------
 #t hf aug-cc-pvdz symm=none int=(grid=ultrafine) guess=(read,tcheck) s
 table=(opt,rrhf)
 ----------------------------------------------------------------------
 -----
 title
 -----
 Symbolic Z-matrix:
 Charge =  0 Multiplicity = 1

 SCF Done:  E(RHF) =  -1020.05701080     A.U. after   14 cycles
 Normal termination of Gaussian 16 at Tue Apr  8 23:55:19 2025.
 Gaussian 16:  ES64L-G16RevC.01  3-Jul-2019

 ----------------------------------------------------------------------
 #t hf aug-cc-pvdz iop(5/13=1,5/36=2,99/5=2) pseudo=read geom=check gue
 ss=(read,tcheck) scf=(maxcycle=1)
 ----------------------------------------------------------------------
 -----
 title
 -----
 Structure from the checkpoint file:  "BDE49_nonexpt_197_mol1.chk"
 Charge =  0 Multiplicity = 1

                         Standard orientation:
 ---------------------------------------------------------------------
 Center     Atomic      Atomic             Coordinates (Angstroms)
 Number     Number       Type             X           Y           Z
 ---------------------------------------------------------------------
      1         17           0        0.867417   -1.517322   -0.000258
      2         17           0        0.867215    1.517422   -0.000244
      3          5           0       -0.023721   -0.000009    0.000973
      4          6           0       -1.527237   -0.000110    0.000501
      5          6           0       -2.734638   -0.000177    0.000134
      6          1           0       -3.798882    0.000047   -0.000138
 ---------------------------------------------------------------------

 SCF Done:  E(RHF) =  -1020.30794964     A.U. after    2 cycles

 The electronic state is 1-A.
 Alpha  occ. eigenvalues -- -105.58260-105.58259 -11.28618 -11.25382 -10.63292
 Alpha  occ. eigenvalues --  -10.63264  -7.80183  -7.80161  -7.79883  -7.79880
 Alpha  occ. eigenvalues --   -7.79839  -7.79829  -7.73721  -1.12017  -1.06432
 Alpha  occ. eigenvalues --   -1.05609  -0.81221  -0.73574  -0.63951  -0.59917
 Alpha  occ. eigenvalues --   -0.54103  -0.49498  -0.48281  -0.47575  -0.43985
 Alpha  occ. eigenvalues --   -0.43223
 Alpha virt. eigenvalues --    0.02939   0.03396   0.05184   0.05296   0.05453
 Alpha virt. eigenvalues --    0.06592   0.09138   0.12127   0.12747   0.13397
 Alpha virt. eigenvalues --    0.15053   0.15176   0.15365   0.16957   0.17207

 Mulliken charges:
               1
     1  Cl  -0.278302
     2  Cl  -0.278296
     3  B    0.356462
     4  C   -0.143984
     5  C    0.689204
     6  H   -0.345085
 Sum of Mulliken charges =  -0.00000

 Dipole moment (field-independent basis, Debye):
    X=             -2.0480    Y=              0.0002    Z=              0.0016  Tot=              2.0480

 Test job not archived.
 1\1\GINC-SE253\SP\RHF\Aug-CC-pVDZ\C2H1B1Cl2\OHZDE\08-Apr-2025\0\\#t hf
  aug-cc-pvdz iop(5/13=1,5/36=2,99/5=2) pseudo=read geom=check guess=(r
 ead,tcheck) scf=(maxcycle=1)\\title\\0,1\Cl,0,0.867416,1.517322,0.0002
 58\Cl,0,0.867215,-1.517422,0.000244\B,0,-0.023721,0.000009,-0.000973\C
 ,0,-1.527237,0.000109,-0.000501\C,0,-2.734638,0.000176,-0.000134\H,0,-
 3.798882,-0.000049,0.000138\\Version=ES64L-G16RevC.01\State=1-A\HF=-10
 20.3079496\RMSD=3.002e-02\Dipole=-0.8057606,-0.0000914,-0.0006256\Quad
 rupole=4.9155705,-3.2360487,-1.6795218,0.0005528,-0.0008349,-0.0000072

 Normal termination of Gaussian 16 at Tue Apr  8 23:55:21 2025.
