 Gaussian 16, Revision C.01,

 ----------------------------------------------------------------------
 #t hf aug-cc-pvdz symm=none int=(grid=ultrafine) guess=(read,tcheck) s
 table=(opt,rrhf)
 ----------------------------------------------------------------------
 -----
 title
 -----
 Symbolic Z-matrix:
 Charge =  0 Multiplicity = 1

 SCF Done:  E(RHF) =  -1606.70462820     A.U. after   13 cycles
 Normal termination of Gaussian 16 at Wed Apr  9 00:16:34 2025.
 Gaussian 16:  ES64L-G16RevC.01  3-Jul-2019

 ----------------------------------------------------------------------
 #t hf aug-cc-pvdz iop(5/13=1,5/36=2,99/5=2) pseudo=read geom=check gue
 ss=(read,tcheck) scf=(maxcycle=1)
 ----------------------------------------------------------------------
 -----
 title
 -----
 Structure from the checkpoint file:  "BDE49_nonexpt_2533_mol1.chk"
 Charge =  0 Multiplicity = 1

                         Standard orientation:
 ---------------------------------------------------------------------
 Center     Atomic      Atomic             Coordinates (Angstroms)
 Number     Number       Type             X           Y           Z
 ---------------------------------------------------------------------
      1         17           0        1.931598   -0.870440    0.194129
      2         16           0        1.048965    0.889932   -0.491372
      3         14           0       -0.858999    0.748303    0.497239
      4         17           0       -2.085804   -0.732575   -0.266773
      5          1           0       -0.677077    0.472601    1.929098
      6          1           0       -1.458883    2.063492    0.206447
 ---------------------------------------------------------------------

 SCF Done:  E(RHF) =  -1606.95319689     A.U. after    2 cycles

 The electronic state is 1-A.
 Alpha  occ. eigenvalues -- -105.60037-105.57528 -94.01543 -69.62477 -10.64685
 Alpha  occ. eigenvalues --  -10.62551  -8.29496  -7.81632  -7.81172  -7.81140
 Alpha  occ. eigenvalues --   -7.79438  -7.79115  -7.79108  -6.28923  -6.27286
 Alpha  occ. eigenvalues --   -6.27032  -6.26791  -4.04330  -4.04239  -4.04143
 Alpha  occ. eigenvalues --   -1.12817  -1.07140  -0.95126  -0.74806  -0.58578
 Alpha  occ. eigenvalues --   -0.57046  -0.56591  -0.53379  -0.52410  -0.49309
 Alpha  occ. eigenvalues --   -0.47412  -0.44447  -0.39742
 Alpha virt. eigenvalues --    0.02708   0.04032   0.05061   0.05349   0.06015
 Alpha virt. eigenvalues --    0.09111   0.09582   0.10845   0.11999   0.12825
 Alpha virt. eigenvalues --    0.13731   0.14539   0.15079   0.16084   0.17120

 Mulliken charges:
               1
     1  Cl  -0.286714
     2  S   -0.379443
     3  Si   1.504162
     4  Cl  -0.518509
     5  H   -0.133644
     6  H   -0.185853
 Sum of Mulliken charges =  -0.00000

 Dipole moment (field-independent basis, Debye):
    X=             -0.6726    Y=              1.5830    Z=              0.8523  Tot=              1.9195

 Test job not archived.
 1\1\GINC-SE094\SP\RHF\Aug-CC-pVDZ\Cl2H2S1Si1\OHZDE\09-Apr-2025\0\\#t h
 f aug-cc-pvdz iop(5/13=1,5/36=2,99/5=2) pseudo=read geom=check guess=(
 read,tcheck) scf=(maxcycle=1)\\title\\0,1\Cl,0,1.931598,-0.87044,0.194
 129\S,0,1.048965,0.889932,-0.491372\Si,0,-0.858999,0.748303,0.497239\C
 l,0,-2.085804,-0.732574,-0.266773\H,0,-0.677077,0.472601,1.929098\H,0,
 -1.458883,2.063492,0.206447\\Version=ES64L-G16RevC.01\State=1-A\HF=-16
 06.9531969\RMSD=3.299e-03\Dipole=-0.2646137,0.6227856,0.3353335\Quadru
 pole=-1.7640379,1.4797099,0.284328,-1.69747,-0.8558368,-0.1113786\PG=C

 Normal termination of Gaussian 16 at Wed Apr  9 00:16:36 2025.
