 Gaussian 16, Revision C.01,

 ----------------------------------------------------------------------
 #t hf aug-cc-pvdz symm=none int=(grid=ultrafine) guess=(read,tcheck) s
 table=(opt,rrhf)
 ----------------------------------------------------------------------
 -----
 title
 -----
 Symbolic Z-matrix:
 Charge =  0 Multiplicity = 1

 SCF Done:  E(RHF) =  -979.805941450     A.U. after   14 cycles
 Normal termination of Gaussian 16 at Tue Apr  8 23:46:57 2025.
 Gaussian 16:  ES64L-G16RevC.01  3-Jul-2019

 ----------------------------------------------------------------------
 #t hf aug-cc-pvdz iop(5/13=1,5/36=2,99/5=2) pseudo=read geom=check gue
 ss=(read,tcheck) scf=(maxcycle=1)
 ----------------------------------------------------------------------
 -----
 title
 -----
 Structure from the checkpoint file:  "BDE49_nonexpt_1769_mol1.chk"
 Charge =  0 Multiplicity = 1

                         Standard orientation:
 ---------------------------------------------------------------------
 Center     Atomic      Atomic             Coordinates (Angstroms)
 Number     Number       Type             X           Y           Z
 ---------------------------------------------------------------------
      1          6           0        1.003598   -1.205960    0.171147
      2          6           0        2.344766   -1.206978   -0.202351
      3          6           0        3.015831   -0.000019   -0.389977
      4          6           0        2.344781    1.206956   -0.202407
      5          6           0        1.003612    1.205972    0.171091
      6          6           0        0.309976    0.000015    0.362059
      7          1           0        0.494146   -2.153316    0.316581
      8          1           0        2.866185   -2.146771   -0.345369
      9         14           0       -1.483656    0.000038    0.856679
     10          1           0        2.866212    2.146736   -0.345469
     11          1           0        4.060663   -0.000033   -0.679896
     12          1           0        0.494172    2.153340    0.316481
     13         17           0       -2.736124   -0.000032   -0.820546
     14          1           0       -1.815729    1.219784    1.617991
     15          1           0       -1.815736   -1.219642    1.618095
 ---------------------------------------------------------------------

 SCF Done:  E(RHF) =  -980.154671584     A.U. after    2 cycles

 The electronic state is 1-A.
 Alpha  occ. eigenvalues -- -105.54974 -69.57777 -11.26110 -11.26102 -11.25924
 Alpha  occ. eigenvalues --  -11.25391 -11.25374 -11.24453 -10.59963  -7.76849
 Alpha  occ. eigenvalues --   -7.76547  -7.76546  -6.24441  -3.99865  -3.99731
 Alpha  occ. eigenvalues --   -3.99728  -1.16480  -1.04844  -1.02923  -1.02439
 Alpha  occ. eigenvalues --   -0.84731  -0.84561  -0.75523  -0.70344  -0.65398
 Alpha  occ. eigenvalues --   -0.64746  -0.61229  -0.57901  -0.54175  -0.53230
 Alpha  occ. eigenvalues --   -0.51568  -0.51281  -0.49861  -0.44976  -0.44792
 Alpha  occ. eigenvalues --   -0.35996  -0.35777
 Alpha virt. eigenvalues --    0.03174   0.03532   0.03705   0.05045   0.05223
 Alpha virt. eigenvalues --    0.05352   0.07179   0.07577   0.08523   0.08935
 Alpha virt. eigenvalues --    0.10009   0.10053   0.10793   0.12236   0.13157

 Mulliken charges:
               1
     1  C    0.414636
     2  C    0.529815
     3  C    0.238643
     4  C    0.529811
     5  C    0.414619
     6  C   -1.059435
     7  H   -0.303555
     8  H   -0.212830
     9  Si   1.075481
    10  H   -0.212829
    11  H   -0.205454
    12  H   -0.303555
    13  Cl  -0.607388
    14  H   -0.148980
    15  H   -0.148978
 Sum of Mulliken charges =  -0.00000

 Dipole moment (field-independent basis, Debye):
    X=              2.4124    Y=              0.0000    Z=              1.0331  Tot=              2.6243

 Test job not archived.
 1\1\GINC-SE424\SP\RHF\Aug-CC-pVDZ\C6H7Cl1Si1\OHZDE\08-Apr-2025\0\\#t h
 f aug-cc-pvdz iop(5/13=1,5/36=2,99/5=2) pseudo=read geom=check guess=(
 read,tcheck) scf=(maxcycle=1)\\title\\0,1\C,0,1.003598,-1.20596,0.1711
 47\C,0,2.344766,-1.206978,-0.202351\C,0,3.015831,-0.000019,-0.389977\C
 ,0,2.344781,1.206956,-0.202407\C,0,1.003612,1.205972,0.171091\C,0,0.30
 9976,0.000015,0.362059\H,0,0.494146,-2.153316,0.316581\H,0,2.866185,-2
 .146771,-0.345369\Si,0,-1.483656,0.000038,0.856679\H,0,2.866212,2.1467
 36,-0.345469\H,0,4.060663,-0.000033,-0.679896\H,0,0.494172,2.15334,0.3

 Normal termination of Gaussian 16 at Tue Apr  8 23:47:03 2025.
