 Gaussian 16, Revision C.01,

 ----------------------------------------------------------------------
 #t hf aug-cc-pvdz symm=none int=(grid=ultrafine) guess=(read,tcheck) s
 table=(opt,rrhf)
 ----------------------------------------------------------------------
 -----
 title
 -----
 Symbolic Z-matrix:
 Charge =  0 Multiplicity = 1

 SCF Done:  E(RHF) =  -1060.78363255     A.U. after   15 cycles
 Normal termination of Gaussian 16 at Tue Apr  8 23:41:26 2025.
 Gaussian 16:  ES64L-G16RevC.01  3-Jul-2019

 ----------------------------------------------------------------------
 #t hf aug-cc-pvdz iop(5/13=1,5/36=2,99/5=2) pseudo=read geom=check gue
 ss=(read,tcheck) scf=(maxcycle=1)
 ----------------------------------------------------------------------
 -----
 title
 -----
 Structure from the checkpoint file:  "BDE49_nonexpt_1663_mol1.chk"
 Charge =  0 Multiplicity = 1

                         Standard orientation:
 ---------------------------------------------------------------------
 Center     Atomic      Atomic             Coordinates (Angstroms)
 Number     Number       Type             X           Y           Z
 ---------------------------------------------------------------------
      1         14           0       -0.614783   -1.142135   -0.194386
      2          7           0       -1.968231    0.161035    0.014205
      3         15           0        1.348898   -0.010222   -0.039225
      4          8           0       -1.679281    1.353346   -0.147157
      5          8           0       -3.089688   -0.240817    0.272770
      6          8           0        2.533379   -0.763129   -0.463513
      7          8           0        1.085706    1.332371   -0.853668
      8          1           0        0.211007    1.716230   -0.646930
      9          8           0        1.332113    0.414835    1.516846
     10          1           0        2.195643    0.315362    1.939901
     11          1           0       -0.863250   -1.656372   -1.550542
     12          1           0       -0.850137   -2.132074    0.865704
 ---------------------------------------------------------------------

 SCF Done:  E(RHF) =  -1061.27404395     A.U. after    2 cycles

 The electronic state is 1-A.
 Alpha  occ. eigenvalues --  -84.45051 -69.63073 -20.62646 -20.61816 -20.61408
 Alpha  occ. eigenvalues --  -20.60426 -20.52669 -15.78651  -6.90379  -6.29974
 Alpha  occ. eigenvalues --   -4.44494  -4.43832  -4.42689  -4.05347  -4.05208
 Alpha  occ. eigenvalues --   -4.05179  -1.68604  -1.55033  -1.52697  -1.49076
 Alpha  occ. eigenvalues --   -1.40855  -1.02816  -0.88571  -0.85219  -0.77244
 Alpha  occ. eigenvalues --   -0.76364  -0.75398  -0.73602  -0.67186  -0.65480
 Alpha  occ. eigenvalues --   -0.63087  -0.57309  -0.56746  -0.54178  -0.52356
 Alpha  occ. eigenvalues --   -0.52052  -0.49941  -0.48055  -0.47697  -0.44231
 Alpha virt. eigenvalues --    0.02401   0.02935   0.03887   0.04323   0.05641
 Alpha virt. eigenvalues --    0.06136   0.06653   0.08212   0.08840   0.09860
 Alpha virt. eigenvalues --    0.10871   0.11997   0.13280   0.14348   0.14987

 Mulliken charges:
               1
     1  Si   0.905008
     2  N    1.807083
     3  P    3.096140
     4  O   -1.173376
     5  O   -1.195257
     6  O   -1.454568
     7  O   -1.466464
     8  H    0.543458
     9  O   -1.276247
    10  H    0.383267
    11  H   -0.125874
    12  H   -0.043170
 Sum of Mulliken charges =  -0.00000

 Dipole moment (field-independent basis, Debye):
    X=             -0.3129    Y=             -1.4247    Z=              1.5303  Tot=              2.1141

 Test job not archived.
 1\1\GINC-SE457\SP\RHF\Aug-CC-pVDZ\H4N1O5P1Si1\OHZDE\08-Apr-2025\0\\#t
 hf aug-cc-pvdz iop(5/13=1,5/36=2,99/5=2) pseudo=read geom=check guess=
 (read,tcheck) scf=(maxcycle=1)\\title\\0,1\Si,0,-0.614783,-1.142135,-0
 .194386\N,0,-1.968231,0.161035,0.014205\P,0,1.348898,-0.010222,-0.0392
 25\O,0,-1.679281,1.353346,-0.147157\O,0,-3.089688,-0.240817,0.27277\O,
 0,2.533379,-0.763129,-0.463513\O,0,1.085706,1.332371,-0.853668\H,0,0.2
 11007,1.71623,-0.64693\O,0,1.332113,0.414835,1.516846\H,0,2.195643,0.3
 15362,1.939901\H,0,-0.86325,-1.656372,-1.550542\H,0,-0.850137,-2.13207

 Normal termination of Gaussian 16 at Tue Apr  8 23:41:32 2025.
