 Gaussian 16, Revision C.01,

 ----------------------------------------------------------------------
 #t hf aug-cc-pvdz symm=none int=(grid=ultrafine) guess=(read,tcheck) s
 table=(opt,rrhf)
 ----------------------------------------------------------------------
 -----
 title
 -----
 Symbolic Z-matrix:
 Charge =  0 Multiplicity = 1

 SCF Done:  E(RHF) =  -540.880664901     A.U. after   12 cycles
 Normal termination of Gaussian 16 at Wed Apr  9 00:35:00 2025.
 Gaussian 16:  ES64L-G16RevC.01  3-Jul-2019

 ----------------------------------------------------------------------
 #t hf aug-cc-pvdz iop(5/13=1,5/36=2,99/5=2) pseudo=read geom=check gue
 ss=(read,tcheck) scf=(maxcycle=1)
 ----------------------------------------------------------------------
 -----
 title
 -----
 Structure from the checkpoint file:  "BDE49_nonexpt_442_mol1.chk"
 Charge =  0 Multiplicity = 1

                         Standard orientation:
 ---------------------------------------------------------------------
 Center     Atomic      Atomic             Coordinates (Angstroms)
 Number     Number       Type             X           Y           Z
 ---------------------------------------------------------------------
      1          6           0        0.407087   -1.600375    0.481087
      2          8           0        1.363809   -1.186995   -0.456550
      3          6           0        2.063429    0.000062   -0.173526
      4          8           0        1.363621    1.186981   -0.456678
      5          6           0        0.406995    1.600454    0.481017
      6          8           0       -0.911212    1.233557    0.140220
      7          5           0       -1.456768   -0.000041   -0.024898
      8          9           0       -2.742495   -0.000077   -0.389491
      9          8           0       -0.911093   -1.233609    0.140047
     10          1           0        2.924191    0.000089   -0.837728
     11          1           0        2.383987    0.000147    0.880399
     12          1           0        0.412817    2.689109    0.476624
     13          1           0        0.663164    1.229686    1.482957
     14          1           0        0.663103   -1.229432    1.483003
     15          1           0        0.412979   -2.689030    0.476867
 ---------------------------------------------------------------------

 SCF Done:  E(RHF) =  -541.408359053     A.U. after    2 cycles

 The electronic state is 1-A.
 Alpha  occ. eigenvalues --  -26.44600 -20.58140 -20.58138 -20.56914 -20.56911
 Alpha  occ. eigenvalues --  -11.37261 -11.37259 -11.36704  -7.70999  -1.58687
 Alpha  occ. eigenvalues --   -1.54902  -1.51133  -1.48332  -1.44697  -1.02037
 Alpha  occ. eigenvalues --   -0.95439  -0.90037  -0.80001  -0.75453  -0.74723
 Alpha  occ. eigenvalues --   -0.73698  -0.70480  -0.69116  -0.68185  -0.65495
 Alpha  occ. eigenvalues --   -0.63079  -0.60475  -0.58459  -0.56025  -0.53425
 Alpha  occ. eigenvalues --   -0.51027  -0.50524  -0.48354  -0.47984  -0.45951
 Alpha virt. eigenvalues --    0.02772   0.03817   0.03895   0.04755   0.05927
 Alpha virt. eigenvalues --    0.06600   0.06819   0.07498   0.07956   0.10666
 Alpha virt. eigenvalues --    0.11430   0.12790   0.13585   0.14159   0.14206

 Mulliken charges:
               1
     1  C    1.327360
     2  O   -1.244408
     3  C    1.038035
     4  O   -1.244404
     5  C    1.327298
     6  O   -1.216199
     7  B    1.726016
     8  F   -0.775052
     9  O   -1.216206
    10  H   -0.055061
    11  H    0.251258
    12  H   -0.073999
    13  H    0.114699
    14  H    0.114679
    15  H   -0.074016
 Sum of Mulliken charges =  -0.00000

 Dipole moment (field-independent basis, Debye):
    X=              3.5129    Y=              0.0004    Z=              3.0840  Tot=              4.6746

 Test job not archived.
 1\1\GINC-SE229\SP\RHF\Aug-CC-pVDZ\C3H6B1F1O4\OHZDE\09-Apr-2025\0\\#t h
 f aug-cc-pvdz iop(5/13=1,5/36=2,99/5=2) pseudo=read geom=check guess=(
 read,tcheck) scf=(maxcycle=1)\\title\\0,1\C,0,0.407087,-1.600375,0.481
 087\O,0,1.363809,-1.186994,-0.45655\C,0,2.063429,0.000063,-0.173526\O,
 0,1.36362,1.186982,-0.456678\C,0,0.406994,1.600454,0.481017\O,0,-0.911
 213,1.233557,0.14022\B,0,-1.456768,-0.000041,-0.024898\F,0,-2.742495,-
 0.000078,-0.389491\O,0,-0.911093,-1.233609,0.140047\H,0,2.924191,0.000
 09,-0.837728\H,0,2.383987,0.000148,0.880399\H,0,0.412816,2.689109,0.47

 Normal termination of Gaussian 16 at Wed Apr  9 00:35:07 2025.
