 Gaussian 16, Revision C.01,

 ----------------------------------------------------------------------
 #t hf aug-cc-pvdz symm=none int=(grid=ultrafine) guess=(read,tcheck) s
 table=opt
 ----------------------------------------------------------------------
 -----
 title
 -----
 Symbolic Z-matrix:
 Charge =  0 Multiplicity = 2

 SCF Done:  E(UHF) =  -117.649025136     A.U. after   15 cycles
 Normal termination of Gaussian 16 at Tue Apr  8 22:31:21 2025.
 Gaussian 16:  ES64L-G16RevC.01  3-Jul-2019

 ----------------------------------------------------------------------
 #t hf aug-cc-pvdz iop(5/13=1,5/36=2,99/5=2) pseudo=read geom=check gue
 ss=(read,tcheck) scf=(maxcycle=1)
 ----------------------------------------------------------------------
 -----
 title
 -----
 Structure from the checkpoint file:  "BDE49_expt_1039_mol2.chk"
 Charge =  0 Multiplicity = 2

                         Standard orientation:
 ---------------------------------------------------------------------
 Center     Atomic      Atomic             Coordinates (Angstroms)
 Number     Number       Type             X           Y           Z
 ---------------------------------------------------------------------
      1          6           0        0.000000    0.533370   -0.045291
      2          6           0        1.297865   -0.197759    0.002780
      3          1           0        1.306988   -1.049192   -0.689561
      4          1           0        1.499564   -0.617961    1.003188
      5          1           0        2.142480    0.449646   -0.245934
      6          6           0       -1.297865   -0.197759    0.002780
      7          1           0        0.000000    1.607910    0.102995
      8          1           0       -1.306990   -1.049189   -0.689565
      9          1           0       -2.142480    0.449648   -0.245929
     10          1           0       -1.499562   -0.617966    1.003187
 ---------------------------------------------------------------------

 SCF Done:  E(UHF) =  -117.781913917     A.U. after    2 cycles

 The electronic state is 2-A.
 Alpha  occ. eigenvalues --  -11.23360 -11.22470 -11.22468  -1.06468  -0.93722
 Alpha  occ. eigenvalues --   -0.79352  -0.62638  -0.60405  -0.57285  -0.54177
 Alpha  occ. eigenvalues --   -0.50764  -0.49880  -0.33032
 Alpha virt. eigenvalues --    0.03936   0.04389   0.04405   0.05097   0.07252
 Alpha virt. eigenvalues --    0.07273   0.08111   0.12230   0.13285   0.15452
 Alpha virt. eigenvalues --    0.15711   0.15741   0.16828   0.17400   0.17614

  Beta  occ. eigenvalues --  -11.22804 -11.22804 -11.20862  -1.02633  -0.93706
  Beta  occ. eigenvalues --   -0.74454  -0.61784  -0.56362  -0.56306  -0.53087
  Beta  occ. eigenvalues --   -0.50316  -0.49128
  Beta virt. eigenvalues --    0.03980   0.04403   0.04443   0.05119   0.07263
  Beta virt. eigenvalues --    0.07283   0.08121   0.10169   0.12695   0.14499
  Beta virt. eigenvalues --    0.15473   0.15748   0.16781   0.17441   0.17662

 Mulliken charges and spin densities:
               1          2
     1  C    0.076274   1.467879
     2  C   -0.475411  -0.253196
     3  H    0.167042   0.016183
     4  H    0.209884   0.043359
     5  H    0.130663   0.003952
     6  C   -0.475413  -0.253196
     7  H   -0.140629  -0.088475
     8  H    0.167043   0.016183
     9  H    0.130663   0.003952
    10  H    0.209885   0.043359
 Sum of Mulliken charges =  -0.00000   1.00000

 Dipole moment (field-independent basis, Debye):
    X=              0.0000    Y=             -0.0573    Z=              0.1522  Tot=              0.1626
                          Isotropic Fermi Contact Couplings
        Atom                 a.u.       MegaHertz       Gauss      10(-4) cm-1
     1  C(13)              0.22689     255.07249      91.01621      85.08302
     2  C(13)             -0.06057     -68.09687     -24.29866     -22.71467
     3  H(1)               0.01105      49.39942      17.62694      16.47787
     4  H(1)               0.02467     110.28743      39.35330      36.78793
     5  H(1)               0.00411      18.39300       6.56308       6.13524
     6  C(13)             -0.06057     -68.09695     -24.29868     -22.71470
     7  H(1)              -0.02434    -108.78802     -38.81827     -36.28778
     8  H(1)               0.01105      49.39996      17.62713      16.47805

 Normal termination of Gaussian 16 at Tue Apr  8 22:31:23 2025.
