 Gaussian 16, Revision C.01,

 ----------------------------------------------------------------------
 #t hf aug-cc-pvdz symm=none int=(grid=ultrafine) guess=(read,tcheck) s
 table=(opt,rrhf)
 ----------------------------------------------------------------------
 -----
 title
 -----
 Symbolic Z-matrix:
 Charge =  0 Multiplicity = 1

 SCF Done:  E(RHF) =  -469.248461164     A.U. after   13 cycles
 Normal termination of Gaussian 16 at Wed Apr  9 00:35:36 2025.
 Gaussian 16:  ES64L-G16RevC.01  3-Jul-2019

 ----------------------------------------------------------------------
 #t hf aug-cc-pvdz iop(5/13=1,5/36=2,99/5=2) pseudo=read geom=check gue
 ss=(read,tcheck) scf=(maxcycle=1)
 ----------------------------------------------------------------------
 -----
 title
 -----
 Structure from the checkpoint file:  "BDE49_nonexpt_440_mol1.chk"
 Charge =  0 Multiplicity = 1

                         Standard orientation:
 ---------------------------------------------------------------------
 Center     Atomic      Atomic             Coordinates (Angstroms)
 Number     Number       Type             X           Y           Z
 ---------------------------------------------------------------------
      1          5           0       -0.000001    1.378821   -0.015111
      2          9           0       -0.000000    2.694935    0.213605
      3          8           0       -1.204424    0.760555   -0.120573
      4          8           0        1.204424    0.760556   -0.120574
      5          6           0        0.000001   -1.337455    0.158700
      6          6           0        1.262101   -0.658498   -0.373032
      7          6           0       -1.262101   -0.658498   -0.373032
      8          6           0       -2.544990   -1.186330    0.248346
      9          1           0       -2.524011   -1.055805    1.333303
     10          1           0       -2.673984   -2.248808    0.024801
     11          1           0       -3.404558   -0.640470   -0.145003
     12          1           0       -1.307882   -0.788355   -1.461740
     13          1           0        0.000000   -1.295386    1.254687
     14          1           0       -0.000000   -2.392488   -0.131091
     15          6           0        2.544989   -1.186330    0.248346
     16          1           0        1.307882   -0.788356   -1.461740
     17          1           0        2.524010   -1.055803    1.333303
     18          1           0        3.404558   -0.640470   -0.145003
     19          1           0        2.673985   -2.248807    0.024802
 ---------------------------------------------------------------------

 SCF Done:  E(RHF) =  -469.722861153     A.U. after    2 cycles

 The electronic state is 1-A.
 Alpha  occ. eigenvalues --  -26.44088 -20.55332 -20.55329 -11.30994 -11.30982
 Alpha  occ. eigenvalues --  -11.25060 -11.23732 -11.23724  -7.68741  -1.57775
 Alpha  occ. eigenvalues --   -1.48757  -1.45403  -1.09726  -1.03326  -0.95829
 Alpha  occ. eigenvalues --   -0.85083  -0.83870  -0.75214  -0.71170  -0.70503
 Alpha  occ. eigenvalues --   -0.67828  -0.66135  -0.64138  -0.60770  -0.59156
 Alpha  occ. eigenvalues --   -0.56904  -0.56601  -0.55923  -0.54774  -0.54629
 Alpha  occ. eigenvalues --   -0.53432  -0.52027  -0.47094  -0.45851  -0.45120
 Alpha virt. eigenvalues --    0.02942   0.03272   0.03581   0.04254   0.05602
 Alpha virt. eigenvalues --    0.05758   0.05937   0.06624   0.07318   0.08652
 Alpha virt. eigenvalues --    0.08733   0.09359   0.09392   0.11460   0.13544

 Mulliken charges:
               1
     1  B    1.691448
     2  F   -0.852363
     3  O   -1.482933
     4  O   -1.482933
     5  C   -0.682533
     6  C    0.961121
     7  C    0.961121
     8  C   -0.360696
     9  H    0.215958
    10  H    0.192961
    11  H    0.168963
    12  H    0.099312
    13  H    0.155602
    14  H    0.098473
    15  C   -0.360696
    16  H    0.099313
    17  H    0.215959
    18  H    0.168965
    19  H    0.192958
 Sum of Mulliken charges =  -0.00000

 Dipole moment (field-independent basis, Debye):
    X=              0.0000    Y=             -4.2578    Z=             -0.6041  Tot=              4.3004

 Test job not archived.
 1\1\GINC-SE177\SP\RHF\Aug-CC-pVDZ\C5H10B1F1O2\OHZDE\09-Apr-2025\0\\#t
 hf aug-cc-pvdz iop(5/13=1,5/36=2,99/5=2) pseudo=read geom=check guess=
 (read,tcheck) scf=(maxcycle=1)\\title\\0,1\B,0,0.,1.378821,-0.015111\F
 ,0,0.000001,2.694935,0.213605\O,0,-1.204424,0.760556,-0.120573\O,0,1.2
 04424,0.760556,-0.120574\C,0,0.,-1.337455,0.1587\C,0,1.262101,-0.65849
 8,-0.373032\C,0,-1.262101,-0.658497,-0.373032\C,0,-2.54499,-1.186329,0
 .248346\H,0,-2.524011,-1.055804,1.333303\H,0,-2.673985,-2.248807,0.024
 801\H,0,-3.404558,-0.640469,-0.145003\H,0,-1.307882,-0.788354,-1.46174

 Normal termination of Gaussian 16 at Wed Apr  9 00:35:46 2025.
