 Gaussian 16, Revision C.01,

 ----------------------------------------------------------------------
 #t hf aug-cc-pvdz symm=none int=(grid=ultrafine) guess=(read,tcheck) s
 table=(opt,rrhf)
 ----------------------------------------------------------------------
 -----
 title
 -----
 Symbolic Z-matrix:
 Charge =  0 Multiplicity = 1

 SCF Done:  E(RHF) =  -1258.64552272     A.U. after   15 cycles
 Normal termination of Gaussian 16 at Tue Apr  8 23:41:36 2025.
 Gaussian 16:  ES64L-G16RevC.01  3-Jul-2019

 ----------------------------------------------------------------------
 #t hf aug-cc-pvdz iop(5/13=1,5/36=2,99/5=2) pseudo=read geom=check gue
 ss=(read,tcheck) scf=(maxcycle=1)
 ----------------------------------------------------------------------
 -----
 title
 -----
 Structure from the checkpoint file:  "BDE49_nonexpt_1662_mol1.chk"
 Charge =  0 Multiplicity = 1

                         Standard orientation:
 ---------------------------------------------------------------------
 Center     Atomic      Atomic             Coordinates (Angstroms)
 Number     Number       Type             X           Y           Z
 ---------------------------------------------------------------------
      1         14           0        0.587890   -0.684266   -0.073856
      2         15           0       -1.476227    0.209562    0.171294
      3          7           0        1.779596    0.742578    0.074765
      4          8           0       -1.718573    0.519896    1.583378
      5          8           0       -1.502662    1.364341   -0.920166
      6          8           0        2.941430    0.547978    0.371160
      7          8           0        1.286614    1.850994   -0.182414
      8          9           0        0.978843   -1.727034    1.044473
      9          9           0        0.920800   -1.296313   -1.495719
     10          1           0       -0.762487    1.982624   -0.790994
     11          8           0       -2.482330   -0.820642   -0.518174
     12          1           0       -3.074367   -1.234770    0.123154
 ---------------------------------------------------------------------

 SCF Done:  E(RHF) =  -1259.31197975     A.U. after    2 cycles

 The electronic state is 1-A.
 Alpha  occ. eigenvalues --  -84.47362 -69.72686 -26.52913 -26.52847 -20.64113
 Alpha  occ. eigenvalues --  -20.63403 -20.63014 -20.62543 -20.54470 -15.79927
 Alpha  occ. eigenvalues --   -6.92626  -6.38636  -4.46784  -4.46083  -4.44994
 Alpha  occ. eigenvalues --   -4.13963  -4.13859  -4.13685  -1.69966  -1.65435
 Alpha  occ. eigenvalues --   -1.63278  -1.57401  -1.54153  -1.51060  -1.42766
 Alpha  occ. eigenvalues --   -1.04582  -0.90939  -0.87200  -0.81206  -0.78405
 Alpha  occ. eigenvalues --   -0.77917  -0.76181  -0.75143  -0.73910  -0.71875
 Alpha  occ. eigenvalues --   -0.71003  -0.69465  -0.67948  -0.67598  -0.64142
 Alpha  occ. eigenvalues --   -0.60220  -0.58527  -0.54239  -0.53272  -0.51402
 Alpha  occ. eigenvalues --   -0.49497  -0.48620  -0.46387
 Alpha virt. eigenvalues --    0.01199   0.02816   0.04929   0.05065   0.06039
 Alpha virt. eigenvalues --    0.07184   0.08425   0.09430   0.09727   0.10463
 Alpha virt. eigenvalues --    0.12653   0.13454   0.14513   0.15648   0.16575

 Mulliken charges:
               1
     1  Si   2.342092
     2  P    3.254993
     3  N    1.921917
     4  O   -1.475690
     5  O   -1.470290
     6  O   -1.212356
     7  O   -1.213875
     8  F   -0.848174
     9  F   -0.866444
    10  H    0.509089
    11  O   -1.307008
    12  H    0.365747
 Sum of Mulliken charges =  -0.00000

 Dipole moment (field-independent basis, Debye):
    X=             -1.8900    Y=             -2.0342    Z=             -1.4680  Tot=              3.1409

 Test job not archived.
 1\1\GINC-SE435\SP\RHF\Aug-CC-pVDZ\F2H2N1O5P1Si1\OHZDE\08-Apr-2025\0\\#
 t hf aug-cc-pvdz iop(5/13=1,5/36=2,99/5=2) pseudo=read geom=check gues
 s=(read,tcheck) scf=(maxcycle=1)\\title\\0,1\Si,0,0.58789,-0.684266,-0
 .073856\P,0,-1.476227,0.209562,0.171294\N,0,1.779596,0.742578,0.074765
 \O,0,-1.718573,0.519896,1.583378\O,0,-1.502662,1.364341,-0.920166\O,0,
 2.94143,0.547978,0.37116\O,0,1.286614,1.850994,-0.182414\F,0,0.978843,
 -1.727034,1.044473\F,0,0.9208,-1.296313,-1.495719\H,0,-0.762487,1.9826
 24,-0.790994\O,0,-2.48233,-0.820642,-0.518174\H,0,-3.074367,-1.23477,0

 Normal termination of Gaussian 16 at Tue Apr  8 23:41:43 2025.
