 Gaussian 16, Revision C.01,

 ----------------------------------------------------------------------
 #t hf aug-cc-pvdz symm=none int=(grid=ultrafine) guess=(read,tcheck) s
 table=(opt,rrhf)
 ----------------------------------------------------------------------
 -----
 title
 -----
 Symbolic Z-matrix:
 Charge =  0 Multiplicity = 1

 SCF Done:  E(RHF) =  -207.919793394     A.U. after   13 cycles
 Normal termination of Gaussian 16 at Tue Apr  8 22:52:33 2025.
 Gaussian 16:  ES64L-G16RevC.01  3-Jul-2019

 ----------------------------------------------------------------------
 #t hf aug-cc-pvdz iop(5/13=1,5/36=2,99/5=2) pseudo=read geom=check gue
 ss=(read,tcheck) scf=(maxcycle=1)
 ----------------------------------------------------------------------
 -----
 title
 -----
 Structure from the checkpoint file:  "BDE49_expt_1801_mol1.chk"
 Charge =  0 Multiplicity = 1

                         Standard orientation:
 ---------------------------------------------------------------------
 Center     Atomic      Atomic             Coordinates (Angstroms)
 Number     Number       Type             X           Y           Z
 ---------------------------------------------------------------------
      1          8           0       -0.660040   -1.270862    0.000000
      2          7           0       -1.014978    0.091566    0.000000
      3          6           0        0.000000    0.861378    0.000000
      4          6           0        1.449941    0.486565    0.000000
      5          1           0       -0.267747    1.915738    0.000000
      6          1           0        1.579925   -0.592969    0.000000
      7          1           0        1.946965    0.907822    0.879788
      8          1           0        1.946965    0.907822   -0.879788
      9          1           0       -1.520587   -1.700136    0.000000
 ---------------------------------------------------------------------

 SCF Done:  E(RHF) =  -208.133375928     A.U. after    2 cycles

 The electronic state is 1-A'.
 Alpha  occ. eigenvalues --  -20.58146 -15.56113 -11.28481 -11.24456  -1.49475
 Alpha  occ. eigenvalues --   -1.18192  -0.99481  -0.79990  -0.71383  -0.66627
 Alpha  occ. eigenvalues --   -0.61591  -0.59355  -0.56527  -0.55146  -0.46307
 Alpha  occ. eigenvalues --   -0.40811
 Alpha virt. eigenvalues --    0.03572   0.04775   0.05195   0.05402   0.07172
 Alpha virt. eigenvalues --    0.10678   0.11175   0.12139   0.14910   0.15285
 Alpha virt. eigenvalues --    0.16142   0.17117   0.17145   0.19074   0.20178

 Mulliken charges:
               1
     1  O   -1.128653
     2  N    1.218908
     3  C   -0.654510
     4  C   -0.360695
     5  H   -0.032875
     6  H    0.201954
     7  H    0.216784
     8  H    0.216784
     9  H    0.322301
 Sum of Mulliken charges =  -0.00000

 Dipole moment (field-independent basis, Debye):
    X=              1.3034    Y=              0.5929    Z=              0.0000  Tot=              1.4319

 Test job not archived.
 1\1\GINC-SE367\SP\RHF\Aug-CC-pVDZ\C2H5N1O1\OHZDE\08-Apr-2025\0\\#t hf
 aug-cc-pvdz iop(5/13=1,5/36=2,99/5=2) pseudo=read geom=check guess=(re
 ad,tcheck) scf=(maxcycle=1)\\title\\0,1\O,0,-0.66004,-1.270862,0.\N,0,
 -1.014978,0.091566,0.\C,0,0.,0.861378,0.\C,0,1.449941,0.486565,0.\H,0,
 -0.267747,1.915738,0.\H,0,1.579925,-0.592969,0.\H,0,1.946965,0.907822,
 0.879788\H,0,1.946965,0.907822,-0.879788\H,0,-1.520587,-1.700136,0.\\V
 ersion=ES64L-G16RevC.01\State=1-A'\HF=-208.1333759\RMSD=1.822e-02\Dipo
 le=0.5127958,0.2332543,0.\Quadrupole=0.0017422,1.7533805,-1.7551227,3.

 Normal termination of Gaussian 16 at Tue Apr  8 22:52:36 2025.
