 Gaussian 16, Revision C.01,

 ----------------------------------------------------------------------
 #t hf aug-cc-pvdz symm=none int=(grid=ultrafine) guess=(read,tcheck) s
 table=opt
 ----------------------------------------------------------------------
 -----
 title
 -----
 Symbolic Z-matrix:
 Charge =  0 Multiplicity = 2

 SCF Done:  E(UHF) =  -1474.29626197     A.U. after   20 cycles
 Normal termination of Gaussian 16 at Tue Apr  8 23:49:11 2025.
 Gaussian 16:  ES64L-G16RevC.01  3-Jul-2019

 ----------------------------------------------------------------------
 #t hf aug-cc-pvdz iop(5/13=1,5/36=2,99/5=2) pseudo=read geom=check gue
 ss=(read,tcheck) scf=(maxcycle=1)
 ----------------------------------------------------------------------
 -----
 title
 -----
 Structure from the checkpoint file:  "BDE49_nonexpt_1813_mol2.chk"
 Charge =  0 Multiplicity = 2

                         Standard orientation:
 ---------------------------------------------------------------------
 Center     Atomic      Atomic             Coordinates (Angstroms)
 Number     Number       Type             X           Y           Z
 ---------------------------------------------------------------------
      1          6           0        0.661696   -0.608260   -0.249812
      2          8           0        0.884458   -1.709832    0.176519
      3         14           0       -1.128318    0.070154   -0.601190
      4          8           0        1.577741    0.292548   -0.631241
      5         17           0       -2.464595   -1.214551    0.319258
      6         17           0       -1.314890    1.966494    0.228107
      7          6           0        2.986318   -0.078997   -0.491218
      8          6           0        3.497277    0.232152    0.903789
      9          1           0        3.488188    0.519019   -1.250708
     10          1           0        3.085846   -1.138104   -0.730522
     11          1           0        3.338777    1.284181    1.149604
     12          1           0        4.569885    0.024958    0.954567
     13          1           0        2.995669   -0.386340    1.649736
 ---------------------------------------------------------------------

 SCF Done:  E(UHF) =  -1474.74322830     A.U. after    2 cycles

 The electronic state is 2-A.
 Alpha  occ. eigenvalues -- -105.58250-105.57888 -69.65239 -20.60782 -20.56186
 Alpha  occ. eigenvalues --  -11.40361 -11.31351 -11.24399 -10.63213 -10.62868
 Alpha  occ. eigenvalues --   -7.80185  -7.79845  -7.79809  -7.79738  -7.79455
 Alpha  occ. eigenvalues --   -7.79388  -6.31493  -4.07139  -4.06495  -4.06350
 Alpha  occ. eigenvalues --   -1.55874  -1.47387  -1.09652  -1.06021  -1.05491
 Alpha  occ. eigenvalues --   -0.91606  -0.81535  -0.76580  -0.70347  -0.68168
 Alpha  occ. eigenvalues --   -0.66266  -0.62298  -0.58603  -0.57525  -0.56097
 Alpha  occ. eigenvalues --   -0.54559  -0.53489  -0.51558  -0.51097  -0.49511
 Alpha  occ. eigenvalues --   -0.47783  -0.47007  -0.45527  -0.37290
 Alpha virt. eigenvalues --    0.03347   0.04092   0.04478   0.05064   0.05914
 Alpha virt. eigenvalues --    0.06162   0.06545   0.07351   0.08990   0.09524
 Alpha virt. eigenvalues --    0.11190   0.11793   0.12796   0.13120   0.13743

  Beta  occ. eigenvalues -- -105.58143-105.57781 -69.64645 -20.60756 -20.56036
  Beta  occ. eigenvalues --  -11.40075 -11.31348 -11.24400 -10.63097 -10.62751
  Beta  occ. eigenvalues --   -7.79947  -7.79680  -7.79596  -7.79564  -7.79331
  Beta  occ. eigenvalues --   -7.79219  -6.30524  -4.06109  -4.06006  -4.05125
  Beta  occ. eigenvalues --   -1.55658  -1.47086  -1.08585  -1.05516  -1.05066
  Beta  occ. eigenvalues --   -0.91153  -0.80428  -0.75355  -0.70025  -0.66938
  Beta  occ. eigenvalues --   -0.65365  -0.61528  -0.58406  -0.56442  -0.55590
  Beta  occ. eigenvalues --   -0.54221  -0.51569  -0.51409  -0.50372  -0.48552
  Beta  occ. eigenvalues --   -0.47587  -0.46691  -0.43542
  Beta virt. eigenvalues --   -0.00664   0.03407   0.04177   0.04574   0.05682
  Beta virt. eigenvalues --    0.06052   0.06514   0.06758   0.07383   0.09456
  Beta virt. eigenvalues --    0.11014   0.11249   0.11991   0.13166   0.13874

 Mulliken charges and spin densities:
               1          2
     1  C    1.025148   0.054527
     2  O   -0.963851   0.033447
     3  Si   1.289803   0.834471
     4  O   -1.065948  -0.012746
     5  Cl  -0.469436   0.042024
     6  Cl  -0.507316   0.045111
     7  C    0.440248   0.004645
     8  C   -0.437750  -0.001710
     9  H   -0.024937   0.000130
    10  H    0.216200   0.000287
    11  H    0.184369   0.000319
    12  H    0.163382  -0.000332
    13  H    0.150089  -0.000173
 Sum of Mulliken charges =  -0.00000   1.00000

 Dipole moment (field-independent basis, Debye):
    X=              2.4155    Y=              1.0814    Z=             -1.2926  Tot=              2.9453
                          Isotropic Fermi Contact Couplings
        Atom                 a.u.       MegaHertz       Gauss      10(-4) cm-1
     1  C(13)              0.07232      81.30521      29.01172      27.12050
     2  O(17)              0.01411      -8.55376      -3.05219      -2.85323
     3  Si(29)             0.92841    -825.09968    -294.41608    -275.22363
     4  O(17)              0.00352      -2.13502      -0.76183      -0.71216
     5  Cl(35)             0.06085      26.67895       9.51971       8.89914
     6  Cl(35)             0.06029      26.43360       9.43217       8.81730
     7  C(13)              0.00023       0.25448       0.09080       0.08489
     8  C(13)             -0.00039      -0.43739      -0.15607      -0.14590

 Normal termination of Gaussian 16 at Tue Apr  8 23:49:16 2025.
