 Gaussian 16, Revision C.01,

 ----------------------------------------------------------------------
 #t hf aug-cc-pvdz symm=none int=(grid=ultrafine) guess=(read,tcheck) s
 table=(opt,rrhf)
 ----------------------------------------------------------------------
 -----
 title
 -----
 Symbolic Z-matrix:
 Charge =  0 Multiplicity = 1

 SCF Done:  E(RHF) =  -1046.31227458     A.U. after   13 cycles
 Normal termination of Gaussian 16 at Tue Apr  8 23:00:41 2025.
 Gaussian 16:  ES64L-G16RevC.01  3-Jul-2019

 ----------------------------------------------------------------------
 #t hf aug-cc-pvdz iop(5/13=1,5/36=2,99/5=2) pseudo=read geom=check gue
 ss=(read,tcheck) scf=(maxcycle=1)
 ----------------------------------------------------------------------
 -----
 title
 -----
 Structure from the checkpoint file:  "BDE49_expt_1980_mol1.chk"
 Charge =  0 Multiplicity = 1

                         Standard orientation:
 ---------------------------------------------------------------------
 Center     Atomic      Atomic             Coordinates (Angstroms)
 Number     Number       Type             X           Y           Z
 ---------------------------------------------------------------------
      1         16           0       -0.436050   -0.202452    0.000000
      2          8           0       -0.762350   -0.811733   -1.257081
      3          8           0       -0.762348   -0.811733    1.257081
      4          6           0       -0.980326    1.504612    0.000001
      5          1           0       -0.604606    1.980707    0.902675
      6          1           0       -2.070696    1.462330    0.000001
      7          1           0       -0.604607    1.980707   -0.902674
      8         17           0        1.666838    0.104444   -0.000001
 ---------------------------------------------------------------------

 SCF Done:  E(RHF) =  -1046.64160995     A.U. after    2 cycles

 The electronic state is 1-A.
 Alpha  occ. eigenvalues -- -105.59802 -94.25387 -20.58253 -20.58252 -11.32283
 Alpha  occ. eigenvalues --  -10.64650  -8.50420  -7.81561  -7.81148  -7.81130
 Alpha  occ. eigenvalues --   -6.48483  -6.48333  -6.48154  -1.60393  -1.48477
 Alpha  occ. eigenvalues --   -1.12680  -1.05907  -0.86714  -0.72699  -0.71482
 Alpha  occ. eigenvalues --   -0.70120  -0.64200  -0.63828  -0.54863  -0.53344
 Alpha  occ. eigenvalues --   -0.51218  -0.49856  -0.47916  -0.47621
 Alpha virt. eigenvalues --    0.02600   0.04704   0.04949   0.05856   0.08329
 Alpha virt. eigenvalues --    0.10353   0.11475   0.12048   0.13718   0.13823
 Alpha virt. eigenvalues --    0.15198   0.16876   0.17205   0.17482   0.19469

 Mulliken charges:
               1
     1  S    2.988890
     2  O   -1.398835
     3  O   -1.398835
     4  C   -0.775864
     5  H    0.253757
     6  H    0.277652
     7  H    0.253758
     8  Cl  -0.200523
 Sum of Mulliken charges =  -0.00000

 Dipole moment (field-independent basis, Debye):
    X=             -0.8604    Y=              4.0969    Z=              0.0000  Tot=              4.1863

 Test job not archived.
 1\1\GINC-SE041\SP\RHF\Aug-CC-pVDZ\C1H3Cl1O2S1\OHZDE\08-Apr-2025\0\\#t
 hf aug-cc-pvdz iop(5/13=1,5/36=2,99/5=2) pseudo=read geom=check guess=
 (read,tcheck) scf=(maxcycle=1)\\title\\0,1\S,0,-0.43605,-0.202452,0.\O
 ,0,-0.76235,-0.811733,-1.257081\O,0,-0.762348,-0.811733,1.257081\C,0,-
 0.980326,1.504612,0.000001\H,0,-0.604606,1.980707,0.902675\H,0,-2.0706
 96,1.46233,0.000001\H,0,-0.604607,1.980707,-0.902674\Cl,0,1.666838,0.1
 04444,-0.000001\\Version=ES64L-G16RevC.01\State=1-A\HF=-1046.6416099\R
 MSD=7.152e-03\Dipole=-0.3385213,1.6118486,0.0000009\Quadrupole=1.46207

 Normal termination of Gaussian 16 at Tue Apr  8 23:00:44 2025.
