 Gaussian 16, Revision C.01,

 ----------------------------------------------------------------------
 #t hf aug-cc-pvdz symm=none int=(grid=ultrafine) guess=(read,tcheck) s
 table=(opt,rrhf)
 ----------------------------------------------------------------------
 -----
 title
 -----
 Symbolic Z-matrix:
 Charge =  0 Multiplicity = 1

 SCF Done:  E(RHF) =  -1091.62228072     A.U. after   14 cycles
 Normal termination of Gaussian 16 at Wed Apr  9 00:12:40 2025.
 Gaussian 16:  ES64L-G16RevC.01  3-Jul-2019

 ----------------------------------------------------------------------
 #t hf aug-cc-pvdz iop(5/13=1,5/36=2,99/5=2) pseudo=read geom=check gue
 ss=(read,tcheck) scf=(maxcycle=1)
 ----------------------------------------------------------------------
 -----
 title
 -----
 Structure from the checkpoint file:  "BDE49_nonexpt_2432_mol1.chk"
 Charge =  0 Multiplicity = 1

                         Standard orientation:
 ---------------------------------------------------------------------
 Center     Atomic      Atomic             Coordinates (Angstroms)
 Number     Number       Type             X           Y           Z
 ---------------------------------------------------------------------
      1         14           0        2.465784    0.112822   -0.529155
      2         14           0        0.626351   -0.619238    0.751831
      3          6           0       -0.915448    0.440690    0.258875
      4          1           0        0.841659   -0.373791    2.195754
      5          1           0        0.328246   -2.052903    0.524882
      6          8           0       -0.936844    1.632728    0.419976
      7          1           0        3.656359   -0.698057   -0.179994
      8          1           0        2.740763    1.538625   -0.244409
      9         16           0       -2.310680   -0.474595   -0.479666
     10          1           0        2.169162   -0.057465   -1.970292
     11          1           0       -3.067763    0.620965   -0.681791
 ---------------------------------------------------------------------

 SCF Done:  E(RHF) =  -1091.85879288     A.U. after    2 cycles

 The electronic state is 1-A.
 Alpha  occ. eigenvalues --  -93.97645 -69.55328 -69.54149 -20.56763 -11.37558
 Alpha  occ. eigenvalues --   -8.25846  -6.23676  -6.23518  -6.23326  -6.22546
 Alpha  occ. eigenvalues --   -6.21350  -3.97897  -3.97859  -3.97846  -3.96710
 Alpha  occ. eigenvalues --   -3.96699  -3.96694  -1.50220  -1.05542  -0.84754
 Alpha  occ. eigenvalues --   -0.76578  -0.70629  -0.64560  -0.61855  -0.57338
 Alpha  occ. eigenvalues --   -0.53144  -0.51842  -0.50307  -0.49238  -0.43452
 Alpha  occ. eigenvalues --   -0.40015  -0.38941
 Alpha virt. eigenvalues --    0.03583   0.03665   0.04799   0.05678   0.06443
 Alpha virt. eigenvalues --    0.07012   0.07185   0.07530   0.07962   0.08548
 Alpha virt. eigenvalues --    0.08921   0.09448   0.10098   0.10341   0.12544

 Mulliken charges:
               1
     1  Si   0.318060
     2  Si   0.770273
     3  C    0.261603
     4  H   -0.134432
     5  H   -0.149207
     6  O   -1.039698
     7  H   -0.122974
     8  H   -0.084463
     9  S   -0.106822
    10  H   -0.095883
    11  H    0.383544
 Sum of Mulliken charges =  -0.00000

 Dipole moment (field-independent basis, Debye):
    X=              0.8019    Y=             -1.2829    Z=             -0.1934  Tot=              1.5252

 Test job not archived.
 1\1\GINC-SE082\SP\RHF\Aug-CC-pVDZ\C1H6O1S1Si2\OHZDE\09-Apr-2025\0\\#t
 hf aug-cc-pvdz iop(5/13=1,5/36=2,99/5=2) pseudo=read geom=check guess=
 (read,tcheck) scf=(maxcycle=1)\\title\\0,1\Si,0,2.465784,0.112822,-0.5
 29155\Si,0,0.626351,-0.619238,0.751831\C,0,-0.915448,0.44069,0.258875\
 H,0,0.841659,-0.373791,2.195754\H,0,0.328246,-2.052903,0.524882\O,0,-0
 .936844,1.632728,0.419976\H,0,3.656359,-0.698057,-0.179994\H,0,2.74076
 3,1.538625,-0.244409\S,0,-2.31068,-0.474595,-0.479666\H,0,2.169162,-0.
 057465,-1.970292\H,0,-3.067763,0.620965,-0.681791\\Version=ES64L-G16Re

 Normal termination of Gaussian 16 at Wed Apr  9 00:12:44 2025.
