 Gaussian 16, Revision C.01,

 ----------------------------------------------------------------------
 #t hf aug-cc-pvdz symm=none int=(grid=ultrafine) guess=(read,tcheck) s
 table=opt
 ----------------------------------------------------------------------
 -----
 title
 -----
 Symbolic Z-matrix:
 Charge =  0 Multiplicity = 2

 SCF Done:  E(UHF) =  -241.825862861     A.U. after   16 cycles
 Normal termination of Gaussian 16 at Wed Apr  9 00:32:27 2025.
 Gaussian 16:  ES64L-G16RevC.01  3-Jul-2019

 ----------------------------------------------------------------------
 #t hf aug-cc-pvdz iop(5/13=1,5/36=2,99/5=2) pseudo=read geom=check gue
 ss=(read,tcheck) scf=(maxcycle=1)
 ----------------------------------------------------------------------
 -----
 title
 -----
 Structure from the checkpoint file:  "BDE49_nonexpt_369_mol2.chk"
 Charge =  0 Multiplicity = 2

                         Standard orientation:
 ---------------------------------------------------------------------
 Center     Atomic      Atomic             Coordinates (Angstroms)
 Number     Number       Type             X           Y           Z
 ---------------------------------------------------------------------
      1          9           0        2.070849   -0.219016    0.065285
      2          5           0        0.890852   -0.810529    0.059316
      3          6           0       -0.433790   -0.060181   -0.330559
      4          6           0       -1.714414   -0.774312    0.131345
      5          1           0       -1.729470   -1.817573   -0.192558
      6          1           0       -2.605117   -0.280154   -0.268343
      7          1           0       -1.794165   -0.767693    1.222532
      8          6           0       -0.408293    1.429761    0.073912
      9          1           0       -0.402171   -0.108940   -1.434627
     10          1           0       -0.436786    1.541012    1.162065
     11          1           0       -1.277460    1.955552   -0.332623
     12          1           0        0.492243    1.929978   -0.288787
 ---------------------------------------------------------------------

 SCF Done:  E(UHF) =  -242.069643009     A.U. after    2 cycles

 The electronic state is 2-A.
 Alpha  occ. eigenvalues --  -26.47636 -11.23408 -11.23354 -11.23240  -7.67206
 Alpha  occ. eigenvalues --   -1.60747  -1.07165  -0.93857  -0.83847  -0.76361
 Alpha  occ. eigenvalues --   -0.68791  -0.66112  -0.63407  -0.61561  -0.56920
 Alpha  occ. eigenvalues --   -0.54863  -0.50833  -0.49760  -0.48554  -0.34183
 Alpha virt. eigenvalues --    0.03550   0.03615   0.04189   0.04513   0.06582
 Alpha virt. eigenvalues --    0.06693   0.06882   0.07192   0.07558   0.10337
 Alpha virt. eigenvalues --    0.11036   0.12866   0.14664   0.15349   0.15785

  Beta  occ. eigenvalues --  -26.47312 -11.23361 -11.23241 -11.23036  -7.65372
  Beta  occ. eigenvalues --   -1.59842  -1.06561  -0.93723  -0.82651  -0.75101
  Beta  occ. eigenvalues --   -0.66451  -0.65710  -0.62607  -0.60768  -0.56580
  Beta  occ. eigenvalues --   -0.54792  -0.49666  -0.49523  -0.46935
  Beta virt. eigenvalues --    0.03225   0.03733   0.03966   0.04331   0.06636
  Beta virt. eigenvalues --    0.06704   0.07029   0.07296   0.07571   0.09182
  Beta virt. eigenvalues --    0.10498   0.12814   0.14471   0.15208   0.15763

 Mulliken charges and spin densities:
               1          2
     1  F   -0.604202  -0.034269
     2  B    0.632403   1.006562
     3  C   -0.456081   0.061722
     4  C   -0.285289  -0.018843
     5  H    0.116546  -0.000825
     6  H    0.162120  -0.005272
     7  H    0.167221  -0.001569
     8  C   -0.314901   0.000916
     9  H    0.180940  -0.009368
    10  H    0.152768   0.000285
    11  H    0.159570   0.001099
    12  H    0.088905  -0.000439
 Sum of Mulliken charges =  -0.00000   1.00000

 Dipole moment (field-independent basis, Debye):
    X=             -1.2432    Y=              0.5241    Z=             -0.3591  Tot=              1.3961
                          Isotropic Fermi Contact Couplings
        Atom                 a.u.       MegaHertz       Gauss      10(-4) cm-1
     1  F(19)              0.07596     319.61567     114.04682     106.61231
     2  B(11)              0.30846     442.44266     157.87454     147.58299
     3  C(13)              0.07135      80.21035      28.62105      26.75529
     4  C(13)              0.00320       3.60069       1.28482       1.20106
     5  H(1)              -0.00015      -0.65808      -0.23482      -0.21951
     6  H(1)              -0.00054      -2.43603      -0.86923      -0.81257
     7  H(1)              -0.00006      -0.24886      -0.08880      -0.08301
     8  C(13)              0.00840       9.44833       3.37140       3.15163

 Normal termination of Gaussian 16 at Wed Apr  9 00:32:31 2025.
