 Gaussian 16, Revision C.01,

 ----------------------------------------------------------------------
 #t hf aug-cc-pvdz symm=none int=(grid=ultrafine) guess=(read,tcheck) s
 table=(opt,rrhf)
 ----------------------------------------------------------------------
 -----
 title
 -----
 Symbolic Z-matrix:
 Charge =  0 Multiplicity = 1

 SCF Done:  E(RHF) =  -800.920685818     A.U. after   13 cycles

 1\1\GINC-SE094\Stability\RHF\Aug-CC-pVDZ\C3H10P2\OHZDE\08-Apr-2025\0\\
 #t hf aug-cc-pvdz symm=none int=(grid=ultrafine) guess=(read,tcheck) s
 table=(opt,rrhf)\\title\\0,1\P,0,0.729028,0.129688,-0.61457\P,0,-1.087
 602,-0.772683,0.325814\C,0,2.000327,-1.045214,0.070312\C,0,1.071545,1.
 62343,0.44443\C,0,-2.391063,0.420417,-0.277803\H,0,-2.150268,1.469242,
 -0.097554\H,0,-3.333842,0.186235,0.221908\H,0,-2.5314,0.269276,-1.3497
 81\H,0,1.844338,-2.036081,-0.360393\H,0,1.971737,-1.124185,1.160578\H,
 0,2.993143,-0.69921,-0.228948\H,0,0.282377,2.363805,0.29756\H,0,2.0137

 Normal termination of Gaussian 16 at Tue Apr  8 23:40:30 2025.
 Gaussian 16:  ES64L-G16RevC.01  3-Jul-2019

 ----------------------------------------------------------------------
 #t hf aug-cc-pvdz iop(5/13=1,5/36=2,99/5=2) pseudo=read geom=check gue
 ss=(read,tcheck) scf=(maxcycle=1)
 ----------------------------------------------------------------------
 -----
 title
 -----
 Structure from the checkpoint file:  "BDE49_nonexpt_1623_mol1.chk"
 Charge =  0 Multiplicity = 1

                         Standard orientation:
 ---------------------------------------------------------------------
 Center     Atomic      Atomic             Coordinates (Angstroms)
 Number     Number       Type             X           Y           Z
 ---------------------------------------------------------------------
      1         15           0        0.729028    0.129688   -0.614570
      2         15           0       -1.087602   -0.772683    0.325814
      3          6           0        2.000327   -1.045214    0.070312
      4          6           0        1.071545    1.623430    0.444430
      5          6           0       -2.391063    0.420417   -0.277803
      6          1           0       -2.150268    1.469242   -0.097554
      7          1           0       -3.333842    0.186235    0.221908
      8          1           0       -2.531400    0.269276   -1.349781
      9          1           0        1.844338   -2.036081   -0.360393
     10          1           0        1.971737   -1.124185    1.160578
     11          1           0        2.993143   -0.699210   -0.228948
     12          1           0        0.282377    2.363805    0.297560
     13          1           0        2.013794    2.077634    0.124064
     14          1           0        1.137697    1.380829    1.508292
     15          1           0       -0.933817   -0.234415    1.633982
 ---------------------------------------------------------------------

 SCF Done:  E(RHF) =  -801.149832090     A.U. after    2 cycles

 The electronic state is 1-A.
 Alpha  occ. eigenvalues --  -84.26778 -84.26642 -11.24062 -11.23922 -11.23748
 Alpha  occ. eigenvalues --   -6.73837  -6.73744  -4.26328  -4.26154  -4.26042
 Alpha  occ. eigenvalues --   -4.25900  -4.25475  -4.25357  -1.02018  -0.97898
 Alpha  occ. eigenvalues --   -0.94141  -0.81251  -0.70398  -0.59461  -0.59240
 Alpha  occ. eigenvalues --   -0.58346  -0.57242  -0.56162  -0.55968  -0.47812
 Alpha  occ. eigenvalues --   -0.46287  -0.41533  -0.33325  -0.29877
 Alpha virt. eigenvalues --    0.03853   0.03896   0.04601   0.04885   0.06046
 Alpha virt. eigenvalues --    0.06494   0.06766   0.07392   0.08169   0.09154
 Alpha virt. eigenvalues --    0.09686   0.11452   0.11711   0.12020   0.13423

 Mulliken charges:
               1
     1  P    0.918884
     2  P    0.050889
     3  C   -0.740885
     4  C   -0.860406
     5  C   -0.822570
     6  H    0.071243
     7  H    0.077737
     8  H    0.166797
     9  H    0.111369
    10  H    0.120809
    11  H    0.082339
    12  H    0.073921
    13  H    0.112585
    14  H    0.124679
    15  H    0.512608
 Sum of Mulliken charges =   0.00000

 Dipole moment (field-independent basis, Debye):
    X=              0.2559    Y=              0.8945    Z=              0.7384  Tot=              1.1878

 Test job not archived.
 1\1\GINC-SE094\SP\RHF\Aug-CC-pVDZ\C3H10P2\OHZDE\08-Apr-2025\0\\#t hf a
 ug-cc-pvdz iop(5/13=1,5/36=2,99/5=2) pseudo=read geom=check guess=(rea
 d,tcheck) scf=(maxcycle=1)\\title\\0,1\P,0,0.729028,0.129688,-0.61457\
 P,0,-1.087602,-0.772683,0.325814\C,0,2.000327,-1.045214,0.070312\C,0,1
 .071545,1.62343,0.44443\C,0,-2.391063,0.420417,-0.277803\H,0,-2.150268
 ,1.469242,-0.097554\H,0,-3.333842,0.186235,0.221908\H,0,-2.5314,0.2692
 76,-1.349781\H,0,1.844338,-2.036081,-0.360393\H,0,1.971737,-1.124185,1
 .160578\H,0,2.993143,-0.69921,-0.228948\H,0,0.282377,2.363805,0.29756\

 Normal termination of Gaussian 16 at Tue Apr  8 23:40:35 2025.
