 Gaussian 16, Revision C.01,

 ----------------------------------------------------------------------
 #t hf aug-cc-pvdz symm=none int=(grid=ultrafine) guess=(read,tcheck) s
 table=(opt,rrhf)
 ----------------------------------------------------------------------
 -----
 title
 -----
 Symbolic Z-matrix:
 Charge =  0 Multiplicity = 1

 SCF Done:  E(RHF) =  -305.927064461     A.U. after   13 cycles
 Normal termination of Gaussian 16 at Tue Apr  8 22:42:42 2025.
 Gaussian 16:  ES64L-G16RevC.01  3-Jul-2019

 ----------------------------------------------------------------------
 #t hf aug-cc-pvdz iop(5/13=1,5/36=2,99/5=2) pseudo=read geom=check gue
 ss=(read,tcheck) scf=(maxcycle=1)
 ----------------------------------------------------------------------
 -----
 title
 -----
 Structure from the checkpoint file:  "BDE49_expt_1445_mol1.chk"
 Charge =  0 Multiplicity = 1

                         Standard orientation:
 ---------------------------------------------------------------------
 Center     Atomic      Atomic             Coordinates (Angstroms)
 Number     Number       Type             X           Y           Z
 ---------------------------------------------------------------------
      1          6           0        0.974489    0.102291   -0.075606
      2          8           0        2.120227   -0.404130    0.444561
      3          8           0        0.883401    1.247518   -0.438442
      4          1           0        2.766740    0.317450    0.437026
      5          6           0       -0.108351   -0.951311   -0.150095
      6          6           0       -1.487316   -0.396020   -0.515220
      7          1           0       -0.128517   -1.485281    0.805570
      8          1           0        0.226523   -1.686389   -0.891184
      9          6           0       -2.125792    0.440485    0.597633
     10          1           0       -2.140636   -1.238962   -0.762073
     11          1           0       -1.394858    0.209109   -1.421269
     12          1           0       -2.242956   -0.145324    1.515239
     13          1           0       -3.117164    0.792534    0.301039
     14          1           0       -1.516339    1.317093    0.826429
 ---------------------------------------------------------------------

 SCF Done:  E(RHF) =  -306.243398343     A.U. after    2 cycles

 The electronic state is 1-A.
 Alpha  occ. eigenvalues --  -20.60064 -20.53930 -11.39476 -11.25607 -11.23832
 Alpha  occ. eigenvalues --  -11.22416  -1.54790  -1.45282  -1.08568  -0.97833
 Alpha  occ. eigenvalues --   -0.86065  -0.78474  -0.71083  -0.69635  -0.66090
 Alpha  occ. eigenvalues --   -0.61420  -0.59811  -0.57276  -0.56169  -0.50172
 Alpha  occ. eigenvalues --   -0.50048  -0.49257  -0.47534  -0.44312
 Alpha virt. eigenvalues --    0.03596   0.03818   0.04209   0.04674   0.06253
 Alpha virt. eigenvalues --    0.07024   0.07572   0.07829   0.11299   0.12072
 Alpha virt. eigenvalues --    0.13539   0.14568   0.14917   0.15106   0.15571

 Mulliken charges:
               1
     1  C    2.028862
     2  O   -1.269726
     3  O   -1.198163
     4  H    0.375434
     5  C   -0.507273
     6  C   -0.258316
     7  H    0.197823
     8  H    0.240010
     9  C   -0.326049
    10  H    0.132643
    11  H    0.144813
    12  H    0.156900
    13  H    0.122007
    14  H    0.161035
 Sum of Mulliken charges =  -0.00000

 Dipole moment (field-independent basis, Debye):
    X=             -0.0427    Y=             -1.5871    Z=              0.3814  Tot=              1.6329

 Test job not archived.
 1\1\GINC-SE364\SP\RHF\Aug-CC-pVDZ\C4H8O2\OHZDE\08-Apr-2025\0\\#t hf au
 g-cc-pvdz iop(5/13=1,5/36=2,99/5=2) pseudo=read geom=check guess=(read
 ,tcheck) scf=(maxcycle=1)\\title\\0,1\C,0,0.974489,0.102291,-0.075606\
 O,0,2.120227,-0.40413,0.444561\O,0,0.883401,1.247518,-0.438442\H,0,2.7
 6674,0.31745,0.437026\C,0,-0.108351,-0.951311,-0.150095\C,0,-1.487316,
 -0.39602,-0.51522\H,0,-0.128517,-1.485281,0.80557\H,0,0.226523,-1.6863
 89,-0.891184\C,0,-2.125792,0.440485,0.597633\H,0,-2.140636,-1.238962,-
 0.762073\H,0,-1.394858,0.209109,-1.421269\H,0,-2.242956,-0.145324,1.51

 Normal termination of Gaussian 16 at Tue Apr  8 22:42:47 2025.
