 Gaussian 16, Revision C.01,

 ----------------------------------------------------------------------
 #t hf aug-cc-pvdz symm=none int=(grid=ultrafine) guess=(read,tcheck) s
 table=(opt,rrhf)
 ----------------------------------------------------------------------
 -----
 title
 -----
 Symbolic Z-matrix:
 Charge =  0 Multiplicity = 1

 SCF Done:  E(RHF) =  -375.839366173     A.U. after   12 cycles
 Normal termination of Gaussian 16 at Tue Apr  8 22:29:19 2025.
 Gaussian 16:  ES64L-G16RevC.01  3-Jul-2019

 ----------------------------------------------------------------------
 #t hf aug-cc-pvdz iop(5/13=1,5/36=2,99/5=2) pseudo=read geom=check gue
 ss=(read,tcheck) scf=(maxcycle=1)
 ----------------------------------------------------------------------
 -----
 title
 -----
 Structure from the checkpoint file:  "BDE49_expt_1006_mol1.chk"
 Charge =  0 Multiplicity = 1

                         Standard orientation:
 ---------------------------------------------------------------------
 Center     Atomic      Atomic             Coordinates (Angstroms)
 Number     Number       Type             X           Y           Z
 ---------------------------------------------------------------------
      1          6           0       -0.466105    0.020385    0.328385
      2          6           0        0.774786   -0.587151   -0.290300
      3          1           0       -0.411247    0.101522    1.416517
      4          9           0       -1.535809   -0.767896   -0.004518
      5          9           0       -0.688421    1.265400   -0.181531
      6          1           0        0.711896   -0.511082   -1.378372
      7          1           0        0.860863   -1.632542    0.014914
      8          9           0        1.889386    0.107240    0.154763
 ---------------------------------------------------------------------

 SCF Done:  E(RHF) =  -376.193394434     A.U. after    2 cycles

 The electronic state is 1-A.
 Alpha  occ. eigenvalues --  -26.49214 -26.48690 -26.47389 -11.43360 -11.35106
 Alpha  occ. eigenvalues --   -1.65431  -1.59550  -1.58630  -1.05359  -0.90488
 Alpha  occ. eigenvalues --   -0.78840  -0.76544  -0.75588  -0.70548  -0.69242
 Alpha  occ. eigenvalues --   -0.64801  -0.64214  -0.61317  -0.59319  -0.55044
 Alpha  occ. eigenvalues --   -0.52045
 Alpha virt. eigenvalues --    0.03695   0.04106   0.05620   0.08397   0.10914
 Alpha virt. eigenvalues --    0.11726   0.11931   0.14473   0.15433   0.17019
 Alpha virt. eigenvalues --    0.19469   0.22121   0.24944   0.25879   0.27520

 Mulliken charges:
               1
     1  C    1.378094
     2  C    0.338030
     3  H    0.078907
     4  F   -0.712141
     5  F   -0.699843
     6  H    0.140682
     7  H    0.161969
     8  F   -0.685698
 Sum of Mulliken charges =   0.00000

 Dipole moment (field-independent basis, Debye):
    X=              0.3069    Y=             -1.5447    Z=              0.3945  Tot=              1.6236

 Test job not archived.
 1\1\GINC-SE102\SP\RHF\Aug-CC-pVDZ\C2H3F3\OHZDE\08-Apr-2025\0\\#t hf au
 g-cc-pvdz iop(5/13=1,5/36=2,99/5=2) pseudo=read geom=check guess=(read
 ,tcheck) scf=(maxcycle=1)\\title\\0,1\C,0,-0.466105,0.020385,0.328385\
 C,0,0.774786,-0.587151,-0.2903\H,0,-0.411247,0.101522,1.416517\F,0,-1.
 535809,-0.767896,-0.004518\F,0,-0.688421,1.2654,-0.181531\H,0,0.711896
 ,-0.511082,-1.378372\H,0,0.860863,-1.632542,0.014914\F,0,1.889386,0.10
 724,0.154763\\Version=ES64L-G16RevC.01\State=1-A\HF=-376.1933944\RMSD=
 6.191e-03\Dipole=0.1207311,-0.6077454,0.1552245\Quadrupole=-3.2406264,

 Normal termination of Gaussian 16 at Tue Apr  8 22:29:21 2025.
