 Gaussian 16, Revision C.01,

 ----------------------------------------------------------------------
 #t hf aug-cc-pvdz symm=none int=(grid=ultrafine) guess=(read,tcheck) s
 table=(opt,rrhf)
 ----------------------------------------------------------------------
 -----
 title
 -----
 Symbolic Z-matrix:
 Charge =  0 Multiplicity = 1

 SCF Done:  E(RHF) =  -832.964179547     A.U. after   15 cycles
 Normal termination of Gaussian 16 at Tue Apr  8 23:08:01 2025.
 Gaussian 16:  ES64L-G16RevC.01  3-Jul-2019

 ----------------------------------------------------------------------
 #t hf aug-cc-pvdz iop(5/13=1,5/36=2,99/5=2) pseudo=read geom=check gue
 ss=(read,tcheck) scf=(maxcycle=1)
 ----------------------------------------------------------------------
 -----
 title
 -----
 Structure from the checkpoint file:  "BDE49_expt_433_mol1.chk"
 Charge =  0 Multiplicity = 1

                         Standard orientation:
 ---------------------------------------------------------------------
 Center     Atomic      Atomic             Coordinates (Angstroms)
 Number     Number       Type             X           Y           Z
 ---------------------------------------------------------------------
      1         16           0       -1.467309    0.000001   -0.153122
      2          8           0       -1.875868    1.267571   -0.711980
      3          7           0       -1.938733   -0.000008    1.454087
      4          6           0        0.318030   -0.000000   -0.057421
      5          6           0        0.999144    1.215076   -0.031404
      6          6           0        2.389335    1.208665    0.040619
      7          6           0        3.082835   -0.000001    0.080209
      8          6           0        2.389334   -1.208666    0.040619
      9          6           0        0.999143   -1.215076   -0.031405
     10          1           0        2.930311   -2.147591    0.057771
     11          1           0        0.445364   -2.143383   -0.084358
     12          1           0        0.445366    2.143383   -0.084357
     13          1           0        2.930313    2.147590    0.057772
     14          1           0        4.165564   -0.000001    0.132900
     15          8           0       -1.875869   -1.267562   -0.711992
     16          1           0       -2.460945   -0.842090    1.668037
     17          1           0       -2.460932    0.842078    1.668051
 ---------------------------------------------------------------------

 SCF Done:  E(RHF) =  -833.469922960     A.U. after    2 cycles

 The electronic state is 1-A.
 Alpha  occ. eigenvalues --  -94.21790 -20.54181 -20.54175 -15.54482 -11.28476
 Alpha  occ. eigenvalues --  -11.27198 -11.27194 -11.26922 -11.26388 -11.26374
 Alpha  occ. eigenvalues --   -8.46730  -6.44880  -6.44674  -6.44530  -1.57042
 Alpha  occ. eigenvalues --   -1.44916  -1.23233  -1.18378  -1.06326  -1.04286
 Alpha  occ. eigenvalues --   -0.93514  -0.86270  -0.83479  -0.75982  -0.75775
 Alpha  occ. eigenvalues --   -0.72236  -0.69135  -0.67552  -0.64959  -0.63619
 Alpha  occ. eigenvalues --   -0.62576  -0.56822  -0.54987  -0.53679  -0.53145
 Alpha  occ. eigenvalues --   -0.50031  -0.49140  -0.47122  -0.46672  -0.37501
 Alpha  occ. eigenvalues --   -0.36778
 Alpha virt. eigenvalues --    0.03001   0.03310   0.03500   0.04809   0.05636
 Alpha virt. eigenvalues --    0.07005   0.07315   0.07438   0.08828   0.09625
 Alpha virt. eigenvalues --    0.10836   0.11348   0.12034   0.13636   0.13803

 Mulliken charges:
               1
     1  S    3.846843
     2  O   -1.617682
     3  N   -0.272731
     4  C    0.573569
     5  C   -0.442938
     6  C    0.471321
     7  C   -0.072199
     8  C    0.471327
     9  C   -0.442941
    10  H   -0.221117
    11  H   -0.246278
    12  H   -0.246279
    13  H   -0.221116
    14  H   -0.196141
    15  O   -1.617683
    16  H    0.117023
    17  H    0.117022
 Sum of Mulliken charges =  -0.00000

 Dipole moment (field-independent basis, Debye):
    X=              2.6589    Y=             -0.0000    Z=              2.9570  Tot=              3.9766

 Test job not archived.
 1\1\GINC-SE361\SP\RHF\Aug-CC-pVDZ\C6H7N1O2S1\OHZDE\08-Apr-2025\0\\#t h
 f aug-cc-pvdz iop(5/13=1,5/36=2,99/5=2) pseudo=read geom=check guess=(
 read,tcheck) scf=(maxcycle=1)\\title\\0,1\S,0,-1.467309,0.000001,-0.15
 3122\O,0,-1.875868,1.267571,-0.71198\N,0,-1.938733,-0.000008,1.454087\
 C,0,0.31803,0.,-0.057421\C,0,0.999144,1.215076,-0.031404\C,0,2.389335,
 1.208665,0.040619\C,0,3.082835,-0.000001,0.080209\C,0,2.389334,-1.2086
 66,0.040619\C,0,0.999143,-1.215076,-0.031405\H,0,2.930311,-2.147591,0.
 057771\H,0,0.445364,-2.143383,-0.084358\H,0,0.445366,2.143383,-0.08435

 Normal termination of Gaussian 16 at Tue Apr  8 23:08:10 2025.
