 Gaussian 16, Revision C.01,

 ----------------------------------------------------------------------
 #t hf aug-cc-pvdz symm=none int=(grid=ultrafine) guess=(read,tcheck) s
 table=(opt,rrhf)
 ----------------------------------------------------------------------
 -----
 title
 -----
 Symbolic Z-matrix:
 Charge =  0 Multiplicity = 1

 SCF Done:  E(RHF) =  -799.085994171     A.U. after   12 cycles

 1\1\GINC-SE340\Stability\RHF\Aug-CC-pVDZ\H6N4Si2\OHZDE\09-Apr-2025\0\\
 #t hf aug-cc-pvdz symm=none int=(grid=ultrafine) guess=(read,tcheck) s
 table=(opt,rrhf)\\title\\0,1\Si,0,-0.655317,0.987851,-0.000001\Si,0,0.
 655317,-0.987851,0.000003\N,0,2.383642,-0.418816,-0.000006\H,0,0.52545
 1,-1.832019,-1.208684\H,0,0.525459,-1.832009,1.208697\N,0,2.453473,0.8
 25167,-0.000011\H,0,3.456088,1.100879,-0.000015\N,0,-2.383642,0.418816
 ,0.000004\H,0,-0.525457,1.832011,-1.208694\H,0,-0.525453,1.832018,1.20
 8687\N,0,-2.453473,-0.825167,0.000008\H,0,-3.456088,-1.10088,0.000011\

 Normal termination of Gaussian 16 at Wed Apr  9 00:11:40 2025.
 Gaussian 16:  ES64L-G16RevC.01  3-Jul-2019

 ----------------------------------------------------------------------
 #t hf aug-cc-pvdz iop(5/13=1,5/36=2,99/5=2) pseudo=read geom=check gue
 ss=(read,tcheck) scf=(maxcycle=1)
 ----------------------------------------------------------------------
 -----
 title
 -----
 Structure from the checkpoint file:  "BDE49_nonexpt_2394_mol1.chk"
 Charge =  0 Multiplicity = 1

                         Standard orientation:
 ---------------------------------------------------------------------
 Center     Atomic      Atomic             Coordinates (Angstroms)
 Number     Number       Type             X           Y           Z
 ---------------------------------------------------------------------
      1         14           0       -0.655317    0.987851   -0.000001
      2         14           0        0.655317   -0.987851    0.000003
      3          7           0        2.383642   -0.418816   -0.000006
      4          1           0        0.525451   -1.832019   -1.208684
      5          1           0        0.525459   -1.832009    1.208697
      6          7           0        2.453473    0.825167   -0.000011
      7          1           0        3.456088    1.100879   -0.000015
      8          7           0       -2.383642    0.418816    0.000004
      9          1           0       -0.525457    1.832011   -1.208694
     10          1           0       -0.525453    1.832018    1.208687
     11          7           0       -2.453473   -0.825167    0.000008
     12          1           0       -3.456088   -1.100880    0.000011
 ---------------------------------------------------------------------

 SCF Done:  E(RHF) =  -799.363091665     A.U. after    2 cycles

 The electronic state is 1-A.
 Alpha  occ. eigenvalues --  -69.55139 -69.55139 -15.57996 -15.57980 -15.55331
 Alpha  occ. eigenvalues --  -15.55322  -6.22116  -6.22113  -3.97470  -3.97467
 Alpha  occ. eigenvalues --   -3.97402  -3.97393  -3.97383  -3.97331  -1.35325
 Alpha  occ. eigenvalues --   -1.35310  -0.95519  -0.95160  -0.78232  -0.74441
 Alpha  occ. eigenvalues --   -0.71401  -0.69720  -0.61826  -0.61180  -0.58482
 Alpha  occ. eigenvalues --   -0.57524  -0.49942  -0.48583  -0.44851  -0.41999
 Alpha  occ. eigenvalues --   -0.40746
 Alpha virt. eigenvalues --    0.03447   0.04198   0.05021   0.05099   0.05819
 Alpha virt. eigenvalues --    0.06185   0.06676   0.06969   0.07233   0.07384
 Alpha virt. eigenvalues --    0.08000   0.09190   0.10278   0.10518   0.12300

 Mulliken charges:
               1
     1  Si   0.497136
     2  Si   0.497135
     3  N   -0.491329
     4  H   -0.107136
     5  H   -0.107136
     6  N    0.157280
     7  H    0.051185
     8  N   -0.491329
     9  H   -0.107136
    10  H   -0.107136
    11  N    0.157279
    12  H    0.051185
 Sum of Mulliken charges =  -0.00000

 Dipole moment (field-independent basis, Debye):
    X=              0.0000    Y=             -0.0000    Z=              0.0000  Tot=              0.0000

 Test job not archived.
 1\1\GINC-SE340\SP\RHF\Aug-CC-pVDZ\H6N4Si2\OHZDE\09-Apr-2025\0\\#t hf a
 ug-cc-pvdz iop(5/13=1,5/36=2,99/5=2) pseudo=read geom=check guess=(rea
 d,tcheck) scf=(maxcycle=1)\\title\\0,1\Si,0,-0.655317,0.987851,-0.0000
 01\Si,0,0.655317,-0.987851,0.000003\N,0,2.383642,-0.418816,-0.000006\H
 ,0,0.525451,-1.832019,-1.208684\H,0,0.525459,-1.832009,1.208697\N,0,2.
 453473,0.825167,-0.000011\H,0,3.456088,1.100879,-0.000015\N,0,-2.38364
 2,0.418816,0.000004\H,0,-0.525457,1.832011,-1.208694\H,0,-0.525453,1.8
 32018,1.208687\N,0,-2.453473,-0.825167,0.000008\H,0,-3.456088,-1.10088

 Normal termination of Gaussian 16 at Wed Apr  9 00:11:44 2025.
