 Gaussian 16, Revision C.01,

 ----------------------------------------------------------------------
 #t hf aug-cc-pvdz symm=none int=(grid=ultrafine) guess=(read,tcheck) s
 table=(opt,rrhf)
 ----------------------------------------------------------------------
 -----
 title
 -----
 Symbolic Z-matrix:
 Charge =  0 Multiplicity = 1

 SCF Done:  E(RHF) =  -610.673292892     A.U. after   14 cycles

 1\1\GINC-SE187\Stability\RHF\Aug-CC-pVDZ\C8H14O4\OHZDE\08-Apr-2025\0\\
 #t hf aug-cc-pvdz symm=none int=(grid=ultrafine) guess=(read,tcheck) s
 table=(opt,rrhf)\\title\\0,1\C,0,3.313016,1.637459,0.120924\C,0,2.7583
 86,0.22577,0.046245\H,0,2.835254,2.198218,0.928013\H,0,3.147219,2.1698
 91,-0.817658\H,0,4.388079,1.603361,0.313435\C,0,2.910249,-0.570555,1.3
 33939\H,0,3.969951,-0.676966,1.580776\H,0,2.482571,-1.568063,1.225547\
 H,0,2.40707,-0.062384,2.159711\O,0,1.326448,0.37828,-0.251491\H,0,3.19
 7847,-0.321461,-0.789595\C,0,0.73324,-0.63016,-0.872067\O,0,1.226479,-

 Normal termination of Gaussian 16 at Tue Apr  8 23:07:00 2025.
 Gaussian 16:  ES64L-G16RevC.01  3-Jul-2019

 ----------------------------------------------------------------------
 #t hf aug-cc-pvdz iop(5/13=1,5/36=2,99/5=2) pseudo=read geom=check gue
 ss=(read,tcheck) scf=(maxcycle=1)
 ----------------------------------------------------------------------
 -----
 title
 -----
 Structure from the checkpoint file:  "BDE49_expt_275_mol1.chk"
 Charge =  0 Multiplicity = 1

                         Standard orientation:
 ---------------------------------------------------------------------
 Center     Atomic      Atomic             Coordinates (Angstroms)
 Number     Number       Type             X           Y           Z
 ---------------------------------------------------------------------
      1          6           0        3.313016    1.637459    0.120924
      2          6           0        2.758386    0.225770    0.046245
      3          1           0        2.835254    2.198218    0.928013
      4          1           0        3.147219    2.169891   -0.817658
      5          1           0        4.388079    1.603361    0.313435
      6          6           0        2.910249   -0.570555    1.333939
      7          1           0        3.969951   -0.676966    1.580776
      8          1           0        2.482571   -1.568063    1.225547
      9          1           0        2.407070   -0.062384    2.159711
     10          8           0        1.326448    0.378280   -0.251491
     11          1           0        3.197847   -0.321461   -0.789595
     12          6           0        0.733240   -0.630160   -0.872067
     13          8           0        1.226479   -1.617274   -1.324820
     14          8           0       -0.620285   -0.344915   -1.016719
     15          6           0       -1.409067   -0.371220    0.119086
     16          8           0       -0.996315   -0.738557    1.181077
     17          6           0       -2.808596    0.111910   -0.204833
     18          6           0       -3.782762   -0.257510    0.915403
     19          1           0       -3.808448   -1.336238    1.081817
     20          1           0       -4.791582    0.074846    0.659042
     21          1           0       -3.490864    0.215320    1.855469
     22          6           0       -2.779409    1.629324   -0.480335
     23          1           0       -3.099303   -0.392184   -1.132720
     24          1           0       -2.467345    2.178765    0.412225
     25          1           0       -3.778138    1.974237   -0.757670
     26          1           0       -2.093258    1.872273   -1.292945
 ---------------------------------------------------------------------

 SCF Done:  E(RHF) =  -611.294623399     A.U. after    2 cycles

 The electronic state is 1-A.
 Alpha  occ. eigenvalues --  -20.61194 -20.60107 -20.55311 -20.54901 -11.45293
 Alpha  occ. eigenvalues --  -11.40677 -11.31159 -11.26794 -11.24529 -11.23991
 Alpha  occ. eigenvalues --  -11.23622 -11.23267  -1.60294  -1.52962  -1.48023
 Alpha  occ. eigenvalues --   -1.46449  -1.10642  -1.08022  -0.95487  -0.95273
 Alpha  occ. eigenvalues --   -0.94159  -0.86057  -0.81422  -0.78139  -0.73330
 Alpha  occ. eigenvalues --   -0.72363  -0.70631  -0.66784  -0.64380  -0.63745
 Alpha  occ. eigenvalues --   -0.62894  -0.61500  -0.58784  -0.57078  -0.56557
 Alpha  occ. eigenvalues --   -0.56074  -0.55328  -0.54723  -0.53674  -0.52248
 Alpha  occ. eigenvalues --   -0.51185  -0.50232  -0.50088  -0.49057  -0.46873
 Alpha  occ. eigenvalues --   -0.46505  -0.44519
 Alpha virt. eigenvalues --    0.03355   0.03505   0.03954   0.04001   0.04844
 Alpha virt. eigenvalues --    0.05107   0.05378   0.06677   0.07005   0.07155
 Alpha virt. eigenvalues --    0.07479   0.08462   0.08711   0.09613   0.10577

 Mulliken charges:
               1
     1  C   -0.263687
     2  C    0.095531
     3  H    0.207979
     4  H    0.155286
     5  H    0.179518
     6  C   -0.315587
     7  H    0.150258
     8  H    0.140414
     9  H    0.250845
    10  O   -1.334896
    11  H    0.214511
    12  C    2.623627
    13  O   -1.165640
    14  O   -1.596581
    15  C    2.221333
    16  O   -1.310843
    17  C   -1.420321
    18  C   -0.030881
    19  H    0.147377
    20  H    0.161093
    21  H    0.238470
    22  C   -0.132694
    23  H    0.251444
    24  H    0.233671
    25  H    0.131176
    26  H    0.168596
 Sum of Mulliken charges =   0.00000

 Dipole moment (field-independent basis, Debye):
    X=             -0.3156    Y=              2.7320    Z=              0.1515  Tot=              2.7543

 Test job not archived.
 1\1\GINC-SE187\SP\RHF\Aug-CC-pVDZ\C8H14O4\OHZDE\08-Apr-2025\0\\#t hf a
 ug-cc-pvdz iop(5/13=1,5/36=2,99/5=2) pseudo=read geom=check guess=(rea
 d,tcheck) scf=(maxcycle=1)\\title\\0,1\C,0,3.313016,1.637459,0.120924\
 C,0,2.758386,0.22577,0.046245\H,0,2.835254,2.198218,0.928013\H,0,3.147
 219,2.169891,-0.817658\H,0,4.388079,1.603361,0.313435\C,0,2.910249,-0.
 570555,1.333939\H,0,3.969951,-0.676966,1.580776\H,0,2.482571,-1.568063
 ,1.225547\H,0,2.40707,-0.062384,2.159711\O,0,1.326448,0.37828,-0.25149
 1\H,0,3.197847,-0.321461,-0.789595\C,0,0.73324,-0.63016,-0.872067\O,0,

 Normal termination of Gaussian 16 at Tue Apr  8 23:07:21 2025.
