 Gaussian 16, Revision C.01,

 ----------------------------------------------------------------------
 #t hf aug-cc-pvdz symm=none int=(grid=ultrafine) guess=(read,tcheck) s
 table=(opt,rrhf)
 ----------------------------------------------------------------------
 -----
 title
 -----
 Symbolic Z-matrix:
 Charge =  0 Multiplicity = 1

 SCF Done:  E(RHF) =  -627.080344325     A.U. after   15 cycles
 Normal termination of Gaussian 16 at Tue Apr  8 23:34:49 2025.
 Gaussian 16:  ES64L-G16RevC.01  3-Jul-2019

 ----------------------------------------------------------------------
 #t hf aug-cc-pvdz iop(5/13=1,5/36=2,99/5=2) pseudo=read geom=check gue
 ss=(read,tcheck) scf=(maxcycle=1)
 ----------------------------------------------------------------------
 -----
 title
 -----
 Structure from the checkpoint file:  "BDE49_nonexpt_1480_mol1.chk"
 Charge =  0 Multiplicity = 1

                         Standard orientation:
 ---------------------------------------------------------------------
 Center     Atomic      Atomic             Coordinates (Angstroms)
 Number     Number       Type             X           Y           Z
 ---------------------------------------------------------------------
      1          6           0       -2.730952   -0.394462    0.000004
      2          6           0       -2.345912    0.944492    0.000006
      3          6           0       -1.000944    1.294959    0.000002
      4          6           0       -1.742399   -1.375966   -0.000003
      5          6           0       -0.392752   -1.038274   -0.000007
      6          6           0       -0.001672    0.308758   -0.000005
      7          1           0       -3.779402   -0.667064    0.000007
      8          1           0       -3.096573    1.727286    0.000011
      9          1           0       -0.715663    2.342866    0.000004
     10          1           0       -2.020287   -2.424381   -0.000004
     11          1           0        0.357626   -1.818950   -0.000012
     12          7           0        1.343392    0.709420   -0.000010
     13         15           0        2.714039   -0.323373    0.000004
     14          1           0        1.473829    1.709940   -0.000009
     15          1           0        3.476951    0.288959    1.032105
     16          1           0        3.476969    0.288961   -1.032082
 ---------------------------------------------------------------------

 SCF Done:  E(RHF) =  -627.420923615     A.U. after    2 cycles

 The electronic state is 1-A.
 Alpha  occ. eigenvalues --  -84.30478 -15.51549 -11.29055 -11.24400 -11.24296
 Alpha  occ. eigenvalues --  -11.23353 -11.22989 -11.22739  -6.77159  -4.30219
 Alpha  occ. eigenvalues --   -4.29265  -4.29081  -1.23188  -1.13249  -1.01536
 Alpha  occ. eigenvalues --   -0.99979  -0.88415  -0.84293  -0.80364  -0.73435
 Alpha  occ. eigenvalues --   -0.68758  -0.64970  -0.61733  -0.59687  -0.58923
 Alpha  occ. eigenvalues --   -0.58568  -0.52273  -0.51237  -0.50130  -0.45192
 Alpha  occ. eigenvalues --   -0.36188  -0.34629  -0.30922
 Alpha virt. eigenvalues --    0.03209   0.04022   0.04103   0.04926   0.05483
 Alpha virt. eigenvalues --    0.06609   0.07359   0.07975   0.09067   0.09294
 Alpha virt. eigenvalues --    0.10705   0.12056   0.12854   0.12999   0.13031

 Mulliken charges:
               1
     1  C   -0.091286
     2  C    0.393640
     3  C    0.224615
     4  C    0.403135
     5  C    0.808707
     6  C   -1.402388
     7  H   -0.222729
     8  H   -0.221029
     9  H   -0.329070
    10  H   -0.225043
    11  H   -0.280264
    12  N    0.946391
    13  P   -0.382043
    14  H   -0.183975
    15  H    0.280672
    16  H    0.280668
 Sum of Mulliken charges =  -0.00000

 Dipole moment (field-independent basis, Debye):
    X=              0.7450    Y=              0.9442    Z=              0.0000  Tot=              1.2028

 Test job not archived.
 1\1\GINC-SE069\SP\RHF\Aug-CC-pVDZ\C6H8N1P1\OHZDE\08-Apr-2025\0\\#t hf
 aug-cc-pvdz iop(5/13=1,5/36=2,99/5=2) pseudo=read geom=check guess=(re
 ad,tcheck) scf=(maxcycle=1)\\title\\0,1\C,0,-2.730952,-0.394462,0.0000
 04\C,0,-2.345912,0.944492,0.000006\C,0,-1.000944,1.294959,0.000002\C,0
 ,-1.742399,-1.375966,-0.000003\C,0,-0.392752,-1.038274,-0.000007\C,0,-
 0.001672,0.308758,-0.000005\H,0,-3.779402,-0.667064,0.000007\H,0,-3.09
 6573,1.727286,0.000011\H,0,-0.715663,2.342866,0.000004\H,0,-2.020287,-
 2.424381,-0.000004\H,0,0.357626,-1.81895,-0.000012\N,0,1.343392,0.7094

 Normal termination of Gaussian 16 at Tue Apr  8 23:34:56 2025.
