 Gaussian 16, Revision C.01,

 ----------------------------------------------------------------------
 #t hf aug-cc-pvdz symm=none int=(grid=ultrafine) guess=(read,tcheck) s
 table=(opt,rrhf)
 ----------------------------------------------------------------------
 -----
 title
 -----
 Symbolic Z-matrix:
 Charge =  0 Multiplicity = 1

 SCF Done:  E(RHF) =  -558.082672038     A.U. after   14 cycles
 Normal termination of Gaussian 16 at Wed Apr  9 00:08:57 2025.
 Gaussian 16:  ES64L-G16RevC.01  3-Jul-2019

 ----------------------------------------------------------------------
 #t hf aug-cc-pvdz iop(5/13=1,5/36=2,99/5=2) pseudo=read geom=check gue
 ss=(read,tcheck) scf=(maxcycle=1)
 ----------------------------------------------------------------------
 -----
 title
 -----
 Structure from the checkpoint file:  "BDE49_nonexpt_2291_mol1.chk"
 Charge =  0 Multiplicity = 1

                         Standard orientation:
 ---------------------------------------------------------------------
 Center     Atomic      Atomic             Coordinates (Angstroms)
 Number     Number       Type             X           Y           Z
 ---------------------------------------------------------------------
      1         14           0       -0.357980    0.005956    0.039975
      2          8           0        0.965036   -0.182961   -1.011567
      3          8           0        2.189656    0.057772   -0.238360
      4          1           0        2.683298   -0.739101   -0.472172
      5          6           0       -1.800218   -0.256597   -1.123285
      6          1           0       -1.795772    0.482214   -1.928889
      7          1           0       -2.747001   -0.159179   -0.582328
      8          1           0       -1.772809   -1.251510   -1.575471
      9          6           0       -0.296491   -1.296978    1.384618
     10          1           0       -0.311742   -2.305097    0.960256
     11          1           0       -1.154386   -1.204609    2.058381
     12          1           0        0.611123   -1.194205    1.985201
     13          6           0       -0.351560    1.725927    0.773990
     14          1           0       -0.405105    2.486249   -0.010070
     15          1           0        0.561607    1.899616    1.348885
     16          1           0       -1.205412    1.869635    1.444036
 ---------------------------------------------------------------------

 SCF Done:  E(RHF) =  -558.397190040     A.U. after    2 cycles

 The electronic state is 1-A.
 Alpha  occ. eigenvalues --  -69.54030 -20.61372 -20.58486 -11.21226 -11.21200
 Alpha  occ. eigenvalues --  -11.20910  -6.20731  -3.96176  -3.96032  -3.95990
 Alpha  occ. eigenvalues --   -1.55598  -1.26152  -0.97595  -0.93327  -0.93130
 Alpha  occ. eigenvalues --   -0.70459  -0.68705  -0.60858  -0.59477  -0.57313
 Alpha  occ. eigenvalues --   -0.56626  -0.55145  -0.54770  -0.54489  -0.53954
 Alpha  occ. eigenvalues --   -0.49508  -0.46055  -0.44447  -0.42442
 Alpha virt. eigenvalues --    0.03258   0.03841   0.04423   0.04569   0.06382
 Alpha virt. eigenvalues --    0.06591   0.06821   0.07363   0.07523   0.09366
 Alpha virt. eigenvalues --    0.09977   0.10674   0.12105   0.13130   0.14760

 Mulliken charges:
               1
     1  Si   3.696871
     2  O   -1.254762
     3  O   -0.746463
     4  H    0.483304
     5  C   -0.629397
     6  H   -0.022337
     7  H   -0.030209
     8  H   -0.032990
     9  C   -0.639841
    10  H   -0.069020
    11  H    0.020452
    12  H   -0.057313
    13  C   -0.628942
    14  H   -0.060455
    15  H   -0.041456
    16  H    0.012556
 Sum of Mulliken charges =   0.00000

 Dipole moment (field-independent basis, Debye):
    X=             -0.5855    Y=             -1.0395    Z=              0.8407  Tot=              1.4595

 Test job not archived.
 1\1\GINC-SE343\SP\RHF\Aug-CC-pVDZ\C3H10O2Si1\OHZDE\09-Apr-2025\0\\#t h
 f aug-cc-pvdz iop(5/13=1,5/36=2,99/5=2) pseudo=read geom=check guess=(
 read,tcheck) scf=(maxcycle=1)\\title\\0,1\Si,0,-0.35798,0.005956,0.039
 975\O,0,0.965036,-0.182961,-1.011567\O,0,2.189656,0.057772,-0.23836\H,
 0,2.683298,-0.739101,-0.472172\C,0,-1.800218,-0.256597,-1.123285\H,0,-
 1.795772,0.482214,-1.928889\H,0,-2.747001,-0.159179,-0.582328\H,0,-1.7
 72809,-1.25151,-1.575471\C,0,-0.296491,-1.296978,1.384618\H,0,-0.31174
 2,-2.305097,0.960256\H,0,-1.154386,-1.204609,2.058381\H,0,0.611123,-1.

 Normal termination of Gaussian 16 at Wed Apr  9 00:09:03 2025.
