 Gaussian 16, Revision C.01,

 ----------------------------------------------------------------------
 #t hf aug-cc-pvdz symm=none int=(grid=ultrafine) guess=(read,tcheck) s
 table=(opt,rrhf)
 ----------------------------------------------------------------------
 -----
 title
 -----
 Symbolic Z-matrix:
 Charge =  0 Multiplicity = 1

 SCF Done:  E(RHF) =  -1092.73712536     A.U. after   13 cycles
 Normal termination of Gaussian 16 at Wed Apr  9 00:13:49 2025.
 Gaussian 16:  ES64L-G16RevC.01  3-Jul-2019

 ----------------------------------------------------------------------
 #t hf aug-cc-pvdz iop(5/13=1,5/36=2,99/5=2) pseudo=read geom=check gue
 ss=(read,tcheck) scf=(maxcycle=1)
 ----------------------------------------------------------------------
 -----
 title
 -----
 Structure from the checkpoint file:  "BDE49_nonexpt_2459_mol1.chk"
 Charge =  0 Multiplicity = 1

                         Standard orientation:
 ---------------------------------------------------------------------
 Center     Atomic      Atomic             Coordinates (Angstroms)
 Number     Number       Type             X           Y           Z
 ---------------------------------------------------------------------
      1         14           0       -2.106948   -0.532989    0.294581
      2         14           0       -0.568449    1.158839   -0.285566
      3          1           0       -2.348298   -1.428778   -0.852891
      4          1           0       -3.382283    0.123755    0.676247
      5          1           0       -1.603367   -1.290620    1.461368
      6         16           0        1.387722    0.041973   -0.434724
      7          1           0       -0.470200    2.297426    0.664446
      8          1           0       -0.800095    1.694581   -1.646985
      9          8           0        0.921720   -1.347094   -0.836033
     10          6           0        1.798682   -0.000368    1.357061
     11          1           0        2.037674    1.012108    1.689710
     12          1           0        2.677337   -0.640201    1.449728
     13          1           0        0.975380   -0.422789    1.933654
 ---------------------------------------------------------------------

 SCF Done:  E(RHF) =  -1092.98597269     A.U. after    2 cycles

 The electronic state is 1-A.
 Alpha  occ. eigenvalues --  -94.05280 -69.56334 -69.53800 -20.49253 -11.28205
 Alpha  occ. eigenvalues --   -8.32357  -6.30191  -6.30049  -6.29877  -6.23408
 Alpha  occ. eigenvalues --   -6.20925  -3.98747  -3.98670  -3.98641  -3.96300
 Alpha  occ. eigenvalues --   -3.96278  -3.96269  -1.41427  -1.05057  -0.88455
 Alpha  occ. eigenvalues --   -0.78521  -0.70556  -0.62860  -0.62149  -0.58860
 Alpha  occ. eigenvalues --   -0.55247  -0.52463  -0.51655  -0.49426  -0.49011
 Alpha  occ. eigenvalues --   -0.43225  -0.39870  -0.35285
 Alpha virt. eigenvalues --    0.03053   0.03474   0.03977   0.05136   0.05782
 Alpha virt. eigenvalues --    0.06469   0.07160   0.07423   0.08195   0.08877
 Alpha virt. eigenvalues --    0.09433   0.09851   0.10293   0.11164   0.11595

 Mulliken charges:
               1
     1  Si   0.387398
     2  Si   0.671535
     3  H   -0.039449
     4  H   -0.139371
     5  H   -0.078223
     6  S    0.961045
     7  H   -0.110072
     8  H   -0.166322
     9  O   -1.349555
    10  C   -0.676998
    11  H    0.182535
    12  H    0.183899
    13  H    0.173579
 Sum of Mulliken charges =   0.00000

 Dipole moment (field-independent basis, Debye):
    X=             -0.3805    Y=              3.1479    Z=              2.5721  Tot=              4.0829

 Test job not archived.
 1\1\GINC-SE460\SP\RHF\Aug-CC-pVDZ\C1H8O1S1Si2\OHZDE\09-Apr-2025\0\\#t
 hf aug-cc-pvdz iop(5/13=1,5/36=2,99/5=2) pseudo=read geom=check guess=
 (read,tcheck) scf=(maxcycle=1)\\title\\0,1\Si,0,-2.106948,-0.532989,0.
 294581\Si,0,-0.568449,1.158839,-0.285566\H,0,-2.348298,-1.428778,-0.85
 2891\H,0,-3.382283,0.123755,0.676247\H,0,-1.603367,-1.29062,1.461368\S
 ,0,1.387722,0.041973,-0.434724\H,0,-0.4702,2.297426,0.664446\H,0,-0.80
 0095,1.694581,-1.646985\O,0,0.92172,-1.347094,-0.836033\C,0,1.798682,-
 0.000368,1.357061\H,0,2.037674,1.012108,1.68971\H,0,2.677337,-0.640201

 Normal termination of Gaussian 16 at Wed Apr  9 00:13:52 2025.
