 Gaussian 16, Revision C.01,

 ----------------------------------------------------------------------
 #t hf aug-cc-pvdz symm=none int=(grid=ultrafine) guess=(read,tcheck) s
 table=(opt,rrhf)
 ----------------------------------------------------------------------
 -----
 title
 -----
 Symbolic Z-matrix:
 Charge =  0 Multiplicity = 1

 SCF Done:  E(RHF) =  -1265.16620599     A.U. after   13 cycles
 Normal termination of Gaussian 16 at Wed Apr  9 00:11:25 2025.
 Gaussian 16:  ES64L-G16RevC.01  3-Jul-2019

 ----------------------------------------------------------------------
 #t hf aug-cc-pvdz iop(5/13=1,5/36=2,99/5=2) pseudo=read geom=check gue
 ss=(read,tcheck) scf=(maxcycle=1)
 ----------------------------------------------------------------------
 -----
 title
 -----
 Structure from the checkpoint file:  "BDE49_nonexpt_235_mol1.chk"
 Charge =  0 Multiplicity = 1

                         Standard orientation:
 ---------------------------------------------------------------------
 Center     Atomic      Atomic             Coordinates (Angstroms)
 Number     Number       Type             X           Y           Z
 ---------------------------------------------------------------------
      1         17           0       -1.735935    1.521137    0.620428
      2          5           0       -1.331392   -0.062770   -0.030961
      3         17           0       -2.624754   -1.240955   -0.294981
      4          8           0       -0.074317   -0.480366   -0.290475
      5          6           0        1.072465    0.321802   -0.427579
      6          8           0        1.030945    1.394149   -0.969002
      7          7           0        2.165347   -0.305775    0.066737
      8          6           0        2.164557   -1.607286    0.724448
      9          1           0        2.399460   -1.500463    1.789269
     10          1           0        2.925379   -2.246547    0.266525
     11          1           0        1.196460   -2.085189    0.619211
     12          6           0        3.450657    0.378634   -0.017966
     13          1           0        4.167363   -0.234778   -0.572853
     14          1           0        3.849790    0.561776    0.984912
     15          1           0        3.313698    1.327208   -0.529597
 ---------------------------------------------------------------------

 SCF Done:  E(RHF) =  -1265.66356333     A.U. after    2 cycles

 The electronic state is 1-A.
 Alpha  occ. eigenvalues -- -105.57545-105.57538 -20.60962 -20.53438 -15.55210
 Alpha  occ. eigenvalues --  -11.43734 -11.29032 -11.28282 -10.62567 -10.62538
 Alpha  occ. eigenvalues --   -7.79470  -7.79446  -7.79160  -7.79154  -7.79126
 Alpha  occ. eigenvalues --   -7.79118  -7.75438  -1.56259  -1.47188  -1.27928
 Alpha  occ. eigenvalues --   -1.10527  -1.06035  -1.00322  -0.99649  -0.85168
 Alpha  occ. eigenvalues --   -0.76748  -0.72499  -0.70803  -0.67387  -0.64596
 Alpha  occ. eigenvalues --   -0.64241  -0.61343  -0.59390  -0.58545  -0.56875
 Alpha  occ. eigenvalues --   -0.56388  -0.53481  -0.50505  -0.49436  -0.47993
 Alpha  occ. eigenvalues --   -0.46348  -0.45933  -0.42305
 Alpha virt. eigenvalues --    0.02896   0.04193   0.04263   0.05228   0.05762
 Alpha virt. eigenvalues --    0.06268   0.06487   0.06912   0.07585   0.09363
 Alpha virt. eigenvalues --    0.10502   0.11115   0.12564   0.12884   0.13394

 Mulliken charges:
               1
     1  Cl  -0.291108
     2  B    0.702650
     3  Cl  -0.360995
     4  O   -1.059635
     5  C    1.129584
     6  O   -1.056585
     7  N    0.699713
     8  C   -0.306174
     9  H    0.184162
    10  H    0.162261
    11  H    0.047088
    12  C   -0.262535
    13  H    0.194404
    14  H    0.213065
    15  H    0.004106
 Sum of Mulliken charges =  -0.00000

 Dipole moment (field-independent basis, Debye):
    X=              3.2638    Y=             -2.2936    Z=              1.5935  Tot=              4.2956

 Test job not archived.
 1\1\GINC-SE423\SP\RHF\Aug-CC-pVDZ\C3H6B1Cl2N1O2\OHZDE\09-Apr-2025\0\\#
 t hf aug-cc-pvdz iop(5/13=1,5/36=2,99/5=2) pseudo=read geom=check gues
 s=(read,tcheck) scf=(maxcycle=1)\\title\\0,1\Cl,0,-1.735935,1.521137,0
 .620428\B,0,-1.331392,-0.06277,-0.030961\Cl,0,-2.624754,-1.240955,-0.2
 94981\O,0,-0.074317,-0.480366,-0.290475\C,0,1.072465,0.321802,-0.42757
 9\O,0,1.030945,1.394149,-0.969002\N,0,2.165347,-0.305775,0.066737\C,0,
 2.164557,-1.607286,0.724448\H,0,2.39946,-1.500463,1.789269\H,0,2.92537
 9,-2.246547,0.266525\H,0,1.19646,-2.085189,0.619211\C,0,3.450657,0.378

 Normal termination of Gaussian 16 at Wed Apr  9 00:11:31 2025.
