 Gaussian 16, Revision C.01,

 ----------------------------------------------------------------------
 #t hf aug-cc-pvdz symm=none int=(grid=ultrafine) guess=(read,tcheck) s
 table=(opt,rrhf)
 ----------------------------------------------------------------------
 -----
 title
 -----
 Symbolic Z-matrix:
 Charge =  0 Multiplicity = 1

 SCF Done:  E(RHF) =  -1030.96155551     A.U. after   16 cycles
 Normal termination of Gaussian 16 at Tue Apr  8 23:32:41 2025.
 Gaussian 16:  ES64L-G16RevC.01  3-Jul-2019

 ----------------------------------------------------------------------
 #t hf aug-cc-pvdz iop(5/13=1,5/36=2,99/5=2) pseudo=read geom=check gue
 ss=(read,tcheck) scf=(maxcycle=1)
 ----------------------------------------------------------------------
 -----
 title
 -----
 Structure from the checkpoint file:  "BDE49_nonexpt_1420_mol1.chk"
 Charge =  0 Multiplicity = 1

                         Standard orientation:
 ---------------------------------------------------------------------
 Center     Atomic      Atomic             Coordinates (Angstroms)
 Number     Number       Type             X           Y           Z
 ---------------------------------------------------------------------
      1          6           0       -0.739975   -1.212985    0.000009
      2          6           0        0.654239   -1.206981    0.000002
      3          6           0        1.375377   -0.008494    0.000009
      4          6           0       -1.417602   -0.000894    0.000007
      5          6           0       -0.728663    1.209873    0.000010
      6          6           0        0.661471    1.197835    0.000013
      7          1           0       -1.290935   -2.144551    0.000007
      8          1           0        1.184202   -2.153096   -0.000009
      9         15           0        3.223785   -0.111634   -0.000044
     10          1           0        1.192857    2.142651    0.000028
     11         17           0       -3.172787    0.008777   -0.000008
     12          1           0       -1.275551    2.144026    0.000009
     13          1           0        3.470496    0.832767    1.030752
     14          1           0        3.470445    0.833378   -1.030287
 ---------------------------------------------------------------------

 SCF Done:  E(RHF) =  -1031.31728073     A.U. after    2 cycles

 The electronic state is 1-A.
 Alpha  occ. eigenvalues -- -105.57745 -84.28336 -11.32014 -11.26689 -11.26595
 Alpha  occ. eigenvalues --  -11.26472 -11.26426 -11.26375 -10.62543  -7.79508
 Alpha  occ. eigenvalues --   -7.79109  -7.79094  -6.75386  -4.28180  -4.27620
 Alpha  occ. eigenvalues --   -4.27424  -1.19162  -1.10530  -1.04149  -1.00402
 Alpha  occ. eigenvalues --   -0.87851  -0.86414  -0.80960  -0.69838  -0.67661
 Alpha  occ. eigenvalues --   -0.65586  -0.62247  -0.57388  -0.56399  -0.53472
 Alpha  occ. eigenvalues --   -0.52288  -0.48687  -0.47479  -0.47027  -0.36761
 Alpha  occ. eigenvalues --   -0.35883  -0.35123
 Alpha virt. eigenvalues --    0.03333   0.03856   0.04320   0.05737   0.05971
 Alpha virt. eigenvalues --    0.06153   0.07768   0.08057   0.08666   0.09740
 Alpha virt. eigenvalues --    0.10606   0.11151   0.12213   0.12505   0.13766

 Mulliken charges:
               1
     1  C    0.321060
     2  C   -0.300900
     3  C   -0.016230
     4  C   -0.153620
     5  C    0.261256
     6  C    0.863889
     7  H   -0.169942
     8  H   -0.233397
     9  P   -0.643475
    10  H   -0.250612
    11  Cl  -0.309624
    12  H   -0.175781
    13  H    0.403727
    14  H    0.403650
 Sum of Mulliken charges =  -0.00000

 Dipole moment (field-independent basis, Debye):
    X=              1.1653    Y=              0.4525    Z=              0.0001  Tot=              1.2501

 Test job not archived.
 1\1\GINC-SE334\SP\RHF\Aug-CC-pVDZ\C6H6Cl1P1\OHZDE\08-Apr-2025\0\\#t hf
  aug-cc-pvdz iop(5/13=1,5/36=2,99/5=2) pseudo=read geom=check guess=(r
 ead,tcheck) scf=(maxcycle=1)\\title\\0,1\C,0,-0.739975,-1.212985,0.000
 009\C,0,0.654239,-1.206981,0.000002\C,0,1.375377,-0.008494,0.000009\C,
 0,-1.417602,-0.000894,0.000007\C,0,-0.728663,1.209873,0.00001\C,0,0.66
 1471,1.197835,0.000013\H,0,-1.290935,-2.144551,0.000007\H,0,1.184202,-
 2.153096,-0.000009\P,0,3.223785,-0.111634,-0.000044\H,0,1.192857,2.142
 651,0.000028\Cl,0,-3.172787,0.008777,-0.000008\H,0,-1.275551,2.144026,

 Normal termination of Gaussian 16 at Tue Apr  8 23:32:47 2025.
