 Gaussian 16, Revision C.01,

 ----------------------------------------------------------------------
 #t hf aug-cc-pvdz symm=none int=(grid=ultrafine) guess=(read,tcheck) s
 table=(opt,rrhf)
 ----------------------------------------------------------------------
 -----
 title
 -----
 Symbolic Z-matrix:
 Charge =  0 Multiplicity = 1

 SCF Done:  E(RHF) =  -1106.55533285     A.U. after   15 cycles

 1\1\GINC-SE184\Stability\RHF\Aug-CC-pVDZ\C1Cl2O2\OHZDE\08-Apr-2025\0\\
 #t hf aug-cc-pvdz symm=none int=(grid=ultrafine) guess=(read,tcheck) s
 table=(opt,rrhf)\\title\\0,1\Cl,0,-1.248901,-1.703045,0.\O,0,0.219482,
 -0.75349,0.\C,0,0.,0.582429,0.\O,0,-1.011408,1.182725,0.\Cl,0,1.621573
 ,1.295489,0.\\Version=ES64L-G16RevC.01\HF=-1106.5553328\RMSD=2.875e-09
 \Dipole=0.1367069,-0.4971924,0.\Quadrupole=0.2674619,-0.464391,0.19692
 91,3.5410239,0.,0.\PG=Unknown\\@
 The archive entry for this job was punched.

 Normal termination of Gaussian 16 at Tue Apr  8 23:17:49 2025.
 Gaussian 16:  ES64L-G16RevC.01  3-Jul-2019

 ----------------------------------------------------------------------
 #t hf aug-cc-pvdz iop(5/13=1,5/36=2,99/5=2) pseudo=read geom=check gue
 ss=(read,tcheck) scf=(maxcycle=1)
 ----------------------------------------------------------------------
 -----
 title
 -----
 Structure from the checkpoint file:  "BDE49_nonexpt_1047_mol1.chk"
 Charge =  0 Multiplicity = 1

                         Standard orientation:
 ---------------------------------------------------------------------
 Center     Atomic      Atomic             Coordinates (Angstroms)
 Number     Number       Type             X           Y           Z
 ---------------------------------------------------------------------
      1         17           0       -1.248902   -1.703044    0.000000
      2          8           0        0.219481   -0.753490    0.000000
      3          6           0        0.000000    0.582429   -0.000000
      4          8           0       -1.011408    1.182725    0.000000
      5         17           0        1.621573    1.295488   -0.000000
 ---------------------------------------------------------------------

 SCF Done:  E(RHF) =  -1106.87934870     A.U. after    2 cycles

 The electronic state is 1-A'.
 Alpha  occ. eigenvalues -- -105.66654-105.61520 -20.69765 -20.60236 -11.49201
 Alpha  occ. eigenvalues --  -10.70790 -10.66354  -7.87785  -7.87176  -7.87162
 Alpha  occ. eigenvalues --   -7.83302  -7.82869  -7.82852  -1.60522  -1.52822
 Alpha  occ. eigenvalues --   -1.14176  -1.06635  -0.84465  -0.74758  -0.73214
 Alpha  occ. eigenvalues --   -0.71503  -0.61546  -0.58132  -0.52260  -0.51679
 Alpha  occ. eigenvalues --   -0.50475  -0.49115  -0.49111
 Alpha virt. eigenvalues --    0.02327   0.06813   0.08528   0.09862   0.10349
 Alpha virt. eigenvalues --    0.11170   0.12660   0.13668   0.14995   0.15478
 Alpha virt. eigenvalues --    0.16615   0.16827   0.19800   0.22121   0.22623

 Mulliken charges:
               1
     1  Cl   0.416589
     2  O   -0.914560
     3  C    1.240458
     4  O   -0.766929
     5  Cl   0.024442
 Sum of Mulliken charges =   0.00000

 Dipole moment (field-independent basis, Debye):
    X=              0.3713    Y=             -1.1525    Z=              0.0000  Tot=              1.2108

 Test job not archived.
 1\1\GINC-SE184\SP\RHF\Aug-CC-pVDZ\C1Cl2O2\OHZDE\08-Apr-2025\0\\#t hf a
 ug-cc-pvdz iop(5/13=1,5/36=2,99/5=2) pseudo=read geom=check guess=(rea
 d,tcheck) scf=(maxcycle=1)\\title\\0,1\Cl,0,-1.248901,-1.703045,0.\O,0
 ,0.219482,-0.75349,0.\C,0,0.,0.582429,0.\O,0,-1.011408,1.182725,0.\Cl,
 0,1.621573,1.295489,0.\\Version=ES64L-G16RevC.01\State=1-A'\HF=-1106.8
 793487\RMSD=6.195e-03\Dipole=0.1460897,-0.453428,0.\Quadrupole=0.26269
 09,-0.4713356,0.2086448,3.2130176,0.,0.\PG=CS [SG(C1Cl2O2)]\\@

 Normal termination of Gaussian 16 at Tue Apr  8 23:17:51 2025.
