 Gaussian 16, Revision C.01,

 ----------------------------------------------------------------------
 #t hf aug-cc-pvdz symm=none int=(grid=ultrafine) guess=(read,tcheck) s
 table=(opt,rrhf)
 ----------------------------------------------------------------------
 -----
 title
 -----
 Symbolic Z-matrix:
 Charge =  0 Multiplicity = 1

 SCF Done:  E(RHF) =  -2611.38825319     A.U. after   12 cycles
 Normal termination of Gaussian 16 at Tue Apr  8 23:43:19 2025.
 Gaussian 16:  ES64L-G16RevC.01  3-Jul-2019

 ----------------------------------------------------------------------
 #t hf aug-cc-pvdz iop(5/13=1,5/36=2,99/5=2) pseudo=read geom=check gue
 ss=(read,tcheck) scf=(maxcycle=1)
 ----------------------------------------------------------------------
 -----
 title
 -----
 Structure from the checkpoint file:  "BDE49_nonexpt_169_mol1.chk"
 Charge =  0 Multiplicity = 1

                         Standard orientation:
 ---------------------------------------------------------------------
 Center     Atomic      Atomic             Coordinates (Angstroms)
 Number     Number       Type             X           Y           Z
 ---------------------------------------------------------------------
      1         17           0       -2.215647    1.543062    0.000114
      2         17           0       -2.185479   -1.488850    0.000090
      3          5           0       -1.330753    0.037305    0.000719
      4         14           0        0.693086    0.009872    0.000024
      5         17           0        1.358826   -0.988774   -1.677328
      6         17           0        1.503178    1.901764   -0.001601
      7         17           0        1.359743   -0.986304    1.678494
 ---------------------------------------------------------------------

 SCF Done:  E(RHF) =  -2611.82295177     A.U. after    2 cycles

 The electronic state is 1-A.
 Alpha  occ. eigenvalues -- -105.60348-105.60263-105.58919-105.58918-105.58819
 Alpha  occ. eigenvalues --  -69.67831 -10.65359 -10.65268 -10.63934 -10.63922
 Alpha  occ. eigenvalues --  -10.63833  -7.82251  -7.82161  -7.81968  -7.81908
 Alpha  occ. eigenvalues --   -7.81876  -7.81826  -7.80821  -7.80814  -7.80726
 Alpha  occ. eigenvalues --   -7.80489  -7.80486  -7.80482  -7.80481  -7.80391
 Alpha  occ. eigenvalues --   -7.80390  -7.74594  -6.33713  -4.09060  -4.09059
 Alpha  occ. eigenvalues --   -4.08861  -1.13874  -1.11802  -1.08607  -1.06850
 Alpha  occ. eigenvalues --   -1.06681  -0.77294  -0.69505  -0.61816  -0.61169
 Alpha  occ. eigenvalues --   -0.59656  -0.58881  -0.55314  -0.52794  -0.51946
 Alpha  occ. eigenvalues --   -0.51792  -0.50042  -0.49977  -0.49225  -0.48170
 Alpha  occ. eigenvalues --   -0.47862  -0.44726
 Alpha virt. eigenvalues --    0.01695   0.04318   0.05037   0.05554   0.05637
 Alpha virt. eigenvalues --    0.07520   0.07545   0.07778   0.09456   0.11338
 Alpha virt. eigenvalues --    0.12184   0.12330   0.13936   0.14434   0.15212

 Mulliken charges:
               1
     1  Cl  -0.282512
     2  Cl  -0.299237
     3  B    0.287661
     4  Si   1.841760
     5  Cl  -0.513464
     6  Cl  -0.520734
     7  Cl  -0.513473
 Sum of Mulliken charges =  -0.00000

 Dipole moment (field-independent basis, Debye):
    X=             -0.9541    Y=              0.1179    Z=              0.0007  Tot=              0.9614

 Test job not archived.
 1\1\GINC-SE106\SP\RHF\Aug-CC-pVDZ\B1Cl5Si1\OHZDE\08-Apr-2025\0\\#t hf
 aug-cc-pvdz iop(5/13=1,5/36=2,99/5=2) pseudo=read geom=check guess=(re
 ad,tcheck) scf=(maxcycle=1)\\title\\0,1\Cl,0,-2.215647,1.543062,0.0001
 14\Cl,0,-2.185479,-1.48885,0.00009\B,0,-1.330753,0.037305,0.000719\Si,
 0,0.693086,0.009872,0.000024\Cl,0,1.358826,-0.988774,-1.677328\Cl,0,1.
 503178,1.901764,-0.001601\Cl,0,1.359743,-0.986304,1.678494\\Version=ES
 64L-G16RevC.01\State=1-A\HF=-2611.8229518\RMSD=6.000e-03\Dipole=-0.375
 3771,0.0464004,0.0002702\Quadrupole=-0.7613681,0.0250346,0.7363335,-0.

 Normal termination of Gaussian 16 at Tue Apr  8 23:43:23 2025.
