 Gaussian 16, Revision C.01,

 ----------------------------------------------------------------------
 #t hf aug-cc-pvdz symm=none int=(grid=ultrafine) guess=(read,tcheck) s
 table=(opt,rrhf)
 ----------------------------------------------------------------------
 -----
 title
 -----
 Symbolic Z-matrix:
 Charge =  0 Multiplicity = 1

 SCF Done:  E(RHF) =  -224.281321960     A.U. after   10 cycles
 Normal termination of Gaussian 16 at Wed Apr  9 00:36:46 2025.
 Gaussian 16:  ES64L-G16RevC.01  3-Jul-2019

 ----------------------------------------------------------------------
 #t hf aug-cc-pvdz iop(5/13=1,5/36=2,99/5=2) pseudo=read geom=check gue
 ss=(read,tcheck) scf=(maxcycle=1)
 ----------------------------------------------------------------------
 -----
 title
 -----
 Structure from the checkpoint file:  "BDE49_nonexpt_548_mol1.chk"
 Charge =  0 Multiplicity = 1

                         Standard orientation:
 ---------------------------------------------------------------------
 Center     Atomic      Atomic             Coordinates (Angstroms)
 Number     Number       Type             X           Y           Z
 ---------------------------------------------------------------------
      1          5           0       -0.000001    0.460397    0.000000
      2          9           0       -0.000001   -0.219297    1.130428
      3          1           0        0.000022    1.645361    0.000000
      4          9           0       -0.000001   -0.219297   -1.130428
 ---------------------------------------------------------------------

 SCF Done:  E(RHF) =  -224.486088857     A.U. after    2 cycles

 The electronic state is 1-A'.
 Alpha  occ. eigenvalues --  -26.48793 -26.48793  -7.73148  -1.64059  -1.60043
 Alpha  occ. eigenvalues --   -0.81963  -0.75034  -0.73710  -0.70005  -0.64046
 Alpha  occ. eigenvalues --   -0.63308  -0.55567
 Alpha virt. eigenvalues --    0.04463   0.05039   0.05557   0.05572   0.10949
 Alpha virt. eigenvalues --    0.14100   0.21265   0.22538   0.25267   0.25657
 Alpha virt. eigenvalues --    0.28474   0.28715   0.29106   0.31042   0.32723

 Mulliken charges:
               1
     1  B    1.234087
     2  F   -0.592932
     3  H   -0.048223
     4  F   -0.592932
 Sum of Mulliken charges =  -0.00000

 Dipole moment (field-independent basis, Debye):
    X=             -0.0000    Y=              1.0302    Z=              0.0000  Tot=              1.0302

 Test job not archived.
 1\1\GINC-SE343\SP\RHF\Aug-CC-pVDZ\B1F2H1\OHZDE\09-Apr-2025\0\\#t hf au
 g-cc-pvdz iop(5/13=1,5/36=2,99/5=2) pseudo=read geom=check guess=(read
 ,tcheck) scf=(maxcycle=1)\\title\\0,1\B,0,0.,0.460397,0.000007\F,0,1.1
 30428,-0.219297,-0.000002\H,0,0.,1.645361,0.\F,0,-1.130428,-0.219297,-
 0.000002\\Version=ES64L-G16RevC.01\State=1-A'\HF=-224.4860889\RMSD=5.1
 75e-03\Dipole=0.,0.4052962,0.0000125\Quadrupole=-1.6432206,0.3009255,1
 .3422952,0.,0.,0.0000015\PG=CS [SG(B1H1),X(F2)]\\@

 Normal termination of Gaussian 16 at Wed Apr  9 00:36:48 2025.
