 Gaussian 16, Revision C.01,

 ----------------------------------------------------------------------
 #t hf aug-cc-pvdz symm=none int=(grid=ultrafine) guess=(read,tcheck) s
 table=(opt,rrhf)
 ----------------------------------------------------------------------
 -----
 title
 -----
 Symbolic Z-matrix:
 Charge =  0 Multiplicity = 1

 SCF Done:  E(RHF) =  -1529.70043231     A.U. after   14 cycles
 Normal termination of Gaussian 16 at Tue Apr  8 22:33:42 2025.
 Gaussian 16:  ES64L-G16RevC.01  3-Jul-2019

 ----------------------------------------------------------------------
 #t hf aug-cc-pvdz iop(5/13=1,5/36=2,99/5=2) pseudo=read geom=check gue
 ss=(read,tcheck) scf=(maxcycle=1)
 ----------------------------------------------------------------------
 -----
 title
 -----
 Structure from the checkpoint file:  "BDE49_expt_1077_mol1.chk"
 Charge =  0 Multiplicity = 1

                         Standard orientation:
 ---------------------------------------------------------------------
 Center     Atomic      Atomic             Coordinates (Angstroms)
 Number     Number       Type             X           Y           Z
 ---------------------------------------------------------------------
      1          6           0        0.624455   -0.000122    0.597223
      2          6           0       -0.909175   -0.002128    0.645841
      3          8           0       -1.512333   -0.002491    1.662455
      4         17           0       -1.713206   -0.000286   -0.946600
      5         17           0        1.231970    1.486739   -0.184066
      6          1           0        0.979273   -0.000280    1.622562
      7         17           0        1.235808   -1.484470   -0.185840
 ---------------------------------------------------------------------

 SCF Done:  E(RHF) =  -1530.07168958     A.U. after    2 cycles

 The electronic state is 1-A.
 Alpha  occ. eigenvalues -- -105.60958-105.60958-105.60314 -20.61498 -11.45192
 Alpha  occ. eigenvalues --  -11.42073 -10.65754 -10.65753 -10.65169  -7.82706
 Alpha  occ. eigenvalues --   -7.82705  -7.82280  -7.82278  -7.82265  -7.82264
 Alpha  occ. eigenvalues --   -7.82104  -7.81701  -7.81684  -1.56293  -1.20909
 Alpha  occ. eigenvalues --   -1.11210  -1.08131  -0.96269  -0.80851  -0.73225
 Alpha  occ. eigenvalues --   -0.70550  -0.66119  -0.64677  -0.59406  -0.53523
 Alpha  occ. eigenvalues --   -0.51484  -0.50074  -0.49357  -0.48725  -0.48296
 Alpha  occ. eigenvalues --   -0.46422
 Alpha virt. eigenvalues --    0.03944   0.06424   0.06714   0.07759   0.08573
 Alpha virt. eigenvalues --    0.09153   0.11134   0.12480   0.12547   0.13769
 Alpha virt. eigenvalues --    0.14899   0.15394   0.15511   0.16332   0.17316

 Mulliken charges:
               1
     1  C   -0.600403
     2  C    1.014558
     3  O   -0.977913
     4  Cl   0.053337
     5  Cl   0.082318
     6  H    0.345865
     7  Cl   0.082238
 Sum of Mulliken charges =   0.00000

 Dipole moment (field-independent basis, Debye):
    X=              1.2600    Y=              0.0001    Z=              0.2999  Tot=              1.2952

 Test job not archived.
 1\1\GINC-SE099\SP\RHF\Aug-CC-pVDZ\C2H1Cl3O1\OHZDE\08-Apr-2025\0\\#t hf
  aug-cc-pvdz iop(5/13=1,5/36=2,99/5=2) pseudo=read geom=check guess=(r
 ead,tcheck) scf=(maxcycle=1)\\title\\0,1\C,0,-0.624455,0.000122,0.5972
 23\C,0,0.909175,0.002128,0.645841\O,0,1.512333,0.002491,1.662455\Cl,0,
 1.713206,0.000286,-0.9466\Cl,0,-1.23197,-1.486739,-0.184066\H,0,-0.979
 273,0.00028,1.622562\Cl,0,-1.235808,1.48447,-0.18584\\Version=ES64L-G1
 6RevC.01\State=1-A\HF=-1530.0716896\RMSD=6.628e-03\Dipole=-0.4957206,-
 0.0000581,0.1179893\Quadrupole=-1.3732109,1.0034153,0.3697957,-0.00290

 Normal termination of Gaussian 16 at Tue Apr  8 22:33:45 2025.
