 Gaussian 16, Revision C.01,

 ----------------------------------------------------------------------
 #t hf aug-cc-pvdz symm=none int=(grid=ultrafine) guess=(read,tcheck) s
 table=(opt,rrhf)
 ----------------------------------------------------------------------
 -----
 title
 -----
 Symbolic Z-matrix:
 Charge =  0 Multiplicity = 1

 SCF Done:  E(RHF) =  -750.996462333     A.U. after   15 cycles
 Normal termination of Gaussian 16 at Wed Apr  9 00:49:10 2025.
 Gaussian 16:  ES64L-G16RevC.01  3-Jul-2019

 ----------------------------------------------------------------------
 #t hf aug-cc-pvdz iop(5/13=1,5/36=2,99/5=2) pseudo=read geom=check gue
 ss=(read,tcheck) scf=(maxcycle=1)
 ----------------------------------------------------------------------
 -----
 title
 -----
 Structure from the checkpoint file:  "BDE49_nonexpt_829_mol1.chk"
 Charge =  0 Multiplicity = 1

                         Standard orientation:
 ---------------------------------------------------------------------
 Center     Atomic      Atomic             Coordinates (Angstroms)
 Number     Number       Type             X           Y           Z
 ---------------------------------------------------------------------
      1          6           0        1.716164    1.747658    0.525614
      2          6           0        0.474007    1.157570    0.754272
      3          6           0        2.771150    1.005970    0.008646
      4          6           0        2.600985   -0.355289   -0.286919
      5          6           0        1.345404   -0.940709   -0.053430
      6          6           0        0.275780   -0.205710    0.467393
      7          1           0        1.212474   -1.993295   -0.288009
      8          1           0        3.732271    1.477447   -0.170983
      9          1           0        1.867595    2.796940    0.756030
     10          1           0       -0.327774    1.754022    1.179176
     11          5           0       -2.782793    0.086118   -0.350447
     12          8           0       -2.417090    1.171845   -1.098106
     13          8           0       -4.094820   -0.275133   -0.331062
     14          7           0        3.634297   -1.094807   -0.856903
     15          1           0        4.566366   -0.748308   -0.685150
     16          1           0        3.569455   -2.095089   -0.740282
     17          1           0       -1.470974    1.352799   -1.063953
     18          1           0       -4.638896    0.304744   -0.880012
     19         14           0       -1.422994   -0.989247    0.723928
     20          1           0       -1.352396   -2.405095    0.278793
     21          1           0       -1.767986   -0.992280    2.169831
 ---------------------------------------------------------------------

 SCF Done:  E(RHF) =  -751.497412890     A.U. after    2 cycles

 The electronic state is 1-A.
 Alpha  occ. eigenvalues --  -69.51248 -20.55902 -20.55514 -15.51603 -11.29223
 Alpha  occ. eigenvalues --  -11.25188 -11.24040 -11.24030 -11.23836 -11.23755
 Alpha  occ. eigenvalues --   -7.63813  -6.18493  -3.93861  -3.93840  -3.93795
 Alpha  occ. eigenvalues --   -1.48031  -1.43741  -1.23212  -1.13495  -1.02054
 Alpha  occ. eigenvalues --   -0.99781  -0.85129  -0.83734  -0.78083  -0.75332
 Alpha  occ. eigenvalues --   -0.72889  -0.72371  -0.68634  -0.67974  -0.62713
 Alpha  occ. eigenvalues --   -0.61061  -0.60734  -0.56785  -0.56530  -0.56087
 Alpha  occ. eigenvalues --   -0.55579  -0.52299  -0.49091  -0.48838  -0.47088
 Alpha  occ. eigenvalues --   -0.45899  -0.42130  -0.35046  -0.31814
 Alpha virt. eigenvalues --    0.02693   0.03448   0.03814   0.04346   0.04951
 Alpha virt. eigenvalues --    0.05057   0.06518   0.06889   0.07271   0.07637
 Alpha virt. eigenvalues --    0.08132   0.08895   0.09495   0.09652   0.10535

 Mulliken charges:
               1
     1  C    0.166784
     2  C    0.636036
     3  C    0.923330
     4  C   -1.554723
     5  C    0.849428
     6  C   -0.628892
     7  H   -0.335169
     8  H   -0.289879
     9  H   -0.242082
    10  H   -0.371781
    11  B    1.732802
    12  O   -1.494363
    13  O   -1.351837
    14  N    0.756786
    15  H    0.013574
    16  H    0.017537
    17  H    0.691165
    18  H    0.557221
    19  Si   0.189369
    20  H   -0.148126
    21  H   -0.117179
 Sum of Mulliken charges =  -0.00000

 Dipole moment (field-independent basis, Debye):
    X=              2.5677    Y=              0.4338    Z=             -0.1110  Tot=              2.6065

 Test job not archived.
 1\1\GINC-SE105\SP\RHF\Aug-CC-pVDZ\C6H10B1N1O2Si1\OHZDE\09-Apr-2025\0\\
 #t hf aug-cc-pvdz iop(5/13=1,5/36=2,99/5=2) pseudo=read geom=check gue
 ss=(read,tcheck) scf=(maxcycle=1)\\title\\0,1\C,0,1.716164,1.747658,0.
 525614\C,0,0.474007,1.15757,0.754272\C,0,2.77115,1.00597,0.008646\C,0,
 2.600985,-0.355289,-0.286919\C,0,1.345404,-0.940709,-0.05343\C,0,0.275
 78,-0.20571,0.467393\H,0,1.212474,-1.993295,-0.288009\H,0,3.732271,1.4
 77447,-0.170983\H,0,1.867595,2.79694,0.75603\H,0,-0.327774,1.754022,1.
 179176\B,0,-2.782793,0.086118,-0.350447\O,0,-2.41709,1.171845,-1.09810

 Normal termination of Gaussian 16 at Wed Apr  9 00:49:25 2025.
