 Gaussian 16, Revision C.01,

 ----------------------------------------------------------------------
 #t hf aug-cc-pvdz symm=none int=(grid=ultrafine) guess=(read,tcheck) s
 table=(opt,rrhf)
 ----------------------------------------------------------------------
 -----
 title
 -----
 Symbolic Z-matrix:
 Charge =  0 Multiplicity = 1

 SCF Done:  E(RHF) =  -496.932422707     A.U. after   15 cycles
 Normal termination of Gaussian 16 at Wed Apr  9 00:28:41 2025.
 Gaussian 16:  ES64L-G16RevC.01  3-Jul-2019

 ----------------------------------------------------------------------
 #t hf aug-cc-pvdz iop(5/13=1,5/36=2,99/5=2) pseudo=read geom=check gue
 ss=(read,tcheck) scf=(maxcycle=1)
 ----------------------------------------------------------------------
 -----
 title
 -----
 Structure from the checkpoint file:  "BDE49_nonexpt_289_mol1.chk"
 Charge =  0 Multiplicity = 1

                         Standard orientation:
 ---------------------------------------------------------------------
 Center     Atomic      Atomic             Coordinates (Angstroms)
 Number     Number       Type             X           Y           Z
 ---------------------------------------------------------------------
      1          6           0       -0.170380    1.843951   -0.542329
      2          6           0       -0.070017    0.502328    0.179076
      3          1           0       -0.214325    1.717059   -1.624878
      4          1           0        0.720097    2.427920   -0.307114
      5          1           0       -1.056767    2.397781   -0.228176
      6          6           0       -0.130569    0.681110    1.714639
      7          1           0       -0.103167   -0.279454    2.229706
      8          1           0       -1.042595    1.211425    2.003191
      9          1           0        0.727977    1.274130    2.034710
     10          5           0        1.282413   -0.307381   -0.174116
     11          7           0       -1.291565   -0.359778   -0.183914
     12          8           0       -1.301113   -1.523470    0.232144
     13          8           0       -2.192152    0.130423   -0.833166
     14          8           0        2.384216    0.460795   -0.397242
     15          8           0        1.375608   -1.656871   -0.192542
     16          1           0        3.171212   -0.076516   -0.541673
     17          1           0        0.519787   -2.068350    0.010335
 ---------------------------------------------------------------------

 SCF Done:  E(RHF) =  -497.428073101     A.U. after    2 cycles

 The electronic state is 1-A.
 Alpha  occ. eigenvalues --  -20.60501 -20.59043 -20.57417 -20.56493 -15.78858
 Alpha  occ. eigenvalues --  -11.30780 -11.26438 -11.24796  -7.66266  -1.67508
 Alpha  occ. eigenvalues --   -1.51242  -1.49551  -1.45476  -1.15027  -0.98752
 Alpha  occ. eigenvalues --   -0.96941  -0.84675  -0.81077  -0.76380  -0.75453
 Alpha  occ. eigenvalues --   -0.73991  -0.71074  -0.65662  -0.60924  -0.60408
 Alpha  occ. eigenvalues --   -0.59483  -0.58248  -0.57278  -0.56376  -0.52676
 Alpha  occ. eigenvalues --   -0.50616  -0.49519  -0.48856  -0.47646  -0.45822
 Alpha virt. eigenvalues --    0.03011   0.03944   0.04210   0.04572   0.05488
 Alpha virt. eigenvalues --    0.05739   0.05815   0.07149   0.07443   0.08476
 Alpha virt. eigenvalues --    0.09748   0.10132   0.10606   0.13077   0.13807

 Mulliken charges:
               1
     1  C    0.094632
     2  C   -1.705959
     3  H    0.204398
     4  H    0.238338
     5  H    0.261396
     6  C    0.132512
     7  H    0.160472
     8  H    0.179199
     9  H    0.216552
    10  B    1.901358
    11  N    2.845997
    12  O   -1.507957
    13  O   -1.358617
    14  O   -1.345433
    15  O   -1.566140
    16  H    0.522235
    17  H    0.727018
 Sum of Mulliken charges =  -0.00000

 Dipole moment (field-independent basis, Debye):
    X=              2.2819    Y=              1.6663    Z=              1.1987  Tot=              3.0693

 Test job not archived.
 1\1\GINC-SE016\SP\RHF\Aug-CC-pVDZ\C3H8B1N1O4\OHZDE\09-Apr-2025\0\\#t h
 f aug-cc-pvdz iop(5/13=1,5/36=2,99/5=2) pseudo=read geom=check guess=(
 read,tcheck) scf=(maxcycle=1)\\title\\0,1\C,0,-0.17038,1.843951,-0.542
 329\C,0,-0.070017,0.502328,0.179076\H,0,-0.214325,1.717059,-1.624878\H
 ,0,0.720097,2.42792,-0.307114\H,0,-1.056767,2.397781,-0.228176\C,0,-0.
 130569,0.68111,1.714639\H,0,-0.103167,-0.279454,2.229706\H,0,-1.042595
 ,1.211425,2.003191\H,0,0.727977,1.27413,2.03471\B,0,1.282413,-0.307381
 ,-0.174116\N,0,-1.291565,-0.359778,-0.183914\O,0,-1.301113,-1.52347,0.

 Normal termination of Gaussian 16 at Wed Apr  9 00:28:49 2025.
