 Gaussian 16, Revision C.01,

 ----------------------------------------------------------------------
 #t hf aug-cc-pvdz symm=none int=(grid=ultrafine) guess=(read,tcheck) s
 table=(opt,rrhf)
 ----------------------------------------------------------------------
 -----
 title
 -----
 Symbolic Z-matrix:
 Charge =  0 Multiplicity = 1

 SCF Done:  E(RHF) =  -1825.53127032     A.U. after   14 cycles

 1\1\GINC-SE424\Stability\RHF\Aug-CC-pVDZ\C6H14S4\OHZDE\08-Apr-2025\0\\
 #t hf aug-cc-pvdz symm=none int=(grid=ultrafine) guess=(read,tcheck) s
 table=(opt,rrhf)\\title\\0,1\S,0,1.63019,0.582606,-1.044026\S,0,0.8351
 82,-1.281382,-0.590198\C,0,3.008831,0.847524,0.179268\S,0,-0.692539,-1
 .081964,0.880001\S,0,-2.541091,-1.066651,-0.062445\C,0,-3.03062,0.7186
 22,-0.246934\C,0,4.125334,-0.182797,0.023549\H,0,3.77167,-1.181929,0.2
 89438\H,0,4.958329,0.066181,0.688876\H,0,4.49972,-0.213131,-1.001179\C
 ,0,-3.106254,1.446138,1.0935\H,0,-2.114657,1.534697,1.544052\H,0,-3.75

 Normal termination of Gaussian 16 at Tue Apr  8 23:03:01 2025.
 Gaussian 16:  ES64L-G16RevC.01  3-Jul-2019

 ----------------------------------------------------------------------
 #t hf aug-cc-pvdz iop(5/13=1,5/36=2,99/5=2) pseudo=read geom=check gue
 ss=(read,tcheck) scf=(maxcycle=1)
 ----------------------------------------------------------------------
 -----
 title
 -----
 Structure from the checkpoint file:  "BDE49_expt_1969_mol1.chk"
 Charge =  0 Multiplicity = 1

                         Standard orientation:
 ---------------------------------------------------------------------
 Center     Atomic      Atomic             Coordinates (Angstroms)
 Number     Number       Type             X           Y           Z
 ---------------------------------------------------------------------
      1         16           0        1.630190    0.582606   -1.044026
      2         16           0        0.835182   -1.281382   -0.590198
      3          6           0        3.008831    0.847524    0.179268
      4         16           0       -0.692539   -1.081964    0.880001
      5         16           0       -2.541091   -1.066651   -0.062445
      6          6           0       -3.030620    0.718622   -0.246934
      7          6           0        4.125334   -0.182797    0.023549
      8          1           0        3.771670   -1.181929    0.289438
      9          1           0        4.958329    0.066181    0.688876
     10          1           0        4.499720   -0.213131   -1.001179
     11          6           0       -3.106254    1.446138    1.093500
     12          1           0       -2.114657    1.534697    1.544052
     13          1           0       -3.757240    0.923129    1.796349
     14          1           0       -3.497935    2.457751    0.946365
     15          6           0        2.509390    0.974432    1.616374
     16          1           0        3.366932    1.825260   -0.166287
     17          1           0        1.726994    1.729947    1.705955
     18          1           0        3.338703    1.255919    2.273300
     19          1           0        2.109603    0.023474    1.976698
     20          6           0       -2.192698    1.460945   -1.284897
     21          1           0       -4.046452    0.575763   -0.637112
     22          1           0       -1.165628    1.592763   -0.937254
     23          1           0       -2.617532    2.454544   -1.462446
     24          1           0       -2.164279    0.924698   -2.235234
 ---------------------------------------------------------------------

 SCF Done:  E(RHF) =  -1826.03636247     A.U. after    2 cycles

 The electronic state is 1-A.
 Alpha  occ. eigenvalues --  -93.99708 -93.99658 -93.97352 -93.97125 -11.28682
 Alpha  occ. eigenvalues --  -11.28329 -11.23848 -11.23721 -11.23569 -11.23158
 Alpha  occ. eigenvalues --   -8.27428  -8.27385  -8.25276  -8.25048  -6.25182
 Alpha  occ. eigenvalues --   -6.25138  -6.24967  -6.24938  -6.24725  -6.24696
 Alpha  occ. eigenvalues --   -6.23081  -6.22855  -6.22849  -6.22656  -6.22612
 Alpha  occ. eigenvalues --   -6.22420  -1.13744  -1.11789  -1.07473  -1.01887
 Alpha  occ. eigenvalues --   -0.94846  -0.94442  -0.93336  -0.85945  -0.78831
 Alpha  occ. eigenvalues --   -0.75594  -0.64657  -0.64264  -0.61825  -0.61213
 Alpha  occ. eigenvalues --   -0.59073  -0.58681  -0.56027  -0.55458  -0.54514
 Alpha  occ. eigenvalues --   -0.52661  -0.51504  -0.51105  -0.50368  -0.49462
 Alpha  occ. eigenvalues --   -0.49336  -0.45959  -0.45706  -0.38903  -0.37312
 Alpha  occ. eigenvalues --   -0.36568  -0.34785
 Alpha virt. eigenvalues --    0.03234   0.03458   0.03798   0.03987   0.04975
 Alpha virt. eigenvalues --    0.05238   0.05569   0.06012   0.06857   0.07192
 Alpha virt. eigenvalues --    0.07767   0.07945   0.08449   0.08961   0.09291

 Mulliken charges:
               1
     1  S    0.133580
     2  S   -0.205401
     3  C   -0.720946
     4  S   -0.023890
     5  S   -0.065757
     6  C   -0.498403
     7  C   -0.326416
     8  H    0.220811
     9  H    0.161999
    10  H    0.164900
    11  C   -0.357786
    12  H    0.203384
    13  H    0.162074
    14  H    0.167585
    15  C   -0.314965
    16  H    0.249941
    17  H    0.154627
    18  H    0.144781
    19  H    0.261277
    20  C   -0.252112
    21  H    0.246796
    22  H    0.190597
    23  H    0.167956
    24  H    0.135369
 Sum of Mulliken charges =  -0.00000

 Dipole moment (field-independent basis, Debye):
    X=              0.7763    Y=              2.7573    Z=              0.7615  Tot=              2.9640

 Test job not archived.
 1\1\GINC-SE424\SP\RHF\Aug-CC-pVDZ\C6H14S4\OHZDE\08-Apr-2025\0\\#t hf a
 ug-cc-pvdz iop(5/13=1,5/36=2,99/5=2) pseudo=read geom=check guess=(rea
 d,tcheck) scf=(maxcycle=1)\\title\\0,1\S,0,1.63019,0.582606,-1.044026\
 S,0,0.835182,-1.281382,-0.590198\C,0,3.008831,0.847524,0.179268\S,0,-0
 .692539,-1.081964,0.880001\S,0,-2.541091,-1.066651,-0.062445\C,0,-3.03
 062,0.718622,-0.246934\C,0,4.125334,-0.182797,0.023549\H,0,3.77167,-1.
 181929,0.289438\H,0,4.958329,0.066181,0.688876\H,0,4.49972,-0.213131,-
 1.001179\C,0,-3.106254,1.446138,1.0935\H,0,-2.114657,1.534697,1.544052

 Normal termination of Gaussian 16 at Tue Apr  8 23:03:18 2025.
