 Gaussian 16, Revision C.01,

 ----------------------------------------------------------------------
 #t hf aug-cc-pvdz symm=none int=(grid=ultrafine) guess=(read,tcheck) s
 table=(opt,rrhf)
 ----------------------------------------------------------------------
 -----
 title
 -----
 Symbolic Z-matrix:
 Charge =  0 Multiplicity = 1

 SCF Done:  E(RHF) =  -469.866772035     A.U. after   14 cycles
 Normal termination of Gaussian 16 at Wed Apr  9 00:34:19 2025.
 Gaussian 16:  ES64L-G16RevC.01  3-Jul-2019

 ----------------------------------------------------------------------
 #t hf aug-cc-pvdz iop(5/13=1,5/36=2,99/5=2) pseudo=read geom=check gue
 ss=(read,tcheck) scf=(maxcycle=1)
 ----------------------------------------------------------------------
 -----
 title
 -----
 Structure from the checkpoint file:  "BDE49_nonexpt_429_mol1.chk"
 Charge =  0 Multiplicity = 1

                         Standard orientation:
 ---------------------------------------------------------------------
 Center     Atomic      Atomic             Coordinates (Angstroms)
 Number     Number       Type             X           Y           Z
 ---------------------------------------------------------------------
      1          9           0       -2.429019   -1.127021    0.000000
      2          5           0       -1.715812   -0.016997   -0.000002
      3          9           0       -2.391206    1.131170   -0.000010
      4          6           0       -0.157827   -0.008205    0.000000
      5          6           0        0.548772    1.200980   -0.000002
      6          7           0        0.466878   -1.206670    0.000004
      7          6           0        1.796906   -1.215531    0.000006
      8          6           0        1.940592    1.176781    0.000001
      9          6           0        2.578940   -0.057025    0.000005
     10          1           0        0.007238    2.139459   -0.000005
     11          1           0        2.511916    2.098114    0.000000
     12          1           0        3.660219   -0.130977    0.000007
     13          1           0        2.269278   -2.194261    0.000010
 ---------------------------------------------------------------------

 SCF Done:  E(RHF) =  -470.319168189     A.U. after    2 cycles

 The electronic state is 1-A.
 Alpha  occ. eigenvalues --  -26.47661 -26.47179 -15.52371 -11.29273 -11.27896
 Alpha  occ. eigenvalues --  -11.27725 -11.27047 -11.26911  -7.71808  -1.62628
 Alpha  occ. eigenvalues --   -1.58589  -1.27059  -1.10714  -1.05476  -0.89652
 Alpha  occ. eigenvalues --   -0.88638  -0.80398  -0.75889  -0.74180  -0.70399
 Alpha  occ. eigenvalues --   -0.69258  -0.68941  -0.65887  -0.62775  -0.62187
 Alpha  occ. eigenvalues --   -0.60844  -0.59095  -0.57397  -0.53493  -0.46301
 Alpha  occ. eigenvalues --   -0.41710  -0.37570
 Alpha virt. eigenvalues --    0.02770   0.03581   0.04186   0.04463   0.05298
 Alpha virt. eigenvalues --    0.05454   0.06198   0.07072   0.07867   0.08961
 Alpha virt. eigenvalues --    0.11073   0.12397   0.12504   0.13131   0.13819

 Mulliken charges:
               1
     1  F   -0.772244
     2  B    1.406244
     3  F   -0.745116
     4  C   -0.355456
     5  C    0.256075
     6  N    0.947577
     7  C   -0.730533
     8  C    0.079539
     9  C    0.702077
    10  H   -0.280098
    11  H   -0.149815
    12  H   -0.180307
    13  H   -0.177943
 Sum of Mulliken charges =  -0.00000

 Dipole moment (field-independent basis, Debye):
    X=              3.6819    Y=              2.2227    Z=              0.0000  Tot=              4.3008

 Test job not archived.
 1\1\GINC-SE072\SP\RHF\Aug-CC-pVDZ\C5H4B1F2N1\OHZDE\09-Apr-2025\0\\#t h
 f aug-cc-pvdz iop(5/13=1,5/36=2,99/5=2) pseudo=read geom=check guess=(
 read,tcheck) scf=(maxcycle=1)\\title\\0,1\F,0,-2.429019,-1.127021,0.\B
 ,0,-1.715812,-0.016997,-0.000002\F,0,-2.391206,1.13117,-0.00001\C,0,-0
 .157827,-0.008205,0.\C,0,0.548772,1.20098,-0.000002\N,0,0.466878,-1.20
 667,0.000004\C,0,1.796906,-1.215531,0.000006\C,0,1.940592,1.176781,0.0
 00001\C,0,2.57894,-0.057025,0.000005\H,0,0.007238,2.139459,-0.000005\H
 ,0,2.511916,2.098114,0.\H,0,3.660219,-0.130977,0.000007\H,0,2.269278,-

 Normal termination of Gaussian 16 at Wed Apr  9 00:34:24 2025.
