 Gaussian 16, Revision C.01,

 ----------------------------------------------------------------------
 #t hf aug-cc-pvdz symm=none int=(grid=ultrafine) guess=(read,tcheck) s
 table=(opt,rrhf)
 ----------------------------------------------------------------------
 -----
 title
 -----
 Symbolic Z-matrix:
 Charge =  0 Multiplicity = 1

 SCF Done:  E(RHF) =  -480.152161320     A.U. after   12 cycles
 Normal termination of Gaussian 16 at Wed Apr  9 00:07:30 2025.
 Gaussian 16:  ES64L-G16RevC.01  3-Jul-2019

 ----------------------------------------------------------------------
 #t hf aug-cc-pvdz iop(5/13=1,5/36=2,99/5=2) pseudo=read geom=check gue
 ss=(read,tcheck) scf=(maxcycle=1)
 ----------------------------------------------------------------------
 -----
 title
 -----
 Structure from the checkpoint file:  "BDE49_nonexpt_2273_mol1.chk"
 Charge =  0 Multiplicity = 1

                         Standard orientation:
 ---------------------------------------------------------------------
 Center     Atomic      Atomic             Coordinates (Angstroms)
 Number     Number       Type             X           Y           Z
 ---------------------------------------------------------------------
      1         14           0        0.075729   -0.003367    0.344480
      2          8           0        0.621499    1.419864   -0.293296
      3          1           0        1.515228    1.696720   -0.077596
      4          8           0        0.969303   -1.297435   -0.160941
      5          1           0        0.945770   -1.532279   -1.091883
      6          6           0       -1.708542   -0.112513   -0.167961
      7          1           0       -1.810781   -0.101044   -1.257417
      8          1           0       -2.270668    0.739058    0.225549
      9          1           0       -2.169220   -1.029248    0.210040
     10          1           0        0.254304   -0.030426    1.810238
 ---------------------------------------------------------------------

 SCF Done:  E(RHF) =  -480.381909735     A.U. after    2 cycles

 The electronic state is 1-A.
 Alpha  occ. eigenvalues --  -69.57036 -20.54500 -20.54497 -11.21606  -6.23356
 Alpha  occ. eigenvalues --   -3.98879  -3.98745  -3.98651  -1.44322  -1.42102
 Alpha  occ. eigenvalues --   -0.95578  -0.76375  -0.70601  -0.59752  -0.58837
 Alpha  occ. eigenvalues --   -0.56851  -0.55156  -0.54459  -0.49002  -0.48709
 Alpha  occ. eigenvalues --   -0.44816
 Alpha virt. eigenvalues --    0.03324   0.04459   0.04695   0.05254   0.07120
 Alpha virt. eigenvalues --    0.07634   0.08268   0.09272   0.10127   0.13001
 Alpha virt. eigenvalues --    0.15841   0.15957   0.16631   0.18271   0.19777

 Mulliken charges:
               1
     1  Si   2.707476
     2  O   -1.367516
     3  H    0.423768
     4  O   -1.423483
     5  H    0.403360
     6  C   -0.588183
     7  H    0.079763
     8  H    0.017536
     9  H    0.006981
    10  H   -0.259702
 Sum of Mulliken charges =  -0.00000

 Dipole moment (field-independent basis, Debye):
    X=              0.0275    Y=              0.0092    Z=             -0.7689  Tot=              0.7694

 Test job not archived.
 1\1\GINC-SE333\SP\RHF\Aug-CC-pVDZ\C1H6O2Si1\OHZDE\09-Apr-2025\0\\#t hf
  aug-cc-pvdz iop(5/13=1,5/36=2,99/5=2) pseudo=read geom=check guess=(r
 ead,tcheck) scf=(maxcycle=1)\\title\\0,1\Si,0,0.075729,-0.003367,0.344
 48\O,0,0.621498,1.419865,-0.293296\H,0,1.515227,1.696721,-0.077596\O,0
 ,0.969304,-1.297434,-0.160941\H,0,0.945771,-1.532278,-1.091883\C,0,-1.
 708542,-0.112514,-0.167961\H,0,-1.810781,-0.101045,-1.257417\H,0,-2.27
 0668,0.739056,0.225549\H,0,-2.169219,-1.02925,0.21004\H,0,0.254304,-0.
 030426,1.810238\\Version=ES64L-G16RevC.01\State=1-A\HF=-480.3819097\RM

 Normal termination of Gaussian 16 at Wed Apr  9 00:07:32 2025.
