 Gaussian 16, Revision C.01,

 ----------------------------------------------------------------------
 #t hf aug-cc-pvdz symm=none int=(grid=ultrafine) guess=(read,tcheck) s
 table=(opt,rrhf)
 ----------------------------------------------------------------------
 -----
 title
 -----
 Symbolic Z-matrix:
 Charge =  0 Multiplicity = 1

 SCF Done:  E(RHF) =  -794.916963970     A.U. after   15 cycles
 Normal termination of Gaussian 16 at Tue Apr  8 23:39:49 2025.
 Gaussian 16:  ES64L-G16RevC.01  3-Jul-2019

 ----------------------------------------------------------------------
 #t hf aug-cc-pvdz iop(5/13=1,5/36=2,99/5=2) pseudo=read geom=check gue
 ss=(read,tcheck) scf=(maxcycle=1)
 ----------------------------------------------------------------------
 -----
 title
 -----
 Structure from the checkpoint file:  "BDE49_nonexpt_1593_mol1.chk"
 Charge =  0 Multiplicity = 1

                         Standard orientation:
 ---------------------------------------------------------------------
 Center     Atomic      Atomic             Coordinates (Angstroms)
 Number     Number       Type             X           Y           Z
 ---------------------------------------------------------------------
      1          8           0       -0.261908   -0.311466   -0.735252
      2         15           0        1.104826   -0.067631    0.131828
      3          8           0        0.953284   -0.220610    1.577892
      4          8           0        2.057044   -1.100668   -0.602159
      5          8           0       -1.132170    0.821175   -0.367817
      6          6           0       -2.169685    0.318865    0.495669
      7          6           0       -3.132564   -0.610669   -0.219485
      8          1           0       -2.659186    1.247619    0.806735
      9          1           0       -1.705452   -0.141524    1.370860
     10          1           0       -3.580754   -0.116326   -1.084058
     11          1           0       -3.932416   -0.908905    0.464146
     12          1           0       -2.619484   -1.511524   -0.558807
     13          8           0        1.679297    1.308791   -0.413640
     14          1           0        1.049731    2.031431   -0.295595
     15          1           0        2.324289   -1.813265   -0.010002
 ---------------------------------------------------------------------

 SCF Done:  E(RHF) =  -795.414074876     A.U. after    2 cycles

 The electronic state is 1-A.
 Alpha  occ. eigenvalues --  -84.46792 -20.64853 -20.63602 -20.60718 -20.60142
 Alpha  occ. eigenvalues --  -20.51530 -11.30824 -11.24011  -6.91667  -4.45820
 Alpha  occ. eigenvalues --   -4.45200  -4.45013  -1.61696  -1.54328  -1.48951
 Alpha  occ. eigenvalues --   -1.40366  -1.32590  -1.03032  -0.87987  -0.85425
 Alpha  occ. eigenvalues --   -0.74994  -0.73041  -0.69497  -0.69080  -0.65914
 Alpha  occ. eigenvalues --   -0.63329  -0.60914  -0.59702  -0.57876  -0.55855
 Alpha  occ. eigenvalues --   -0.55196  -0.54316  -0.52024  -0.50742  -0.48328
 Alpha  occ. eigenvalues --   -0.47058  -0.45335
 Alpha virt. eigenvalues --    0.03491   0.03960   0.04279   0.04917   0.05837
 Alpha virt. eigenvalues --    0.07286   0.08005   0.09705   0.10513   0.11870
 Alpha virt. eigenvalues --    0.12365   0.13882   0.14409   0.15452   0.16284

 Mulliken charges:
               1
     1  O   -1.149229
     2  P    4.382100
     3  O   -1.401973
     4  O   -1.269767
     5  O   -0.812098
     6  C    0.544762
     7  C   -0.442857
     8  H    0.053098
     9  H    0.134484
    10  H    0.185537
    11  H    0.184352
    12  H    0.172356
    13  O   -1.337908
    14  H    0.388620
    15  H    0.368521
 Sum of Mulliken charges =  -0.00000

 Dipole moment (field-independent basis, Debye):
    X=             -1.8866    Y=             -0.0218    Z=             -0.3071  Tot=              1.9116

 Test job not archived.
 1\1\GINC-SE226\SP\RHF\Aug-CC-pVDZ\C2H7O5P1\OHZDE\08-Apr-2025\0\\#t hf
 aug-cc-pvdz iop(5/13=1,5/36=2,99/5=2) pseudo=read geom=check guess=(re
 ad,tcheck) scf=(maxcycle=1)\\title\\0,1\O,0,0.261908,0.311466,-0.73525
 2\P,0,-1.104826,0.067631,0.131828\O,0,-0.953284,0.22061,1.577892\O,0,-
 2.057044,1.100668,-0.602159\O,0,1.13217,-0.821175,-0.367817\C,0,2.1696
 85,-0.318865,0.495669\C,0,3.132564,0.610669,-0.219485\H,0,2.659186,-1.
 247619,0.806735\H,0,1.705452,0.141524,1.37086\H,0,3.580754,0.116326,-1
 .084058\H,0,3.932416,0.908905,0.464146\H,0,2.619484,1.511524,-0.558807

 Normal termination of Gaussian 16 at Tue Apr  8 23:39:55 2025.
