 Gaussian 16, Revision C.01,

 ----------------------------------------------------------------------
 #t hf aug-cc-pvdz symm=none int=(grid=ultrafine) guess=(read,tcheck) s
 table=(opt,rrhf)
 ----------------------------------------------------------------------
 -----
 title
 -----
 Symbolic Z-matrix:
 Charge =  0 Multiplicity = 1

 SCF Done:  E(RHF) =  -718.827643494     A.U. after   16 cycles
 Normal termination of Gaussian 16 at Tue Apr  8 23:36:13 2025.
 Gaussian 16:  ES64L-G16RevC.01  3-Jul-2019

 ----------------------------------------------------------------------
 #t hf aug-cc-pvdz iop(5/13=1,5/36=2,99/5=2) pseudo=read geom=check gue
 ss=(read,tcheck) scf=(maxcycle=1)
 ----------------------------------------------------------------------
 -----
 title
 -----
 Structure from the checkpoint file:  "BDE49_nonexpt_1483_mol1.chk"
 Charge =  0 Multiplicity = 1

                         Standard orientation:
 ---------------------------------------------------------------------
 Center     Atomic      Atomic             Coordinates (Angstroms)
 Number     Number       Type             X           Y           Z
 ---------------------------------------------------------------------
      1          6           0        2.007626   -0.049249   -0.000001
      2          6           0        1.486449    1.253443   -0.000000
      3          6           0        0.119092    1.462175   -0.000000
      4          6           0        1.114497   -1.131108   -0.000001
      5          6           0       -0.254678   -0.924756   -0.000001
      6          6           0       -0.780061    0.379439   -0.000000
      7          1           0        2.161807    2.100136    0.000001
      8          1           0       -0.266883    2.476408    0.000001
      9          1           0        1.503182   -2.142095   -0.000002
     10          1           0       -0.922124   -1.776697   -0.000002
     11          7           0       -2.147956    0.640357   -0.000000
     12         15           0       -3.413059   -0.533028    0.000002
     13          1           0       -2.382359    1.622232    0.000001
     14          6           0        3.417455   -0.268369   -0.000001
     15          7           0        4.560216   -0.445188   -0.000002
     16          1           0       -4.222923    0.009907   -1.032908
     17          1           0       -4.222917    0.009903    1.032919
 ---------------------------------------------------------------------

 SCF Done:  E(RHF) =  -719.250164948     A.U. after    2 cycles

 The electronic state is 1-A.
 Alpha  occ. eigenvalues --  -84.32290 -15.53979 -15.50379 -11.32312 -11.27928
 Alpha  occ. eigenvalues --  -11.27851 -11.27699 -11.27518 -11.25868 -11.25507
 Alpha  occ. eigenvalues --   -6.78979  -4.32022  -4.31086  -4.30896  -1.25930
 Alpha  occ. eigenvalues --   -1.22470  -1.16564  -1.04734  -1.04417  -0.92069
 Alpha  occ. eigenvalues --   -0.88192  -0.84336  -0.77437  -0.75800  -0.68908
 Alpha  occ. eigenvalues --   -0.64861  -0.63071  -0.62248  -0.60943  -0.60292
 Alpha  occ. eigenvalues --   -0.57326  -0.55704  -0.53577  -0.51421  -0.49011
 Alpha  occ. eigenvalues --   -0.46437  -0.38090  -0.37604  -0.33456
 Alpha virt. eigenvalues --    0.02183   0.03559   0.04185   0.04549   0.05679
 Alpha virt. eigenvalues --    0.05897   0.06820   0.06898   0.07608   0.08279
 Alpha virt. eigenvalues --    0.09429   0.10092   0.10756   0.11213   0.11709

 Mulliken charges:
               1
     1  C    2.425487
     2  C    0.148078
     3  C    0.521428
     4  C    0.211651
     5  C    1.208886
     6  C   -2.453983
     7  H   -0.313296
     8  H   -0.335504
     9  H   -0.310943
    10  H   -0.268067
    11  N    1.129433
    12  P   -0.377737
    13  H   -0.178527
    14  C   -3.043285
    15  N    1.054253
    16  H    0.291062
    17  H    0.291063
 Sum of Mulliken charges =   0.00000

 Dipole moment (field-independent basis, Debye):
    X=             -7.2645    Y=              1.7083    Z=              0.0000  Tot=              7.4626

 Test job not archived.
 1\1\GINC-SE090\SP\RHF\Aug-CC-pVDZ\C7H7N2P1\OHZDE\08-Apr-2025\0\\#t hf
 aug-cc-pvdz iop(5/13=1,5/36=2,99/5=2) pseudo=read geom=check guess=(re
 ad,tcheck) scf=(maxcycle=1)\\title\\0,1\C,0,2.007626,-0.049249,-0.0000
 01\C,0,1.486449,1.253443,0.\C,0,0.119092,1.462175,0.\C,0,1.114497,-1.1
 31108,-0.000001\C,0,-0.254678,-0.924756,-0.000001\C,0,-0.780061,0.3794
 39,0.\H,0,2.161807,2.100136,0.000001\H,0,-0.266883,2.476408,0.000001\H
 ,0,1.503182,-2.142095,-0.000002\H,0,-0.922124,-1.776697,-0.000002\N,0,
 -2.147956,0.640357,0.\P,0,-3.413059,-0.533028,0.000002\H,0,-2.382359,1

 Normal termination of Gaussian 16 at Tue Apr  8 23:36:22 2025.
