 Gaussian 16, Revision C.01,

 ----------------------------------------------------------------------
 #t hf aug-cc-pvdz symm=none int=(grid=ultrafine) guess=(read,tcheck) s
 table=opt
 ----------------------------------------------------------------------
 -----
 title
 -----
 Symbolic Z-matrix:
 Charge =  0 Multiplicity = 2

 SCF Done:  E(UHF) =  -1198.77997328     A.U. after   27 cycles
 Normal termination of Gaussian 16 at Tue Apr  8 23:09:58 2025.
 Gaussian 16:  ES64L-G16RevC.01  3-Jul-2019

 ----------------------------------------------------------------------
 #t hf aug-cc-pvdz iop(5/13=1,5/36=2,99/5=2) pseudo=read geom=check gue
 ss=(read,tcheck) scf=(maxcycle=1)
 ----------------------------------------------------------------------
 -----
 title
 -----
 Structure from the checkpoint file:  "BDE49_expt_645_mol2.chk"
 Charge =  0 Multiplicity = 2

                         Standard orientation:
 ---------------------------------------------------------------------
 Center     Atomic      Atomic             Coordinates (Angstroms)
 Number     Number       Type             X           Y           Z
 ---------------------------------------------------------------------
      1          8           0        0.545951   -0.000775    1.366579
      2          8           0        1.853231   -0.001938    1.251210
      3          6           0       -0.139031    0.000219    0.075344
      4          6           0       -1.557918    0.001401    0.405511
      5          7           0       -2.679230    0.001177    0.666541
      6         17           0        0.287883    1.470397   -0.837595
      7         17           0        0.285226   -1.470177   -0.838477
 ---------------------------------------------------------------------

 SCF Done:  E(UHF) =  -1199.18935808     A.U. after    2 cycles

 The electronic state is 2-A.
 Alpha  occ. eigenvalues -- -105.63001-105.63001 -20.72150 -20.71778 -15.57259
 Alpha  occ. eigenvalues --  -11.51337 -11.33365 -10.67811 -10.67806  -7.84784
 Alpha  occ. eigenvalues --   -7.84777  -7.84307  -7.84306  -7.84301  -7.84300
 Alpha  occ. eigenvalues --   -1.75519  -1.35271  -1.28068  -1.19221  -1.10760
 Alpha  occ. eigenvalues --   -0.97815  -0.82576  -0.80813  -0.75312  -0.69049
 Alpha  occ. eigenvalues --   -0.68172  -0.65191  -0.57662  -0.56509  -0.55821
 Alpha  occ. eigenvalues --   -0.53538  -0.52224  -0.51996  -0.51467  -0.49815
 Alpha virt. eigenvalues --    0.05120   0.05983   0.06349   0.08871   0.09603
 Alpha virt. eigenvalues --    0.09776   0.10331   0.12455   0.12994   0.13144
 Alpha virt. eigenvalues --    0.13529   0.14149   0.16995   0.17287   0.17823

  Beta  occ. eigenvalues -- -105.62994-105.62993 -20.71113 -20.68044 -15.57351
  Beta  occ. eigenvalues --  -11.51430 -11.33305 -10.67805 -10.67799  -7.84747
  Beta  occ. eigenvalues --   -7.84740  -7.84305  -7.84305  -7.84298  -7.84297
  Beta  occ. eigenvalues --   -1.69658  -1.30129  -1.26150  -1.16719  -1.10658
  Beta  occ. eigenvalues --   -0.96975  -0.81565  -0.73916  -0.71231  -0.67804
  Beta  occ. eigenvalues --   -0.65041  -0.60252  -0.56538  -0.55294  -0.54786
  Beta  occ. eigenvalues --   -0.52025  -0.51276  -0.50224  -0.49836
  Beta virt. eigenvalues --    0.04633   0.05187   0.06051   0.07025   0.08932
  Beta virt. eigenvalues --    0.09867   0.10351   0.10907   0.12564   0.13138
  Beta virt. eigenvalues --    0.13541   0.14168   0.14362   0.17058   0.17319

 Mulliken charges and spin densities:
               1          2
     1  O   -0.670859   0.040746
     2  O   -0.181429   0.971130
     3  C    0.726503  -0.021380
     4  C   -0.787191   0.030566
     5  N    0.673634  -0.026479
     6  Cl   0.119739   0.002707
     7  Cl   0.119603   0.002710
 Sum of Mulliken charges =  -0.00000   1.00000

 Dipole moment (field-independent basis, Debye):
    X=              2.3437    Y=              0.0002    Z=             -1.1985  Tot=              2.6324
                          Isotropic Fermi Contact Couplings
        Atom                 a.u.       MegaHertz       Gauss      10(-4) cm-1
     1  O(17)              0.06477     -39.26161     -14.00952     -13.09626
     2  O(17)              0.26698    -161.84359     -57.74982     -53.98521
     3  C(13)             -0.01767     -19.85944      -7.08634      -6.62439
     4  C(13)              0.00336       3.78061       1.34902       1.26108
     5  N(14)             -0.00709      -2.29065      -0.81736      -0.76408
     6  Cl(35)            -0.00427      -1.87166      -0.66786      -0.62432
     7  Cl(35)            -0.00427      -1.87144      -0.66778      -0.62425
 --------------------------------------------------------

 Normal termination of Gaussian 16 at Tue Apr  8 23:10:02 2025.
