 Gaussian 16, Revision C.01,

 ----------------------------------------------------------------------
 #t hf aug-cc-pvdz symm=none int=(grid=ultrafine) guess=(read,tcheck) s
 table=(opt,rrhf)
 ----------------------------------------------------------------------
 -----
 title
 -----
 Symbolic Z-matrix:
 Charge =  0 Multiplicity = 1

 SCF Done:  E(RHF) =  -842.580940220     A.U. after   15 cycles
 Normal termination of Gaussian 16 at Tue Apr  8 22:56:22 2025.
 Gaussian 16:  ES64L-G16RevC.01  3-Jul-2019

 ----------------------------------------------------------------------
 #t hf aug-cc-pvdz iop(5/13=1,5/36=2,99/5=2) pseudo=read geom=check gue
 ss=(read,tcheck) scf=(maxcycle=1)
 ----------------------------------------------------------------------
 -----
 title
 -----
 Structure from the checkpoint file:  "BDE49_expt_184_mol1.chk"
 Charge =  0 Multiplicity = 1

                         Standard orientation:
 ---------------------------------------------------------------------
 Center     Atomic      Atomic             Coordinates (Angstroms)
 Number     Number       Type             X           Y           Z
 ---------------------------------------------------------------------
      1          6           0       -0.150676   -0.402764   -0.357473
      2          6           0       -1.466918   -0.109263   -0.025942
      3          6           0       -1.865177    1.180183    0.314241
      4          6           0       -0.908201    2.190791    0.324643
      5          6           0        0.418446    1.911561    0.002909
      6          6           0        0.805189    0.616597   -0.345750
      7          6           0        2.236357    0.310130   -0.754581
      8          8           0        2.685739   -0.974672   -0.367142
      9          1           0       -1.200851    3.199116    0.594473
     10          1           0        1.157259    2.705953    0.025465
     11          1           0       -2.897384    1.382051    0.568631
     12          1           0        0.140842   -1.412633   -0.615489
     13          1           0        2.905819    1.090964   -0.364323
     14          1           0        2.314686    0.325862   -1.845934
     15          6           0        2.966276   -1.083493    1.019794
     16          1           0        3.744346   -0.368879    1.322856
     17          1           0        3.329983   -2.096922    1.189256
     18          1           0        2.074113   -0.916048    1.635535
     19         17           0       -2.662735   -1.399679   -0.037669
 ---------------------------------------------------------------------

 SCF Done:  E(RHF) =  -843.051773985     A.U. after    2 cycles

 The electronic state is 1-A.
 Alpha  occ. eigenvalues -- -105.57091 -20.55384 -11.31301 -11.30000 -11.28537
 Alpha  occ. eigenvalues --  -11.26166 -11.26000 -11.25756 -11.25392 -11.25375
 Alpha  occ. eigenvalues --  -10.61880  -7.78846  -7.78451  -7.78434  -1.46810
 Alpha  occ. eigenvalues --   -1.18659  -1.10136  -1.05194  -0.99458  -0.97008
 Alpha  occ. eigenvalues --   -0.90217  -0.84088  -0.81373  -0.71993  -0.68843
 Alpha  occ. eigenvalues --   -0.66959  -0.66083  -0.64261  -0.62883  -0.60118
 Alpha  occ. eigenvalues --   -0.58392  -0.56215  -0.54045  -0.53777  -0.52104
 Alpha  occ. eigenvalues --   -0.48484  -0.47285  -0.46482  -0.43022  -0.35679
 Alpha  occ. eigenvalues --   -0.34707
 Alpha virt. eigenvalues --    0.02975   0.03585   0.04070   0.04390   0.05224
 Alpha virt. eigenvalues --    0.05823   0.06582   0.07218   0.08011   0.09207
 Alpha virt. eigenvalues --    0.09270   0.10110   0.11221   0.11854   0.12857

 Mulliken charges:
               1
     1  C    0.394573
     2  C   -0.382635
     3  C    0.182076
     4  C    0.125082
     5  C    0.365307
     6  C    0.877264
     7  C    0.294091
     8  O   -1.290838
     9  H   -0.231085
    10  H   -0.299038
    11  H   -0.181456
    12  H   -0.251763
    13  H    0.115315
    14  H    0.109230
    15  C    0.150430
    16  H    0.158321
    17  H   -0.014261
    18  H    0.215354
    19  Cl  -0.335966
 Sum of Mulliken charges =  -0.00000

 Dipole moment (field-independent basis, Debye):
    X=              1.4545    Y=              2.2830    Z=              0.8847  Tot=              2.8479

 Test job not archived.
 1\1\GINC-SE212\SP\RHF\Aug-CC-pVDZ\C8H9Cl1O1\OHZDE\08-Apr-2025\0\\#t hf
  aug-cc-pvdz iop(5/13=1,5/36=2,99/5=2) pseudo=read geom=check guess=(r
 ead,tcheck) scf=(maxcycle=1)\\title\\0,1\C,0,-0.150676,-0.402764,-0.35
 7473\C,0,-1.466918,-0.109263,-0.025942\C,0,-1.865177,1.180183,0.314241
 \C,0,-0.908201,2.190791,0.324643\C,0,0.418446,1.911561,0.002909\C,0,0.
 805189,0.616597,-0.34575\C,0,2.236357,0.31013,-0.754581\O,0,2.685739,-
 0.974672,-0.367142\H,0,-1.200851,3.199116,0.594473\H,0,1.157259,2.7059
 53,0.025465\H,0,-2.897384,1.382051,0.568631\H,0,0.140842,-1.412633,-0.

 Normal termination of Gaussian 16 at Tue Apr  8 22:56:33 2025.
