 Gaussian 16, Revision C.01,

 ----------------------------------------------------------------------
 #t hf aug-cc-pvdz symm=none int=(grid=ultrafine) guess=(read,tcheck) s
 table=opt
 ----------------------------------------------------------------------
 -----
 title
 -----
 Symbolic Z-matrix:
 Charge =  0 Multiplicity = 2

 SCF Done:  E(UHF) =  -796.926526855     A.U. after   30 cycles
 Normal termination of Gaussian 16 at Tue Apr  8 23:16:30 2025.
 Gaussian 16:  ES64L-G16RevC.01  3-Jul-2019

 ----------------------------------------------------------------------
 #t hf aug-cc-pvdz iop(5/13=1,5/36=2,99/5=2) pseudo=read geom=check gue
 ss=(read,tcheck) scf=(maxcycle=1)
 ----------------------------------------------------------------------
 -----
 title
 -----
 Structure from the checkpoint file:  "BDE49_expt_843_mol2.chk"
 Charge =  0 Multiplicity = 2

                         Standard orientation:
 ---------------------------------------------------------------------
 Center     Atomic      Atomic             Coordinates (Angstroms)
 Number     Number       Type             X           Y           Z
 ---------------------------------------------------------------------
      1          6           0       -3.227029    0.146827   -0.743801
      2          6           0       -1.915032    0.860483   -0.413091
      3          1           0       -3.136305   -0.427869   -1.669783
      4          1           0       -4.032236    0.873434   -0.878184
      5          1           0       -3.521926   -0.543500    0.048087
      6          6           0       -0.685868   -0.068541   -0.283075
      7          1           0       -2.029059    1.451547    0.502345
      8          1           0       -1.682116    1.575359   -1.212077
      9          6           0        0.644905    0.713360   -0.251143
     10          6           0        1.841411   -0.221961   -0.548461
     11          8           0        1.770908   -1.151235   -1.308404
     12          8           0        2.964579    0.133337    0.081326
     13          7           0        0.924572    1.488977    0.960533
     14         16           0       -0.854402   -1.170580    1.162248
     15          1           0       -0.655305   -0.736076   -1.149860
     16          1           0        0.632585    1.416461   -1.093893
     17          1           0        2.708143    0.887888    0.656319
     18          1           0        0.473540    2.395653    0.950701
     19          1           0        0.606893    0.975728    1.780710
 ---------------------------------------------------------------------

 SCF Done:  E(UHF) =  -797.390330254     A.U. after    2 cycles

 The electronic state is 2-A.
 Alpha  occ. eigenvalues --  -93.97811 -20.58840 -20.53022 -15.52993 -11.38906
 Alpha  occ. eigenvalues --  -11.30845 -11.29370 -11.26381 -11.24027  -8.25840
 Alpha  occ. eigenvalues --   -6.25018  -6.23246  -6.22952  -1.53873  -1.45168
 Alpha  occ. eigenvalues --   -1.23243  -1.12241  -1.02751  -0.99123  -0.90325
 Alpha  occ. eigenvalues --   -0.82396  -0.79994  -0.76260  -0.72598  -0.68876
 Alpha  occ. eigenvalues --   -0.65659  -0.64153  -0.63753  -0.60197  -0.59150
 Alpha  occ. eigenvalues --   -0.57323  -0.53713  -0.52955  -0.51467  -0.49676
 Alpha  occ. eigenvalues --   -0.47857  -0.46458  -0.44633  -0.43030  -0.39457
 Alpha virt. eigenvalues --    0.02304   0.03344   0.03601   0.04552   0.05761
 Alpha virt. eigenvalues --    0.06003   0.06369   0.07041   0.07915   0.08605
 Alpha virt. eigenvalues --    0.09804   0.10994   0.11457   0.12921   0.13280

  Beta  occ. eigenvalues --  -93.96915 -20.58843 -20.53007 -15.52989 -11.38913
  Beta  occ. eigenvalues --  -11.30839 -11.29505 -11.26276 -11.24033  -8.24811
  Beta  occ. eigenvalues --   -6.22712  -6.22416  -6.21038  -1.53870  -1.45141
  Beta  occ. eigenvalues --   -1.23156  -1.10928  -1.01676  -0.95444  -0.88403
  Beta  occ. eigenvalues --   -0.82031  -0.78659  -0.75992  -0.72488  -0.68687
  Beta  occ. eigenvalues --   -0.65126  -0.63736  -0.63672  -0.59612  -0.59058
  Beta  occ. eigenvalues --   -0.57231  -0.53365  -0.52701  -0.50758  -0.49515
  Beta  occ. eigenvalues --   -0.46924  -0.46317  -0.42965  -0.37316
  Beta virt. eigenvalues --   -0.00418   0.02478   0.03359   0.03707   0.04578
  Beta virt. eigenvalues --    0.05841   0.06026   0.06439   0.07095   0.08099
  Beta virt. eigenvalues --    0.08911   0.09863   0.11011   0.11583   0.13125

 Mulliken charges and spin densities:
               1          2
     1  C   -0.382225   0.004315
     2  C   -0.372787   0.040271
     3  H    0.168338   0.000657
     4  H    0.131650   0.000223
     5  H    0.218715  -0.007292
     6  C    0.033959  -0.146757
     7  H    0.098378  -0.002407
     8  H    0.147353   0.003211
     9  C   -1.830637  -0.050960
    10  C    2.550850   0.020296
    11  O   -1.318700   0.007964
    12  O   -1.356586  -0.001244
    13  N    0.229803  -0.008793
    14  S    0.119826   1.140378
    15  H    0.153763   0.007888
    16  H    0.292346   0.001773
    17  H    0.510347   0.000340
    18  H    0.289194  -0.001106
    19  H    0.316412  -0.008755
 Sum of Mulliken charges =  -0.00000   1.00000

 Dipole moment (field-independent basis, Debye):
    X=             -3.3879    Y=              4.4348    Z=              1.0644  Tot=              5.6814
                          Isotropic Fermi Contact Couplings
        Atom                 a.u.       MegaHertz       Gauss      10(-4) cm-1
     1  C(13)             -0.00087      -0.97675      -0.34853      -0.32581
     2  C(13)              0.02421      27.22141       9.71328       9.08009
     3  H(1)               0.00007       0.30962       0.11048       0.10328
     4  H(1)               0.00005       0.20431       0.07290       0.06815
     5  H(1)              -0.00003      -0.11908      -0.04249      -0.03972
     6  C(13)             -0.02601     -29.23821     -10.43292      -9.75282
     7  H(1)              -0.00066      -2.95380      -1.05399      -0.98528
     8  H(1)               0.00091       4.08072       1.45610       1.36118

 1\1\GINC-SE460\SP\UHF\Aug-CC-pVDZ\C5H10N1O2S1(2)\OHZDE\08-Apr-2025\0\\
 #t hf aug-cc-pvdz iop(5/13=1,5/36=2,99/5=2) pseudo=read geom=check gue
 ss=(read,tcheck) scf=(maxcycle=1)\\title\\0,2\C,0,-3.227029,0.146827,-
 0.743801\C,0,-1.915032,0.860483,-0.413091\H,0,-3.136305,-0.427869,-1.6
 69783\H,0,-4.032236,0.873435,-0.878184\H,0,-3.521926,-0.5435,0.048087\
 C,0,-0.685868,-0.068541,-0.283075\H,0,-2.029059,1.451547,0.502345\H,0,
 -1.682116,1.575359,-1.212077\C,0,0.644905,0.71336,-0.251143\C,0,1.8414
 11,-0.221961,-0.548461\O,0,1.770908,-1.151235,-1.308404\O,0,2.964579,0

 Normal termination of Gaussian 16 at Tue Apr  8 23:16:40 2025.
