 Gaussian 16, Revision C.01,

 ----------------------------------------------------------------------
 #t hf aug-cc-pvdz symm=none int=(grid=ultrafine) guess=(read,tcheck) s
 table=(opt,rrhf)
 ----------------------------------------------------------------------
 -----
 title
 -----
 Symbolic Z-matrix:
 Charge =  0 Multiplicity = 1

 SCF Done:  E(RHF) =  -458.957134879     A.U. after   13 cycles
 Normal termination of Gaussian 16 at Wed Apr  9 00:01:25 2025.
 Gaussian 16:  ES64L-G16RevC.01  3-Jul-2019

 ----------------------------------------------------------------------
 #t hf aug-cc-pvdz iop(5/13=1,5/36=2,99/5=2) pseudo=read geom=check gue
 ss=(read,tcheck) scf=(maxcycle=1)
 ----------------------------------------------------------------------
 -----
 title
 -----
 Structure from the checkpoint file:  "BDE49_nonexpt_2144_mol1.chk"
 Charge =  0 Multiplicity = 1

                         Standard orientation:
 ---------------------------------------------------------------------
 Center     Atomic      Atomic             Coordinates (Angstroms)
 Number     Number       Type             X           Y           Z
 ---------------------------------------------------------------------
      1         14           0       -0.514160   -0.681630    0.000053
      2          7           0        1.333566   -0.398059   -0.000028
      3          8           0        1.666240    0.771345   -0.000090
      4          6           0       -1.487651    0.910240   -0.000002
      5          1           0       -1.252806    1.508126    0.883763
      6          1           0       -2.560985    0.700836    0.000089
      7          1           0       -1.252930    1.507992   -0.883890
      8          1           0       -0.736965   -1.509892    1.207623
      9          1           0       -0.737053   -1.510031   -1.207405
 ---------------------------------------------------------------------

 SCF Done:  E(RHF) =  -459.156453809     A.U. after    2 cycles

 The electronic state is 1-A.
 Alpha  occ. eigenvalues --  -69.56237 -20.61994 -15.61108 -11.23872  -6.23215
 Alpha  occ. eigenvalues --   -3.98582  -3.98512  -3.98503  -1.57468  -0.99386
 Alpha  occ. eigenvalues --   -0.96205  -0.76002  -0.67531  -0.64609  -0.60675
 Alpha  occ. eigenvalues --   -0.57972  -0.57681  -0.49798  -0.48970  -0.38786
 Alpha virt. eigenvalues --    0.03315   0.04605   0.04672   0.05027   0.05998
 Alpha virt. eigenvalues --    0.06972   0.07838   0.07852   0.10119   0.12244
 Alpha virt. eigenvalues --    0.14712   0.14954   0.15106   0.16030   0.16501

 Mulliken charges:
               1
     1  Si   1.204051
     2  N    0.501559
     3  O   -0.890386
     4  C   -0.693107
     5  H    0.134859
     6  H    0.004084
     7  H    0.134857
     8  H   -0.197959
     9  H   -0.197960
 Sum of Mulliken charges =  -0.00000

 Dipole moment (field-independent basis, Debye):
    X=             -3.0166    Y=              0.2074    Z=              0.0001  Tot=              3.0238

 Test job not archived.
 1\1\GINC-SE367\SP\RHF\Aug-CC-pVDZ\C1H5N1O1Si1\OHZDE\09-Apr-2025\0\\#t
 hf aug-cc-pvdz iop(5/13=1,5/36=2,99/5=2) pseudo=read geom=check guess=
 (read,tcheck) scf=(maxcycle=1)\\title\\0,1\Si,0,-0.51416,-0.68163,0.00
 0053\N,0,1.333566,-0.398059,-0.000028\O,0,1.66624,0.771345,-0.00009\C,
 0,-1.487651,0.91024,-0.000002\H,0,-1.252806,1.508126,0.883763\H,0,-2.5
 60985,0.700835,0.000089\H,0,-1.25293,1.507992,-0.88389\H,0,-0.736965,-
 1.509892,1.207623\H,0,-0.737053,-1.510031,-1.207405\\Version=ES64L-G16
 RevC.01\State=1-A\HF=-459.1564538\RMSD=8.983e-03\Dipole=-1.1868404,0.0

 Normal termination of Gaussian 16 at Wed Apr  9 00:01:27 2025.
