 Gaussian 16, Revision C.01,

 ----------------------------------------------------------------------
 #t hf aug-cc-pvdz symm=none int=(grid=ultrafine) guess=(read,tcheck) s
 table=(opt,rrhf)
 ----------------------------------------------------------------------
 -----
 title
 -----
 Symbolic Z-matrix:
 Charge =  0 Multiplicity = 1

 SCF Done:  E(RHF) =  -563.819631491     A.U. after   14 cycles
 Normal termination of Gaussian 16 at Tue Apr  8 23:19:51 2025.
 Gaussian 16:  ES64L-G16RevC.01  3-Jul-2019

 ----------------------------------------------------------------------
 #t hf aug-cc-pvdz iop(5/13=1,5/36=2,99/5=2) pseudo=read geom=check gue
 ss=(read,tcheck) scf=(maxcycle=1)
 ----------------------------------------------------------------------
 -----
 title
 -----
 Structure from the checkpoint file:  "BDE49_nonexpt_1112_mol1.chk"
 Charge =  0 Multiplicity = 1

                         Standard orientation:
 ---------------------------------------------------------------------
 Center     Atomic      Atomic             Coordinates (Angstroms)
 Number     Number       Type             X           Y           Z
 ---------------------------------------------------------------------
      1          9           0       -1.686424    0.544336    0.203813
      2          8           0       -0.938031   -0.481714   -0.495311
      3         14           0        0.596544   -0.467020    0.196893
      4          9           0        1.404969    0.849306   -0.201671
      5          1           0        0.505766   -0.513057    1.658349
      6          1           0        1.179965   -1.637727   -0.471645
 ---------------------------------------------------------------------

 SCF Done:  E(RHF) =  -564.102470428     A.U. after    2 cycles

 The electronic state is 1-A.
 Alpha  occ. eigenvalues --  -69.64053 -26.52565 -26.47841 -20.67481  -6.30317
 Alpha  occ. eigenvalues --   -4.05782  -4.05640  -4.05489  -1.66488  -1.59192
 Alpha  occ. eigenvalues --   -1.35575  -0.81451  -0.72522  -0.71644  -0.69520
 Alpha  occ. eigenvalues --   -0.66675  -0.65935  -0.62071  -0.56111  -0.53916
 Alpha  occ. eigenvalues --   -0.51978
 Alpha virt. eigenvalues --    0.04170   0.05064   0.05376   0.05994   0.08567
 Alpha virt. eigenvalues --    0.11172   0.12824   0.15398   0.16751   0.20201
 Alpha virt. eigenvalues --    0.20989   0.22246   0.23480   0.26028   0.27449

 Mulliken charges:
               1
     1  F   -0.382224
     2  O   -0.471337
     3  Si   2.069462
     4  F   -0.818928
     5  H   -0.223369
     6  H   -0.173605
 Sum of Mulliken charges =  -0.00000

 Dipole moment (field-independent basis, Debye):
    X=              1.3715    Y=             -1.5427    Z=              0.8925  Tot=              2.2489

 Test job not archived.
 1\1\GINC-SE039\SP\RHF\Aug-CC-pVDZ\F2H2O1Si1\OHZDE\08-Apr-2025\0\\#t hf
  aug-cc-pvdz iop(5/13=1,5/36=2,99/5=2) pseudo=read geom=check guess=(r
 ead,tcheck) scf=(maxcycle=1)\\title\\0,1\F,0,-1.686424,0.544335,0.2038
 13\O,0,-0.938031,-0.481714,-0.495311\Si,0,0.596544,-0.46702,0.196893\F
 ,0,1.404969,0.849307,-0.201671\H,0,0.505766,-0.513057,1.658349\H,0,1.1
 79966,-1.637727,-0.471645\\Version=ES64L-G16RevC.01\State=1-A\HF=-564.
 1024704\RMSD=4.073e-03\Dipole=0.5395796,-0.6069377,0.3511337\Quadrupol
 e=-1.346169,0.4596193,0.8865497,-1.5542146,0.1689104,-0.095824\PG=C01

 Normal termination of Gaussian 16 at Tue Apr  8 23:19:55 2025.
