 Gaussian 16, Revision C.01,

 ----------------------------------------------------------------------
 #t hf aug-cc-pvdz symm=none int=(grid=ultrafine) guess=(read,tcheck) s
 table=(opt,rrhf)
 ----------------------------------------------------------------------
 -----
 title
 -----
 Symbolic Z-matrix:
 Charge =  0 Multiplicity = 1

 SCF Done:  E(RHF) =  -1086.01207453     A.U. after   15 cycles
 Normal termination of Gaussian 16 at Tue Apr  8 23:34:53 2025.
 Gaussian 16:  ES64L-G16RevC.01  3-Jul-2019

 ----------------------------------------------------------------------
 #t hf aug-cc-pvdz iop(5/13=1,5/36=2,99/5=2) pseudo=read geom=check gue
 ss=(read,tcheck) scf=(maxcycle=1)
 ----------------------------------------------------------------------
 -----
 title
 -----
 Structure from the checkpoint file:  "BDE49_nonexpt_1459_mol1.chk"
 Charge =  0 Multiplicity = 1

                         Standard orientation:
 ---------------------------------------------------------------------
 Center     Atomic      Atomic             Coordinates (Angstroms)
 Number     Number       Type             X           Y           Z
 ---------------------------------------------------------------------
      1          6           0       -0.985861   -1.156722   -0.130286
      2          6           0        0.399006   -1.007174   -0.168787
      3          6           0       -1.787061   -0.028650   -0.001588
      4          6           0       -1.227136    1.242624    0.090573
      5          6           0        0.156447    1.375881    0.053314
      6          6           0        0.988793    0.256179   -0.070982
      7          1           0        1.031557   -1.881665   -0.265586
      8          1           0       -1.438300   -2.137840   -0.199575
      9          1           0       -1.865781    2.110528    0.193769
     10          1           0        0.586652    2.369859    0.131546
     11         15           0        2.810203    0.485359   -0.245649
     12          7           0        3.402848   -1.011242    0.320317
     13          1           0        4.284525   -1.301186   -0.074228
     14          1           0        3.318096   -1.260593    1.296654
     15         17           0       -3.535032   -0.207564    0.049151
     16          1           0        2.940690    1.334977    0.890916
 ---------------------------------------------------------------------

 SCF Done:  E(RHF) =  -1086.42632692     A.U. after    2 cycles

 The electronic state is 1-A.
 Alpha  occ. eigenvalues -- -105.57115 -84.30173 -15.50578 -11.31079 -11.25990
 Alpha  occ. eigenvalues --  -11.25911 -11.25846 -11.25587 -11.25462 -10.61908
 Alpha  occ. eigenvalues --   -7.78872  -7.78478  -7.78460  -6.76861  -4.29799
 Alpha  occ. eigenvalues --   -4.29566  -4.28593  -1.18839  -1.17373  -1.09670
 Alpha  occ. eigenvalues --   -1.03434  -0.99506  -0.86552  -0.85707  -0.80179
 Alpha  occ. eigenvalues --   -0.71819  -0.69385  -0.67340  -0.65032  -0.61779
 Alpha  occ. eigenvalues --   -0.59677  -0.57317  -0.55442  -0.52679  -0.50987
 Alpha  occ. eigenvalues --   -0.48351  -0.46420  -0.44333  -0.38184  -0.36152
 Alpha  occ. eigenvalues --   -0.31408
 Alpha virt. eigenvalues --    0.02891   0.03810   0.04420   0.05271   0.05541
 Alpha virt. eigenvalues --    0.06382   0.07402   0.08016   0.08449   0.09373
 Alpha virt. eigenvalues --    0.09685   0.10367   0.10945   0.12508   0.13186

 Mulliken charges:
               1
     1  C   -0.056302
     2  C    0.454503
     3  C   -0.002096
     4  C    0.247903
     5  C    0.238985
     6  C   -0.092769
     7  H   -0.323483
     8  H   -0.179169
     9  H   -0.183744
    10  H   -0.286452
    11  P    0.177993
    12  N    0.057674
    13  H    0.004390
    14  H   -0.049579
    15  Cl  -0.325276
    16  H    0.317422
 Sum of Mulliken charges =  -0.00000

 Dipole moment (field-independent basis, Debye):
    X=              2.6280    Y=             -0.1479    Z=              1.0565  Tot=              2.8363

 Test job not archived.
 1\1\GINC-SE097\SP\RHF\Aug-CC-pVDZ\C6H7Cl1N1P1\OHZDE\08-Apr-2025\0\\#t
 hf aug-cc-pvdz iop(5/13=1,5/36=2,99/5=2) pseudo=read geom=check guess=
 (read,tcheck) scf=(maxcycle=1)\\title\\0,1\C,0,-0.985861,-1.156722,-0.
 130286\C,0,0.399006,-1.007174,-0.168787\C,0,-1.787061,-0.02865,-0.0015
 88\C,0,-1.227136,1.242624,0.090573\C,0,0.156447,1.375881,0.053314\C,0,
 0.988793,0.256179,-0.070982\H,0,1.031557,-1.881665,-0.265586\H,0,-1.43
 83,-2.13784,-0.199575\H,0,-1.865781,2.110528,0.193769\H,0,0.586652,2.3
 69859,0.131546\P,0,2.810203,0.485359,-0.245649\N,0,3.402848,-1.011242,

 Normal termination of Gaussian 16 at Tue Apr  8 23:35:01 2025.
