 Gaussian 16, Revision C.01,

 ----------------------------------------------------------------------
 #t hf aug-cc-pvdz symm=none int=(grid=ultrafine) guess=(read,tcheck) s
 table=(opt,rrhf)
 ----------------------------------------------------------------------
 -----
 title
 -----
 Symbolic Z-matrix:
 Charge =  0 Multiplicity = 1

 SCF Done:  E(RHF) =  -683.797010193     A.U. after   11 cycles
 Normal termination of Gaussian 16 at Tue Apr  8 22:58:35 2025.
 Gaussian 16:  ES64L-G16RevC.01  3-Jul-2019

 ----------------------------------------------------------------------
 #t hf aug-cc-pvdz iop(5/13=1,5/36=2,99/5=2) pseudo=read geom=check gue
 ss=(read,tcheck) scf=(maxcycle=1)
 ----------------------------------------------------------------------
 -----
 title
 -----
 Structure from the checkpoint file:  "BDE49_expt_1947_mol1.chk"
 Charge =  0 Multiplicity = 1

                         Standard orientation:
 ---------------------------------------------------------------------
 Center     Atomic      Atomic             Coordinates (Angstroms)
 Number     Number       Type             X           Y           Z
 ---------------------------------------------------------------------
      1         15           0       -0.000000    1.132036   -0.000000
      2         15           0       -0.000000   -1.132036   -0.000000
      3          1           0       -0.980045    1.224448    1.025115
      4          1           0       -0.980048    1.224448   -1.025113
      5          1           0        0.980045   -1.224448    1.025115
      6          1           0        0.980048   -1.224448   -1.025113
 ---------------------------------------------------------------------

 SCF Done:  E(RHF) =  -683.892512250     A.U. after    2 cycles

 The electronic state is 1-A.
 Alpha  occ. eigenvalues --  -84.28454 -84.28442  -6.75545  -6.75529  -4.27753
 Alpha  occ. eigenvalues --   -4.27608  -4.27596  -4.27527  -4.27177  -4.26935
 Alpha  occ. eigenvalues --   -0.91856  -0.78886  -0.53895  -0.48410  -0.43131
 Alpha  occ. eigenvalues --   -0.42759  -0.31303
 Alpha virt. eigenvalues --    0.03810   0.04706   0.06065   0.07808   0.08028
 Alpha virt. eigenvalues --    0.09874   0.10048   0.12017   0.12554   0.13109
 Alpha virt. eigenvalues --    0.16521   0.18279   0.19897   0.20528   0.21472

 Mulliken charges:
               1
     1  P   -0.824621
     2  P   -0.824621
     3  H    0.412311
     4  H    0.412310
     5  H    0.412311
     6  H    0.412310
 Sum of Mulliken charges =   0.00000

 Dipole moment (field-independent basis, Debye):
    X=             -0.0000    Y=             -0.0000    Z=              0.0000  Tot=              0.0000

 Test job not archived.
 1\1\GINC-SE331\SP\RHF\Aug-CC-pVDZ\H4P2\OHZDE\08-Apr-2025\0\\#t hf aug-
 cc-pvdz iop(5/13=1,5/36=2,99/5=2) pseudo=read geom=check guess=(read,t
 check) scf=(maxcycle=1)\\title\\0,1\P,0,0.,1.132036,0.\P,0,0.,-1.13203
 6,0.\H,0,-0.980045,1.224448,1.025115\H,0,-0.980048,1.224448,-1.025113\
 H,0,0.980045,-1.224448,1.025115\H,0,0.980048,-1.224448,-1.025113\\Vers
 ion=ES64L-G16RevC.01\State=1-A\HF=-683.8925122\RMSD=3.918e-02\Dipole=0
 .,0.,0.0000008\Quadrupole=-0.5642721,-1.1998796,1.7641517,-2.0050181,0
 .,0.\PG=C02 [X(H4P2)]\\@

 Normal termination of Gaussian 16 at Tue Apr  8 22:58:37 2025.
