 Gaussian 16, Revision C.01,

 ----------------------------------------------------------------------
 #t hf aug-cc-pvdz symm=none int=(grid=ultrafine) guess=(read,tcheck) s
 table=(opt,rrhf)
 ----------------------------------------------------------------------
 -----
 title
 -----
 Symbolic Z-matrix:
 Charge =  0 Multiplicity = 1

 SCF Done:  E(RHF) =  -1049.93520042     A.U. after   15 cycles
 Normal termination of Gaussian 16 at Tue Apr  8 22:52:48 2025.
 Gaussian 16:  ES64L-G16RevC.01  3-Jul-2019

 ----------------------------------------------------------------------
 #t hf aug-cc-pvdz iop(5/13=1,5/36=2,99/5=2) pseudo=read geom=check gue
 ss=(read,tcheck) scf=(maxcycle=1)
 ----------------------------------------------------------------------
 -----
 title
 -----
 Structure from the checkpoint file:  "BDE49_expt_1796_mol1.chk"
 Charge =  0 Multiplicity = 1

                         Standard orientation:
 ---------------------------------------------------------------------
 Center     Atomic      Atomic             Coordinates (Angstroms)
 Number     Number       Type             X           Y           Z
 ---------------------------------------------------------------------
      1          8           0        1.107996    0.715696   -0.634606
      2          7           0        2.169749   -0.246023   -0.039457
      3          8           0        1.825702   -1.361341    0.144286
      4          8           0        3.178753    0.357630    0.107515
      5          8           0       -0.086070   -0.011433   -0.876000
      6          6           0       -0.994326    0.287661    0.137303
      7         17           0       -2.423140   -0.689033   -0.227643
      8          9           0       -1.301566    1.586021    0.145188
      9          9           0       -0.502873   -0.018762    1.342894
 ---------------------------------------------------------------------

 SCF Done:  E(RHF) =  -1050.55635996     A.U. after    2 cycles

 The electronic state is 1-A.
 Alpha  occ. eigenvalues -- -105.62274 -26.54326 -26.54068 -20.73901 -20.71040
 Alpha  occ. eigenvalues --  -20.67259 -20.66826 -15.90165 -11.58075 -10.67166
 Alpha  occ. eigenvalues --   -7.84122  -7.83665  -7.83656  -1.78514  -1.74382
 Alpha  occ. eigenvalues --   -1.66676  -1.65036  -1.62395  -1.38733  -1.14484
 Alpha  occ. eigenvalues --   -0.99239  -0.94692  -0.88303  -0.85466  -0.83997
 Alpha  occ. eigenvalues --   -0.82744  -0.81531  -0.79550  -0.71931  -0.70380
 Alpha  occ. eigenvalues --   -0.67535  -0.66383  -0.62481  -0.59994  -0.56910
 Alpha  occ. eigenvalues --   -0.55828  -0.53048  -0.52698  -0.51976  -0.51660
 Alpha virt. eigenvalues --    0.03736   0.06711   0.06969   0.09236   0.10041
 Alpha virt. eigenvalues --    0.10653   0.11484   0.13220   0.14077   0.14456
 Alpha virt. eigenvalues --    0.15070   0.16231   0.16880   0.18909   0.19908

 Mulliken charges:
               1
     1  O   -0.580973
     2  N    2.539881
     3  O   -1.004762
     4  O   -1.022192
     5  O   -0.750092
     6  C    2.159320
     7  Cl  -0.081997
     8  F   -0.621994
     9  F   -0.637191
 Sum of Mulliken charges =  -0.00000

 Dipole moment (field-independent basis, Debye):
    X=             -0.8080    Y=             -0.1804    Z=             -0.1267  Tot=              0.8376

 Test job not archived.
 1\1\GINC-SE029\SP\RHF\Aug-CC-pVDZ\C1Cl1F2N1O4\OHZDE\08-Apr-2025\0\\#t
 hf aug-cc-pvdz iop(5/13=1,5/36=2,99/5=2) pseudo=read geom=check guess=
 (read,tcheck) scf=(maxcycle=1)\\title\\0,1\O,0,1.107996,0.715696,-0.63
 4606\N,0,2.169749,-0.246023,-0.039457\O,0,1.825702,-1.361341,0.144286\
 O,0,3.178753,0.35763,0.107515\O,0,-0.08607,-0.011433,-0.876\C,0,-0.994
 326,0.287661,0.137303\Cl,0,-2.42314,-0.689033,-0.227643\F,0,-1.301566,
 1.586021,0.145188\F,0,-0.502873,-0.018762,1.342894\\Version=ES64L-G16R
 evC.01\State=1-A\HF=-1050.55636\RMSD=1.049e-02\Dipole=-0.3179018,-0.07

 Normal termination of Gaussian 16 at Tue Apr  8 22:52:52 2025.
