 Gaussian 16, Revision C.01,

 ----------------------------------------------------------------------
 #t hf aug-cc-pvdz symm=none int=(grid=ultrafine) guess=(read,tcheck) s
 table=opt
 ----------------------------------------------------------------------
 -----
 title
 -----
 Symbolic Z-matrix:
 Charge =  0 Multiplicity = 2

 SCF Done:  E(UHF) =  -407.745087598     A.U. after   14 cycles

 1\1\GINC-SE100\Stability\UHF\Aug-CC-pVDZ\C3H9Si1\OHZDE\08-Apr-2025\0\\
 #t hf aug-cc-pvdz symm=none int=(grid=ultrafine) guess=(read,tcheck) s
 table=opt\\title\\0,2\Si,0,-1.434408,0.,-0.136484\C,0,0.402658,0.,0.36
 5339\C,0,1.132159,-1.272558,-0.097949\H,0,1.175734,-1.328735,-1.190441
 \H,0,0.640943,-2.181099,0.261616\C,0,1.132159,1.272558,-0.097949\H,0,2
 .163104,-1.284985,0.27259\H,0,0.382914,0.,1.465828\H,0,2.163104,1.2849
 85,0.27259\H,0,1.175734,1.328735,-1.190441\H,0,0.640943,2.181099,0.261
 616\H,0,-2.131308,-1.214033,0.37039\H,0,-2.131308,1.214034,0.370387\\V

 Normal termination of Gaussian 16 at Tue Apr  8 23:42:07 2025.
 Gaussian 16:  ES64L-G16RevC.01  3-Jul-2019

 ----------------------------------------------------------------------
 #t hf aug-cc-pvdz iop(5/13=1,5/36=2,99/5=2) pseudo=read geom=check gue
 ss=(read,tcheck) scf=(maxcycle=1)
 ----------------------------------------------------------------------
 -----
 title
 -----
 Structure from the checkpoint file:  "BDE49_nonexpt_1668_mol2.chk"
 Charge =  0 Multiplicity = 2

                         Standard orientation:
 ---------------------------------------------------------------------
 Center     Atomic      Atomic             Coordinates (Angstroms)
 Number     Number       Type             X           Y           Z
 ---------------------------------------------------------------------
      1         14           0       -1.434408   -0.000000   -0.136484
      2          6           0        0.402658    0.000000    0.365339
      3          6           0        1.132159   -1.272558   -0.097949
      4          1           0        1.175734   -1.328735   -1.190441
      5          1           0        0.640943   -2.181099    0.261616
      6          6           0        1.132159    1.272558   -0.097949
      7          1           0        2.163104   -1.284985    0.272590
      8          1           0        0.382914    0.000000    1.465828
      9          1           0        2.163104    1.284985    0.272590
     10          1           0        1.175734    1.328735   -1.190441
     11          1           0        0.640943    2.181099    0.261616
     12          1           0       -2.131308   -1.214033    0.370390
     13          1           0       -2.131308    1.214034    0.370387
 ---------------------------------------------------------------------

 SCF Done:  E(UHF) =  -407.909456785     A.U. after    2 cycles

 The electronic state is 2-A.
 Alpha  occ. eigenvalues --  -69.52788 -11.23368 -11.23160 -11.23150  -6.19945
 Alpha  occ. eigenvalues --   -3.95895  -3.94999  -3.94968  -1.06357  -0.93504
 Alpha  occ. eigenvalues --   -0.81941  -0.71097  -0.62664  -0.59276  -0.57289
 Alpha  occ. eigenvalues --   -0.54598  -0.49812  -0.49280  -0.47746  -0.43001
 Alpha  occ. eigenvalues --   -0.32468
 Alpha virt. eigenvalues --    0.03683   0.04181   0.04293   0.04447   0.06164
 Alpha virt. eigenvalues --    0.06651   0.07040   0.07373   0.08146   0.10131
 Alpha virt. eigenvalues --    0.10312   0.11039   0.14641   0.14671   0.15537

  Beta  occ. eigenvalues --  -69.52243 -11.23309 -11.23162 -11.23150  -6.19123
  Beta  occ. eigenvalues --   -3.94626  -3.94599  -3.93760  -1.06110  -0.93499
  Beta  occ. eigenvalues --   -0.81095  -0.67498  -0.62348  -0.58687  -0.57200
  Beta  occ. eigenvalues --   -0.54598  -0.49651  -0.48919  -0.47043  -0.42063
  Beta virt. eigenvalues --    0.02699   0.03747   0.04311   0.04497   0.05558
  Beta virt. eigenvalues --    0.06276   0.06690   0.07133   0.07478   0.09648
  Beta virt. eigenvalues --    0.10354   0.10406   0.11354   0.14933   0.15224

 Mulliken charges and spin densities:
               1          2
     1  Si   0.468218   1.010820
     2  C   -0.759721  -0.059367
     3  C   -0.279340   0.023221
     4  H    0.175670   0.000973
     5  H    0.101358  -0.003127
     6  C   -0.279340   0.023221
     7  H    0.155936  -0.001383
     8  H    0.220959  -0.011093
     9  H    0.155936  -0.001383
    10  H    0.175670   0.000973
    11  H    0.101358  -0.003127
    12  H   -0.118352   0.010137
    13  H   -0.118352   0.010137
 Sum of Mulliken charges =  -0.00000   1.00000

 Dipole moment (field-independent basis, Debye):
    X=              0.8625    Y=              0.0000    Z=              0.3709  Tot=              0.9389
                          Isotropic Fermi Contact Couplings
        Atom                 a.u.       MegaHertz       Gauss      10(-4) cm-1
     1  Si(29)             0.54193    -481.62972    -171.85746    -160.65438
     2  C(13)              0.00766       8.60876       3.07182       2.87157
     3  C(13)              0.00041       0.45941       0.16393       0.15324
     4  H(1)              -0.00022      -0.97914      -0.34938      -0.32660
     5  H(1)              -0.00008      -0.37363      -0.13332      -0.12463
     6  C(13)              0.00041       0.45939       0.16392       0.15324
     7  H(1)              -0.00047      -2.09606      -0.74793      -0.69917
     8  H(1)               0.00705      31.50097      11.24033      10.50759

 Normal termination of Gaussian 16 at Tue Apr  8 23:42:13 2025.
