 Gaussian 16, Revision C.01,

 ----------------------------------------------------------------------
 #t hf aug-cc-pvdz symm=none int=(grid=ultrafine) guess=(read,tcheck) s
 table=(opt,rrhf)
 ----------------------------------------------------------------------
 -----
 title
 -----
 Symbolic Z-matrix:
 Charge =  0 Multiplicity = 1

 SCF Done:  E(RHF) =  -877.290045274     A.U. after   16 cycles
 Normal termination of Gaussian 16 at Tue Apr  8 23:09:49 2025.
 Gaussian 16:  ES64L-G16RevC.01  3-Jul-2019

 ----------------------------------------------------------------------
 #t hf aug-cc-pvdz iop(5/13=1,5/36=2,99/5=2) pseudo=read geom=check gue
 ss=(read,tcheck) scf=(maxcycle=1)
 ----------------------------------------------------------------------
 -----
 title
 -----
 Structure from the checkpoint file:  "BDE49_expt_607_mol1.chk"
 Charge =  0 Multiplicity = 1

                         Standard orientation:
 ---------------------------------------------------------------------
 Center     Atomic      Atomic             Coordinates (Angstroms)
 Number     Number       Type             X           Y           Z
 ---------------------------------------------------------------------
      1          6           0       -1.850332    0.887639    0.000002
      2          6           0       -2.680013   -0.226030    0.000050
      3          6           0       -2.127820   -1.505066    0.000070
      4          6           0        1.571529   -0.901938   -0.000013
      5          8           0        1.966981   -2.044764   -0.000327
      6          8           0        2.420309    0.141601    0.000386
      7          1           0        3.310339   -0.241898    0.000300
      8          6           0       -0.462939    0.738338   -0.000009
      9          6           0       -0.750339   -1.650349    0.000041
     10          6           0        0.116093   -0.544103    0.000016
     11          1           0       -2.765654   -2.380557    0.000100
     12          1           0       -0.292818   -2.630995    0.000034
     13          1           0       -3.755320   -0.089476    0.000067
     14          1           0       -2.267280    1.886033   -0.000031
     15         17           0        0.457373    2.228897   -0.000111
 ---------------------------------------------------------------------

 SCF Done:  E(RHF) =  -877.780710716     A.U. after    2 cycles

 The electronic state is 1-A.
 Alpha  occ. eigenvalues -- -105.57805 -20.60623 -20.54256 -11.40979 -11.33698
 Alpha  occ. eigenvalues --  -11.28256 -11.27621 -11.27120 -11.26780 -11.26268
 Alpha  occ. eigenvalues --  -10.62623  -7.79592  -7.79177  -7.79169  -1.55838
 Alpha  occ. eigenvalues --   -1.45822  -1.20047  -1.10949  -1.06515  -1.00474
 Alpha  occ. eigenvalues --   -0.91567  -0.85370  -0.82547  -0.74236  -0.72153
 Alpha  occ. eigenvalues --   -0.69543  -0.66902  -0.64507  -0.64296  -0.61485
 Alpha  occ. eigenvalues --   -0.60213  -0.56032  -0.55279  -0.53365  -0.49557
 Alpha  occ. eigenvalues --   -0.47712  -0.46584  -0.45806  -0.37557  -0.35910
 Alpha virt. eigenvalues --    0.02941   0.03775   0.04037   0.05090   0.05369
 Alpha virt. eigenvalues --    0.06563   0.08353   0.09068   0.09311   0.10693
 Alpha virt. eigenvalues --    0.11093   0.12000   0.12901   0.13269   0.13797

 Mulliken charges:
               1
     1  C    0.279283
     2  C   -0.053994
     3  C   -0.041124
     4  C    1.899629
     5  O   -1.360621
     6  O   -1.499424
     7  H    0.534194
     8  C   -0.230315
     9  C   -0.242767
    10  C    2.020674
    11  H   -0.212873
    12  H   -0.354837
    13  H   -0.200123
    14  H   -0.187905
    15  Cl  -0.349796
 Sum of Mulliken charges =  -0.00000

 Dipole moment (field-independent basis, Debye):
    X=             -2.0207    Y=              0.1826    Z=              0.0005  Tot=              2.0289

 Test job not archived.
 1\1\GINC-SE454\SP\RHF\Aug-CC-pVDZ\C7H5Cl1O2\OHZDE\08-Apr-2025\0\\#t hf
  aug-cc-pvdz iop(5/13=1,5/36=2,99/5=2) pseudo=read geom=check guess=(r
 ead,tcheck) scf=(maxcycle=1)\\title\\0,1\C,0,-1.850332,0.887638,0.0000
 02\C,0,-2.680013,-0.226031,0.00005\C,0,-2.127819,-1.505067,0.00007\C,0
 ,1.57153,-0.901937,-0.000013\O,0,1.966982,-2.044763,-0.000327\O,0,2.42
 0309,0.141602,0.000386\H,0,3.310339,-0.241896,0.0003\C,0,-0.462939,0.7
 38338,-0.000009\C,0,-0.750338,-1.650349,0.000041\C,0,0.116093,-0.54410
 3,0.000016\H,0,-2.765653,-2.380558,0.0001\H,0,-0.292817,-2.630995,0.00

 Normal termination of Gaussian 16 at Tue Apr  8 23:09:57 2025.
