 Gaussian 16, Revision C.01,

 ----------------------------------------------------------------------
 #t hf aug-cc-pvdz symm=none int=(grid=ultrafine) guess=(read,tcheck) s
 table=(opt,rrhf)
 ----------------------------------------------------------------------
 -----
 title
 -----
 Symbolic Z-matrix:
 Charge =  0 Multiplicity = 1

 SCF Done:  E(RHF) =  -561.750293025     A.U. after   14 cycles
 Normal termination of Gaussian 16 at Wed Apr  9 00:43:50 2025.
 Gaussian 16:  ES64L-G16RevC.01  3-Jul-2019

 ----------------------------------------------------------------------
 #t hf aug-cc-pvdz iop(5/13=1,5/36=2,99/5=2) pseudo=read geom=check gue
 ss=(read,tcheck) scf=(maxcycle=1)
 ----------------------------------------------------------------------
 -----
 title
 -----
 Structure from the checkpoint file:  "BDE49_nonexpt_716_mol1.chk"
 Charge =  0 Multiplicity = 1

                         Standard orientation:
 ---------------------------------------------------------------------
 Center     Atomic      Atomic             Coordinates (Angstroms)
 Number     Number       Type             X           Y           Z
 ---------------------------------------------------------------------
      1          5           0        3.001813    0.685959    0.425037
      2          6           0        0.021362   -0.106503    0.305891
      3          6           0       -1.010812   -1.211480    0.007836
      4          6           0       -0.616820    1.142810   -0.333973
      5          6           0       -2.136262    0.990328   -0.071670
      6          1           0       -0.416260    1.138942   -1.410313
      7          1           0       -0.200494    2.069863    0.065776
      8          6           0       -2.370128   -0.519388    0.238628
      9          1           0       -2.719979    1.323578   -0.932536
     10          1           0       -2.446341    1.606739    0.775520
     11          1           0       -2.677828   -0.645861    1.280273
     12          1           0       -3.159562   -0.953361   -0.378617
     13          1           0       -0.869876   -2.100705    0.625865
     14          1           0       -0.917965   -1.525011   -1.038464
     15         15           0        1.758024   -0.514531   -0.207125
     16          1           0        0.083603    0.034713    1.392149
     17          1           0        4.014611    0.837256   -0.180071
     18          1           0        2.869896    1.146582    1.515061
     19          1           0        1.736727   -0.419171   -1.613227
 ---------------------------------------------------------------------

 SCF Done:  E(RHF) =  -562.038326280     A.U. after    2 cycles

 The electronic state is 1-A.
 Alpha  occ. eigenvalues --  -84.24975 -11.24939 -11.23400 -11.23372 -11.23041
 Alpha  occ. eigenvalues --  -11.23026  -7.59954  -6.72533  -4.25357  -4.25198
 Alpha  occ. eigenvalues --   -4.24393  -1.12994  -0.98215  -0.96912  -0.86054
 Alpha  occ. eigenvalues --   -0.78504  -0.77421  -0.68224  -0.66573  -0.62802
 Alpha  occ. eigenvalues --   -0.58752  -0.57490  -0.52076  -0.49714  -0.49365
 Alpha  occ. eigenvalues --   -0.48604  -0.48376  -0.46647  -0.45912  -0.42722
 Alpha  occ. eigenvalues --   -0.30977
 Alpha virt. eigenvalues --    0.03270   0.03548   0.03752   0.04279   0.04964
 Alpha virt. eigenvalues --    0.05320   0.05462   0.06371   0.06493   0.07723
 Alpha virt. eigenvalues --    0.08032   0.08991   0.09293   0.09664   0.11358

 Mulliken charges:
               1
     1  B   -0.563436
     2  C   -0.305339
     3  C   -0.167552
     4  C   -0.446585
     5  C   -0.207766
     6  H    0.105790
     7  H    0.055429
     8  C   -0.254833
     9  H    0.130928
    10  H    0.137253
    11  H    0.106348
    12  H    0.112004
    13  H    0.093036
    14  H    0.136492
    15  P    0.011941
    16  H    0.083402
    17  H    0.398198
    18  H    0.352597
    19  H    0.222094
 Sum of Mulliken charges =  -0.00000

 Dipole moment (field-independent basis, Debye):
    X=             -1.6865    Y=              0.2930    Z=             -0.2328  Tot=              1.7276

 Test job not archived.
 1\1\GINC-SE174\SP\RHF\Aug-CC-pVDZ\C5H12B1P1\OHZDE\09-Apr-2025\0\\#t hf
  aug-cc-pvdz iop(5/13=1,5/36=2,99/5=2) pseudo=read geom=check guess=(r
 ead,tcheck) scf=(maxcycle=1)\\title\\0,1\B,0,3.001813,0.685959,0.42503
 7\C,0,0.021362,-0.106503,0.305891\C,0,-1.010812,-1.21148,0.007836\C,0,
 -0.61682,1.14281,-0.333973\C,0,-2.136262,0.990328,-0.07167\H,0,-0.4162
 6,1.138942,-1.410313\H,0,-0.200494,2.069863,0.065776\C,0,-2.370128,-0.
 519388,0.238628\H,0,-2.719979,1.323578,-0.932536\H,0,-2.446341,1.60673
 9,0.77552\H,0,-2.677828,-0.645861,1.280273\H,0,-3.159562,-0.953361,-0.

 Normal termination of Gaussian 16 at Wed Apr  9 00:43:58 2025.
