 Gaussian 16, Revision C.01,

 ----------------------------------------------------------------------
 #t hf aug-cc-pvdz symm=none int=(grid=ultrafine) guess=(read,tcheck) s
 table=opt
 ----------------------------------------------------------------------
 -----
 title
 -----
 Symbolic Z-matrix:
 Charge =  0 Multiplicity = 2

 SCF Done:  E(UHF) =  -429.872389963     A.U. after   16 cycles
 Normal termination of Gaussian 16 at Tue Apr  8 23:54:25 2025.
 Gaussian 16:  ES64L-G16RevC.01  3-Jul-2019

 ----------------------------------------------------------------------
 #t hf aug-cc-pvdz iop(5/13=1,5/36=2,99/5=2) pseudo=read geom=check gue
 ss=(read,tcheck) scf=(maxcycle=1)
 ----------------------------------------------------------------------
 -----
 title
 -----
 Structure from the checkpoint file:  "BDE49_nonexpt_1963_mol2.chk"
 Charge =  0 Multiplicity = 2

                         Standard orientation:
 ---------------------------------------------------------------------
 Center     Atomic      Atomic             Coordinates (Angstroms)
 Number     Number       Type             X           Y           Z
 ---------------------------------------------------------------------
      1         14           0       -1.507551   -0.124251   -0.059398
      2          5           0        0.481580    0.108115    0.001832
      3          1           0       -2.410579    0.971353    0.363372
      4          1           0       -2.084255   -1.447158    0.281012
      5          8           0        0.912351    1.401825    0.007228
      6          6           0        1.474896   -1.117513    0.006328
      7          1           0        1.547772   -1.526507    1.022476
      8          1           0        2.491710   -0.850859   -0.308892
      9          1           0        1.131593   -1.941055   -0.626465
     10          1           0        1.873385    1.483649   -0.004884
 ---------------------------------------------------------------------

 SCF Done:  E(UHF) =  -430.047264374     A.U. after    2 cycles

 The electronic state is 2-A.
 Alpha  occ. eigenvalues --  -69.51268 -20.56861 -11.21733  -7.62501  -6.18725
 Alpha  occ. eigenvalues --   -3.94766  -3.93811  -3.93754  -1.46804  -0.96398
 Alpha  occ. eigenvalues --   -0.78452  -0.71104  -0.63179  -0.57879  -0.57424
 Alpha  occ. eigenvalues --   -0.52902  -0.51681  -0.48213  -0.42233  -0.30380
 Alpha virt. eigenvalues --    0.03126   0.04093   0.04763   0.05011   0.06574
 Alpha virt. eigenvalues --    0.07402   0.07929   0.08507   0.09539   0.09902
 Alpha virt. eigenvalues --    0.10236   0.10332   0.11325   0.13540   0.15809

  Beta  occ. eigenvalues --  -69.50753 -20.56753 -11.21741  -7.62571  -6.17996
  Beta  occ. eigenvalues --   -3.93425  -3.93398  -3.92595  -1.46542  -0.96343
  Beta  occ. eigenvalues --   -0.77190  -0.67583  -0.63118  -0.57514  -0.57186
  Beta  occ. eigenvalues --   -0.52225  -0.51497  -0.48047  -0.41599
  Beta virt. eigenvalues --    0.02358   0.03167   0.04244   0.05042   0.05514
  Beta virt. eigenvalues --    0.06681   0.07470   0.08127   0.09776   0.09925
  Beta virt. eigenvalues --    0.10043   0.10531   0.11102   0.11751   0.15705

 Mulliken charges and spin densities:
               1          2
     1  Si   0.447282   1.081731
     2  B    0.885136  -0.000078
     3  H   -0.174371  -0.053751
     4  H   -0.142807  -0.067409
     5  O   -1.200507   0.047712
     6  C   -0.380636  -0.005964
     7  H    0.090130   0.001996
     8  H   -0.097674   0.003188
     9  H    0.028015  -0.005870
    10  H    0.545431  -0.001554
 Sum of Mulliken charges =  -0.00000   1.00000

 Dipole moment (field-independent basis, Debye):
    X=              2.1378    Y=             -0.5279    Z=              0.2203  Tot=              2.2130
                          Isotropic Fermi Contact Couplings
        Atom                 a.u.       MegaHertz       Gauss      10(-4) cm-1
     1  Si(29)             0.33631    -298.88686    -106.65026     -99.69792
     2  B(11)             -0.01350     -19.36740      -6.91077      -6.46027
     3  H(1)              -0.01060     -47.39946     -16.91331     -15.81076
     4  H(1)              -0.01106     -49.42765     -17.63702     -16.48729
     5  O(17)              0.00657      -3.98122      -1.42060      -1.32799
     6  C(13)             -0.00242      -2.71944      -0.97036      -0.90711
     7  H(1)               0.00132       5.91833       2.11181       1.97414
     8  H(1)               0.00059       2.64070       0.94227       0.88084

 1\1\GINC-SE435\SP\UHF\Aug-CC-pVDZ\C1H6B1O1Si1(2)\OHZDE\08-Apr-2025\0\\
 #t hf aug-cc-pvdz iop(5/13=1,5/36=2,99/5=2) pseudo=read geom=check gue
 ss=(read,tcheck) scf=(maxcycle=1)\\title\\0,2\Si,0,-1.507551,-0.124251
 ,-0.059398\B,0,0.48158,0.108115,0.001832\H,0,-2.410579,0.971353,0.3633
 72\H,0,-2.084255,-1.447158,0.281012\O,0,0.912351,1.401825,0.007228\C,0
 ,1.474896,-1.117513,0.006328\H,0,1.547772,-1.526507,1.022476\H,0,2.491
 71,-0.850859,-0.308892\H,0,1.131593,-1.941055,-0.626465\H,0,1.873385,1
 .483649,-0.004884\\Version=ES64L-G16RevC.01\State=2-A\HF=-430.0472644\

 Normal termination of Gaussian 16 at Tue Apr  8 23:54:28 2025.
