 Gaussian 16, Revision C.01,

 ----------------------------------------------------------------------
 #t hf aug-cc-pvdz symm=none int=(grid=ultrafine) guess=(read,tcheck) s
 table=(opt,rrhf)
 ----------------------------------------------------------------------
 -----
 title
 -----
 Symbolic Z-matrix:
 Charge =  0 Multiplicity = 1

 SCF Done:  E(RHF) =  -394.564769293     A.U. after   12 cycles
 Normal termination of Gaussian 16 at Wed Apr  9 00:45:03 2025.
 Gaussian 16:  ES64L-G16RevC.01  3-Jul-2019

 ----------------------------------------------------------------------
 #t hf aug-cc-pvdz iop(5/13=1,5/36=2,99/5=2) pseudo=read geom=check gue
 ss=(read,tcheck) scf=(maxcycle=1)
 ----------------------------------------------------------------------
 -----
 title
 -----
 Structure from the checkpoint file:  "BDE49_nonexpt_775_mol1.chk"
 Charge =  0 Multiplicity = 1

                         Standard orientation:
 ---------------------------------------------------------------------
 Center     Atomic      Atomic             Coordinates (Angstroms)
 Number     Number       Type             X           Y           Z
 ---------------------------------------------------------------------
      1          5           0        1.884511    1.058163   -0.160031
      2         14           0        0.739036   -0.573470    0.146202
      3          6           0       -1.878376    0.646087    0.238374
      4          6           0       -1.053695   -0.455204   -0.450337
      5          1           0       -1.530714   -1.430235   -0.299676
      6          1           0       -1.042413   -0.291948   -1.534509
      7          1           0       -1.440202    1.635925    0.078664
      8          1           0       -2.902864    0.678095   -0.144026
      9          1           0       -1.937310    0.484247    1.318801
     10          1           0        1.486732    2.062983   -0.665662
     11          1           0        3.029815    1.039259    0.174067
     12          1           0        0.752429   -0.854748    1.611616
     13          1           0        1.407886   -1.731121   -0.514162
 ---------------------------------------------------------------------

 SCF Done:  E(RHF) =  -394.717936897     A.U. after    2 cycles

 The electronic state is 1-A.
 Alpha  occ. eigenvalues --  -69.50628 -11.23132 -11.22044  -7.60484  -6.17908
 Alpha  occ. eigenvalues --   -3.93267  -3.93237  -3.93210  -1.02425  -0.85201
 Alpha  occ. eigenvalues --   -0.74801  -0.65715  -0.61048  -0.58173  -0.52671
 Alpha  occ. eigenvalues --   -0.50408  -0.50188  -0.46757  -0.43287  -0.41134
 Alpha virt. eigenvalues --    0.02683   0.03571   0.03821   0.04215   0.05180
 Alpha virt. eigenvalues --    0.06013   0.06255   0.07231   0.08237   0.08660
 Alpha virt. eigenvalues --    0.09199   0.09973   0.10507   0.11711   0.12797

 Mulliken charges:
               1
     1  B   -1.126654
     2  Si   1.000544
     3  C   -0.406257
     4  C   -0.537056
     5  H    0.035990
     6  H    0.123276
     7  H    0.130667
     8  H    0.101966
     9  H    0.153151
    10  H    0.455659
    11  H    0.413152
    12  H   -0.134022
    13  H   -0.210416
 Sum of Mulliken charges =   0.00000

 Dipole moment (field-independent basis, Debye):
    X=             -0.5555    Y=              0.3381    Z=             -0.3552  Tot=              0.7410

 Test job not archived.
 1\1\GINC-SE165\SP\RHF\Aug-CC-pVDZ\C2H9B1Si1\OHZDE\09-Apr-2025\0\\#t hf
  aug-cc-pvdz iop(5/13=1,5/36=2,99/5=2) pseudo=read geom=check guess=(r
 ead,tcheck) scf=(maxcycle=1)\\title\\0,1\B,0,1.884511,1.058163,-0.1600
 31\Si,0,0.739036,-0.57347,0.146202\C,0,-1.878376,0.646087,0.238374\C,0
 ,-1.053695,-0.455204,-0.450337\H,0,-1.530714,-1.430235,-0.299676\H,0,-
 1.042413,-0.291948,-1.534509\H,0,-1.440202,1.635925,0.078664\H,0,-2.90
 2864,0.678094,-0.144026\H,0,-1.93731,0.484247,1.318801\H,0,1.486732,2.
 062983,-0.665662\H,0,3.029815,1.039259,0.174067\H,0,0.752429,-0.854748

 Normal termination of Gaussian 16 at Wed Apr  9 00:45:07 2025.
