 Gaussian 16, Revision C.01,

 ----------------------------------------------------------------------
 #t hf aug-cc-pvdz symm=none int=(grid=ultrafine) guess=(read,tcheck) s
 table=(opt,rrhf)
 ----------------------------------------------------------------------
 -----
 title
 -----
 Symbolic Z-matrix:
 Charge =  0 Multiplicity = 1

 SCF Done:  E(RHF) =  -694.588458913     A.U. after   15 cycles
 Normal termination of Gaussian 16 at Wed Apr  9 00:04:22 2025.
 Gaussian 16:  ES64L-G16RevC.01  3-Jul-2019

 ----------------------------------------------------------------------
 #t hf aug-cc-pvdz iop(5/13=1,5/36=2,99/5=2) pseudo=read geom=check gue
 ss=(read,tcheck) scf=(maxcycle=1)
 ----------------------------------------------------------------------
 -----
 title
 -----
 Structure from the checkpoint file:  "BDE49_nonexpt_2183_mol1.chk"
 Charge =  0 Multiplicity = 1

                         Standard orientation:
 ---------------------------------------------------------------------
 Center     Atomic      Atomic             Coordinates (Angstroms)
 Number     Number       Type             X           Y           Z
 ---------------------------------------------------------------------
      1          6           0       -2.236371    0.968881    0.000001
      2          6           0       -2.045183   -0.406118   -0.000000
      3          6           0       -0.789400   -0.987193   -0.000001
      4          6           0       -1.107139    1.781829   -0.000000
      5          6           0        0.174691    1.235173   -0.000002
      6          6           0        0.331225   -0.153733   -0.000002
      7          1           0       -3.239394    1.374597    0.000002
      8          9           0       -3.127287   -1.215227    0.000001
      9          1           0       -0.673057   -2.062495   -0.000002
     10          1           0       -1.224948    2.859047   -0.000000
     11          1           0        1.041319    1.885813   -0.000002
     12          8           0        1.552455   -0.763156   -0.000004
     13         14           0        3.089224   -0.125820    0.000003
     14          1           0        3.981820   -1.296874    0.000003
     15          1           0        3.312061    0.705324    1.204527
     16          1           0        3.312070    0.705329   -1.204517
 ---------------------------------------------------------------------

 SCF Done:  E(RHF) =  -695.020496640     A.U. after    2 cycles

 The electronic state is 1-A.
 Alpha  occ. eigenvalues --  -69.57547 -26.47781 -20.57153 -11.34375 -11.33071
 Alpha  occ. eigenvalues --  -11.26636 -11.24963 -11.24784 -11.24769  -6.24143
 Alpha  occ. eigenvalues --   -3.99649  -3.99494  -3.99471  -1.60662  -1.48824
 Alpha  occ. eigenvalues --   -1.16609  -1.03675  -1.02419  -0.87207  -0.86624
 Alpha  occ. eigenvalues --   -0.78641  -0.72440  -0.71753  -0.69340  -0.67410
 Alpha  occ. eigenvalues --   -0.65726  -0.62929  -0.61417  -0.61271  -0.56379
 Alpha  occ. eigenvalues --   -0.54632  -0.53125  -0.51338  -0.48198  -0.47649
 Alpha  occ. eigenvalues --   -0.35878  -0.33783
 Alpha virt. eigenvalues --    0.03069   0.03534   0.04185   0.04865   0.05453
 Alpha virt. eigenvalues --    0.05928   0.06831   0.08670   0.09058   0.09898
 Alpha virt. eigenvalues --    0.10425   0.11345   0.11735   0.12513   0.12723

 Mulliken charges:
               1
     1  C   -0.187898
     2  C    1.483591
     3  C   -0.385600
     4  C    0.559574
     5  C   -0.048578
     6  C    1.831091
     7  H   -0.184144
     8  F   -0.995331
     9  H   -0.169156
    10  H   -0.199843
    11  H   -0.324428
    12  O   -2.240013
    13  Si   1.309070
    14  H   -0.177257
    15  H   -0.135538
    16  H   -0.135540
 Sum of Mulliken charges =  -0.00000

 Dipole moment (field-independent basis, Debye):
    X=              1.6752    Y=              1.6263    Z=              0.0000  Tot=              2.3348

 Test job not archived.
 1\1\GINC-SE454\SP\RHF\Aug-CC-pVDZ\C6H7F1O1Si1\OHZDE\09-Apr-2025\0\\#t
 hf aug-cc-pvdz iop(5/13=1,5/36=2,99/5=2) pseudo=read geom=check guess=
 (read,tcheck) scf=(maxcycle=1)\\title\\0,1\C,0,-2.236371,0.968881,0.00
 0001\C,0,-2.045183,-0.406118,0.\C,0,-0.7894,-0.987193,-0.000001\C,0,-1
 .107139,1.781829,0.\C,0,0.174691,1.235173,-0.000002\C,0,0.331225,-0.15
 3733,-0.000002\H,0,-3.239394,1.374597,0.000002\F,0,-3.127287,-1.215227
 ,0.000001\H,0,-0.673057,-2.062495,-0.000002\H,0,-1.224948,2.859047,0.\
 H,0,1.041319,1.885813,-0.000002\O,0,1.552455,-0.763156,-0.000004\Si,0,

 Normal termination of Gaussian 16 at Wed Apr  9 00:04:30 2025.
