 Gaussian 16, Revision C.01,

 ----------------------------------------------------------------------
 #t hf aug-cc-pvdz symm=none int=(grid=ultrafine) guess=(read,tcheck) s
 table=(opt,rrhf)
 ----------------------------------------------------------------------
 -----
 title
 -----
 Symbolic Z-matrix:
 Charge =  0 Multiplicity = 1

 SCF Done:  E(RHF) =  -453.877611261     A.U. after   14 cycles
 Normal termination of Gaussian 16 at Wed Apr  9 00:34:24 2025.
 Gaussian 16:  ES64L-G16RevC.01  3-Jul-2019

 ----------------------------------------------------------------------
 #t hf aug-cc-pvdz iop(5/13=1,5/36=2,99/5=2) pseudo=read geom=check gue
 ss=(read,tcheck) scf=(maxcycle=1)
 ----------------------------------------------------------------------
 -----
 title
 -----
 Structure from the checkpoint file:  "BDE49_nonexpt_430_mol1.chk"
 Charge =  0 Multiplicity = 1

                         Standard orientation:
 ---------------------------------------------------------------------
 Center     Atomic      Atomic             Coordinates (Angstroms)
 Number     Number       Type             X           Y           Z
 ---------------------------------------------------------------------
      1          9           0       -2.434884    1.129729   -0.000264
      2          9           0       -2.434884   -1.129729   -0.000265
      3          5           0       -1.731250    0.000000    0.000331
      4          6           0       -0.189596    0.000000    0.000192
      5          6           0        0.527606   -1.207864    0.000133
      6          1           0       -0.013593   -2.147488    0.000178
      7          6           0        1.918211   -1.209309    0.000026
      8          1           0        2.461641   -2.147328   -0.000016
      9          6           0        2.613048    0.000000   -0.000029
     10          6           0        0.527606    1.207864    0.000134
     11          1           0       -0.013593    2.147488    0.000179
     12          6           0        1.918211    1.209309    0.000026
     13          1           0        2.461641    2.147328   -0.000015
     14          1           0        3.697542    0.000000   -0.000114
 ---------------------------------------------------------------------

 SCF Done:  E(RHF) =  -454.318416747     A.U. after    2 cycles

 The electronic state is 1-A.
 Alpha  occ. eigenvalues --  -26.47230 -26.47229 -11.26531 -11.26371 -11.26368
 Alpha  occ. eigenvalues --  -11.25474 -11.25454 -11.23843  -7.71421  -1.62332
 Alpha  occ. eigenvalues --   -1.58298  -1.16741  -1.03444  -1.03192  -0.85918
 Alpha  occ. eigenvalues --   -0.84858  -0.79624  -0.74832  -0.73497  -0.69117
 Alpha  occ. eigenvalues --   -0.68673  -0.65192  -0.65058  -0.62684  -0.62066
 Alpha  occ. eigenvalues --   -0.60710  -0.58296  -0.52503  -0.51698  -0.50668
 Alpha  occ. eigenvalues --   -0.36672  -0.35976
 Alpha virt. eigenvalues --    0.03079   0.03565   0.04037   0.05045   0.05360
 Alpha virt. eigenvalues --    0.05500   0.06207   0.07132   0.09042   0.09138
 Alpha virt. eigenvalues --    0.09464   0.12300   0.13450   0.13871   0.13913

 Mulliken charges:
               1
     1  F   -0.768974
     2  F   -0.768974
     3  B    1.108267
     4  C    0.771614
     5  C    0.046996
     6  H   -0.297949
     7  C    0.320058
     8  H   -0.202283
     9  C    0.133653
    10  C    0.046996
    11  H   -0.297949
    12  C    0.320058
    13  H   -0.202283
    14  H   -0.209231
 Sum of Mulliken charges =  -0.00000

 Dipole moment (field-independent basis, Debye):
    X=              2.5743    Y=              0.0000    Z=              0.0017  Tot=              2.5743

 Test job not archived.
 1\1\GINC-SE072\SP\RHF\Aug-CC-pVDZ\C6H5B1F2\OHZDE\09-Apr-2025\0\\#t hf
 aug-cc-pvdz iop(5/13=1,5/36=2,99/5=2) pseudo=read geom=check guess=(re
 ad,tcheck) scf=(maxcycle=1)\\title\\0,1\F,0,-2.434884,-1.129729,0.0002
 64\F,0,-2.434884,1.129729,0.000265\B,0,-1.73125,0.,-0.000331\C,0,-0.18
 9596,0.,-0.000192\C,0,0.527606,1.207864,-0.000133\H,0,-0.013593,2.1474
 88,-0.000178\C,0,1.918211,1.209309,-0.000026\H,0,2.461641,2.147328,0.0
 00016\C,0,2.613048,0.,0.000029\C,0,0.527606,-1.207864,-0.000134\H,0,-0
 .013593,-2.147488,-0.000179\C,0,1.918211,-1.209309,-0.000026\H,0,2.461

 Normal termination of Gaussian 16 at Wed Apr  9 00:34:29 2025.
