 Gaussian 16, Revision C.01,

 ----------------------------------------------------------------------
 #t hf aug-cc-pvdz symm=none int=(grid=ultrafine) guess=(read,tcheck) s
 table=(opt,rrhf)
 ----------------------------------------------------------------------
 -----
 title
 -----
 Symbolic Z-matrix:
 Charge =  0 Multiplicity = 1

 SCF Done:  E(RHF) =  -639.450394416     A.U. after   12 cycles
 Normal termination of Gaussian 16 at Wed Apr  9 00:09:29 2025.
 Gaussian 16:  ES64L-G16RevC.01  3-Jul-2019

 ----------------------------------------------------------------------
 #t hf aug-cc-pvdz iop(5/13=1,5/36=2,99/5=2) pseudo=read geom=check gue
 ss=(read,tcheck) scf=(maxcycle=1)
 ----------------------------------------------------------------------
 -----
 title
 -----
 Structure from the checkpoint file:  "BDE49_nonexpt_2232_mol1.chk"
 Charge =  0 Multiplicity = 1

                         Standard orientation:
 ---------------------------------------------------------------------
 Center     Atomic      Atomic             Coordinates (Angstroms)
 Number     Number       Type             X           Y           Z
 ---------------------------------------------------------------------
      1          8           0       -0.287025   -0.256172   -0.349682
      2         14           0        1.107909   -0.682806    0.437552
      3          6           0        2.506042   -0.349137   -0.767901
      4          6           0        2.608608    1.102435   -1.270299
      5          1           0        2.376671   -1.029265   -1.617780
      6          1           0        3.444298   -0.650733   -0.284560
      7          1           0        2.787295    1.802312   -0.448650
      8          1           0        1.686750    1.409645   -1.769822
      9          6           0       -1.639162   -0.495331    0.065596
     10          6           0       -2.501343    0.676248   -0.408922
     11          6           0       -2.106507    2.022924    0.199000
     12          1           0       -3.546524    0.450324   -0.168202
     13          1           0       -2.430043    0.723658   -1.501405
     14          1           0       -1.073891    2.272822   -0.051513
     15          1           0       -2.195128    2.006774    1.290229
     16          6           0        1.304554    0.268846    2.044398
     17          1           0        2.222838   -0.038104    2.556052
     18          1           0        0.471532    0.078032    2.727505
     19          1           0        1.356480    1.347896    1.874419
     20          6           0       -2.118811   -1.832502   -0.495067
     21          1           0       -1.680719   -0.533013    1.165155
     22          1           0       -3.145809   -2.040369   -0.180869
     23          1           0       -1.483300   -2.650126   -0.147512
     24          1           0       -2.085608   -1.814320   -1.587725
     25          1           0        3.429866    1.221655   -1.983128
     26          1           0       -2.748680    2.825443   -0.173317
     27          1           0        1.079155   -2.134862    0.772021
 ---------------------------------------------------------------------

 SCF Done:  E(RHF) =  -639.867116380     A.U. after    2 cycles

 The electronic state is 1-A.
 Alpha  occ. eigenvalues --  -69.53360 -20.51947 -11.28910 -11.22522 -11.22375
 Alpha  occ. eigenvalues --  -11.22203 -11.21918 -11.21079 -11.20963  -6.20010
 Alpha  occ. eigenvalues --   -3.95481  -3.95328  -3.95315  -1.42407  -1.06528
 Alpha  occ. eigenvalues --   -1.01816  -0.98407  -0.94524  -0.86955  -0.84312
 Alpha  occ. eigenvalues --   -0.79230  -0.71462  -0.63064  -0.62313  -0.61002
 Alpha  occ. eigenvalues --   -0.60103  -0.58505  -0.57985  -0.55903  -0.55278
 Alpha  occ. eigenvalues --   -0.54626  -0.53104  -0.51598  -0.50788  -0.50306
 Alpha  occ. eigenvalues --   -0.49317  -0.48795  -0.46593  -0.44688  -0.41950
 Alpha  occ. eigenvalues --   -0.40977
 Alpha virt. eigenvalues --    0.03380   0.03516   0.03659   0.03840   0.05246
 Alpha virt. eigenvalues --    0.05303   0.05595   0.05978   0.06121   0.07922
 Alpha virt. eigenvalues --    0.07989   0.08285   0.08573   0.08735   0.09137

 Mulliken charges:
               1
     1  O   -2.111911
     2  Si   2.665520
     3  C   -0.511886
     4  C   -0.398729
     5  H   -0.077200
     6  H    0.026299
     7  H    0.146412
     8  H    0.163456
     9  C    0.297012
    10  C   -0.137299
    11  C   -0.257637
    12  H    0.172993
    13  H    0.173002
    14  H    0.203497
    15  H    0.160131
    16  C   -0.640621
    17  H   -0.023001
    18  H   -0.080177
    19  H    0.122520
    20  C   -0.394996
    21  H    0.170595
    22  H    0.155008
    23  H    0.132283
    24  H    0.246512
    25  H    0.076847
    26  H    0.072533
    27  H   -0.351162
 Sum of Mulliken charges =  -0.00000

 Dipole moment (field-independent basis, Debye):
    X=             -0.3267    Y=              0.0129    Z=              0.5933  Tot=              0.6774

 Test job not archived.
 1\1\GINC-SE099\SP\RHF\Aug-CC-pVDZ\C7H18O1Si1\OHZDE\09-Apr-2025\0\\#t h
 f aug-cc-pvdz iop(5/13=1,5/36=2,99/5=2) pseudo=read geom=check guess=(
 read,tcheck) scf=(maxcycle=1)\\title\\0,1\O,0,-0.287025,-0.256172,-0.3
 49682\Si,0,1.107909,-0.682806,0.437552\C,0,2.506042,-0.349137,-0.76790
 1\C,0,2.608608,1.102435,-1.270299\H,0,2.376671,-1.029265,-1.61778\H,0,
 3.444298,-0.650733,-0.28456\H,0,2.787295,1.802312,-0.44865\H,0,1.68675
 ,1.409645,-1.769822\C,0,-1.639162,-0.495331,0.065596\C,0,-2.501343,0.6
 76248,-0.408922\C,0,-2.106507,2.022924,0.199\H,0,-3.546524,0.450324,-0

 Normal termination of Gaussian 16 at Wed Apr  9 00:09:49 2025.
