 Gaussian 16, Revision C.01,

 ----------------------------------------------------------------------
 #t hf aug-cc-pvdz symm=none int=(grid=ultrafine) guess=(read,tcheck) s
 table=(opt,rrhf)
 ----------------------------------------------------------------------
 -----
 title
 -----
 Symbolic Z-matrix:
 Charge =  0 Multiplicity = 1

 SCF Done:  E(RHF) =  -150.572221742     A.U. after   12 cycles
 Normal termination of Gaussian 16 at Tue Apr  8 23:18:48 2025.
 Gaussian 16:  ES64L-G16RevC.01  3-Jul-2019

 ----------------------------------------------------------------------
 #t hf aug-cc-pvdz iop(5/13=1,5/36=2,99/5=2) pseudo=read geom=check gue
 ss=(read,tcheck) scf=(maxcycle=1)
 ----------------------------------------------------------------------
 -----
 title
 -----
 Structure from the checkpoint file:  "BDE49_nonexpt_10_mol1.chk"
 Charge =  0 Multiplicity = 1

                         Standard orientation:
 ---------------------------------------------------------------------
 Center     Atomic      Atomic             Coordinates (Angstroms)
 Number     Number       Type             X           Y           Z
 ---------------------------------------------------------------------
      1          5           0        1.461902   -0.142903   -0.000001
      2          5           0       -0.092109    0.471630    0.000022
      3          9           0       -1.188114   -0.292165   -0.000012
      4          1           0       -0.282899    1.660706    0.000003
      5          1           0        2.063509   -0.337335   -1.013662
      6          1           0        2.063446   -0.337523    1.013663
 ---------------------------------------------------------------------

 SCF Done:  E(RHF) =  -150.715337182     A.U. after    2 cycles

 The electronic state is 1-A.
 Alpha  occ. eigenvalues --  -26.46557  -7.64972  -7.60052  -1.59036  -0.79008
 Alpha  occ. eigenvalues --   -0.71860  -0.67169  -0.64560  -0.58214  -0.50678
 Alpha  occ. eigenvalues --   -0.43808
 Alpha virt. eigenvalues --    0.02762   0.03821   0.04225   0.04726   0.06823
 Alpha virt. eigenvalues --    0.06901   0.07590   0.09477   0.09950   0.11968
 Alpha virt. eigenvalues --    0.13288   0.14874   0.15384   0.24299   0.24376

 Mulliken charges:
               1
     1  B   -0.642540
     2  B    0.858390
     3  F   -0.656488
     4  H   -0.038776
     5  H    0.239715
     6  H    0.239698
 Sum of Mulliken charges =   0.00000

 Dipole moment (field-independent basis, Debye):
    X=              0.9071    Y=              0.3399    Z=              0.0001  Tot=              0.9687

 Test job not archived.
 1\1\GINC-SE073\SP\RHF\Aug-CC-pVDZ\B2F1H3\OHZDE\08-Apr-2025\0\\#t hf au
 g-cc-pvdz iop(5/13=1,5/36=2,99/5=2) pseudo=read geom=check guess=(read
 ,tcheck) scf=(maxcycle=1)\\title\\0,1\B,0,1.461902,-0.142903,-0.000001
 \B,0,-0.092109,0.47163,0.000022\F,0,-1.188114,-0.292165,-0.000012\H,0,
 -0.282899,1.660706,0.000003\H,0,2.063509,-0.337335,-1.013662\H,0,2.063
 446,-0.337523,1.013663\\Version=ES64L-G16RevC.01\State=1-A\HF=-150.715
 3372\RMSD=1.672e-02\Dipole=0.356879,0.1337401,0.0000199\Quadrupole=-1.
 4569645,0.673594,0.7833705,0.1173653,-0.0000174,0.0001428\PG=C01 [X(B2

 Normal termination of Gaussian 16 at Tue Apr  8 23:18:50 2025.
