 Gaussian 16, Revision C.01,

 ----------------------------------------------------------------------
 #t hf aug-cc-pvdz symm=none int=(grid=ultrafine) guess=(read,tcheck) s
 table=(opt,rrhf)
 ----------------------------------------------------------------------
 -----
 title
 -----
 Symbolic Z-matrix:
 Charge =  0 Multiplicity = 1

 SCF Done:  E(RHF) =  -779.067648821     A.U. after   12 cycles
 Normal termination of Gaussian 16 at Tue Apr  8 23:43:11 2025.
 Gaussian 16:  ES64L-G16RevC.01  3-Jul-2019

 ----------------------------------------------------------------------
 #t hf aug-cc-pvdz iop(5/13=1,5/36=2,99/5=2) pseudo=read geom=check gue
 ss=(read,tcheck) scf=(maxcycle=1)
 ----------------------------------------------------------------------
 -----
 title
 -----
 Structure from the checkpoint file:  "BDE49_nonexpt_1711_mol1.chk"
 Charge =  0 Multiplicity = 1

                         Standard orientation:
 ---------------------------------------------------------------------
 Center     Atomic      Atomic             Coordinates (Angstroms)
 Number     Number       Type             X           Y           Z
 ---------------------------------------------------------------------
      1         15           0        0.508255   -0.714266   -0.086533
      2          6           0        1.695650    0.715094   -0.020177
      3          1           0        1.464351    1.433686    0.766705
      4          1           0        1.689140    1.226135   -0.984465
      5          1           0        2.698669    0.310367    0.148443
      6         16           0       -1.397404    0.293994    0.079705
      7          1           0       -1.885249   -0.192802   -1.073016
      8          1           0        0.593831   -1.057870    1.286122
 ---------------------------------------------------------------------

 SCF Done:  E(RHF) =  -779.221952791     A.U. after    2 cycles

 The electronic state is 1-A.
 Alpha  occ. eigenvalues --  -93.95407 -84.30309 -11.24833  -8.23565  -6.77155
 Alpha  occ. eigenvalues --   -6.21366  -6.21259  -6.21019  -4.29307  -4.29216
 Alpha  occ. eigenvalues --   -4.28653  -1.03695  -0.96975  -0.78017  -0.59510
 Alpha  occ. eigenvalues --   -0.59279  -0.54057  -0.49829  -0.46743  -0.37848
 Alpha  occ. eigenvalues --   -0.34190
 Alpha virt. eigenvalues --    0.03708   0.04613   0.05050   0.05567   0.06886
 Alpha virt. eigenvalues --    0.08790   0.09833   0.11380   0.12152   0.13767
 Alpha virt. eigenvalues --    0.14400   0.15821   0.16548   0.17185   0.17671

 Mulliken charges:
               1
     1  P    0.100936
     2  C   -0.766866
     3  H    0.113379
     4  H    0.157873
     5  H    0.136647
     6  S   -0.676115
     7  H    0.355095
     8  H    0.579051
 Sum of Mulliken charges =   0.00000

 Dipole moment (field-independent basis, Debye):
    X=              1.4685    Y=             -0.1425    Z=             -0.4132  Tot=              1.5322

 Test job not archived.
 1\1\GINC-SE455\SP\RHF\Aug-CC-pVDZ\C1H5P1S1\OHZDE\08-Apr-2025\0\\#t hf
 aug-cc-pvdz iop(5/13=1,5/36=2,99/5=2) pseudo=read geom=check guess=(re
 ad,tcheck) scf=(maxcycle=1)\\title\\0,1\P,0,0.508255,-0.714266,-0.0865
 33\C,0,1.69565,0.715094,-0.020177\H,0,1.464351,1.433686,0.766705\H,0,1
 .68914,1.226135,-0.984465\H,0,2.698669,0.310367,0.148443\S,0,-1.397404
 ,0.293994,0.079705\H,0,-1.885249,-0.192802,-1.073016\H,0,0.593831,-1.0
 5787,1.286122\\Version=ES64L-G16RevC.01\State=1-A\HF=-779.2219528\RMSD
 =2.179e-02\Dipole=0.5777609,-0.0560637,-0.1625618\Quadrupole=0.8689874

 Normal termination of Gaussian 16 at Tue Apr  8 23:43:13 2025.
