 Gaussian 16, Revision C.01,

 ----------------------------------------------------------------------
 #t hf aug-cc-pvdz symm=none int=(grid=ultrafine) guess=(read,tcheck) s
 table=opt
 ----------------------------------------------------------------------
 -----
 title
 -----
 Symbolic Z-matrix:
 Charge =  0 Multiplicity = 2

 SCF Done:  E(UHF) =  -824.139290314     A.U. after   15 cycles

 1\1\GINC-SE457\Stability\UHF\Aug-CC-pVDZ\C1F5Si1\OHZDE\08-Apr-2025\0\\
 #t hf aug-cc-pvdz symm=none int=(grid=ultrafine) guess=(read,tcheck) s
 table=opt\\title\\0,2\Si,0,-0.690353,-0.848916,0.\C,0,0.197081,0.88750
 6,0.\F,0,-0.149367,-1.6183,1.291033\F,0,-0.149367,-1.6183,-1.291033\F,
 0,-0.149367,1.602699,1.090299\F,0,-0.149367,1.602699,-1.090299\F,0,1.5
 39963,0.760067,0.\\Version=ES64L-G16RevC.01\HF=-824.1392903\S2=0.75435
 9\S2-1=0.\S2A=0.750007\RMSD=6.661e-09\Dipole=-0.7667813,-0.2049846,0.\
 Quadrupole=2.4963772,-1.3029209,-1.1934563,0.9904282,0.,0.\PG=Unknown\

 Normal termination of Gaussian 16 at Tue Apr  8 23:47:23 2025.
 Gaussian 16:  ES64L-G16RevC.01  3-Jul-2019

 ----------------------------------------------------------------------
 #t hf aug-cc-pvdz iop(5/13=1,5/36=2,99/5=2) pseudo=read geom=check gue
 ss=(read,tcheck) scf=(maxcycle=1)
 ----------------------------------------------------------------------
 -----
 title
 -----
 Structure from the checkpoint file:  "BDE49_nonexpt_1800_mol2.chk"
 Charge =  0 Multiplicity = 2

                         Standard orientation:
 ---------------------------------------------------------------------
 Center     Atomic      Atomic             Coordinates (Angstroms)
 Number     Number       Type             X           Y           Z
 ---------------------------------------------------------------------
      1         14           0        0.690353    0.848916    0.000000
      2          6           0       -0.197081   -0.887506   -0.000000
      3          9           0        0.149367    1.618300    1.291033
      4          9           0        0.149367    1.618300   -1.291033
      5          9           0        0.149367   -1.602699    1.090299
      6          9           0        0.149367   -1.602699   -1.090299
      7          9           0       -1.539963   -0.760067   -0.000000
 ---------------------------------------------------------------------

 SCF Done:  E(UHF) =  -824.649448393     A.U. after    2 cycles

 The electronic state is 2-A'.
 Alpha  occ. eigenvalues --  -69.68684 -26.52288 -26.52286 -26.52155 -26.50169
 Alpha  occ. eigenvalues --  -26.50168 -11.52704  -6.34866  -4.10371  -4.09861
 Alpha  occ. eigenvalues --   -4.09620  -1.72703  -1.62806  -1.62803  -1.62655
 Alpha  occ. eigenvalues --   -1.60541  -0.98243  -0.86428  -0.82111  -0.82100
 Alpha  occ. eigenvalues --   -0.79433  -0.73793  -0.71375  -0.69932  -0.69674
 Alpha  occ. eigenvalues --   -0.69395  -0.67423  -0.65506  -0.65177  -0.64795
 Alpha  occ. eigenvalues --   -0.63519  -0.56391  -0.42677
 Alpha virt. eigenvalues --    0.04704   0.05082   0.05280   0.06829   0.10991
 Alpha virt. eigenvalues --    0.11230   0.11724   0.14240   0.14604   0.19410
 Alpha virt. eigenvalues --    0.20261   0.20769   0.22882   0.23853   0.25997

  Beta  occ. eigenvalues --  -69.68070 -26.52305 -26.52303 -26.52029 -26.49850
  Beta  occ. eigenvalues --  -26.49849 -11.52202  -6.33828  -4.09461  -4.09291
  Beta  occ. eigenvalues --   -4.08407  -1.72525  -1.62827  -1.62534  -1.61812
  Beta  occ. eigenvalues --   -1.59669  -0.97051  -0.84861  -0.81967  -0.81828
  Beta  occ. eigenvalues --   -0.77850  -0.72532  -0.69988  -0.69917  -0.69290
  Beta  occ. eigenvalues --   -0.68262  -0.66238  -0.65257  -0.65094  -0.64679
  Beta  occ. eigenvalues --   -0.63475  -0.53195
  Beta virt. eigenvalues --   -0.01270   0.05301   0.05508   0.06194   0.07416
  Beta virt. eigenvalues --    0.11490   0.11887   0.12123   0.17212   0.17875
  Beta virt. eigenvalues --    0.19516   0.20634   0.21588   0.23418   0.24177

 Mulliken charges and spin densities:
               1          2
     1  Si   1.901076   0.905736
     2  C    1.740339   0.093331
     3  F   -0.755775  -0.004471
     4  F   -0.755775  -0.004471
     5  F   -0.692766  -0.000898
     6  F   -0.692766  -0.000898
     7  F   -0.744333   0.011671
 Sum of Mulliken charges =  -0.00000   1.00000

 Dipole moment (field-independent basis, Debye):
    X=              1.7116    Y=              0.5130    Z=             -0.0000  Tot=              1.7869
                          Isotropic Fermi Contact Couplings
        Atom                 a.u.       MegaHertz       Gauss      10(-4) cm-1
     1  Si(29)             1.06044    -942.44009    -336.28606    -314.36418
     2  C(13)              0.11689     131.41107      46.89074      43.83401
     3  F(19)              0.05719     240.60542      85.85400      80.25733
     4  F(19)              0.05719     240.60542      85.85400      80.25733
     5  F(19)             -0.00388     -16.30462      -5.81789      -5.43863
     6  F(19)             -0.00388     -16.30462      -5.81789      -5.43863
     7  F(19)              0.02134      89.80042      32.04302      29.95420
 --------------------------------------------------------

 Normal termination of Gaussian 16 at Tue Apr  8 23:47:26 2025.
