 Gaussian 16, Revision C.01,

 ----------------------------------------------------------------------
 #t hf aug-cc-pvdz symm=none int=(grid=ultrafine) guess=(read,tcheck) s
 table=(opt,rrhf)
 ----------------------------------------------------------------------
 -----
 title
 -----
 Symbolic Z-matrix:
 Charge =  0 Multiplicity = 1

 SCF Done:  E(RHF) =  -663.780111388     A.U. after   16 cycles
 Normal termination of Gaussian 16 at Tue Apr  8 23:32:51 2025.
 Gaussian 16:  ES64L-G16RevC.01  3-Jul-2019

 ----------------------------------------------------------------------
 #t hf aug-cc-pvdz iop(5/13=1,5/36=2,99/5=2) pseudo=read geom=check gue
 ss=(read,tcheck) scf=(maxcycle=1)
 ----------------------------------------------------------------------
 -----
 title
 -----
 Structure from the checkpoint file:  "BDE49_nonexpt_1421_mol1.chk"
 Charge =  0 Multiplicity = 1

                         Standard orientation:
 ---------------------------------------------------------------------
 Center     Atomic      Atomic             Coordinates (Angstroms)
 Number     Number       Type             X           Y           Z
 ---------------------------------------------------------------------
      1          6           0       -2.333722   -0.770309    0.000207
      2          6           0       -1.083765   -1.382910    0.009536
      3          6           0        0.094272   -0.628857    0.016317
      4          6           0       -2.438158    0.619449   -0.000999
      5          6           0       -1.285661    1.392599    0.001955
      6          6           0       -0.024789    0.778077    0.002207
      7          1           0       -3.228837   -1.381835    0.000501
      8          1           0       -1.024567   -2.465247    0.019107
      9         15           0        1.747676   -1.445981   -0.116607
     10          1           0       -1.344667    2.474075    0.002508
     11          1           0       -3.410446    1.097005   -0.003615
     12          6           0        1.145087    1.602533   -0.000718
     13          7           0        2.093758    2.262618   -0.002083
     14          1           0        1.366477   -2.649088    0.527054
     15          1           0        2.331020   -0.887013    1.047110
 ---------------------------------------------------------------------

 SCF Done:  E(RHF) =  -664.146263806     A.U. after    2 cycles

 The electronic state is 1-A.
 Alpha  occ. eigenvalues --  -84.29273 -15.52045 -11.29906 -11.28972 -11.28740
 Alpha  occ. eigenvalues --  -11.28217 -11.27739 -11.27161 -11.26971  -6.76356
 Alpha  occ. eigenvalues --   -4.29353  -4.28930  -4.28093  -1.24081  -1.18968
 Alpha  occ. eigenvalues --   -1.06978  -1.05772  -0.91687  -0.88992  -0.83589
 Alpha  occ. eigenvalues --   -0.76658  -0.69422  -0.68679  -0.64500  -0.61216
 Alpha  occ. eigenvalues --   -0.59540  -0.57586  -0.55203  -0.52035  -0.51377
 Alpha  occ. eigenvalues --   -0.50950  -0.49298  -0.40883  -0.37615  -0.33612
 Alpha virt. eigenvalues --    0.02544   0.03195   0.03916   0.04802   0.05390
 Alpha virt. eigenvalues --    0.05986   0.06741   0.07452   0.08960   0.09539
 Alpha virt. eigenvalues --    0.09903   0.09997   0.11508   0.12407   0.12729

 Mulliken charges:
               1
     1  C    0.000925
     2  C    0.259012
     3  C   -0.298681
     4  C    0.313959
     5  C    0.279049
     6  C    2.153459
     7  H   -0.217291
     8  H   -0.261229
     9  P   -0.454602
    10  H   -0.291711
    11  H   -0.201485
    12  C   -3.203284
    13  N    1.049504
    14  H    0.375646
    15  H    0.496730
 Sum of Mulliken charges =  -0.00000

 Dipole moment (field-independent basis, Debye):
    X=             -4.6247    Y=             -3.1401    Z=              0.4332  Tot=              5.6067

 Test job not archived.
 1\1\GINC-SE341\SP\RHF\Aug-CC-pVDZ\C7H6N1P1\OHZDE\08-Apr-2025\0\\#t hf
 aug-cc-pvdz iop(5/13=1,5/36=2,99/5=2) pseudo=read geom=check guess=(re
 ad,tcheck) scf=(maxcycle=1)\\title\\0,1\C,0,-2.333722,-0.770309,0.0002
 07\C,0,-1.083765,-1.38291,0.009536\C,0,0.094272,-0.628857,0.016317\C,0
 ,-2.438158,0.619449,-0.000999\C,0,-1.285661,1.392599,0.001955\C,0,-0.0
 24789,0.778077,0.002207\H,0,-3.228837,-1.381835,0.000501\H,0,-1.024567
 ,-2.465247,0.019107\P,0,1.747676,-1.445981,-0.116607\H,0,-1.344667,2.4
 74075,0.002508\H,0,-3.410446,1.097005,-0.003615\C,0,1.145087,1.602533,

 Normal termination of Gaussian 16 at Tue Apr  8 23:32:58 2025.
