 Gaussian 16, Revision C.01,

 ----------------------------------------------------------------------
 #t hf aug-cc-pvdz symm=none int=(grid=ultrafine) guess=(read,tcheck) s
 table=(opt,rrhf)
 ----------------------------------------------------------------------
 -----
 title
 -----
 Symbolic Z-matrix:
 Charge =  0 Multiplicity = 1

 SCF Done:  E(RHF) =  -1671.00974009     A.U. after   16 cycles
 Normal termination of Gaussian 16 at Tue Apr  8 23:43:54 2025.
 Gaussian 16:  ES64L-G16RevC.01  3-Jul-2019

 ----------------------------------------------------------------------
 #t hf aug-cc-pvdz iop(5/13=1,5/36=2,99/5=2) pseudo=read geom=check gue
 ss=(read,tcheck) scf=(maxcycle=1)
 ----------------------------------------------------------------------
 -----
 title
 -----
 Structure from the checkpoint file:  "BDE49_nonexpt_1683_mol1.chk"
 Charge =  0 Multiplicity = 1

                         Standard orientation:
 ---------------------------------------------------------------------
 Center     Atomic      Atomic             Coordinates (Angstroms)
 Number     Number       Type             X           Y           Z
 ---------------------------------------------------------------------
      1          7           0       -1.955241   -0.852038   -0.636988
      2         15           0       -1.963521   -0.309823    1.153414
      3         14           0       -0.825512    1.658846    0.848146
      4         15           0        1.963563   -0.309846   -1.153412
      5          7           0        1.955194   -0.852121    0.636967
      6          8           0        2.098617    0.028423    1.481301
      7          8           0        1.868306   -2.042298    0.870480
      8          8           0       -2.098673    0.028534   -1.481288
      9          8           0       -1.868460   -2.042214   -0.870533
     10         14           0        0.825595    1.658851   -0.848115
     11          1           0       -0.866482   -1.130522    1.498439
     12          1           0        0.866516   -1.130504   -1.498513
     13          1           0       -0.246211    1.951221    2.179048
     14          1           0       -1.852618    2.677697    0.534432
     15          1           0        1.852706    2.677689   -0.534386
     16          1           0        0.246302    1.951242   -2.179017
 ---------------------------------------------------------------------

 SCF Done:  E(RHF) =  -1671.54649645     A.U. after    2 cycles

 The electronic state is 1-A.
 Alpha  occ. eigenvalues --  -84.34871 -84.34859 -69.57478 -69.57478 -20.61020
 Alpha  occ. eigenvalues --  -20.61019 -20.60516 -20.60516 -15.78915 -15.78904
 Alpha  occ. eigenvalues --   -6.81796  -6.81796  -6.24556  -6.24547  -4.34446
 Alpha  occ. eigenvalues --   -4.34445  -4.33915  -4.33879  -4.33299  -4.33285
 Alpha  occ. eigenvalues --   -3.99920  -3.99895  -3.99843  -3.99825  -3.99816
 Alpha  occ. eigenvalues --   -3.99777  -1.68087  -1.68010  -1.52089  -1.52079
 Alpha  occ. eigenvalues --   -1.04430  -1.04300  -0.88481  -0.87403  -0.80024
 Alpha  occ. eigenvalues --   -0.76701  -0.75960  -0.75884  -0.75128  -0.74791
 Alpha  occ. eigenvalues --   -0.72714  -0.68587  -0.55234  -0.53394  -0.51628
 Alpha  occ. eigenvalues --   -0.51560  -0.49623  -0.49470  -0.48109  -0.46973
 Alpha  occ. eigenvalues --   -0.46704  -0.46028  -0.45977  -0.39581  -0.38079
 Alpha virt. eigenvalues --    0.02486   0.03058   0.03760   0.03975   0.04788
 Alpha virt. eigenvalues --    0.05018   0.05542   0.05996   0.06287   0.07303
 Alpha virt. eigenvalues --    0.08161   0.08400   0.08762   0.09000   0.09785

 Mulliken charges:
               1
     1  N    2.247929
     2  P   -0.433291
     3  Si   0.704579
     4  P   -0.433312
     5  N    2.247986
     6  O   -1.289222
     7  O   -1.328718
     8  O   -1.289203
     9  O   -1.328704
    10  Si   0.704558
    11  H    0.263221
    12  H    0.263243
    13  H   -0.033494
    14  H   -0.131041
    15  H   -0.131044
    16  H   -0.033487
 Sum of Mulliken charges =  -0.00000

 Dipole moment (field-independent basis, Debye):
    X=              0.0003    Y=              3.0851    Z=              0.0000  Tot=              3.0851

 Test job not archived.
 1\1\GINC-SE335\SP\RHF\Aug-CC-pVDZ\H6N2O4P2Si2\OHZDE\08-Apr-2025\0\\#t
 hf aug-cc-pvdz iop(5/13=1,5/36=2,99/5=2) pseudo=read geom=check guess=
 (read,tcheck) scf=(maxcycle=1)\\title\\0,1\N,0,-1.955241,-0.852038,-0.
 636988\P,0,-1.963521,-0.309823,1.153414\Si,0,-0.825512,1.658846,0.8481
 46\P,0,1.963563,-0.309846,-1.153412\N,0,1.955194,-0.852121,0.636967\O,
 0,2.098617,0.028423,1.481301\O,0,1.868306,-2.042298,0.87048\O,0,-2.098
 673,0.028534,-1.481288\O,0,-1.86846,-2.042214,-0.870533\Si,0,0.825595,
 1.658851,-0.848115\H,0,-0.866482,-1.130522,1.498439\H,0,0.866516,-1.13

 Normal termination of Gaussian 16 at Tue Apr  8 23:44:02 2025.
