 Gaussian 16, Revision C.01,

 ----------------------------------------------------------------------
 #t hf aug-cc-pvdz symm=none int=(grid=ultrafine) guess=(read,tcheck) s
 table=(opt,rrhf)
 ----------------------------------------------------------------------
 -----
 title
 -----
 Symbolic Z-matrix:
 Charge =  0 Multiplicity = 1

 SCF Done:  E(RHF) =  -716.843807647     A.U. after   14 cycles
 Normal termination of Gaussian 16 at Tue Apr  8 23:39:12 2025.
 Gaussian 16:  ES64L-G16RevC.01  3-Jul-2019

 ----------------------------------------------------------------------
 #t hf aug-cc-pvdz iop(5/13=1,5/36=2,99/5=2) pseudo=read geom=check gue
 ss=(read,tcheck) scf=(maxcycle=1)
 ----------------------------------------------------------------------
 -----
 title
 -----
 Structure from the checkpoint file:  "BDE49_nonexpt_1603_mol1.chk"
 Charge =  0 Multiplicity = 1

                         Standard orientation:
 ---------------------------------------------------------------------
 Center     Atomic      Atomic             Coordinates (Angstroms)
 Number     Number       Type             X           Y           Z
 ---------------------------------------------------------------------
      1          8           0        0.921110   -0.771256   -0.463597
      2         15           0       -0.363972    0.041487    0.121439
      3          8           0       -0.263949    0.380946    1.540306
      4          8           0       -1.499315   -0.963556   -0.347507
      5          8           0        2.112966    0.011325   -0.153292
      6          1           0        2.268886   -0.252122    0.768136
      7          8           0       -0.592856    1.247420   -0.879669
      8          1           0       -0.618832    2.094375   -0.419913
      9          1           0       -1.614122   -1.703592    0.260261
 ---------------------------------------------------------------------

 SCF Done:  E(RHF) =  -717.253615587     A.U. after    2 cycles

 The electronic state is 1-A.
 Alpha  occ. eigenvalues --  -84.47699 -20.65632 -20.64744 -20.61449 -20.61193
 Alpha  occ. eigenvalues --  -20.52685  -6.92610  -4.46793  -4.46131  -4.45899
 Alpha  occ. eigenvalues --   -1.62908  -1.55282  -1.49901  -1.41402  -1.31868
 Alpha  occ. eigenvalues --   -0.88191  -0.76677  -0.74680  -0.71046  -0.68286
 Alpha  occ. eigenvalues --   -0.65900  -0.63776  -0.57999  -0.57308  -0.56376
 Alpha  occ. eigenvalues --   -0.53025  -0.50919  -0.48168  -0.47819
 Alpha virt. eigenvalues --    0.03316   0.04465   0.05133   0.08929   0.09791
 Alpha virt. eigenvalues --    0.10544   0.13305   0.15805   0.17390   0.17787
 Alpha virt. eigenvalues --    0.18635   0.18906   0.22032   0.22517   0.23811

 Mulliken charges:
               1
     1  O   -0.945614
     2  P    4.124057
     3  O   -1.339838
     4  O   -1.232708
     5  O   -0.450783
     6  H    0.414440
     7  O   -1.269017
     8  H    0.343550
     9  H    0.355913
 Sum of Mulliken charges =  -0.00000

 Dipole moment (field-independent basis, Debye):
    X=             -0.3220    Y=             -0.3863    Z=              0.5717  Tot=              0.7614

 Test job not archived.
 1\1\GINC-SE403\SP\RHF\Aug-CC-pVDZ\H3O5P1\OHZDE\08-Apr-2025\0\\#t hf au
 g-cc-pvdz iop(5/13=1,5/36=2,99/5=2) pseudo=read geom=check guess=(read
 ,tcheck) scf=(maxcycle=1)\\title\\0,1\O,0,0.92111,-0.771256,-0.463597\
 P,0,-0.363972,0.041487,0.121439\O,0,-0.263949,0.380946,1.540306\O,0,-1
 .499315,-0.963556,-0.347507\O,0,2.112966,0.011325,-0.153292\H,0,2.2688
 86,-0.252122,0.768136\O,0,-0.592856,1.24742,-0.879669\H,0,-0.618832,2.
 094375,-0.419913\H,0,-1.614122,-1.703592,0.260261\\Version=ES64L-G16Re
 vC.01\State=1-A\HF=-717.2536156\RMSD=1.004e-02\Dipole=-0.1267027,-0.15

 Normal termination of Gaussian 16 at Tue Apr  8 23:39:15 2025.
