 Gaussian 16, Revision C.01,

 ----------------------------------------------------------------------
 #t hf aug-cc-pvdz symm=none int=(grid=ultrafine) guess=(read,tcheck) s
 table=opt
 ----------------------------------------------------------------------
 -----
 title
 -----
 Symbolic Z-matrix:
 Charge =  0 Multiplicity = 2

 SCF Done:  E(UHF) =  -367.091445442     A.U. after   19 cycles
 Normal termination of Gaussian 16 at Tue Apr  8 23:27:58 2025.
 Gaussian 16:  ES64L-G16RevC.01  3-Jul-2019

 ----------------------------------------------------------------------
 #t hf aug-cc-pvdz iop(5/13=1,5/36=2,99/5=2) pseudo=read geom=check gue
 ss=(read,tcheck) scf=(maxcycle=1)
 ----------------------------------------------------------------------
 -----
 title
 -----
 Structure from the checkpoint file:  "BDE49_nonexpt_132_mol2.chk"
 Charge =  0 Multiplicity = 2

                         Standard orientation:
 ---------------------------------------------------------------------
 Center     Atomic      Atomic             Coordinates (Angstroms)
 Number     Number       Type             X           Y           Z
 ---------------------------------------------------------------------
      1          5           0       -1.339109   -0.177009    0.069561
      2         15           0        0.471298    0.016601   -0.111563
      3          1           0        1.031155   -1.027468    0.650948
      4          1           0        0.873402    1.125418    0.672764
      5          1           0       -2.278486    0.538074    0.001923
 ---------------------------------------------------------------------

 SCF Done:  E(UHF) =  -367.159753487     A.U. after    2 cycles

 The electronic state is 2-A.
 Alpha  occ. eigenvalues --  -84.27195  -7.63782  -6.74663  -4.27183  -4.27026
 Alpha  occ. eigenvalues --   -4.26216  -0.89428  -0.67351  -0.54212  -0.49947
 Alpha  occ. eigenvalues --   -0.36191  -0.32738
 Alpha virt. eigenvalues --    0.03524   0.04059   0.04949   0.05160   0.07567
 Alpha virt. eigenvalues --    0.08614   0.09081   0.10933   0.12327   0.13436
 Alpha virt. eigenvalues --    0.14863   0.18016   0.20668   0.22397   0.24744

  Beta  occ. eigenvalues --  -84.27249  -7.61990  -6.74732  -4.27258  -4.27101
  Beta  occ. eigenvalues --   -4.26339  -0.88071  -0.62907  -0.52325  -0.48679
  Beta  occ. eigenvalues --   -0.34936
  Beta virt. eigenvalues --    0.03599   0.04380   0.04710   0.05067   0.06926
  Beta virt. eigenvalues --    0.08486   0.09246   0.10675   0.11137   0.12867
  Beta virt. eigenvalues --    0.14438   0.15805   0.18300   0.22313   0.22971

 Mulliken charges and spin densities:
               1          2
     1  B   -0.217873   1.100473
     2  P   -0.770437  -0.089923
     3  H    0.319339  -0.007240
     4  H    0.327457   0.038341
     5  H    0.341514  -0.041651
 Sum of Mulliken charges =   0.00000   1.00000

 Dipole moment (field-independent basis, Debye):
    X=              0.5381    Y=              0.4937    Z=              0.4972  Tot=              0.8835
                          Isotropic Fermi Contact Couplings
        Atom                 a.u.       MegaHertz       Gauss      10(-4) cm-1
     1  B(11)              0.21559     309.23996     110.34451     103.15135
     2  P(31)             -0.04446     -80.52497     -28.73331     -26.86024
     3  H(1)               0.00639      28.54380      10.18514       9.52119
     4  H(1)               0.01343      60.03704      21.42271      20.02620
     5  H(1)              -0.00703     -31.41260     -11.20880     -10.47811
 --------------------------------------------------------
       Center         ----  Spin Dipole Couplings  ----
                      3XX-RR        3YY-RR        3ZZ-RR

 Normal termination of Gaussian 16 at Tue Apr  8 23:28:00 2025.
