 Gaussian 16, Revision C.01,

 ----------------------------------------------------------------------
 #t hf aug-cc-pvdz symm=none int=(grid=ultrafine) guess=(read,tcheck) s
 table=(opt,rrhf)
 ----------------------------------------------------------------------
 -----
 title
 -----
 Symbolic Z-matrix:
 Charge =  0 Multiplicity = 1

 SCF Done:  E(RHF) =  -537.058666180     A.U. after   13 cycles
 Normal termination of Gaussian 16 at Tue Apr  8 23:52:41 2025.
 Gaussian 16:  ES64L-G16RevC.01  3-Jul-2019

 ----------------------------------------------------------------------
 #t hf aug-cc-pvdz iop(5/13=1,5/36=2,99/5=2) pseudo=read geom=check gue
 ss=(read,tcheck) scf=(maxcycle=1)
 ----------------------------------------------------------------------
 -----
 title
 -----
 Structure from the checkpoint file:  "BDE49_nonexpt_1924_mol1.chk"
 Charge =  0 Multiplicity = 1

                         Standard orientation:
 ---------------------------------------------------------------------
 Center     Atomic      Atomic             Coordinates (Angstroms)
 Number     Number       Type             X           Y           Z
 ---------------------------------------------------------------------
      1         14           0       -1.957630   -0.065401   -0.247669
      2          6           0       -0.452167    0.191695    0.882941
      3          1           0       -2.164525    1.137987   -1.089443
      4          1           0       -3.163356   -0.259147    0.593173
      5          1           0       -1.777603   -1.239176   -1.126349
      6          6           0        0.823583    0.420109    0.124715
      7          7           0        1.592296   -0.510676   -0.299725
      8          8           0        1.100491   -1.791944    0.039379
      9          1           0        1.773917   -2.368869   -0.332940
     10          6           0        1.252274    1.827756   -0.183977
     11          1           0        1.437016    2.384126    0.741139
     12          1           0        0.468816    2.361511   -0.731810
     13          1           0        2.163045    1.822031   -0.782109
     14          1           0       -0.359377   -0.699359    1.508169
     15          1           0       -0.663248    1.049426    1.528504
 ---------------------------------------------------------------------

 SCF Done:  E(RHF) =  -537.349212400     A.U. after    2 cycles

 The electronic state is 1-A.
 Alpha  occ. eigenvalues --  -69.53208 -20.57685 -15.54919 -11.29112 -11.24327
 Alpha  occ. eigenvalues --  -11.23668  -6.20255  -3.95628  -3.95626  -3.95613
 Alpha  occ. eigenvalues --   -1.48798  -1.18848  -1.00880  -0.96515  -0.75985
 Alpha  occ. eigenvalues --   -0.73170  -0.70304  -0.66878  -0.61749  -0.58668
 Alpha  occ. eigenvalues --   -0.56740  -0.56658  -0.54237  -0.49536  -0.48202
 Alpha  occ. eigenvalues --   -0.47908  -0.45326  -0.39108
 Alpha virt. eigenvalues --    0.03525   0.04109   0.04283   0.04470   0.05860
 Alpha virt. eigenvalues --    0.06244   0.06898   0.07145   0.08600   0.09780
 Alpha virt. eigenvalues --    0.10206   0.10952   0.12038   0.13091   0.14748

 Mulliken charges:
               1
     1  Si   0.887859
     2  C   -0.501960
     3  H   -0.177789
     4  H   -0.141158
     5  H   -0.102322
     6  C   -0.899035
     7  N    1.414028
     8  O   -1.152762
     9  H    0.315362
    10  C   -0.597383
    11  H    0.264566
    12  H    0.240963
    13  H    0.176082
    14  H    0.218274
    15  H    0.055276
 Sum of Mulliken charges =  -0.00000

 Dipole moment (field-independent basis, Debye):
    X=             -0.5725    Y=              1.0611    Z=              0.7714  Tot=              1.4313

 Test job not archived.
 1\1\GINC-SE339\SP\RHF\Aug-CC-pVDZ\C3H9N1O1Si1\OHZDE\08-Apr-2025\0\\#t
 hf aug-cc-pvdz iop(5/13=1,5/36=2,99/5=2) pseudo=read geom=check guess=
 (read,tcheck) scf=(maxcycle=1)\\title\\0,1\Si,0,-1.95763,-0.065401,-0.
 247669\C,0,-0.452167,0.191695,0.882941\H,0,-2.164525,1.137987,-1.08944
 3\H,0,-3.163356,-0.259147,0.593173\H,0,-1.777603,-1.239176,-1.126349\C
 ,0,0.823583,0.420109,0.124715\N,0,1.592296,-0.510676,-0.299725\O,0,1.1
 00491,-1.791944,0.039379\H,0,1.773917,-2.368869,-0.33294\C,0,1.252274,
 1.827756,-0.183977\H,0,1.437016,2.384126,0.741139\H,0,0.468816,2.36151

 Normal termination of Gaussian 16 at Tue Apr  8 23:52:46 2025.
