 Gaussian 16, Revision C.01,

 ----------------------------------------------------------------------
 #t hf aug-cc-pvdz symm=none int=(grid=ultrafine) guess=(read,tcheck) s
 table=opt
 ----------------------------------------------------------------------
 -----
 title
 -----
 Symbolic Z-matrix:
 Charge =  0 Multiplicity = 2

 SCF Done:  E(UHF) =  -453.129178392     A.U. after   15 cycles
 Normal termination of Gaussian 16 at Wed Apr  9 00:15:32 2025.
 Gaussian 16:  ES64L-G16RevC.01  3-Jul-2019

 ----------------------------------------------------------------------
 #t hf aug-cc-pvdz iop(5/13=1,5/36=2,99/5=2) pseudo=read geom=check gue
 ss=(read,tcheck) scf=(maxcycle=1)
 ----------------------------------------------------------------------
 -----
 title
 -----
 Structure from the checkpoint file:  "BDE49_nonexpt_2527_mol2.chk"
 Charge =  0 Multiplicity = 2

                         Standard orientation:
 ---------------------------------------------------------------------
 Center     Atomic      Atomic             Coordinates (Angstroms)
 Number     Number       Type             X           Y           Z
 ---------------------------------------------------------------------
      1          7           0        0.000000    0.000000   -1.010702
      2         16           0       -0.000000   -0.000000    0.634487
      3          1           0        0.000000    0.860823   -1.538438
      4          1           0       -0.000000   -0.860823   -1.538438
 ---------------------------------------------------------------------

 SCF Done:  E(UHF) =  -453.242069569     A.U. after    2 cycles

 The electronic state is 2-B1.
 Alpha  occ. eigenvalues --  -93.97694 -15.55554  -8.25467  -6.24325  -6.22947
 Alpha  occ. eigenvalues --   -6.22594  -1.24216  -0.95633  -0.75643  -0.62391
 Alpha  occ. eigenvalues --   -0.58966  -0.38607  -0.38093
 Alpha virt. eigenvalues --    0.02917   0.05740   0.08059   0.12054   0.13264
 Alpha virt. eigenvalues --    0.15870   0.17240   0.17863   0.20928   0.21926
 Alpha virt. eigenvalues --    0.25593   0.29478   0.30728   0.31411   0.39814

  Beta  occ. eigenvalues --  -93.96952 -15.54284  -8.24615  -6.22672  -6.22142
  Beta  occ. eigenvalues --   -6.20924  -1.20647  -0.89616  -0.74803  -0.58734
  Beta  occ. eigenvalues --   -0.47334  -0.36311
  Beta virt. eigenvalues --    0.02961   0.02999   0.05749   0.08393   0.13359
  Beta virt. eigenvalues --    0.14185   0.15997   0.17552   0.18792   0.21025
  Beta virt. eigenvalues --    0.22990   0.26693   0.29635   0.31357   0.31524

 Mulliken charges and spin densities:
               1          2
     1  N   -0.178762   0.233096
     2  S    0.107484   0.824467
     3  H    0.035639  -0.028782
     4  H    0.035639  -0.028782
 Sum of Mulliken charges =  -0.00000   1.00000

 Dipole moment (field-independent basis, Debye):
    X=             -0.0000    Y=              0.0000    Z=             -2.0370  Tot=              2.0370
                          Isotropic Fermi Contact Couplings
        Atom                 a.u.       MegaHertz       Gauss      10(-4) cm-1
     1  N(14)              0.13963      45.11667      16.09875      15.04930
     2  S(33)              0.20178      69.30586      24.73005      23.11795
     3  H(1)              -0.00858     -38.34251     -13.68156     -12.78968
     4  H(1)              -0.00858     -38.34251     -13.68156     -12.78968
 --------------------------------------------------------
       Center         ----  Spin Dipole Couplings  ----
                      3XX-RR        3YY-RR        3ZZ-RR
 --------------------------------------------------------

 Normal termination of Gaussian 16 at Wed Apr  9 00:15:33 2025.
