 Gaussian 16, Revision C.01,

 ----------------------------------------------------------------------
 #t hf aug-cc-pvdz symm=none int=(grid=ultrafine) guess=(read,tcheck) s
 table=(opt,rrhf)
 ----------------------------------------------------------------------
 -----
 title
 -----
 Symbolic Z-matrix:
 Charge =  0 Multiplicity = 1

 SCF Done:  E(RHF) =  -218.469634615     A.U. after   12 cycles
 Normal termination of Gaussian 16 at Wed Apr  9 00:26:52 2025.
 Gaussian 16:  ES64L-G16RevC.01  3-Jul-2019

 ----------------------------------------------------------------------
 #t hf aug-cc-pvdz iop(5/13=1,5/36=2,99/5=2) pseudo=read geom=check gue
 ss=(read,tcheck) scf=(maxcycle=1)
 ----------------------------------------------------------------------
 -----
 title
 -----
 Structure from the checkpoint file:  "BDE49_nonexpt_277_mol1.chk"
 Charge =  0 Multiplicity = 1

                         Standard orientation:
 ---------------------------------------------------------------------
 Center     Atomic      Atomic             Coordinates (Angstroms)
 Number     Number       Type             X           Y           Z
 ---------------------------------------------------------------------
      1          6           0       -0.497543   -0.023077   -0.403178
      2          5           0        0.910263   -0.701032   -0.221422
      3          8           0        1.966419    0.033295    0.214727
      4          6           0       -0.561659    1.449799    0.030205
      5          1           0        0.203920    2.049677   -0.467674
      6          1           0       -0.397816    1.548846    1.107796
      7          6           0       -1.611279   -0.862824    0.260997
      8          1           0       -0.682366   -0.068772   -1.490746
      9          1           0       -1.503978   -0.868887    1.350997
     10          1           0       -1.593670   -1.902354   -0.078475
     11          1           0       -2.600689   -0.453204    0.034293
     12          1           0       -1.538393    1.889281   -0.197800
     13          1           0        2.781153   -0.473638    0.276890
     14          1           0        1.072063   -1.865535   -0.474124
 ---------------------------------------------------------------------

 SCF Done:  E(RHF) =  -218.705303513     A.U. after    2 cycles

 The electronic state is 1-A.
 Alpha  occ. eigenvalues --  -20.56247 -11.22246 -11.21325 -11.20645  -7.60622
 Alpha  occ. eigenvalues --   -1.46232  -1.05057  -0.92190  -0.81692  -0.74122
 Alpha  occ. eigenvalues --   -0.65041  -0.61597  -0.60181  -0.55370  -0.53165
 Alpha  occ. eigenvalues --   -0.52763  -0.51331  -0.47503  -0.46980  -0.42779
 Alpha virt. eigenvalues --    0.03050   0.03864   0.04102   0.04501   0.06344
 Alpha virt. eigenvalues --    0.06563   0.07010   0.07494   0.07779   0.09601
 Alpha virt. eigenvalues --    0.10852   0.11753   0.12139   0.13156   0.15182

 Mulliken charges:
               1
     1  C   -0.726206
     2  B    0.862299
     3  O   -1.042996
     4  C   -0.314632
     5  H    0.096779
     6  H    0.172693
     7  C   -0.251517
     8  H    0.211211
     9  H    0.141414
    10  H    0.099837
    11  H    0.134685
    12  H    0.127741
    13  H    0.538816
    14  H   -0.050126
 Sum of Mulliken charges =  -0.00000

 Dipole moment (field-independent basis, Debye):
    X=              0.7910    Y=             -0.8998    Z=             -0.1694  Tot=              1.2100

 Test job not archived.
 1\1\GINC-SE340\SP\RHF\Aug-CC-pVDZ\C3H9B1O1\OHZDE\09-Apr-2025\0\\#t hf
 aug-cc-pvdz iop(5/13=1,5/36=2,99/5=2) pseudo=read geom=check guess=(re
 ad,tcheck) scf=(maxcycle=1)\\title\\0,1\C,0,-0.497543,-0.023077,-0.403
 178\B,0,0.910263,-0.701032,-0.221422\O,0,1.966419,0.033295,0.214727\C,
 0,-0.561659,1.449799,0.030205\H,0,0.20392,2.049677,-0.467674\H,0,-0.39
 7816,1.548846,1.107796\C,0,-1.611279,-0.862824,0.260997\H,0,-0.682366,
 -0.068772,-1.490746\H,0,-1.503978,-0.868887,1.350997\H,0,-1.59367,-1.9
 02354,-0.078475\H,0,-2.600689,-0.453204,0.034293\H,0,-1.538393,1.88928

 Normal termination of Gaussian 16 at Wed Apr  9 00:26:55 2025.
