 Gaussian 16, Revision C.01,

 ----------------------------------------------------------------------
 #t hf aug-cc-pvdz symm=none int=(grid=ultrafine) guess=(read,tcheck) s
 table=(opt,rrhf)
 ----------------------------------------------------------------------
 -----
 title
 -----
 Symbolic Z-matrix:
 Charge =  0 Multiplicity = 1

 SCF Done:  E(RHF) =  -371.594730880     A.U. after   11 cycles
 Normal termination of Gaussian 16 at Wed Apr  9 00:46:24 2025.
 Gaussian 16:  ES64L-G16RevC.01  3-Jul-2019

 ----------------------------------------------------------------------
 #t hf aug-cc-pvdz iop(5/13=1,5/36=2,99/5=2) pseudo=read geom=check gue
 ss=(read,tcheck) scf=(maxcycle=1)
 ----------------------------------------------------------------------
 -----
 title
 -----
 Structure from the checkpoint file:  "BDE49_nonexpt_821_mol1.chk"
 Charge =  0 Multiplicity = 1

                         Standard orientation:
 ---------------------------------------------------------------------
 Center     Atomic      Atomic             Coordinates (Angstroms)
 Number     Number       Type             X           Y           Z
 ---------------------------------------------------------------------
      1         14           0       -1.181496   -0.069171   -0.000000
      2          5           0        0.724151    0.610842    0.000020
      3          7           0        1.799232   -0.269166   -0.000009
      4          1           0        1.698819   -1.273527   -0.000030
      5          1           0        2.762338    0.035421   -0.000014
      6          1           0        0.968357    1.780941    0.000020
      7          1           0       -1.247551   -1.557746   -0.000021
      8          1           0       -1.928194    0.406644   -1.194591
      9          1           0       -1.928201    0.406611    1.194600
 ---------------------------------------------------------------------

 SCF Done:  E(RHF) =  -371.715903874     A.U. after    2 cycles

 The electronic state is 1-A.
 Alpha  occ. eigenvalues --  -69.50381 -15.50940  -7.58794  -6.17693  -3.93053
 Alpha  occ. eigenvalues --   -3.93052  -3.93008  -1.17652  -0.77689  -0.73419
 Alpha  occ. eigenvalues --   -0.70538  -0.55810  -0.49350  -0.47265  -0.46797
 Alpha  occ. eigenvalues --   -0.41196
 Alpha virt. eigenvalues --    0.03102   0.04444   0.04998   0.05593   0.06521
 Alpha virt. eigenvalues --    0.07302   0.07374   0.08165   0.09560   0.10161
 Alpha virt. eigenvalues --    0.10702   0.11419   0.12923   0.13249   0.16872

 Mulliken charges:
               1
     1  Si   0.474483
     2  B   -0.468822
     3  N    0.207742
     4  H    0.027558
     5  H   -0.019911
     6  H    0.218579
     7  H   -0.161954
     8  H   -0.138837
     9  H   -0.138838
 Sum of Mulliken charges =  -0.00000

 Dipole moment (field-independent basis, Debye):
    X=              1.8990    Y=             -0.6507    Z=             -0.0000  Tot=              2.0074

 Test job not archived.
 1\1\GINC-SE150\SP\RHF\Aug-CC-pVDZ\B1H6N1Si1\OHZDE\09-Apr-2025\0\\#t hf
  aug-cc-pvdz iop(5/13=1,5/36=2,99/5=2) pseudo=read geom=check guess=(r
 ead,tcheck) scf=(maxcycle=1)\\title\\0,1\Si,0,-1.181496,-0.069171,0.\B
 ,0,0.724151,0.610842,0.00002\N,0,1.799232,-0.269166,-0.000009\H,0,1.69
 8819,-1.273527,-0.00003\H,0,2.762338,0.035421,-0.000014\H,0,0.968357,1
 .780941,0.00002\H,0,-1.247551,-1.557746,-0.000021\H,0,-1.928194,0.4066
 44,-1.194591\H,0,-1.928201,0.406611,1.1946\\Version=ES64L-G16RevC.01\S
 tate=1-A\HF=-371.7159039\RMSD=9.309e-03\Dipole=0.7471307,-0.2559983,-0

 Normal termination of Gaussian 16 at Wed Apr  9 00:46:27 2025.
