 Gaussian 16, Revision C.01,

 ----------------------------------------------------------------------
 #t hf aug-cc-pvdz symm=none int=(grid=ultrafine) guess=(read,tcheck) s
 table=(opt,rrhf)
 ----------------------------------------------------------------------
 -----
 title
 -----
 Symbolic Z-matrix:
 Charge =  0 Multiplicity = 1

 SCF Done:  E(RHF) =  -580.665558585     A.U. after   14 cycles
 Normal termination of Gaussian 16 at Tue Apr  8 23:55:30 2025.
 Gaussian 16:  ES64L-G16RevC.01  3-Jul-2019

 ----------------------------------------------------------------------
 #t hf aug-cc-pvdz iop(5/13=1,5/36=2,99/5=2) pseudo=read geom=check gue
 ss=(read,tcheck) scf=(maxcycle=1)
 ----------------------------------------------------------------------
 -----
 title
 -----
 Structure from the checkpoint file:  "BDE49_nonexpt_1987_mol1.chk"
 Charge =  0 Multiplicity = 1

                         Standard orientation:
 ---------------------------------------------------------------------
 Center     Atomic      Atomic             Coordinates (Angstroms)
 Number     Number       Type             X           Y           Z
 ---------------------------------------------------------------------
      1         14           0       -0.942382    0.000000   -0.000001
      2          6           0        0.024608    1.459658   -0.000001
      3          9           0       -2.540867    0.000000   -0.000001
      4          6           0        0.024608   -1.459658    0.000001
      5          6           0        1.409088    1.241945    0.000000
      6          6           0        2.054788   -0.000000    0.000001
      7          6           0        1.409088   -1.241945    0.000001
      8          1           0       -0.353532   -2.474089    0.000001
      9          1           0        3.138612   -0.000000    0.000002
     10          1           0        2.048264   -2.122469    0.000002
     11          1           0       -0.353531    2.474090   -0.000002
     12          1           0        2.048264    2.122469    0.000000
 ---------------------------------------------------------------------

 SCF Done:  E(RHF) =  -580.983840800     A.U. after    2 cycles

 The electronic state is 1-A.
 Alpha  occ. eigenvalues --  -69.58058 -26.48115 -11.26997 -11.26979 -11.23636
 Alpha  occ. eigenvalues --  -11.23631 -11.23004  -6.25232  -4.00577  -4.00421
 Alpha  occ. eigenvalues --   -4.00314  -1.59056  -1.12074  -1.02404  -0.94523
 Alpha  occ. eigenvalues --   -0.81940  -0.78066  -0.71584  -0.68898  -0.66741
 Alpha  occ. eigenvalues --   -0.66209  -0.61567  -0.59571  -0.58220  -0.53118
 Alpha  occ. eigenvalues --   -0.49113  -0.46747  -0.36886  -0.29991
 Alpha virt. eigenvalues --    0.03408   0.03662   0.03825   0.05255   0.05408
 Alpha virt. eigenvalues --    0.05913   0.07503   0.07794   0.08613   0.09086
 Alpha virt. eigenvalues --    0.10331   0.13196   0.13346   0.13389   0.13767

 Mulliken charges:
               1
     1  Si   1.495861
     2  C   -0.056602
     3  F   -0.847087
     4  C   -0.056600
     5  C   -0.000214
     6  C    0.504301
     7  C   -0.000215
     8  H   -0.203185
     9  H   -0.224824
    10  H   -0.204125
    11  H   -0.203184
    12  H   -0.204125
 Sum of Mulliken charges =  -0.00000

 Dipole moment (field-independent basis, Debye):
    X=              0.6699    Y=             -0.0000    Z=             -0.0000  Tot=              0.6699

 Test job not archived.
 1\1\GINC-SE334\SP\RHF\Aug-CC-pVDZ\C5H5F1Si1\OHZDE\08-Apr-2025\0\\#t hf
  aug-cc-pvdz iop(5/13=1,5/36=2,99/5=2) pseudo=read geom=check guess=(r
 ead,tcheck) scf=(maxcycle=1)\\title\\0,1\Si,0,-0.942382,0.,-0.000001\C
 ,0,0.024608,1.459658,-0.000001\F,0,-2.540867,0.,-0.000001\C,0,0.024608
 ,-1.459658,0.000001\C,0,1.409088,1.241945,0.\C,0,2.054788,0.,0.000001\
 C,0,1.409088,-1.241945,0.000001\H,0,-0.353532,-2.474089,0.000001\H,0,3
 .138612,0.,0.000002\H,0,2.048264,-2.122469,0.000002\H,0,-0.353531,2.47
 409,-0.000002\H,0,2.048264,2.122469,0.\\Version=ES64L-G16RevC.01\State

 Normal termination of Gaussian 16 at Tue Apr  8 23:55:35 2025.
