 Gaussian 16, Revision C.01,

 ----------------------------------------------------------------------
 #t hf aug-cc-pvdz symm=none int=(grid=ultrafine) guess=(read,tcheck) s
 table=(opt,rrhf)
 ----------------------------------------------------------------------
 -----
 title
 -----
 Symbolic Z-matrix:
 Charge =  0 Multiplicity = 1

 SCF Done:  E(RHF) =  -1125.35812592     A.U. after   13 cycles
 Normal termination of Gaussian 16 at Tue Apr  8 23:52:21 2025.
 Gaussian 16:  ES64L-G16RevC.01  3-Jul-2019

 ----------------------------------------------------------------------
 #t hf aug-cc-pvdz iop(5/13=1,5/36=2,99/5=2) pseudo=read geom=check gue
 ss=(read,tcheck) scf=(maxcycle=1)
 ----------------------------------------------------------------------
 -----
 title
 -----
 Structure from the checkpoint file:  "BDE49_nonexpt_1927_mol1.chk"
 Charge =  0 Multiplicity = 1

                         Standard orientation:
 ---------------------------------------------------------------------
 Center     Atomic      Atomic             Coordinates (Angstroms)
 Number     Number       Type             X           Y           Z
 ---------------------------------------------------------------------
      1         14           0        2.472431    0.027209   -0.016219
      2          6           0        0.691229    0.683189    0.031744
      3         16           0       -0.508214   -0.695402    0.029303
      4          1           0        3.379643    1.197585    0.015488
      5          1           0        2.703335   -0.745941   -1.255598
      6         16           0       -2.370876    0.249127   -0.103142
      7          1           0        2.738420   -0.832482    1.158132
      8          1           0       -2.597057    0.437376    1.213529
      9          1           0        0.522456    1.313811   -0.844092
     10          1           0        0.557236    1.289975    0.930565
 ---------------------------------------------------------------------

 SCF Done:  E(RHF) =  -1125.55959610     A.U. after    2 cycles

 The electronic state is 1-A.
 Alpha  occ. eigenvalues --  -93.98170 -93.98163 -69.54180 -11.26878  -8.26105
 Alpha  occ. eigenvalues --   -8.26022  -6.23926  -6.23838  -6.23753  -6.23621
 Alpha  occ. eigenvalues --   -6.23511  -6.23392  -6.21255  -3.96634  -3.96629
 Alpha  occ. eigenvalues --   -3.96618  -1.10587  -0.99207  -0.85382  -0.73592
 Alpha  occ. eigenvalues --   -0.62232  -0.59405  -0.53888  -0.51158  -0.49239
 Alpha  occ. eigenvalues --   -0.49018  -0.44664  -0.38413  -0.37209
 Alpha virt. eigenvalues --    0.03419   0.03797   0.04579   0.05072   0.05888
 Alpha virt. eigenvalues --    0.07733   0.08040   0.08661   0.09214   0.09743
 Alpha virt. eigenvalues --    0.10886   0.12506   0.13164   0.13854   0.14926

 Mulliken charges:
               1
     1  Si   1.156644
     2  C   -0.928580
     3  S    0.053765
     4  H   -0.203248
     5  H   -0.196946
     6  S   -0.345947
     7  H   -0.206536
     8  H    0.394741
     9  H    0.145383
    10  H    0.130724
 Sum of Mulliken charges =  -0.00000

 Dipole moment (field-independent basis, Debye):
    X=              0.8346    Y=              1.4977    Z=              0.9181  Tot=              1.9449

 Test job not archived.
 1\1\GINC-SE074\SP\RHF\Aug-CC-pVDZ\C1H6S2Si1\OHZDE\08-Apr-2025\0\\#t hf
  aug-cc-pvdz iop(5/13=1,5/36=2,99/5=2) pseudo=read geom=check guess=(r
 ead,tcheck) scf=(maxcycle=1)\\title\\0,1\Si,0,2.472431,0.027209,-0.016
 219\C,0,0.691229,0.683189,0.031744\S,0,-0.508214,-0.695402,0.029303\H,
 0,3.379643,1.197585,0.015488\H,0,2.703335,-0.745941,-1.255598\S,0,-2.3
 70876,0.249127,-0.103142\H,0,2.73842,-0.832482,1.158132\H,0,-2.597057,
 0.437376,1.213529\H,0,0.522456,1.313811,-0.844092\H,0,0.557236,1.28997
 5,0.930565\\Version=ES64L-G16RevC.01\State=1-A\HF=-1125.5595961\RMSD=4

 Normal termination of Gaussian 16 at Tue Apr  8 23:52:25 2025.
