 Gaussian 16, Revision C.01,

 ----------------------------------------------------------------------
 #t hf aug-cc-pvdz symm=none int=(grid=ultrafine) guess=(read,tcheck) s
 table=(opt,rrhf)
 ----------------------------------------------------------------------
 -----
 title
 -----
 Symbolic Z-matrix:
 Charge =  0 Multiplicity = 1

 SCF Done:  E(RHF) =  -724.345611961     A.U. after   17 cycles
 Normal termination of Gaussian 16 at Wed Apr  9 00:03:22 2025.
 Gaussian 16:  ES64L-G16RevC.01  3-Jul-2019

 ----------------------------------------------------------------------
 #t hf aug-cc-pvdz iop(5/13=1,5/36=2,99/5=2) pseudo=read geom=check gue
 ss=(read,tcheck) scf=(maxcycle=1)
 ----------------------------------------------------------------------
 -----
 title
 -----
 Structure from the checkpoint file:  "BDE49_nonexpt_2152_mol1.chk"
 Charge =  0 Multiplicity = 1

                         Standard orientation:
 ---------------------------------------------------------------------
 Center     Atomic      Atomic             Coordinates (Angstroms)
 Number     Number       Type             X           Y           Z
 ---------------------------------------------------------------------
      1          6           0       -2.518763    1.208019   -0.276431
      2          6           0       -1.215010    1.208650    0.210432
      3          6           0       -3.170113    0.000117   -0.520328
      4          6           0       -2.518872   -1.207895   -0.276698
      5          6           0       -1.215116   -1.208748    0.210164
      6          6           0       -0.543498   -0.000108    0.458880
      7          1           0       -0.717619    2.154525    0.397377
      8          7           0        2.336069    0.000080   -0.401053
      9          8           0        2.661202   -1.087589   -0.869793
     10          8           0        2.660924    1.087981   -0.869465
     11          1           0       -3.026141    2.147216   -0.464806
     12          1           0       -3.026332   -2.147006   -0.465279
     13          1           0       -4.186148    0.000205   -0.898756
     14          1           0       -0.717812   -2.154710    0.396901
     15         14           0        1.197348   -0.000240    1.091160
     16          1           0        1.534959   -1.232614    1.821577
     17          1           0        1.534959    1.231838    1.822072
 ---------------------------------------------------------------------

 SCF Done:  E(RHF) =  -724.807720907     A.U. after    2 cycles

 The electronic state is 1-A.
 Alpha  occ. eigenvalues --  -69.59458 -20.58422 -20.58417 -15.74740 -11.27421
 Alpha  occ. eigenvalues --  -11.27411 -11.27096 -11.26368 -11.26352 -11.25990
 Alpha  occ. eigenvalues --   -6.26310  -4.01705  -4.01585  -4.01582  -1.64711
 Alpha  occ. eigenvalues --   -1.48889  -1.17662  -1.04406  -1.04083  -0.98799
 Alpha  occ. eigenvalues --   -0.86001  -0.85735  -0.81103  -0.74620  -0.73169
 Alpha  occ. eigenvalues --   -0.71717  -0.69132  -0.66591  -0.65486  -0.62372
 Alpha  occ. eigenvalues --   -0.58522  -0.54085  -0.53584  -0.52692  -0.49622
 Alpha  occ. eigenvalues --   -0.47739  -0.46029  -0.43906  -0.37442  -0.36829
 Alpha virt. eigenvalues --    0.02825   0.03282   0.03295   0.04708   0.04782
 Alpha virt. eigenvalues --    0.05351   0.05375   0.07007   0.07265   0.08120
 Alpha virt. eigenvalues --    0.08370   0.09698   0.09741   0.10592   0.12148

 Mulliken charges:
               1
     1  C    0.561512
     2  C    0.167007
     3  C    0.168195
     4  C    0.561543
     5  C    0.166922
     6  C   -0.549818
     7  H   -0.321697
     8  N    2.001471
     9  O   -1.272598
    10  O   -1.272573
    11  H   -0.207515
    12  H   -0.207512
    13  H   -0.206764
    14  H   -0.321696
    15  Si   0.898754
    16  H   -0.082614
    17  H   -0.082615
 Sum of Mulliken charges =  -0.00000

 Dipole moment (field-independent basis, Debye):
    X=             -4.3541    Y=             -0.0006    Z=              2.7152  Tot=              5.1314

 Test job not archived.
 1\1\GINC-SE109\SP\RHF\Aug-CC-pVDZ\C6H7N1O2Si1\OHZDE\09-Apr-2025\0\\#t
 hf aug-cc-pvdz iop(5/13=1,5/36=2,99/5=2) pseudo=read geom=check guess=
 (read,tcheck) scf=(maxcycle=1)\\title\\0,1\C,0,2.518763,-1.208019,-0.2
 76431\C,0,1.21501,-1.20865,0.210432\C,0,3.170113,-0.000117,-0.520328\C
 ,0,2.518872,1.207895,-0.276698\C,0,1.215116,1.208748,0.210164\C,0,0.54
 3498,0.000108,0.45888\H,0,0.717619,-2.154525,0.397377\N,0,-2.336069,-0
 .00008,-0.401053\O,0,-2.661202,1.087589,-0.869793\O,0,-2.660924,-1.087
 981,-0.869465\H,0,3.026141,-2.147216,-0.464806\H,0,3.026332,2.147006,-

 Normal termination of Gaussian 16 at Wed Apr  9 00:03:32 2025.
