 Gaussian 16, Revision C.01,

 ----------------------------------------------------------------------
 #t hf aug-cc-pvdz symm=none int=(grid=ultrafine) guess=(read,tcheck) s
 table=(opt,rrhf)
 ----------------------------------------------------------------------
 -----
 title
 -----
 Symbolic Z-matrix:
 Charge =  0 Multiplicity = 1

 SCF Done:  E(RHF) =  -906.387504558     A.U. after   12 cycles
 Normal termination of Gaussian 16 at Tue Apr  8 23:44:46 2025.
 Gaussian 16:  ES64L-G16RevC.01  3-Jul-2019

 ----------------------------------------------------------------------
 #t hf aug-cc-pvdz iop(5/13=1,5/36=2,99/5=2) pseudo=read geom=check gue
 ss=(read,tcheck) scf=(maxcycle=1)
 ----------------------------------------------------------------------
 -----
 title
 -----
 Structure from the checkpoint file:  "BDE49_nonexpt_1736_mol1.chk"
 Charge =  0 Multiplicity = 1

                         Standard orientation:
 ---------------------------------------------------------------------
 Center     Atomic      Atomic             Coordinates (Angstroms)
 Number     Number       Type             X           Y           Z
 ---------------------------------------------------------------------
      1          6           0       -2.215089    0.894190   -0.000032
      2          6           0       -1.040941   -0.110910   -0.000006
      3         14           0        0.552596    0.916124   -0.000011
      4          6           0       -1.112304   -0.992894    1.262576
      5         17           0        2.252271   -0.306992    0.000022
      6          1           0       -2.205683    1.537227    0.885676
      7          1           0       -3.168116    0.352410   -0.000031
      8          1           0       -1.076464   -0.396395    2.179307
      9          1           0       -0.292760   -1.715343    1.298839
     10          1           0       -2.052923   -1.556218    1.272301
     11          6           0       -1.112284   -0.992936   -1.262560
     12          1           0       -1.076429   -0.396468   -2.179310
     13          1           0       -2.052903   -1.556261   -1.272282
     14          1           0       -0.292740   -1.715387   -1.298786
     15          1           0       -2.205669    1.537197   -0.885762
     16          1           0        0.641216    1.758860    1.211690
     17          1           0        0.641234    1.758821   -1.211737
 ---------------------------------------------------------------------

 SCF Done:  E(RHF) =  -906.675807762     A.U. after    2 cycles

 The electronic state is 1-A.
 Alpha  occ. eigenvalues -- -105.55044 -69.56749 -11.24486 -11.24001 -11.23452
 Alpha  occ. eigenvalues --  -11.23435 -10.60021  -7.76908  -7.76618  -7.76609
 Alpha  occ. eigenvalues --   -6.23504  -3.98917  -3.98757  -3.98726  -1.09946
 Alpha  occ. eigenvalues --   -1.04206  -0.94451  -0.94186  -0.79529  -0.70937
 Alpha  occ. eigenvalues --   -0.62322  -0.61691  -0.61316  -0.56012  -0.56004
 Alpha  occ. eigenvalues --   -0.53247  -0.52182  -0.51985  -0.48723  -0.48645
 Alpha  occ. eigenvalues --   -0.47786  -0.44807  -0.41493
 Alpha virt. eigenvalues --    0.03374   0.03973   0.04050   0.04438   0.06054
 Alpha virt. eigenvalues --    0.06343   0.06421   0.06809   0.06845   0.09563
 Alpha virt. eigenvalues --    0.09827   0.09913   0.10020   0.11714   0.12863

 Mulliken charges:
               1
     1  C    0.141045
     2  C   -2.013657
     3  Si   0.808020
     4  C    0.046591
     5  Cl  -0.624539
     6  H    0.158954
     7  H    0.211439
     8  H    0.150992
     9  H    0.167843
    10  H    0.209643
    11  C    0.046592
    12  H    0.150990
    13  H    0.209643
    14  H    0.167843
    15  H    0.158955
    16  H    0.004823
    17  H    0.004824
 Sum of Mulliken charges =  -0.00000

 Dipole moment (field-independent basis, Debye):
    X=             -2.2859    Y=              0.4607    Z=             -0.0000  Tot=              2.3318

 Test job not archived.
 1\1\GINC-SE333\SP\RHF\Aug-CC-pVDZ\C4H11Cl1Si1\OHZDE\08-Apr-2025\0\\#t
 hf aug-cc-pvdz iop(5/13=1,5/36=2,99/5=2) pseudo=read geom=check guess=
 (read,tcheck) scf=(maxcycle=1)\\title\\0,1\C,0,-2.215089,0.89419,-0.00
 0032\C,0,-1.040941,-0.11091,-0.000006\Si,0,0.552596,0.916124,-0.000011
 \C,0,-1.112304,-0.992894,1.262576\Cl,0,2.252271,-0.306992,0.000022\H,0
 ,-2.205683,1.537227,0.885676\H,0,-3.168116,0.35241,-0.000031\H,0,-1.07
 6464,-0.396395,2.179307\H,0,-0.29276,-1.715343,1.298839\H,0,-2.052923,
 -1.556218,1.272301\C,0,-1.112284,-0.992936,-1.26256\H,0,-1.076429,-0.3

 Normal termination of Gaussian 16 at Tue Apr  8 23:44:52 2025.
