 Gaussian 16, Revision C.01,

 ----------------------------------------------------------------------
 #t hf aug-cc-pvdz symm=none int=(grid=ultrafine) guess=(read,tcheck) s
 table=(opt,rrhf)
 ----------------------------------------------------------------------
 -----
 title
 -----
 Symbolic Z-matrix:
 Charge =  0 Multiplicity = 1

 SCF Done:  E(RHF) =  -974.394962399     A.U. after   13 cycles
 Normal termination of Gaussian 16 at Tue Apr  8 23:41:14 2025.
 Gaussian 16:  ES64L-G16RevC.01  3-Jul-2019

 ----------------------------------------------------------------------
 #t hf aug-cc-pvdz iop(5/13=1,5/36=2,99/5=2) pseudo=read geom=check gue
 ss=(read,tcheck) scf=(maxcycle=1)
 ----------------------------------------------------------------------
 -----
 title
 -----
 Structure from the checkpoint file:  "BDE49_nonexpt_1633_mol1.chk"
 Charge =  0 Multiplicity = 1

                         Standard orientation:
 ---------------------------------------------------------------------
 Center     Atomic      Atomic             Coordinates (Angstroms)
 Number     Number       Type             X           Y           Z
 ---------------------------------------------------------------------
      1         14           0       -0.112975    1.383174   -0.185446
      2         15           0        1.393123   -0.315354   -0.031189
      3          8           0        1.027326   -1.584840   -0.691558
      4          8           0        1.632527   -0.378454    1.561869
      5          6           0       -1.795913    0.789529    0.409938
      6          6           0       -2.419468   -0.335863   -0.439414
      7          1           0       -2.463133    1.660842    0.433625
      8          1           0       -1.688695    0.463747    1.451581
      9          6           0       -3.768339   -0.813196    0.107543
     10          1           0       -1.724941   -1.179284   -0.497318
     11          1           0       -2.550359    0.018735   -1.468144
     12          1           0       -3.663537   -1.209186    1.122294
     13          1           0       -4.188772   -1.606176   -0.517025
     14          1           0       -4.494631    0.004987    0.143595
     15          1           0        2.182879   -1.124971    1.836420
     16          8           0        2.821992    0.259155   -0.555784
     17          1           0        3.055501   -0.141123   -1.402853
     18          1           0       -0.128602    1.739640   -1.623813
     19          1           0        0.396645    2.528963    0.601099
 ---------------------------------------------------------------------

 SCF Done:  E(RHF) =  -974.829314684     A.U. after    2 cycles

 The electronic state is 1-A.
 Alpha  occ. eigenvalues --  -84.41377 -69.54595 -20.59011 -20.58584 -20.49893
 Alpha  occ. eigenvalues --  -11.23595 -11.23393 -11.22501  -6.86786  -6.21756
 Alpha  occ. eigenvalues --   -4.40821  -4.40135  -4.39136  -3.97115  -3.97059
 Alpha  occ. eigenvalues --   -3.97034  -1.52325  -1.46562  -1.37933  -1.06390
 Alpha  occ. eigenvalues --   -0.94047  -0.86488  -0.81531  -0.73534  -0.72223
 Alpha  occ. eigenvalues --   -0.66351  -0.64326  -0.62339  -0.59652  -0.58476
 Alpha  occ. eigenvalues --   -0.56130  -0.55380  -0.54149  -0.53874  -0.50544
 Alpha  occ. eigenvalues --   -0.48910  -0.48319  -0.48094  -0.45097  -0.44835
 Alpha  occ. eigenvalues --   -0.40511
 Alpha virt. eigenvalues --    0.03317   0.03701   0.03877   0.04286   0.05470
 Alpha virt. eigenvalues --    0.05812   0.06767   0.06894   0.07174   0.09042
 Alpha virt. eigenvalues --    0.09471   0.09666   0.10582   0.11242   0.11904

 Mulliken charges:
               1
     1  Si   0.850839
     2  P    3.271353
     3  O   -1.585976
     4  O   -1.275395
     5  C   -0.632598
     6  C   -0.250633
     7  H    0.020363
     8  H    0.194063
     9  C   -0.354330
    10  H    0.115110
    11  H    0.127238
    12  H    0.166270
    13  H    0.125267
    14  H    0.158409
    15  H    0.313495
    16  O   -1.337318
    17  H    0.323694
    18  H   -0.123376
    19  H   -0.106473
 Sum of Mulliken charges =  -0.00000

 Dipole moment (field-independent basis, Debye):
    X=             -0.0570    Y=              1.4639    Z=              0.5782  Tot=              1.5750

 Test job not archived.
 1\1\GINC-SE252\SP\RHF\Aug-CC-pVDZ\C3H11O3P1Si1\OHZDE\08-Apr-2025\0\\#t
  hf aug-cc-pvdz iop(5/13=1,5/36=2,99/5=2) pseudo=read geom=check guess
 =(read,tcheck) scf=(maxcycle=1)\\title\\0,1\Si,0,-0.112975,1.383174,-0
 .185446\P,0,1.393123,-0.315354,-0.031189\O,0,1.027326,-1.58484,-0.6915
 58\O,0,1.632527,-0.378454,1.561869\C,0,-1.795913,0.789529,0.409938\C,0
 ,-2.419468,-0.335863,-0.439414\H,0,-2.463133,1.660842,0.433625\H,0,-1.
 688695,0.463747,1.451581\C,0,-3.768339,-0.813196,0.107543\H,0,-1.72494
 1,-1.179284,-0.497318\H,0,-2.550359,0.018735,-1.468144\H,0,-3.663537,-

 Normal termination of Gaussian 16 at Tue Apr  8 23:41:23 2025.
