 Gaussian 16, Revision C.01,

 ----------------------------------------------------------------------
 #t hf aug-cc-pvdz symm=none int=(grid=ultrafine) guess=(read,tcheck) s
 table=opt
 ----------------------------------------------------------------------
 -----
 title
 -----
 Symbolic Z-matrix:
 Charge =  0 Multiplicity = 2

 SCF Done:  E(UHF) =  -537.533598713     A.U. after   17 cycles

 1\1\GINC-SE454\Stability\UHF\Aug-CC-pVDZ\C2H4Cl1\OHZDE\08-Apr-2025\0\\
 #t hf aug-cc-pvdz symm=none int=(grid=ultrafine) guess=(read,tcheck) s
 table=opt\\title\\0,2\C,0,-0.612312,0.655695,0.000005\Cl,0,1.100852,-0
 .155974,-0.000004\H,0,-0.594797,1.270373,0.895963\H,0,-0.594802,1.2703
 82,-0.895948\C,0,-1.650277,-0.365159,0.000003\H,0,-1.974673,-0.8162,-0
 .928958\H,0,-1.974667,-0.81621,0.928961\\Version=ES64L-G16RevC.01\HF=-
 537.5335987\S2=0.771546\S2-1=0.\S2A=0.75032\RMSD=6.695e-09\Dipole=-0.9
 487205,0.3362591,0.0000044\Quadrupole=-0.9145125,0.3910539,0.5234586,0

 Normal termination of Gaussian 16 at Tue Apr  8 22:30:18 2025.
 Gaussian 16:  ES64L-G16RevC.01  3-Jul-2019

 ----------------------------------------------------------------------
 #t hf aug-cc-pvdz iop(5/13=1,5/36=2,99/5=2) pseudo=read geom=check gue
 ss=(read,tcheck) scf=(maxcycle=1)
 ----------------------------------------------------------------------
 -----
 title
 -----
 Structure from the checkpoint file:  "BDE49_expt_1026_mol2.chk"
 Charge =  0 Multiplicity = 2

                         Standard orientation:
 ---------------------------------------------------------------------
 Center     Atomic      Atomic             Coordinates (Angstroms)
 Number     Number       Type             X           Y           Z
 ---------------------------------------------------------------------
      1          6           0       -0.612312    0.655695    0.000005
      2         17           0        1.100852   -0.155974   -0.000004
      3          1           0       -0.594797    1.270373    0.895963
      4          1           0       -0.594802    1.270382   -0.895948
      5          6           0       -1.650277   -0.365159    0.000003
      6          1           0       -1.974673   -0.816200   -0.928958
      7          1           0       -1.974667   -0.816210    0.928961
 ---------------------------------------------------------------------

 SCF Done:  E(UHF) =  -537.694679065     A.U. after    2 cycles

 The electronic state is 2-A.
 Alpha  occ. eigenvalues -- -105.54881 -11.31539 -11.27148 -10.59634  -7.76866
 Alpha  occ. eigenvalues --   -7.76149  -7.76130  -1.11205  -0.99662  -0.84690
 Alpha  occ. eigenvalues --   -0.68000  -0.61950  -0.56755  -0.56182  -0.44998
 Alpha  occ. eigenvalues --   -0.44291  -0.38643
 Alpha virt. eigenvalues --    0.03607   0.04423   0.04500   0.06918   0.08494
 Alpha virt. eigenvalues --    0.11509   0.12481   0.14541   0.15211   0.15933
 Alpha virt. eigenvalues --    0.15968   0.17834   0.18982   0.19376   0.20018

  Beta  occ. eigenvalues -- -105.54643 -11.31977 -11.24792 -10.59377  -7.76064
  Beta  occ. eigenvalues --   -7.75984  -7.75880  -1.09024  -0.95242  -0.81312
  Beta  occ. eigenvalues --   -0.67231  -0.60706  -0.55412  -0.52866  -0.44174
  Beta  occ. eigenvalues --   -0.43870
  Beta virt. eigenvalues --    0.03494   0.04494   0.04524   0.04909   0.06930
  Beta virt. eigenvalues --    0.10396   0.12450   0.12919   0.14647   0.15648
  Beta virt. eigenvalues --    0.16077   0.17107   0.17921   0.19066   0.19416

 Mulliken charges and spin densities:
               1          2
     1  C   -0.564486  -0.258644
     2  Cl  -0.131381   0.140888
     3  H    0.228422   0.007854
     4  H    0.228424   0.007854
     5  C    0.188190   1.283348
     6  H    0.025416  -0.090650
     7  H    0.025415  -0.090650
 Sum of Mulliken charges =   0.00000   1.00000

 Dipole moment (field-independent basis, Debye):
    X=             -2.4165    Y=              0.8570    Z=              0.0000  Tot=              2.5640
                          Isotropic Fermi Contact Couplings
        Atom                 a.u.       MegaHertz       Gauss      10(-4) cm-1
     1  C(13)             -0.05241     -58.91610     -21.02273     -19.65229
     2  Cl(35)             0.11274      49.43421      17.63935      16.48948
     3  H(1)               0.00549      24.52507       8.75115       8.18068
     4  H(1)               0.00549      24.52502       8.75114       8.18067
     5  C(13)              0.19784     222.41308      79.36252      74.18902
     6  H(1)              -0.02257    -100.88190     -35.99717     -33.65058
     7  H(1)              -0.02257    -100.88188     -35.99716     -33.65057
 --------------------------------------------------------

 Normal termination of Gaussian 16 at Tue Apr  8 22:30:20 2025.
