 Gaussian 16, Revision C.01,

 ----------------------------------------------------------------------
 #t hf aug-cc-pvdz symm=none int=(grid=ultrafine) guess=(read,tcheck) s
 table=(opt,rrhf)
 ----------------------------------------------------------------------
 -----
 title
 -----
 Symbolic Z-matrix:
 Charge =  0 Multiplicity = 1

 SCF Done:  E(RHF) =  -664.026269297     A.U. after   13 cycles
 Normal termination of Gaussian 16 at Wed Apr  9 00:01:48 2025.
 Gaussian 16:  ES64L-G16RevC.01  3-Jul-2019

 ----------------------------------------------------------------------
 #t hf aug-cc-pvdz iop(5/13=1,5/36=2,99/5=2) pseudo=read geom=check gue
 ss=(read,tcheck) scf=(maxcycle=1)
 ----------------------------------------------------------------------
 -----
 title
 -----
 Structure from the checkpoint file:  "BDE49_nonexpt_2149_mol1.chk"
 Charge =  0 Multiplicity = 1

                         Standard orientation:
 ---------------------------------------------------------------------
 Center     Atomic      Atomic             Coordinates (Angstroms)
 Number     Number       Type             X           Y           Z
 ---------------------------------------------------------------------
      1          6           0        2.018036   -0.600557    0.254058
      2          7           0        0.704386   -0.939968    0.381594
      3         14           0       -0.699118    0.064882   -0.030365
      4          7           0       -1.801810   -0.957890   -0.809795
      5          8           0        2.436795    0.452438   -0.202462
      6          8           0       -1.511562    0.555331    1.306301
      7          1           0       -2.791203   -0.803211   -0.688393
      8          1           0       -1.588980   -1.381093   -1.700140
      9          1           0        0.541005   -1.858712    0.771996
     10          1           0       -1.285508    1.421611    1.652138
     11          8           0       -0.067678    1.322386   -0.844781
     12          1           0        0.908916    1.340836   -0.813590
     13          1           0        2.716725   -1.380672    0.603688
 ---------------------------------------------------------------------

 SCF Done:  E(RHF) =  -664.433254897     A.U. after    2 cycles

 The electronic state is 1-A.
 Alpha  occ. eigenvalues --  -69.60361 -20.54992 -20.53575 -20.53230 -15.52366
 Alpha  occ. eigenvalues --  -15.48561 -11.38015  -6.26387  -4.01907  -4.01831
 Alpha  occ. eigenvalues --   -4.01755  -1.48126  -1.44813  -1.42003  -1.22533
 Alpha  occ. eigenvalues --   -1.15236  -0.87518  -0.78583  -0.77595  -0.72250
 Alpha  occ. eigenvalues --   -0.68637  -0.67081  -0.65008  -0.62661  -0.59895
 Alpha  occ. eigenvalues --   -0.57210  -0.54220  -0.51714  -0.49932  -0.46464
 Alpha  occ. eigenvalues --   -0.44910  -0.44422
 Alpha virt. eigenvalues --    0.02739   0.04244   0.05176   0.05914   0.06086
 Alpha virt. eigenvalues --    0.06965   0.07788   0.07880   0.09883   0.10982
 Alpha virt. eigenvalues --    0.12204   0.12690   0.15265   0.15900   0.16373

 Mulliken charges:
               1
     1  C    0.265150
     2  N    0.393408
     3  Si   2.588189
     4  N    0.087831
     5  O   -1.102409
     6  O   -1.540975
     7  H   -0.027509
     8  H    0.014861
     9  H   -0.006908
    10  H    0.364133
    11  O   -1.746010
    12  H    0.650078
    13  H    0.060161
 Sum of Mulliken charges =  -0.00000

 Dipole moment (field-independent basis, Debye):
    X=             -0.6450    Y=             -2.5910    Z=              0.7914  Tot=              2.7849

 Test job not archived.
 1\1\GINC-SE080\SP\RHF\Aug-CC-pVDZ\C1H6N2O3Si1\OHZDE\09-Apr-2025\0\\#t
 hf aug-cc-pvdz iop(5/13=1,5/36=2,99/5=2) pseudo=read geom=check guess=
 (read,tcheck) scf=(maxcycle=1)\\title\\0,1\C,0,2.018036,-0.600557,0.25
 4058\N,0,0.704386,-0.939968,0.381594\Si,0,-0.699118,0.064882,-0.030365
 \N,0,-1.80181,-0.95789,-0.809795\O,0,2.436795,0.452438,-0.202462\O,0,-
 1.511562,0.555331,1.306301\H,0,-2.791203,-0.803211,-0.688393\H,0,-1.58
 898,-1.381093,-1.70014\H,0,0.541005,-1.858712,0.771996\H,0,-1.285508,1
 .421611,1.652138\O,0,-0.067678,1.322386,-0.844781\H,0,0.908916,1.34083

 Normal termination of Gaussian 16 at Wed Apr  9 00:01:52 2025.
