 Gaussian 16, Revision C.01,

 ----------------------------------------------------------------------
 #t hf aug-cc-pvdz symm=none int=(grid=ultrafine) guess=(read,tcheck) s
 table=(opt,rrhf)
 ----------------------------------------------------------------------
 -----
 title
 -----
 Symbolic Z-matrix:
 Charge =  0 Multiplicity = 1

 SCF Done:  E(RHF) =  -701.112760866     A.U. after   15 cycles
 Normal termination of Gaussian 16 at Tue Apr  8 23:33:47 2025.
 Gaussian 16:  ES64L-G16RevC.01  3-Jul-2019

 ----------------------------------------------------------------------
 #t hf aug-cc-pvdz iop(5/13=1,5/36=2,99/5=2) pseudo=read geom=check gue
 ss=(read,tcheck) scf=(maxcycle=1)
 ----------------------------------------------------------------------
 -----
 title
 -----
 Structure from the checkpoint file:  "BDE49_nonexpt_1448_mol1.chk"
 Charge =  0 Multiplicity = 1

                         Standard orientation:
 ---------------------------------------------------------------------
 Center     Atomic      Atomic             Coordinates (Angstroms)
 Number     Number       Type             X           Y           Z
 ---------------------------------------------------------------------
      1          6           0        1.608559   -0.213513   -0.270711
      2          8           0        1.080182   -0.926248   -1.097246
      3          7           0        0.965937    0.903229    0.249462
      4          6           0       -1.537237   -0.292170    0.357595
      5          6           0        2.995578   -0.473505    0.285131
      6          6           0       -2.701617   -0.711910   -0.510208
      7          8           0       -1.181014   -0.897058    1.337246
      8          1           0        3.530766   -1.130502   -0.397703
      9          1           0        2.901510   -0.975966    1.252449
     10          1           0        3.562862    0.448480    0.432788
     11          1           0       -3.303109    0.147740   -0.820576
     12          1           0       -3.320531   -1.433396    0.024339
     13          1           0       -2.297986   -1.179298   -1.413908
     14         15           0       -0.667322    1.332346   -0.092424
     15          1           0        1.446712    1.431973    0.961500
     16          1           0       -0.656999    1.116210   -1.489601
 ---------------------------------------------------------------------

 SCF Done:  E(RHF) =  -701.520073739     A.U. after    2 cycles

 The electronic state is 1-A.
 Alpha  occ. eigenvalues --  -84.31287 -20.54496 -20.52403 -15.53502 -11.37204
 Alpha  occ. eigenvalues --  -11.34683 -11.25525 -11.24972  -6.78111  -4.31089
 Alpha  occ. eigenvalues --   -4.30442  -4.29918  -1.48021  -1.47313  -1.23093
 Alpha  occ. eigenvalues --   -1.03024  -1.01735  -0.90387  -0.82612  -0.75070
 Alpha  occ. eigenvalues --   -0.69918  -0.67146  -0.65111  -0.62816  -0.61744
 Alpha  occ. eigenvalues --   -0.60839  -0.58962  -0.56951  -0.55769  -0.53298
 Alpha  occ. eigenvalues --   -0.50558  -0.45544  -0.43548  -0.40842  -0.35050
 Alpha virt. eigenvalues --    0.03211   0.04015   0.04763   0.05364   0.05641
 Alpha virt. eigenvalues --    0.05943   0.06466   0.07479   0.08570   0.09253
 Alpha virt. eigenvalues --    0.10558   0.11314   0.12555   0.13261   0.13464

 Mulliken charges:
               1
     1  C    0.516357
     2  O   -1.302682
     3  N    0.572148
     4  C    0.877806
     5  C   -0.535823
     6  C   -0.571624
     7  O   -1.356905
     8  H    0.167771
     9  H    0.264900
    10  H    0.158582
    11  H    0.239116
    12  H    0.146012
    13  H    0.266846
    14  P    0.212771
    15  H   -0.016074
    16  H    0.360799
 Sum of Mulliken charges =  -0.00000

 Dipole moment (field-independent basis, Debye):
    X=              0.8268    Y=              2.4342    Z=             -0.1216  Tot=              2.5736

 Test job not archived.
 1\1\GINC-SE453\SP\RHF\Aug-CC-pVDZ\C4H8N1O2P1\OHZDE\08-Apr-2025\0\\#t h
 f aug-cc-pvdz iop(5/13=1,5/36=2,99/5=2) pseudo=read geom=check guess=(
 read,tcheck) scf=(maxcycle=1)\\title\\0,1\C,0,1.608559,-0.213513,-0.27
 0711\O,0,1.080182,-0.926248,-1.097246\N,0,0.965937,0.903229,0.249462\C
 ,0,-1.537237,-0.29217,0.357595\C,0,2.995578,-0.473505,0.285131\C,0,-2.
 701617,-0.71191,-0.510208\O,0,-1.181014,-0.897058,1.337246\H,0,3.53076
 6,-1.130502,-0.397703\H,0,2.90151,-0.975966,1.252449\H,0,3.562862,0.44
 848,0.432788\H,0,-3.303109,0.14774,-0.820576\H,0,-3.320531,-1.433396,0

 Normal termination of Gaussian 16 at Tue Apr  8 23:33:53 2025.
