 Gaussian 16, Revision C.01,

 ----------------------------------------------------------------------
 #t hf aug-cc-pvdz symm=none int=(grid=ultrafine) guess=(read,tcheck) s
 table=(opt,rrhf)
 ----------------------------------------------------------------------
 -----
 title
 -----
 Symbolic Z-matrix:
 Charge =  0 Multiplicity = 1

 SCF Done:  E(RHF) =  -588.727128448     A.U. after   14 cycles

 1\1\GINC-SE212\Stability\RHF\Aug-CC-pVDZ\Cl1N1O1\OHZDE\08-Apr-2025\0\\
 #t hf aug-cc-pvdz symm=none int=(grid=ultrafine) guess=(read,tcheck) s
 table=(opt,rrhf)\\title\\0,1\N,0,0.,1.004096,0.\O,0,1.111826,1.184137,
 0.\Cl,0,-0.523212,-0.970692,0.\\Version=ES64L-G16RevC.01\HF=-588.72712
 84\RMSD=6.161e-09\Dipole=0.4244967,1.0210666,0.\Quadrupole=-0.6467649,
 0.4710437,0.1757212,0.1361022,0.,0.\PG=Unknown\\@
 The archive entry for this job was punched.

 Normal termination of Gaussian 16 at Tue Apr  8 22:54:33 2025.
 Gaussian 16:  ES64L-G16RevC.01  3-Jul-2019

 ----------------------------------------------------------------------
 #t hf aug-cc-pvdz iop(5/13=1,5/36=2,99/5=2) pseudo=read geom=check gue
 ss=(read,tcheck) scf=(maxcycle=1)
 ----------------------------------------------------------------------
 -----
 title
 -----
 Structure from the checkpoint file:  "BDE49_expt_1835_mol1.chk"
 Charge =  0 Multiplicity = 1

                         Standard orientation:
 ---------------------------------------------------------------------
 Center     Atomic      Atomic             Coordinates (Angstroms)
 Number     Number       Type             X           Y           Z
 ---------------------------------------------------------------------
      1          7           0        0.000000    1.004096    0.000000
      2          8           0        1.111826    1.184137    0.000000
      3         17           0       -0.523212   -0.970692    0.000000
 ---------------------------------------------------------------------

 SCF Done:  E(RHF) =  -588.913257340     A.U. after    2 cycles

 The electronic state is 1-A'.
 Alpha  occ. eigenvalues -- -105.55408 -20.76548 -15.81340 -10.60110  -7.76954
 Alpha  occ. eigenvalues --   -7.76624  -7.76607  -1.79670  -1.08109  -0.97991
 Alpha  occ. eigenvalues --   -0.81457  -0.79511  -0.76952  -0.45800  -0.45773
 Alpha  occ. eigenvalues --   -0.43995
 Alpha virt. eigenvalues --   -0.00043   0.00953   0.08670   0.12420   0.13951
 Alpha virt. eigenvalues --    0.14625   0.16094   0.16741   0.18409   0.21527
 Alpha virt. eigenvalues --    0.22216   0.25400   0.29705   0.36303   0.46109

 Mulliken charges:
               1
     1  N    0.836502
     2  O   -0.634056
     3  Cl  -0.202447
 Sum of Mulliken charges =  -0.00000

 Dipole moment (field-independent basis, Debye):
    X=              1.5516    Y=              2.4204    Z=              0.0000  Tot=              2.8750

 Test job not archived.
 1\1\GINC-SE212\SP\RHF\Aug-CC-pVDZ\Cl1N1O1\OHZDE\08-Apr-2025\0\\#t hf a
 ug-cc-pvdz iop(5/13=1,5/36=2,99/5=2) pseudo=read geom=check guess=(rea
 d,tcheck) scf=(maxcycle=1)\\title\\0,1\N,0,0.,1.004096,0.\O,0,1.111826
 ,1.184137,0.\Cl,0,-0.523212,-0.970692,0.\\Version=ES64L-G16RevC.01\Sta
 te=1-A'\HF=-588.9132573\RMSD=1.318e-02\Dipole=0.6104519,0.9522411,0.\Q
 uadrupole=-0.3113464,0.4567243,-0.1453779,0.7224324,0.,0.\PG=CS [SG(Cl
 1N1O1)]\\@

 Normal termination of Gaussian 16 at Tue Apr  8 22:54:34 2025.
