 Gaussian 16, Revision C.01,

 ----------------------------------------------------------------------
 #t hf aug-cc-pvdz symm=none int=(grid=ultrafine) guess=(read,tcheck) s
 table=(opt,rrhf)
 ----------------------------------------------------------------------
 -----
 title
 -----
 Symbolic Z-matrix:
 Charge =  0 Multiplicity = 1

 SCF Done:  E(RHF) =  -839.992873718     A.U. after   14 cycles
 Normal termination of Gaussian 16 at Wed Apr  9 00:52:40 2025.
 Gaussian 16:  ES64L-G16RevC.01  3-Jul-2019

 ----------------------------------------------------------------------
 #t hf aug-cc-pvdz iop(5/13=1,5/36=2,99/5=2) pseudo=read geom=check gue
 ss=(read,tcheck) scf=(maxcycle=1)
 ----------------------------------------------------------------------
 -----
 title
 -----
 Structure from the checkpoint file:  "BDE49_nonexpt_967_mol1.chk"
 Charge =  0 Multiplicity = 1

                         Standard orientation:
 ---------------------------------------------------------------------
 Center     Atomic      Atomic             Coordinates (Angstroms)
 Number     Number       Type             X           Y           Z
 ---------------------------------------------------------------------
      1          9           0       -1.602442    1.091113    0.033832
      2         16           0        0.720707    0.000104   -0.135009
      3          8           0        1.210086    1.262511   -0.605396
      4          7           0       -1.056644    0.000154   -0.651376
      5          6           0        0.595758   -0.000925    1.648919
      6          1           0        1.624326   -0.000994    2.010618
      7          1           0        0.072371    0.901730    1.955313
      8          9           0       -1.602330   -1.091215    0.033263
      9          8           0        1.210449   -1.261628   -0.606828
     10          1           0        0.072613   -0.904072    1.954281
 ---------------------------------------------------------------------

 SCF Done:  E(RHF) =  -840.475170822     A.U. after    2 cycles

 The electronic state is 1-A.
 Alpha  occ. eigenvalues --  -94.25493 -26.54083 -26.54078 -20.58780 -20.58779
 Alpha  occ. eigenvalues --  -15.75497 -11.32512  -8.50625  -6.48700  -6.48501
 Alpha  occ. eigenvalues --   -6.48375  -1.70457  -1.61489  -1.60955  -1.49247
 Alpha  occ. eigenvalues --   -1.16362  -1.08888  -0.90360  -0.80753  -0.79736
 Alpha  occ. eigenvalues --   -0.79065  -0.72161  -0.71505  -0.67986  -0.67957
 Alpha  occ. eigenvalues --   -0.64487  -0.64441  -0.64374  -0.58623  -0.53632
 Alpha  occ. eigenvalues --   -0.53556  -0.51026  -0.49125
 Alpha virt. eigenvalues --    0.02789   0.04789   0.05066   0.08445   0.10385
 Alpha virt. eigenvalues --    0.10778   0.11363   0.11983   0.13097   0.13457
 Alpha virt. eigenvalues --    0.14950   0.16088   0.16258   0.17447   0.18245

 Mulliken charges:
               1
     1  F   -0.599057
     2  S    3.221688
     3  O   -1.483437
     4  N    0.851691
     5  C   -0.716174
     6  H    0.271869
     7  H    0.267948
     8  F   -0.599079
     9  O   -1.483439
    10  H    0.267989
 Sum of Mulliken charges =  -0.00000

 Dipole moment (field-independent basis, Debye):
    X=              0.0901    Y=             -0.0025    Z=              4.3670  Tot=              4.3679

 Test job not archived.
 1\1\GINC-SE083\SP\RHF\Aug-CC-pVDZ\C1H3F2N1O2S1\OHZDE\09-Apr-2025\0\\#t
  hf aug-cc-pvdz iop(5/13=1,5/36=2,99/5=2) pseudo=read geom=check guess
 =(read,tcheck) scf=(maxcycle=1)\\title\\0,1\F,0,-1.602442,1.091113,0.0
 33832\S,0,0.720707,0.000104,-0.135009\O,0,1.210086,1.262511,-0.605396\
 N,0,-1.056644,0.000154,-0.651376\C,0,0.595758,-0.000925,1.648919\H,0,1
 .624326,-0.000994,2.010618\H,0,0.072371,0.90173,1.955313\F,0,-1.60233,
 -1.091215,0.033263\O,0,1.210449,-1.261628,-0.606828\H,0,0.072613,-0.90
 4072,1.954281\\Version=ES64L-G16RevC.01\State=1-A\HF=-840.4751708\RMSD

 Normal termination of Gaussian 16 at Wed Apr  9 00:52:46 2025.
