 Gaussian 16, Revision C.01,

 ----------------------------------------------------------------------
 #t hf aug-cc-pvdz symm=none int=(grid=ultrafine) guess=(read,tcheck) s
 table=(opt,rrhf)
 ----------------------------------------------------------------------
 -----
 title
 -----
 Symbolic Z-matrix:
 Charge =  0 Multiplicity = 1

 SCF Done:  E(RHF) =  -262.725972574     A.U. after   13 cycles
 Normal termination of Gaussian 16 at Tue Apr  8 23:02:45 2025.
 Gaussian 16:  ES64L-G16RevC.01  3-Jul-2019

 ----------------------------------------------------------------------
 #t hf aug-cc-pvdz iop(5/13=1,5/36=2,99/5=2) pseudo=read geom=check gue
 ss=(read,tcheck) scf=(maxcycle=1)
 ----------------------------------------------------------------------
 -----
 title
 -----
 Structure from the checkpoint file:  "BDE49_expt_343_mol1.chk"
 Charge =  0 Multiplicity = 1

                         Standard orientation:
 ---------------------------------------------------------------------
 Center     Atomic      Atomic             Coordinates (Angstroms)
 Number     Number       Type             X           Y           Z
 ---------------------------------------------------------------------
      1          7           0        0.714395    1.195891   -0.000004
      2          6           0       -0.621370    1.183032    0.000003
      3          6           0       -1.353082    0.000003    0.000006
      4          7           0        0.714391   -1.195893   -0.000003
      5          6           0        1.307860   -0.000003   -0.000006
      6          6           0       -0.621374   -1.183030    0.000003
      7          1           0       -1.115813   -2.150716    0.000006
      8          1           0       -1.115804    2.150720    0.000004
      9          1           0       -2.436058    0.000005    0.000011
     10          1           0        2.393972   -0.000005   -0.000012
 ---------------------------------------------------------------------

 SCF Done:  E(RHF) =  -262.991782286     A.U. after    2 cycles

 The electronic state is 1-A.
 Alpha  occ. eigenvalues --  -15.51593 -15.51550 -11.32122 -11.30821 -11.30814
 Alpha  occ. eigenvalues --  -11.25948  -1.31301  -1.20271  -1.08171  -0.91831
 Alpha  occ. eigenvalues --   -0.91812  -0.75909  -0.74240  -0.66473  -0.61820
 Alpha  occ. eigenvalues --   -0.61242  -0.60449  -0.51277  -0.45937  -0.45811
 Alpha  occ. eigenvalues --   -0.39509
 Alpha virt. eigenvalues --    0.03083   0.04027   0.04699   0.05504   0.06216
 Alpha virt. eigenvalues --    0.08211   0.10096   0.10189   0.10283   0.11770
 Alpha virt. eigenvalues --    0.12712   0.12724   0.13583   0.14465   0.14492

 Mulliken charges:
               1
     1  N    0.690892
     2  C   -0.550614
     3  C    0.681927
     4  N    0.690892
     5  C   -0.630416
     6  C   -0.550616
     7  H   -0.103588
     8  H   -0.103589
     9  H   -0.128617
    10  H    0.003729
 Sum of Mulliken charges =  -0.00000

 Dipole moment (field-independent basis, Debye):
    X=             -2.7644    Y=              0.0000    Z=              0.0000  Tot=              2.7644

 Test job not archived.
 1\1\GINC-SE074\SP\RHF\Aug-CC-pVDZ\C4H4N2\OHZDE\08-Apr-2025\0\\#t hf au
 g-cc-pvdz iop(5/13=1,5/36=2,99/5=2) pseudo=read geom=check guess=(read
 ,tcheck) scf=(maxcycle=1)\\title\\0,1\N,0,0.714393,1.195892,-0.000004\
 C,0,-0.621372,1.183031,0.000003\C,0,-1.353082,0.,0.000006\N,0,0.714393
 ,-1.195892,-0.000003\C,0,1.30786,0.,-0.000006\C,0,-0.621372,-1.183031,
 0.000003\H,0,-1.115809,-2.150718,0.000006\H,0,-1.115808,2.150718,0.000
 004\H,0,-2.436058,0.,0.000011\H,0,2.393972,0.,-0.000012\\Version=ES64L
 -G16RevC.01\State=1-A\HF=-262.9917823\RMSD=2.339e-02\Dipole=-1.0876074

 Normal termination of Gaussian 16 at Tue Apr  8 23:02:48 2025.
