 Gaussian 16, Revision C.01,

 ----------------------------------------------------------------------
 #t hf aug-cc-pvdz symm=none int=(grid=ultrafine) guess=(read,tcheck) s
 table=(opt,rrhf)
 ----------------------------------------------------------------------
 -----
 title
 -----
 Symbolic Z-matrix:
 Charge =  0 Multiplicity = 1

 SCF Done:  E(RHF) =  -1242.44629494     A.U. after   14 cycles
 Normal termination of Gaussian 16 at Wed Apr  9 00:13:06 2025.
 Gaussian 16:  ES64L-G16RevC.01  3-Jul-2019

 ----------------------------------------------------------------------
 #t hf aug-cc-pvdz iop(5/13=1,5/36=2,99/5=2) pseudo=read geom=check gue
 ss=(read,tcheck) scf=(maxcycle=1)
 ----------------------------------------------------------------------
 -----
 title
 -----
 Structure from the checkpoint file:  "BDE49_nonexpt_2424_mol1.chk"
 Charge =  0 Multiplicity = 1

                         Standard orientation:
 ---------------------------------------------------------------------
 Center     Atomic      Atomic             Coordinates (Angstroms)
 Number     Number       Type             X           Y           Z
 ---------------------------------------------------------------------
      1         14           0       -2.652520    0.733845    0.162083
      2         14           0       -1.172939   -0.955921   -0.549332
      3         16           0        0.883050   -0.479303    0.210106
      4          1           0       -1.043802   -1.088877   -2.015048
      5          1           0       -1.424336   -2.273836    0.071030
      6          8           0        0.862666   -0.344873    1.652565
      7          8           0        0.958256    1.025110   -0.454811
      8          8           0        1.904372   -1.300638   -0.406777
      9          1           0       -4.033042    0.291672   -0.148134
     10          1           0       -2.358191    1.985875   -0.566077
     11          6           0        2.232931    1.706601   -0.362612
     12          1           0        2.097083    2.641238   -0.902568
     13          1           0        3.014967    1.108152   -0.832007
     14          1           0        2.479850    1.907782    0.681258
     15          1           0       -2.504838    0.929492    1.619192
 ---------------------------------------------------------------------

 SCF Done:  E(RHF) =  -1242.84068507     A.U. after    2 cycles

 The electronic state is 1-A.
 Alpha  occ. eigenvalues --  -94.20867 -69.58104 -69.55426 -20.60141 -20.54275
 Alpha  occ. eigenvalues --  -20.54230 -11.30927  -8.45932  -6.43990  -6.43883
 Alpha  occ. eigenvalues --   -6.43666  -6.25210  -6.22605  -4.00579  -4.00458
 Alpha  occ. eigenvalues --   -4.00440  -3.97980  -3.97952  -3.97946  -1.58798
 Alpha  occ. eigenvalues --   -1.47304  -1.44020  -1.00331  -0.88673  -0.80607
 Alpha  occ. eigenvalues --   -0.75004  -0.70988  -0.68404  -0.67372  -0.63272
 Alpha  occ. eigenvalues --   -0.61337  -0.57475  -0.54049  -0.51787  -0.51353
 Alpha  occ. eigenvalues --   -0.50719  -0.49402  -0.48742  -0.45898  -0.44873
 Alpha  occ. eigenvalues --   -0.42364
 Alpha virt. eigenvalues --    0.03035   0.03448   0.03818   0.05216   0.05846
 Alpha virt. eigenvalues --    0.06183   0.06690   0.07022   0.07399   0.07928
 Alpha virt. eigenvalues --    0.09125   0.09289   0.09798   0.10199   0.10884

 Mulliken charges:
               1
     1  Si   0.242414
     2  Si   0.681735
     3  S    3.173436
     4  H   -0.071300
     5  H   -0.135655
     6  O   -1.439706
     7  O   -1.336743
     8  O   -1.469118
     9  H   -0.131871
    10  H   -0.055881
    11  C    0.222788
    12  H    0.010426
    13  H    0.177675
    14  H    0.166864
    15  H   -0.035062
 Sum of Mulliken charges =   0.00000

 Dipole moment (field-independent basis, Debye):
    X=             -2.9430    Y=              2.1742    Z=             -2.0442  Tot=              4.1913

 Test job not archived.
 1\1\GINC-SE366\SP\RHF\Aug-CC-pVDZ\C1H8O3S1Si2\OHZDE\09-Apr-2025\0\\#t
 hf aug-cc-pvdz iop(5/13=1,5/36=2,99/5=2) pseudo=read geom=check guess=
 (read,tcheck) scf=(maxcycle=1)\\title\\0,1\Si,0,-2.65252,0.733845,0.16
 2083\Si,0,-1.172939,-0.955921,-0.549332\S,0,0.88305,-0.479303,0.210106
 \H,0,-1.043802,-1.088877,-2.015048\H,0,-1.424336,-2.273836,0.07103\O,0
 ,0.862666,-0.344873,1.652565\O,0,0.958256,1.02511,-0.454811\O,0,1.9043
 72,-1.300638,-0.406777\H,0,-4.033042,0.291672,-0.148134\H,0,-2.358191,
 1.985875,-0.566077\C,0,2.232931,1.706601,-0.362612\H,0,2.097083,2.6412

 Normal termination of Gaussian 16 at Wed Apr  9 00:13:11 2025.
