 Gaussian 16, Revision C.01,

 ----------------------------------------------------------------------
 #t hf aug-cc-pvdz symm=none int=(grid=ultrafine) guess=(read,tcheck) s
 table=(opt,rrhf)
 ----------------------------------------------------------------------
 -----
 title
 -----
 Symbolic Z-matrix:
 Charge =  0 Multiplicity = 1

 SCF Done:  E(RHF) =  -896.665930930     A.U. after   11 cycles

 1\1\GINC-SE143\Stability\RHF\Aug-CC-pVDZ\B1H9Si3\OHZDE\09-Apr-2025\0\\
 #t hf aug-cc-pvdz symm=none int=(grid=ultrafine) guess=(read,tcheck) s
 table=(opt,rrhf)\\title\\0,1\B,0,-0.000001,-0.017491,-0.032758\Si,0,0.
 000025,1.995184,0.004846\Si,0,-1.758572,-0.997531,-0.004859\Si,0,1.758
 547,-0.997574,-0.00486\H,0,-2.871385,-0.223205,-0.609783\H,0,-2.066431
 ,-1.174129,1.44296\H,0,-1.726657,-2.341189,-0.633018\H,0,2.871369,-0.2
 23283,-0.609811\H,0,1.726596,-2.341243,-0.632993\H,0,2.066419,-1.17415
 1,1.442959\H,0,0.000021,2.379655,-1.435935\H,0,1.20455,2.591927,0.6338

 Normal termination of Gaussian 16 at Wed Apr  9 00:48:07 2025.
 Gaussian 16:  ES64L-G16RevC.01  3-Jul-2019

 ----------------------------------------------------------------------
 #t hf aug-cc-pvdz iop(5/13=1,5/36=2,99/5=2) pseudo=read geom=check gue
 ss=(read,tcheck) scf=(maxcycle=1)
 ----------------------------------------------------------------------
 -----
 title
 -----
 Structure from the checkpoint file:  "BDE49_nonexpt_855_mol1.chk"
 Charge =  0 Multiplicity = 1

                         Standard orientation:
 ---------------------------------------------------------------------
 Center     Atomic      Atomic             Coordinates (Angstroms)
 Number     Number       Type             X           Y           Z
 ---------------------------------------------------------------------
      1          5           0       -0.000001   -0.017491   -0.032758
      2         14           0        0.000019    1.995184    0.004846
      3         14           0       -1.758569   -0.997536   -0.004859
      4         14           0        1.758550   -0.997569   -0.004860
      5          1           0       -2.871384   -0.223213   -0.609783
      6          1           0       -2.066428   -1.174135    1.442960
      7          1           0       -1.726650   -2.341194   -0.633018
      8          1           0        2.871370   -0.223274   -0.609811
      9          1           0        1.726603   -2.341238   -0.632993
     10          1           0        2.066422   -1.174145    1.442959
     11          1           0        0.000014    2.379655   -1.435935
     12          1           0        1.204542    2.591931    0.633811
     13          1           0       -1.204486    2.591953    0.633825
 ---------------------------------------------------------------------

 SCF Done:  E(RHF) =  -896.795603485     A.U. after    2 cycles

 The electronic state is 1-A.
 Alpha  occ. eigenvalues --  -69.52459 -69.52444 -69.52444  -7.61456  -6.19689
 Alpha  occ. eigenvalues --   -6.19677  -6.19673  -3.95074  -3.95061  -3.95061
 Alpha  occ. eigenvalues --   -3.95042  -3.95039  -3.95026  -3.95021  -3.95014
 Alpha  occ. eigenvalues --   -3.95009  -0.81194  -0.74189  -0.74026  -0.58841
 Alpha  occ. eigenvalues --   -0.50383  -0.50289  -0.50264  -0.48690  -0.48606
 Alpha  occ. eigenvalues --   -0.48012  -0.40501  -0.40361
 Alpha virt. eigenvalues --    0.01029   0.03453   0.03950   0.03969   0.05217
 Alpha virt. eigenvalues --    0.05683   0.06594   0.06607   0.07440   0.07603
 Alpha virt. eigenvalues --    0.08823   0.09230   0.09760   0.09859   0.09979

 Mulliken charges:
               1
     1  B   -0.814599
     2  Si   0.795936
     3  Si   0.722066
     4  Si   0.722067
     5  H   -0.162747
     6  H   -0.123403
     7  H   -0.174994
     8  H   -0.162745
     9  H   -0.174995
    10  H   -0.123403
    11  H   -0.133188
    12  H   -0.184998
    13  H   -0.184997
 Sum of Mulliken charges =  -0.00000

 Dipole moment (field-independent basis, Debye):
    X=             -0.0000    Y=             -0.0311    Z=             -0.1480  Tot=              0.1513

 Test job not archived.
 1\1\GINC-SE143\SP\RHF\Aug-CC-pVDZ\B1H9Si3\OHZDE\09-Apr-2025\0\\#t hf a
 ug-cc-pvdz iop(5/13=1,5/36=2,99/5=2) pseudo=read geom=check guess=(rea
 d,tcheck) scf=(maxcycle=1)\\title\\0,1\B,0,-0.000001,-0.017491,-0.0327
 58\Si,0,0.000025,1.995184,0.004846\Si,0,-1.758572,-0.997531,-0.004859\
 Si,0,1.758547,-0.997574,-0.00486\H,0,-2.871385,-0.223205,-0.609783\H,0
 ,-2.066431,-1.174129,1.44296\H,0,-1.726657,-2.341189,-0.633018\H,0,2.8
 71369,-0.223283,-0.609811\H,0,1.726596,-2.341243,-0.632993\H,0,2.06641
 9,-1.174151,1.442959\H,0,0.000021,2.379655,-1.435935\H,0,1.20455,2.591

 Normal termination of Gaussian 16 at Wed Apr  9 00:48:11 2025.
