 Gaussian 16, Revision C.01,

 ----------------------------------------------------------------------
 #t hf aug-cc-pvdz symm=none int=(grid=ultrafine) guess=(read,tcheck) s
 table=opt
 ----------------------------------------------------------------------
 -----
 title
 -----
 Symbolic Z-matrix:
 Charge =  0 Multiplicity = 2

 SCF Done:  E(UHF) =  -175.646911763     A.U. after   14 cycles
 Normal termination of Gaussian 16 at Wed Apr  9 00:27:40 2025.
 Gaussian 16:  ES64L-G16RevC.01  3-Jul-2019

 ----------------------------------------------------------------------
 #t hf aug-cc-pvdz iop(5/13=1,5/36=2,99/5=2) pseudo=read geom=check gue
 ss=(read,tcheck) scf=(maxcycle=1)
 ----------------------------------------------------------------------
 -----
 title
 -----
 Structure from the checkpoint file:  "BDE49_nonexpt_291_mol3.chk"
 Charge =  0 Multiplicity = 2

                         Standard orientation:
 ---------------------------------------------------------------------
 Center     Atomic      Atomic             Coordinates (Angstroms)
 Number     Number       Type             X           Y           Z
 ---------------------------------------------------------------------
      1          5           0       -0.000779   -0.521477   -0.000010
      2          8           0        1.229050    0.020232    0.000001
      3          8           0       -1.138680    0.220768    0.000004
      4          1           0       -1.938599   -0.310807   -0.000006
      5          1           0        1.219540    0.990193    0.000019
 ---------------------------------------------------------------------

 SCF Done:  E(UHF) =  -175.815594740     A.U. after    2 cycles

 The electronic state is 2-A.
 Alpha  occ. eigenvalues --  -20.57705 -20.56914  -7.67080  -1.49690  -1.45897
 Alpha  occ. eigenvalues --   -0.78874  -0.74808  -0.63532  -0.58200  -0.57469
 Alpha  occ. eigenvalues --   -0.50306  -0.35589
 Alpha virt. eigenvalues --    0.03890   0.04688   0.05224   0.05905   0.08194
 Alpha virt. eigenvalues --    0.10694   0.16516   0.18177   0.20217   0.21166
 Alpha virt. eigenvalues --    0.21364   0.22930   0.24292   0.26229   0.27022

  Beta  occ. eigenvalues --  -20.57437 -20.56793  -7.65063  -1.48823  -1.45262
  Beta  occ. eigenvalues --   -0.77603  -0.73213  -0.59801  -0.57908  -0.57081
  Beta  occ. eigenvalues --   -0.50829
  Beta virt. eigenvalues --    0.03050   0.04810   0.05425   0.05589   0.07984
  Beta virt. eigenvalues --    0.08731   0.15732   0.19036   0.20640   0.21300
  Beta virt. eigenvalues --    0.21330   0.21427   0.23012   0.24409   0.27430

 Mulliken charges and spin densities:
               1          2
     1  B    0.657823   1.030922
     2  O   -0.908279  -0.055044
     3  O   -0.761755   0.009572
     4  H    0.554250  -0.013104
     5  H    0.457960   0.027653
 Sum of Mulliken charges =  -0.00000   1.00000

 Dipole moment (field-independent basis, Debye):
    X=             -1.4124    Y=              0.7178    Z=              0.0000  Tot=              1.5843
                          Isotropic Fermi Contact Couplings
        Atom                 a.u.       MegaHertz       Gauss      10(-4) cm-1
     1  B(11)              0.39107     560.94315     200.15846     187.11049
     2  O(17)              0.13892     -84.21004     -30.04824     -28.08944
     3  O(17)              0.03074     -18.63401      -6.64908      -6.21564
     4  H(1)               0.00201       8.99142       3.20836       2.99921
     5  H(1)               0.01347      60.21282      21.48543      20.08484
 --------------------------------------------------------
       Center         ----  Spin Dipole Couplings  ----
                      3XX-RR        3YY-RR        3ZZ-RR

 Normal termination of Gaussian 16 at Wed Apr  9 00:27:42 2025.
