 Gaussian 16, Revision C.01,

 ----------------------------------------------------------------------
 #t hf aug-cc-pvdz symm=none int=(grid=ultrafine) guess=(read,tcheck) s
 table=(opt,rrhf)
 ----------------------------------------------------------------------
 -----
 title
 -----
 Symbolic Z-matrix:
 Charge =  0 Multiplicity = 1

 SCF Done:  E(RHF) =  -667.292198961     A.U. after   15 cycles
 Normal termination of Gaussian 16 at Tue Apr  8 22:47:17 2025.
 Gaussian 16:  ES64L-G16RevC.01  3-Jul-2019

 ----------------------------------------------------------------------
 #t hf aug-cc-pvdz iop(5/13=1,5/36=2,99/5=2) pseudo=read geom=check gue
 ss=(read,tcheck) scf=(maxcycle=1)
 ----------------------------------------------------------------------
 -----
 title
 -----
 Structure from the checkpoint file:  "BDE49_expt_1578_mol1.chk"
 Charge =  0 Multiplicity = 1

                         Standard orientation:
 ---------------------------------------------------------------------
 Center     Atomic      Atomic             Coordinates (Angstroms)
 Number     Number       Type             X           Y           Z
 ---------------------------------------------------------------------
      1          6           0        2.721496    0.858812    0.000007
      2         16           0        1.821948   -0.718051   -0.000009
      3          1           0        2.506462    1.442835   -0.895933
      4          1           0        2.506447    1.442823    0.895952
      5          6           0        0.111366   -0.228577   -0.000002
      6          6           0       -0.333971    1.096512   -0.000003
      7          6           0       -1.700943    1.374373    0.000001
      8          6           0       -0.833449   -1.265789    0.000003
      9          6           0       -2.191911   -0.978254    0.000006
     10          6           0       -2.635916    0.344865    0.000005
     11          1           0       -3.696525    0.566865    0.000008
     12          1           0       -2.029890    2.407815   -0.000000
     13          1           0        0.370368    1.917646   -0.000007
     14          1           0       -0.498402   -2.297404    0.000005
     15          1           0       -2.907965   -1.792571    0.000010
     16          1           0        3.778308    0.589160    0.000014
 ---------------------------------------------------------------------

 SCF Done:  E(RHF) =  -667.634067634     A.U. after    2 cycles

 The electronic state is 1-A.
 Alpha  occ. eigenvalues --  -93.95358 -11.27941 -11.27255 -11.24893 -11.24825
 Alpha  occ. eigenvalues --  -11.24649 -11.24513 -11.24146  -8.23472  -6.21313
 Alpha  occ. eigenvalues --   -6.21131  -6.20916  -1.16728  -1.08677  -1.02272
 Alpha  occ. eigenvalues --   -1.00502  -0.89869  -0.83948  -0.80533  -0.71318
 Alpha  occ. eigenvalues --   -0.65172  -0.64135  -0.61803  -0.60571  -0.60055
 Alpha  occ. eigenvalues --   -0.55916  -0.52386  -0.51840  -0.50231  -0.45573
 Alpha  occ. eigenvalues --   -0.40896  -0.35166  -0.30677
 Alpha virt. eigenvalues --    0.03340   0.03439   0.03901   0.04873   0.05285
 Alpha virt. eigenvalues --    0.05483   0.07247   0.09143   0.09842   0.10277
 Alpha virt. eigenvalues --    0.10444   0.11321   0.12379   0.13711   0.13777

 Mulliken charges:
               1
     1  C   -0.734645
     2  S    0.346400
     3  H    0.276823
     4  H    0.276823
     5  C    0.540686
     6  C    0.089483
     7  C    0.452868
     8  C   -0.468792
     9  C    0.513628
    10  C   -0.035258
    11  H   -0.215598
    12  H   -0.228707
    13  H   -0.388824
    14  H   -0.229109
    15  H   -0.218918
    16  H    0.023139
 Sum of Mulliken charges =  -0.00000

 Dipole moment (field-independent basis, Debye):
    X=             -0.0094    Y=              1.5207    Z=              0.0000  Tot=              1.5207

 Test job not archived.
 1\1\GINC-SE051\SP\RHF\Aug-CC-pVDZ\C7H8S1\OHZDE\08-Apr-2025\0\\#t hf au
 g-cc-pvdz iop(5/13=1,5/36=2,99/5=2) pseudo=read geom=check guess=(read
 ,tcheck) scf=(maxcycle=1)\\title\\0,1\C,0,2.721496,0.858812,0.000007\S
 ,0,1.821948,-0.718051,-0.000009\H,0,2.506462,1.442835,-0.895933\H,0,2.
 506447,1.442823,0.895952\C,0,0.111366,-0.228577,-0.000002\C,0,-0.33397
 1,1.096512,-0.000003\C,0,-1.700943,1.374373,0.000001\C,0,-0.833449,-1.
 265789,0.000003\C,0,-2.191911,-0.978254,0.000006\C,0,-2.635916,0.34486
 5,0.000005\H,0,-3.696525,0.566865,0.000008\H,0,-2.02989,2.407815,0.\H,

 Normal termination of Gaussian 16 at Tue Apr  8 22:47:24 2025.
