 Gaussian 16, Revision C.01,

 ----------------------------------------------------------------------
 #t hf aug-cc-pvdz symm=none int=(grid=ultrafine) guess=(read,tcheck) s
 table=(opt,rrhf)
 ----------------------------------------------------------------------
 -----
 title
 -----
 Symbolic Z-matrix:
 Charge =  0 Multiplicity = 1

 SCF Done:  E(RHF) =  -690.212791660     A.U. after   13 cycles

 1\1\GINC-SE331\Stability\RHF\Aug-CC-pVDZ\H6N2Si2\OHZDE\09-Apr-2025\0\\
 #t hf aug-cc-pvdz symm=none int=(grid=ultrafine) guess=(read,tcheck) s
 table=(opt,rrhf)\\title\\0,1\Si,0,1.684007,-0.420332,0.000004\Si,0,-0.
 212234,0.986894,0.000004\H,0,1.708264,-1.272098,1.210862\H,0,2.898668,
 0.433419,0.000013\H,0,1.708273,-1.272086,-1.210862\N,0,-1.764955,0.053
 105,-0.000005\H,0,-0.289301,1.853396,-1.200377\H,0,-0.289309,1.853386,
 1.200392\N,0,-1.629636,-1.184425,-0.000012\H,0,-2.57928,-1.608643,-0.0
 00015\\Version=ES64L-G16RevC.01\HF=-690.2127917\RMSD=2.179e-09\Dipole=

 Normal termination of Gaussian 16 at Wed Apr  9 00:11:34 2025.
 Gaussian 16:  ES64L-G16RevC.01  3-Jul-2019

 ----------------------------------------------------------------------
 #t hf aug-cc-pvdz iop(5/13=1,5/36=2,99/5=2) pseudo=read geom=check gue
 ss=(read,tcheck) scf=(maxcycle=1)
 ----------------------------------------------------------------------
 -----
 title
 -----
 Structure from the checkpoint file:  "BDE49_nonexpt_2392_mol1.chk"
 Charge =  0 Multiplicity = 1

                         Standard orientation:
 ---------------------------------------------------------------------
 Center     Atomic      Atomic             Coordinates (Angstroms)
 Number     Number       Type             X           Y           Z
 ---------------------------------------------------------------------
      1         14           0        1.684007   -0.420332    0.000004
      2         14           0       -0.212234    0.986894    0.000004
      3          1           0        1.708264   -1.272098    1.210862
      4          1           0        2.898668    0.433419    0.000013
      5          1           0        1.708273   -1.272086   -1.210862
      6          7           0       -1.764955    0.053105   -0.000005
      7          1           0       -0.289301    1.853396   -1.200377
      8          1           0       -0.289309    1.853386    1.200392
      9          7           0       -1.629636   -1.184425   -0.000012
     10          1           0       -2.579280   -1.608643   -0.000015
 ---------------------------------------------------------------------

 SCF Done:  E(RHF) =  -690.388179186     A.U. after    2 cycles

 The electronic state is 1-A.
 Alpha  occ. eigenvalues --  -69.55084 -69.53086 -15.57903 -15.55315  -6.22128
 Alpha  occ. eigenvalues --   -6.20274  -3.97473  -3.97409  -3.97394  -3.95629
 Alpha  occ. eigenvalues --   -3.95626  -3.95623  -1.35212  -0.95413  -0.78327
 Alpha  occ. eigenvalues --   -0.73458  -0.69316  -0.61826  -0.57933  -0.50510
 Alpha  occ. eigenvalues --   -0.49199  -0.48199  -0.43958  -0.40527
 Alpha virt. eigenvalues --    0.03619   0.04104   0.05063   0.05436   0.06344
 Alpha virt. eigenvalues --    0.06403   0.06788   0.07960   0.08016   0.08916
 Alpha virt. eigenvalues --    0.09758   0.10258   0.10384   0.13451   0.14078

 Mulliken charges:
               1
     1  Si   0.288076
     2  Si   0.802882
     3  H   -0.129390
     4  H   -0.119658
     5  H   -0.129390
     6  N   -0.552448
     7  H   -0.164826
     8  H   -0.164826
     9  N    0.102728
    10  H    0.066853
 Sum of Mulliken charges =   0.00000

 Dipole moment (field-independent basis, Debye):
    X=              0.2710    Y=              0.0722    Z=              0.0000  Tot=              0.2804

 Test job not archived.
 1\1\GINC-SE331\SP\RHF\Aug-CC-pVDZ\H6N2Si2\OHZDE\09-Apr-2025\0\\#t hf a
 ug-cc-pvdz iop(5/13=1,5/36=2,99/5=2) pseudo=read geom=check guess=(rea
 d,tcheck) scf=(maxcycle=1)\\title\\0,1\Si,0,1.684007,-0.420332,0.00000
 4\Si,0,-0.212234,0.986894,0.000004\H,0,1.708264,-1.272098,1.210862\H,0
 ,2.898668,0.433419,0.000013\H,0,1.708273,-1.272086,-1.210862\N,0,-1.76
 4955,0.053105,-0.000005\H,0,-0.289301,1.853396,-1.200377\H,0,-0.289309
 ,1.853386,1.200392\N,0,-1.629636,-1.184425,-0.000012\H,0,-2.57928,-1.6
 08643,-0.000015\\Version=ES64L-G16RevC.01\State=1-A\HF=-690.3881792\RM

 Normal termination of Gaussian 16 at Wed Apr  9 00:11:37 2025.
