 Gaussian 16, Revision C.01,

 ----------------------------------------------------------------------
 #t hf aug-cc-pvdz symm=none int=(grid=ultrafine) guess=(read,tcheck) s
 table=(opt,rrhf)
 ----------------------------------------------------------------------
 -----
 title
 -----
 Symbolic Z-matrix:
 Charge =  0 Multiplicity = 1

 SCF Done:  E(RHF) =  -704.368372804     A.U. after   15 cycles
 Normal termination of Gaussian 16 at Wed Apr  9 00:22:16 2025.
 Gaussian 16:  ES64L-G16RevC.01  3-Jul-2019

 ----------------------------------------------------------------------
 #t hf aug-cc-pvdz iop(5/13=1,5/36=2,99/5=2) pseudo=read geom=check gue
 ss=(read,tcheck) scf=(maxcycle=1)
 ----------------------------------------------------------------------
 -----
 title
 -----
 Structure from the checkpoint file:  "BDE49_nonexpt_2657_mol1.chk"
 Charge =  0 Multiplicity = 1

                         Standard orientation:
 ---------------------------------------------------------------------
 Center     Atomic      Atomic             Coordinates (Angstroms)
 Number     Number       Type             X           Y           Z
 ---------------------------------------------------------------------
      1          9           0       -1.701955   -1.259989   -0.000111
      2         16           0       -1.466588    0.412449    0.000042
      3          6           0        0.326071    0.535014    0.000037
      4          8           0        0.747902    1.672225   -0.000029
      5          7           0        1.009311   -0.621961    0.000040
      6          6           0        2.465948   -0.668282    0.000002
      7          1           0        0.473948   -1.477708    0.000073
      8          1           0        2.836825   -1.180835    0.891024
      9          1           0        2.834948    0.355681   -0.000037
     10          1           0        2.836776   -1.180886   -0.891010
 ---------------------------------------------------------------------

 SCF Done:  E(RHF) =  -704.725011096     A.U. after    2 cycles

 The electronic state is 1-A.
 Alpha  occ. eigenvalues --  -94.05891 -26.49142 -20.54360 -15.55718 -11.41343
 Alpha  occ. eigenvalues --  -11.29207  -8.33245  -6.31012  -6.30704  -6.30410
 Alpha  occ. eigenvalues --   -1.58761  -1.49675  -1.27512  -1.05925  -0.97820
 Alpha  occ. eigenvalues --   -0.85011  -0.75814  -0.70305  -0.68137  -0.66058
 Alpha  occ. eigenvalues --   -0.65538  -0.64625  -0.58480  -0.58313  -0.56211
 Alpha  occ. eigenvalues --   -0.44824  -0.44552  -0.40849
 Alpha virt. eigenvalues --    0.03062   0.04998   0.05011   0.06174   0.06908
 Alpha virt. eigenvalues --    0.07528   0.10278   0.11184   0.12490   0.12633
 Alpha virt. eigenvalues --    0.13659   0.14500   0.15741   0.16040   0.16789

 Mulliken charges:
               1
     1  F   -0.707199
     2  S    1.196451
     3  C   -0.108684
     4  O   -1.071238
     5  N    0.541695
     6  C   -0.375332
     7  H    0.169533
     8  H    0.149041
     9  H    0.056698
    10  H    0.149034
 Sum of Mulliken charges =  -0.00000

 Dipole moment (field-independent basis, Debye):
    X=              1.5006    Y=             -2.5785    Z=              0.0002  Tot=              2.9833

 Test job not archived.
 1\1\GINC-SE159\SP\RHF\Aug-CC-pVDZ\C2H4F1N1O1S1\OHZDE\09-Apr-2025\0\\#t
  hf aug-cc-pvdz iop(5/13=1,5/36=2,99/5=2) pseudo=read geom=check guess
 =(read,tcheck) scf=(maxcycle=1)\\title\\0,1\F,0,-1.701955,-1.259989,-0
 .000111\S,0,-1.466588,0.412449,0.000042\C,0,0.326071,0.535014,0.000037
 \O,0,0.747902,1.672225,-0.000029\N,0,1.009311,-0.621961,0.00004\C,0,2.
 465948,-0.668282,0.000002\H,0,0.473948,-1.477708,0.000073\H,0,2.836825
 ,-1.180835,0.891024\H,0,2.834948,0.355681,-0.000037\H,0,2.836776,-1.18
 0886,-0.89101\\Version=ES64L-G16RevC.01\State=1-A\HF=-704.7250111\RMSD

 Normal termination of Gaussian 16 at Wed Apr  9 00:22:20 2025.
