 Gaussian 16, Revision C.01,

 ----------------------------------------------------------------------
 #t hf aug-cc-pvdz symm=none int=(grid=ultrafine) guess=(read,tcheck) s
 table=(opt,rrhf)
 ----------------------------------------------------------------------
 -----
 title
 -----
 Symbolic Z-matrix:
 Charge =  0 Multiplicity = 1

 SCF Done:  E(RHF) =  -1129.66958566     A.U. after   14 cycles
 Normal termination of Gaussian 16 at Tue Apr  8 23:47:31 2025.
 Gaussian 16:  ES64L-G16RevC.01  3-Jul-2019

 ----------------------------------------------------------------------
 #t hf aug-cc-pvdz iop(5/13=1,5/36=2,99/5=2) pseudo=read geom=check gue
 ss=(read,tcheck) scf=(maxcycle=1)
 ----------------------------------------------------------------------
 -----
 title
 -----
 Structure from the checkpoint file:  "BDE49_nonexpt_1768_mol1.chk"
 Charge =  0 Multiplicity = 1

                         Standard orientation:
 ---------------------------------------------------------------------
 Center     Atomic      Atomic             Coordinates (Angstroms)
 Number     Number       Type             X           Y           Z
 ---------------------------------------------------------------------
      1          6           0        3.409584    0.265373   -0.026369
      2          6           0        2.863779   -0.999892   -0.233360
      3          6           0        1.482898   -1.175983   -0.209448
      4          6           0        2.571585    1.355647    0.199148
      5          6           0        1.190546    1.180014    0.219713
      6          6           0        0.624105   -0.087927    0.019112
      7          1           0        4.485107    0.402678   -0.046370
      8          1           0        3.513162   -1.848690   -0.416574
      9          1           0        1.065376   -2.161297   -0.382420
     10          1           0        2.993089    2.342831    0.352311
     11          1           0        0.549787    2.040682    0.378350
     12         14           0       -1.200467   -0.384517    0.113870
     13         17           0       -2.218996    1.333563   -0.521279
     14          8           0       -1.785710   -0.735953    1.604735
     15          1           0       -2.000107   -0.018270    2.205065
     16          8           0       -1.531507   -1.662897   -0.839363
     17          1           0       -2.394186   -2.077862   -0.758549
 ---------------------------------------------------------------------

 SCF Done:  E(RHF) =  -1130.16348841     A.U. after    2 cycles

 The electronic state is 1-A.
 Alpha  occ. eigenvalues -- -105.55456 -69.62238 -20.56225 -20.56160 -11.25634
 Alpha  occ. eigenvalues --  -11.25533 -11.25519 -11.24922 -11.24875 -11.23949
 Alpha  occ. eigenvalues --  -10.60472  -7.77349  -7.77072  -7.77066  -6.28214
 Alpha  occ. eigenvalues --   -4.03701  -4.03651  -4.03486  -1.46726  -1.43980
 Alpha  occ. eigenvalues --   -1.16027  -1.05134  -1.02448  -1.02180  -0.84657
 Alpha  occ. eigenvalues --   -0.84066  -0.78257  -0.72693  -0.71280  -0.65662
 Alpha  occ. eigenvalues --   -0.64641  -0.62580  -0.60684  -0.60271  -0.56806
 Alpha  occ. eigenvalues --   -0.54819  -0.53709  -0.51869  -0.51484  -0.51033
 Alpha  occ. eigenvalues --   -0.47558  -0.46903  -0.46282  -0.35721  -0.35277
 Alpha virt. eigenvalues --    0.03125   0.03577   0.03774   0.04923   0.05249
 Alpha virt. eigenvalues --    0.05939   0.07230   0.07776   0.08320   0.08468
 Alpha virt. eigenvalues --    0.09448   0.09974   0.10661   0.13051   0.13203

 Mulliken charges:
               1
     1  C    0.326425
     2  C    0.410988
     3  C    0.175686
     4  C    0.392433
     5  C    0.411924
     6  C   -0.665294
     7  H   -0.208436
     8  H   -0.221508
     9  H   -0.324930
    10  H   -0.228912
    11  H   -0.325592
    12  Si   3.021229
    13  Cl  -0.586236
    14  O   -1.473976
    15  H    0.365929
    16  O   -1.497680
    17  H    0.427950
 Sum of Mulliken charges =  -0.00000

 Dipole moment (field-independent basis, Debye):
    X=              0.8100    Y=             -0.1746    Z=              1.1923  Tot=              1.4519

 Test job not archived.
 1\1\GINC-SE402\SP\RHF\Aug-CC-pVDZ\C6H7Cl1O2Si1\OHZDE\08-Apr-2025\0\\#t
  hf aug-cc-pvdz iop(5/13=1,5/36=2,99/5=2) pseudo=read geom=check guess
 =(read,tcheck) scf=(maxcycle=1)\\title\\0,1\C,0,3.409584,0.265373,-0.0
 26369\C,0,2.863779,-0.999892,-0.23336\C,0,1.482898,-1.175983,-0.209448
 \C,0,2.571585,1.355647,0.199148\C,0,1.190546,1.180014,0.219713\C,0,0.6
 24105,-0.087927,0.019112\H,0,4.485107,0.402678,-0.04637\H,0,3.513162,-
 1.84869,-0.416574\H,0,1.065376,-2.161297,-0.38242\H,0,2.993089,2.34283
 1,0.352311\H,0,0.549787,2.040682,0.37835\Si,0,-1.200467,-0.384517,0.11

 Normal termination of Gaussian 16 at Tue Apr  8 23:47:41 2025.
