 Gaussian 16, Revision C.01,

 ----------------------------------------------------------------------
 #t hf aug-cc-pvdz symm=none int=(grid=ultrafine) guess=(read,tcheck) s
 table=(opt,rrhf)
 ----------------------------------------------------------------------
 -----
 title
 -----
 Symbolic Z-matrix:
 Charge =  0 Multiplicity = 1

 SCF Done:  E(RHF) =  -131.943448076     A.U. after   11 cycles
 Normal termination of Gaussian 16 at Tue Apr  8 23:02:38 2025.
 Gaussian 16:  ES64L-G16RevC.01  3-Jul-2019

 ----------------------------------------------------------------------
 #t hf aug-cc-pvdz iop(5/13=1,5/36=2,99/5=2) pseudo=read geom=check gue
 ss=(read,tcheck) scf=(maxcycle=1)
 ----------------------------------------------------------------------
 -----
 title
 -----
 Structure from the checkpoint file:  "BDE49_expt_298_mol1.chk"
 Charge =  0 Multiplicity = 1

                         Standard orientation:
 ---------------------------------------------------------------------
 Center     Atomic      Atomic             Coordinates (Angstroms)
 Number     Number       Type             X           Y           Z
 ---------------------------------------------------------------------
      1          6           0       -1.175720   -0.000001   -0.000001
      2          6           0        0.280806    0.000004    0.000004
      3          1           0       -1.553403   -0.476393    0.906927
      4          1           0       -1.553387   -0.547233   -0.866034
      5          1           0       -1.553375    1.023628   -0.040902
      6          7           0        1.432807   -0.000003   -0.000001
 ---------------------------------------------------------------------

 SCF Done:  E(RHF) =  -132.078007428     A.U. after    2 cycles

 The electronic state is 1-A.
 Alpha  occ. eigenvalues --  -15.51306 -11.29717 -11.28578  -1.23497  -1.04756
 Alpha  occ. eigenvalues --   -0.71142  -0.63910  -0.63909  -0.60138  -0.49613
 Alpha  occ. eigenvalues --   -0.49613
 Alpha virt. eigenvalues --    0.02731   0.04872   0.04872   0.06887   0.11806
 Alpha virt. eigenvalues --    0.12989   0.12989   0.13905   0.13905   0.14949
 Alpha virt. eigenvalues --    0.17288   0.17288   0.21138   0.24029   0.24987

 Mulliken charges:
               1
     1  C   -0.065934
     2  C   -1.310520
     3  H    0.230032
     4  H    0.230033
     5  H    0.230039
     6  N    0.686350
 Sum of Mulliken charges =  -0.00000

 Dipole moment (field-independent basis, Debye):
    X=             -4.7760    Y=              0.0000    Z=              0.0000  Tot=              4.7760

 Test job not archived.
 1\1\GINC-SE166\SP\RHF\Aug-CC-pVDZ\C2H3N1\OHZDE\08-Apr-2025\0\\#t hf au
 g-cc-pvdz iop(5/13=1,5/36=2,99/5=2) pseudo=read geom=check guess=(read
 ,tcheck) scf=(maxcycle=1)\\title\\0,1\C,0,1.17572,0.000001,-0.000001\C
 ,0,-0.280806,-0.000004,0.000004\H,0,1.553403,0.498566,0.894929\H,0,1.5
 53387,0.525756,-0.879238\H,0,1.553375,-1.024324,-0.015701\N,0,-1.43280
 7,0.000003,-0.000001\\Version=ES64L-G16RevC.01\State=1-A\HF=-132.07800
 74\RMSD=2.194e-02\Dipole=1.8790253,-0.0000029,0.0000014\Quadrupole=-1.
 8220073,0.911018,0.9109892,0.0000302,0.0000026,-0.000002\PG=C01 [X(C2H

 Normal termination of Gaussian 16 at Tue Apr  8 23:02:40 2025.
