 Gaussian 16, Revision C.01,

 ----------------------------------------------------------------------
 #t hf aug-cc-pvdz symm=none int=(grid=ultrafine) guess=(read,tcheck) s
 table=(opt,rrhf)
 ----------------------------------------------------------------------
 -----
 title
 -----
 Symbolic Z-matrix:
 Charge =  0 Multiplicity = 1

 SCF Done:  E(RHF) =  -1332.39541901     A.U. after   17 cycles
 Normal termination of Gaussian 16 at Wed Apr  9 00:49:04 2025.
 Gaussian 16:  ES64L-G16RevC.01  3-Jul-2019

 ----------------------------------------------------------------------
 #t hf aug-cc-pvdz iop(5/13=1,5/36=2,99/5=2) pseudo=read geom=check gue
 ss=(read,tcheck) scf=(maxcycle=1)
 ----------------------------------------------------------------------
 -----
 title
 -----
 Structure from the checkpoint file:  "BDE49_nonexpt_856_mol1.chk"
 Charge =  0 Multiplicity = 1

                         Standard orientation:
 ---------------------------------------------------------------------
 Center     Atomic      Atomic             Coordinates (Angstroms)
 Number     Number       Type             X           Y           Z
 ---------------------------------------------------------------------
      1         14           0       -0.058969   -0.140923    0.250384
      2          7           0       -0.480981    1.657799   -0.125171
      3          5           0        1.944933   -0.391995    0.003762
      4          7           0       -1.039943   -0.969497   -1.098164
      5         17           0       -0.910356   -0.539543    2.056582
      6          8           0       -1.970201   -1.729704   -0.932125
      7          8           0        2.742864    0.665551   -0.223487
      8          8           0        0.494398    2.422207   -0.170717
      9          8           0        2.383664   -1.665095    0.091070
     10          8           0       -1.635063    2.002079   -0.280108
     11          8           0       -0.561837   -0.627875   -2.185933
     12          1           0        3.335641   -1.756542   -0.047314
     13          1           0        2.257176    1.506264   -0.265039
 ---------------------------------------------------------------------

 SCF Done:  E(RHF) =  -1333.05451998     A.U. after    2 cycles

 The electronic state is 1-A.
 Alpha  occ. eigenvalues -- -105.62582 -69.69935 -20.63648 -20.63045 -20.62643
 Alpha  occ. eigenvalues --  -20.62084 -20.60929 -20.60157 -15.79721 -15.79210
 Alpha  occ. eigenvalues --  -10.67524  -7.84419  -7.84080  -7.84068  -7.71109
 Alpha  occ. eigenvalues --   -6.36165  -4.11446  -4.11416  -4.11219  -1.69648
 Alpha  occ. eigenvalues --   -1.69023  -1.53847  -1.53460  -1.52881  -1.49219
 Alpha  occ. eigenvalues --   -1.13229  -1.04840  -1.00733  -0.86717  -0.83628
 Alpha  occ. eigenvalues --   -0.82300  -0.78583  -0.77727  -0.77175  -0.76657
 Alpha  occ. eigenvalues --   -0.75241  -0.69660  -0.65634  -0.61842  -0.61295
 Alpha  occ. eigenvalues --   -0.56592  -0.55084  -0.53770  -0.53499  -0.52904
 Alpha  occ. eigenvalues --   -0.51646  -0.49430  -0.48799  -0.48212  -0.47309
 Alpha virt. eigenvalues --    0.00939   0.01551   0.02662   0.04203   0.04759
 Alpha virt. eigenvalues --    0.05295   0.06770   0.07275   0.07724   0.07949
 Alpha virt. eigenvalues --    0.09414   0.09507   0.10060   0.11122   0.13140

 Mulliken charges:
               1
     1  Si   1.209360
     2  N    1.883761
     3  B    1.595411
     4  N    2.065621
     5  Cl  -0.523330
     6  O   -1.215684
     7  O   -1.394891
     8  O   -1.208754
     9  O   -1.129081
    10  O   -1.236987
    11  O   -1.296785
    12  H    0.558083
    13  H    0.693275
 Sum of Mulliken charges =  -0.00000

 Dipole moment (field-independent basis, Debye):
    X=              3.5840    Y=             -1.1141    Z=              2.4934  Tot=              4.5059

 Test job not archived.
 1\1\GINC-SE184\SP\RHF\Aug-CC-pVDZ\B1Cl1H2N2O6Si1\OHZDE\09-Apr-2025\0\\
 #t hf aug-cc-pvdz iop(5/13=1,5/36=2,99/5=2) pseudo=read geom=check gue
 ss=(read,tcheck) scf=(maxcycle=1)\\title\\0,1\Si,0,-0.058969,-0.140923
 ,0.250384\N,0,-0.480981,1.657799,-0.125171\B,0,1.944933,-0.391995,0.00
 3762\N,0,-1.039943,-0.969497,-1.098164\Cl,0,-0.910356,-0.539543,2.0565
 82\O,0,-1.970202,-1.729703,-0.932125\O,0,2.742864,0.66555,-0.223487\O,
 0,0.494399,2.422207,-0.170717\O,0,2.383663,-1.665096,0.09107\O,0,-1.63
 5062,2.00208,-0.280108\O,0,-0.561837,-0.627875,-2.185933\H,0,3.33564,-

 Normal termination of Gaussian 16 at Wed Apr  9 00:49:11 2025.
