 Gaussian 16, Revision C.01,

 ----------------------------------------------------------------------
 #t hf aug-cc-pvdz symm=none int=(grid=ultrafine) guess=(read,tcheck) s
 table=opt
 ----------------------------------------------------------------------
 -----
 title
 -----
 Symbolic Z-matrix:
 Charge =  0 Multiplicity = 2

 SCF Done:  E(UHF) =  -155.483432674     A.U. after   15 cycles
 Normal termination of Gaussian 16 at Tue Apr  8 22:39:30 2025.
 Gaussian 16:  ES64L-G16RevC.01  3-Jul-2019

 ----------------------------------------------------------------------
 #t hf aug-cc-pvdz iop(5/13=1,5/36=2,99/5=2) pseudo=read geom=check gue
 ss=(read,tcheck) scf=(maxcycle=1)
 ----------------------------------------------------------------------
 -----
 title
 -----
 Structure from the checkpoint file:  "BDE49_expt_1284_mol2.chk"
 Charge =  0 Multiplicity = 2

                         Standard orientation:
 ---------------------------------------------------------------------
 Center     Atomic      Atomic             Coordinates (Angstroms)
 Number     Number       Type             X           Y           Z
 ---------------------------------------------------------------------
      1          6           0       -0.000002    1.081241   -0.000000
      2          6           0       -0.000002    0.061767    1.103174
      3          6           0       -0.000002    0.061767   -1.103174
      4          6           0        0.000003   -1.047202    0.000000
      5          1           0        0.881585    0.065003   -1.758914
      6          1           0       -0.881593    0.064997   -1.758908
      7          1           0        0.885307   -1.684999    0.000000
      8          1           0       -0.885295   -1.685007    0.000000
      9          1           0        0.000020    2.164570   -0.000000
     10          1           0        0.881585    0.065003    1.758914
     11          1           0       -0.881593    0.064997    1.758908
 ---------------------------------------------------------------------

 SCF Done:  E(UHF) =  -155.654238949     A.U. after    2 cycles

 The electronic state is 2-A'.
 Alpha  occ. eigenvalues --  -11.23274 -11.22918 -11.22732 -11.22725  -1.13358
 Alpha  occ. eigenvalues --   -0.90223  -0.89179  -0.74065  -0.66779  -0.65242
 Alpha  occ. eigenvalues --   -0.54734  -0.51493  -0.50734  -0.45974  -0.45958
 Alpha  occ. eigenvalues --   -0.33223
 Alpha virt. eigenvalues --    0.04018   0.04274   0.04471   0.04480   0.06417
 Alpha virt. eigenvalues --    0.06764   0.07371   0.10950   0.12337   0.13786
 Alpha virt. eigenvalues --    0.14053   0.15520   0.15772   0.16531   0.17131

  Beta  occ. eigenvalues --  -11.23113 -11.23104 -11.22838 -11.20742  -1.11130
  Beta  occ. eigenvalues --   -0.90263  -0.85473  -0.71057  -0.65614  -0.63165
  Beta  occ. eigenvalues --   -0.53486  -0.50701  -0.48680  -0.45497  -0.45354
  Beta virt. eigenvalues --    0.04084   0.04289   0.04489   0.04508   0.06437
  Beta virt. eigenvalues --    0.06770   0.07199   0.11016   0.11116   0.12355
  Beta virt. eigenvalues --    0.13793   0.14184   0.15592   0.16543   0.17341

 Mulliken charges and spin densities:
               1          2
     1  C    0.139571   1.539972
     2  C   -0.191440  -0.305111
     3  C   -0.191440  -0.305111
     4  C   -0.083963   0.049392
     5  H    0.076837   0.029625
     6  H    0.076841   0.029625
     7  H    0.051082  -0.001280
     8  H    0.051082  -0.001280
     9  H   -0.082248  -0.095082
    10  H    0.076837   0.029625
    11  H    0.076841   0.029625
 Sum of Mulliken charges =  -0.00000   1.00000

 Dipole moment (field-independent basis, Debye):
    X=              0.0000    Y=             -0.1378    Z=             -0.0000  Tot=              0.1378
                          Isotropic Fermi Contact Couplings
        Atom                 a.u.       MegaHertz       Gauss      10(-4) cm-1
     1  C(13)              0.23040     259.01672      92.42361      86.39868
     2  C(13)             -0.06713     -75.46921     -26.92929     -25.17382
     3  C(13)             -0.06713     -75.46921     -26.92929     -25.17382
     4  C(13)              0.01522      17.11173       6.10589       5.70786
     5  H(1)               0.01979      88.46203      31.56545      29.50776
     6  H(1)               0.01979      88.46326      31.56589      29.50817
     7  H(1)              -0.00148      -6.63589      -2.36785      -2.21349
     8  H(1)              -0.00148      -6.63558      -2.36774      -2.21339

 Normal termination of Gaussian 16 at Tue Apr  8 22:39:33 2025.
