 Gaussian 16, Revision C.01,

 ----------------------------------------------------------------------
 #t hf aug-cc-pvdz symm=none int=(grid=ultrafine) guess=(read,tcheck) s
 table=(opt,rrhf)
 ----------------------------------------------------------------------
 -----
 title
 -----
 Symbolic Z-matrix:
 Charge =  0 Multiplicity = 1

 SCF Done:  E(RHF) =  -320.258169103     A.U. after   15 cycles

 1\1\GINC-SE070\Stability\RHF\Aug-CC-pVDZ\C7H10B2\OHZDE\09-Apr-2025\0\\
 #t hf aug-cc-pvdz symm=none int=(grid=ultrafine) guess=(read,tcheck) s
 table=(opt,rrhf)\\title\\0,1\B,0,-2.372867,-0.466194,-0.41174\B,0,-3.3
 19363,0.808507,-0.827406\C,0,-1.53359,-0.630758,0.922869\C,0,-0.119682
 ,-0.28338,0.475889\C,0,0.73132,-1.26393,-0.051063\C,0,0.348586,1.03474
 3,0.544336\C,0,2.017737,-0.941221,-0.472783\C,0,2.475526,0.372456,-0.3
 8709\C,0,1.635359,1.359714,0.122501\H,0,0.382469,-2.289011,-0.120993\H
 ,0,2.664525,-1.717255,-0.867013\H,0,3.477814,0.6239,-0.714709\H,0,1.98

 Normal termination of Gaussian 16 at Wed Apr  9 00:38:05 2025.
 Gaussian 16:  ES64L-G16RevC.01  3-Jul-2019

 ----------------------------------------------------------------------
 #t hf aug-cc-pvdz iop(5/13=1,5/36=2,99/5=2) pseudo=read geom=check gue
 ss=(read,tcheck) scf=(maxcycle=1)
 ----------------------------------------------------------------------
 -----
 title
 -----
 Structure from the checkpoint file:  "BDE49_nonexpt_54_mol1.chk"
 Charge =  0 Multiplicity = 1

                         Standard orientation:
 ---------------------------------------------------------------------
 Center     Atomic      Atomic             Coordinates (Angstroms)
 Number     Number       Type             X           Y           Z
 ---------------------------------------------------------------------
      1          5           0       -2.372867   -0.466194   -0.411740
      2          5           0       -3.319363    0.808507   -0.827406
      3          6           0       -1.533590   -0.630758    0.922869
      4          6           0       -0.119682   -0.283380    0.475889
      5          6           0        0.731320   -1.263930   -0.051063
      6          6           0        0.348586    1.034743    0.544336
      7          6           0        2.017737   -0.941221   -0.472783
      8          6           0        2.475526    0.372456   -0.387090
      9          6           0        1.635359    1.359714    0.122501
     10          1           0        0.382469   -2.289011   -0.120993
     11          1           0        2.664525   -1.717255   -0.867013
     12          1           0        3.477814    0.623900   -0.714709
     13          1           0        1.981516    2.384903    0.193737
     14          1           0       -0.298112    1.810014    0.942656
     15          1           0       -1.559697   -1.658812    1.294487
     16          1           0       -1.839830    0.034710    1.733024
     17          1           0       -2.911733    1.800578   -1.355798
     18          1           0       -4.501049    0.774705   -0.629785
     19          1           0       -2.266295   -1.361039   -1.207824
 ---------------------------------------------------------------------

 SCF Done:  E(RHF) =  -320.593664387     A.U. after    2 cycles

 The electronic state is 1-A.
 Alpha  occ. eigenvalues --  -11.25631 -11.24412 -11.24387 -11.24097 -11.24044
 Alpha  occ. eigenvalues --  -11.24032 -11.22168  -7.57989  -7.57654  -1.15823
 Alpha  occ. eigenvalues --   -1.04996  -1.01641  -0.93928  -0.83640  -0.81000
 Alpha  occ. eigenvalues --   -0.74260  -0.70592  -0.65638  -0.64118  -0.63036
 Alpha  occ. eigenvalues --   -0.59896  -0.58067  -0.55955  -0.52601  -0.50171
 Alpha  occ. eigenvalues --   -0.50102  -0.48997  -0.47132  -0.42622  -0.34661
 Alpha  occ. eigenvalues --   -0.33226
 Alpha virt. eigenvalues --    0.02958   0.03158   0.03404   0.03740   0.04627
 Alpha virt. eigenvalues --    0.04645   0.05692   0.06040   0.06433   0.07097
 Alpha virt. eigenvalues --    0.07813   0.08886   0.09365   0.09505   0.10408

 Mulliken charges:
               1
     1  B    0.248065
     2  B   -0.829906
     3  C   -0.511419
     4  C    0.868049
     5  C    0.179374
     6  C    0.269298
     7  C    0.086609
     8  C    0.111859
     9  C    0.060332
    10  H   -0.332541
    11  H   -0.234250
    12  H   -0.214358
    13  H   -0.235532
    14  H   -0.321246
    15  H   -0.018406
    16  H   -0.006714
    17  H    0.385026
    18  H    0.270390
    19  H    0.225369
 Sum of Mulliken charges =  -0.00000

 Dipole moment (field-independent basis, Debye):
    X=              0.2100    Y=             -0.1671    Z=              0.4148  Tot=              0.4941

 Test job not archived.
 1\1\GINC-SE070\SP\RHF\Aug-CC-pVDZ\C7H10B2\OHZDE\09-Apr-2025\0\\#t hf a
 ug-cc-pvdz iop(5/13=1,5/36=2,99/5=2) pseudo=read geom=check guess=(rea
 d,tcheck) scf=(maxcycle=1)\\title\\0,1\B,0,-2.372867,-0.466194,-0.4117
 4\B,0,-3.319363,0.808507,-0.827406\C,0,-1.53359,-0.630758,0.922869\C,0
 ,-0.119682,-0.28338,0.475889\C,0,0.73132,-1.26393,-0.051063\C,0,0.3485
 86,1.034743,0.544336\C,0,2.017737,-0.941221,-0.472783\C,0,2.475526,0.3
 72456,-0.38709\C,0,1.635359,1.359714,0.122501\H,0,0.382469,-2.289011,-
 0.120993\H,0,2.664525,-1.717255,-0.867013\H,0,3.477814,0.6239,-0.71470

 Normal termination of Gaussian 16 at Wed Apr  9 00:38:14 2025.
