 Gaussian 16, Revision C.01,

 ----------------------------------------------------------------------
 #t hf aug-cc-pvdz symm=none int=(grid=ultrafine) guess=(read,tcheck) s
 table=(opt,rrhf)
 ----------------------------------------------------------------------
 -----
 title
 -----
 Symbolic Z-matrix:
 Charge =  0 Multiplicity = 1

 SCF Done:  E(RHF) =  -1682.35951403     A.U. after   16 cycles
 Normal termination of Gaussian 16 at Tue Apr  8 23:12:52 2025.
 Gaussian 16:  ES64L-G16RevC.01  3-Jul-2019

 ----------------------------------------------------------------------
 #t hf aug-cc-pvdz iop(5/13=1,5/36=2,99/5=2) pseudo=read geom=check gue
 ss=(read,tcheck) scf=(maxcycle=1)
 ----------------------------------------------------------------------
 -----
 title
 -----
 Structure from the checkpoint file:  "BDE49_expt_773_mol1.chk"
 Charge =  0 Multiplicity = 1

                         Standard orientation:
 ---------------------------------------------------------------------
 Center     Atomic      Atomic             Coordinates (Angstroms)
 Number     Number       Type             X           Y           Z
 ---------------------------------------------------------------------
      1          6           0        0.000000    1.186335    0.000000
      2          6           0       -1.189607    0.445554    0.000000
      3          6           0       -1.206616   -0.942540    0.000000
      4          6           0        0.007277   -1.617164    0.000000
      5          6           0        1.213802   -0.925772    0.000000
      6          6           0        1.201950    0.463040    0.000000
      7          8           0        0.037783    2.532049    0.000000
      8          1           0       -0.868818    2.869337    0.000000
      9         17           0        0.018249   -3.368685    0.000000
     10         17           0        2.709628    1.336776    0.000000
     11         17           0       -2.704644    1.334965    0.000000
     12          1           0       -2.144846   -1.478618    0.000000
     13          1           0        2.155599   -1.455781    0.000000
 ---------------------------------------------------------------------

 SCF Done:  E(RHF) =  -1682.88744343     A.U. after    2 cycles

 The electronic state is 1-A'.
 Alpha  occ. eigenvalues -- -105.60675-105.58882-105.58698 -20.60971 -11.35581
 Alpha  occ. eigenvalues --  -11.33923 -11.33361 -11.33164 -11.29158 -11.28854
 Alpha  occ. eigenvalues --  -10.65458 -10.63664 -10.63479  -7.82419  -7.82044
 Alpha  occ. eigenvalues --   -7.81995  -7.80634  -7.80454  -7.80228  -7.80207
 Alpha  occ. eigenvalues --   -7.80034  -7.80021  -1.53196  -1.22717  -1.15397
 Alpha  occ. eigenvalues --   -1.14029  -1.06613  -1.01540  -1.00601  -0.87423
 Alpha  occ. eigenvalues --   -0.84930  -0.78318  -0.73977  -0.67818  -0.65170
 Alpha  occ. eigenvalues --   -0.64278  -0.63348  -0.61371  -0.57729  -0.56616
 Alpha  occ. eigenvalues --   -0.55206  -0.53913  -0.52009  -0.50477  -0.48634
 Alpha  occ. eigenvalues --   -0.47458  -0.46359  -0.37418  -0.34568
 Alpha virt. eigenvalues --    0.03686   0.04425   0.04470   0.06439   0.07767
 Alpha virt. eigenvalues --    0.07982   0.08620   0.08803   0.09591   0.10262
 Alpha virt. eigenvalues --    0.12101   0.12477   0.13361   0.13784   0.13993

 Mulliken charges:
               1
     1  C    1.672447
     2  C   -0.172712
     3  C    0.309895
     4  C    0.205949
     5  C    0.348986
     6  C    0.278795
     7  O   -1.828421
     8  H    0.444718
     9  Cl  -0.326142
    10  Cl  -0.293592
    11  Cl  -0.414807
    12  H   -0.111849
    13  H   -0.113268
 Sum of Mulliken charges =  -0.00000

 Dipole moment (field-independent basis, Debye):
    X=             -1.4076    Y=              0.1074    Z=              0.0000  Tot=              1.4117

 Test job not archived.
 1\1\GINC-SE045\SP\RHF\Aug-CC-pVDZ\C6H3Cl3O1\OHZDE\08-Apr-2025\0\\#t hf
  aug-cc-pvdz iop(5/13=1,5/36=2,99/5=2) pseudo=read geom=check guess=(r
 ead,tcheck) scf=(maxcycle=1)\\title\\0,1\C,0,0.,1.186335,0.\C,0,-1.189
 607,0.445554,0.\C,0,-1.206616,-0.94254,0.\C,0,0.007277,-1.617164,0.\C,
 0,1.213802,-0.925772,0.\C,0,1.20195,0.46304,0.\O,0,0.037783,2.532049,0
 .\H,0,-0.868818,2.869337,0.\Cl,0,0.01825,-3.368685,0.\Cl,0,2.709628,1.
 336776,0.\Cl,0,-2.704644,1.334965,0.\H,0,-2.144846,-1.478618,0.\H,0,2.
 155599,-1.455781,0.\\Version=ES64L-G16RevC.01\State=1-A'\HF=-1682.8874

 Normal termination of Gaussian 16 at Tue Apr  8 23:13:01 2025.
