 Gaussian 16, Revision C.01,

 ----------------------------------------------------------------------
 #t hf aug-cc-pvdz symm=none int=(grid=ultrafine) guess=(read,tcheck) s
 table=opt
 ----------------------------------------------------------------------
 -----
 title
 -----
 Symbolic Z-matrix:
 Charge =  0 Multiplicity = 2

 SCF Done:  E(UHF) =  -666.996109421     A.U. after   25 cycles
 Normal termination of Gaussian 16 at Tue Apr  8 23:22:57 2025.
 Gaussian 16:  ES64L-G16RevC.01  3-Jul-2019

 ----------------------------------------------------------------------
 #t hf aug-cc-pvdz iop(5/13=1,5/36=2,99/5=2) pseudo=read geom=check gue
 ss=(read,tcheck) scf=(maxcycle=1)
 ----------------------------------------------------------------------
 -----
 title
 -----
 Structure from the checkpoint file:  "BDE49_nonexpt_1196_mol2.chk"
 Charge =  0 Multiplicity = 2

                         Standard orientation:
 ---------------------------------------------------------------------
 Center     Atomic      Atomic             Coordinates (Angstroms)
 Number     Number       Type             X           Y           Z
 ---------------------------------------------------------------------
      1         16           0        2.729608    0.022604   -0.411065
      2          6           0        1.095117   -0.150360    0.246058
      3          8           0        0.844840   -1.256092    0.674898
      4          6           0        0.158949    1.034484    0.267445
      5          6           0       -1.302120    0.674247    0.565714
      6          1           0        0.256033    1.563623   -0.687268
      7          1           0        0.553865    1.716154    1.031064
      8          6           0       -2.003922   -0.065686   -0.579780
      9          1           0       -1.842691    1.601108    0.786398
     10          1           0       -1.340083    0.064584    1.473474
     11          6           0       -3.466420   -0.390523   -0.264957
     12          1           0       -1.463642   -0.992407   -0.795708
     13          1           0       -1.952365    0.546012   -1.488945
     14          1           0       -3.546339   -1.030203    0.619052
     15          1           0       -3.943905   -0.914078   -1.097148
     16          1           0       -4.042940    0.519316   -0.069942
 ---------------------------------------------------------------------

 SCF Done:  E(UHF) =  -667.331935356     A.U. after    2 cycles

 The electronic state is 2-A.
 Alpha  occ. eigenvalues --  -93.99414 -20.55475 -11.38155 -11.26831 -11.24390
 Alpha  occ. eigenvalues --  -11.23329 -11.22660  -8.27619  -6.26796  -6.24992
 Alpha  occ. eigenvalues --   -6.24703  -1.49554  -1.10920  -1.07147  -1.01116
 Alpha  occ. eigenvalues --   -0.90453  -0.81640  -0.74996  -0.68221  -0.64520
 Alpha  occ. eigenvalues --   -0.63764  -0.62424  -0.58847  -0.56072  -0.54591
 Alpha  occ. eigenvalues --   -0.52722  -0.50267  -0.48328  -0.48037  -0.46890
 Alpha  occ. eigenvalues --   -0.42046  -0.41003
 Alpha virt. eigenvalues --    0.03215   0.03713   0.03942   0.04882   0.06122
 Alpha virt. eigenvalues --    0.06590   0.07027   0.07240   0.08765   0.09621
 Alpha virt. eigenvalues --    0.11188   0.11699   0.11779   0.13099   0.13798

  Beta  occ. eigenvalues --  -93.98491 -20.55276 -11.38267 -11.26826 -11.24376
  Beta  occ. eigenvalues --  -11.23330 -11.22660  -8.26559  -6.24481  -6.24124
  Beta  occ. eigenvalues --   -6.22707  -1.49022  -1.10337  -1.03792  -0.97984
  Beta  occ. eigenvalues --   -0.89465  -0.81370  -0.74154  -0.67019  -0.64438
  Beta  occ. eigenvalues --   -0.62880  -0.61870  -0.58435  -0.55644  -0.54314
  Beta  occ. eigenvalues --   -0.52615  -0.49753  -0.48312  -0.47990  -0.41220
  Beta  occ. eigenvalues --   -0.38769
  Beta virt. eigenvalues --   -0.01089   0.03304   0.03716   0.04028   0.04904
  Beta virt. eigenvalues --    0.06168   0.06748   0.07054   0.07411   0.08803
  Beta virt. eigenvalues --    0.09687   0.11271   0.11652   0.12313   0.13277

 Mulliken charges and spin densities:
               1          2
     1  S    0.291424   1.098104
     2  C    0.735900  -0.115588
     3  O   -1.221771   0.013336
     4  C   -0.436793   0.005261
     5  C   -0.166315  -0.004608
     6  H    0.233709   0.002390
     7  H    0.291147   0.000027
     8  C   -0.235816   0.002265
     9  H    0.119702   0.000054
    10  H    0.132227  -0.000641
    11  C   -0.420691  -0.000964
    12  H    0.114744   0.001016
    13  H    0.112548  -0.000636
    14  H    0.165395   0.000021
    15  H    0.118577  -0.000053
    16  H    0.166012   0.000017
 Sum of Mulliken charges =   0.00000   1.00000

 Dipole moment (field-independent basis, Debye):
    X=             -1.0096    Y=              2.6009    Z=             -0.5033  Tot=              2.8351
                          Isotropic Fermi Contact Couplings
        Atom                 a.u.       MegaHertz       Gauss      10(-4) cm-1
     1  S(33)              0.20371      69.96906      24.96670      23.33917
     2  C(13)             -0.01771     -19.90586      -7.10291      -6.63988
     3  O(17)              0.02670     -16.18468      -5.77510      -5.39863
     4  C(13)              0.00100       1.12575       0.40169       0.37551
     5  C(13)              0.00262       2.94562       1.05107       0.98255
     6  H(1)               0.00049       2.21172       0.78920       0.73775
     7  H(1)              -0.00021      -0.92732      -0.33089      -0.30932
     8  C(13)             -0.00017      -0.18995      -0.06778      -0.06336

 Normal termination of Gaussian 16 at Tue Apr  8 23:23:04 2025.
