 Gaussian 16, Revision C.01,

 ----------------------------------------------------------------------
 #t hf aug-cc-pvdz symm=none int=(grid=ultrafine) guess=(read,tcheck) s
 table=(opt,rrhf)
 ----------------------------------------------------------------------
 -----
 title
 -----
 Symbolic Z-matrix:
 Charge =  0 Multiplicity = 1

 SCF Done:  E(RHF) =  -916.538802053     A.U. after   13 cycles
 Normal termination of Gaussian 16 at Wed Apr  9 00:15:21 2025.
 Gaussian 16:  ES64L-G16RevC.01  3-Jul-2019

 ----------------------------------------------------------------------
 #t hf aug-cc-pvdz iop(5/13=1,5/36=2,99/5=2) pseudo=read geom=check gue
 ss=(read,tcheck) scf=(maxcycle=1)
 ----------------------------------------------------------------------
 -----
 title
 -----
 Structure from the checkpoint file:  "BDE49_nonexpt_2496_mol1.chk"
 Charge =  0 Multiplicity = 1

                         Standard orientation:
 ---------------------------------------------------------------------
 Center     Atomic      Atomic             Coordinates (Angstroms)
 Number     Number       Type             X           Y           Z
 ---------------------------------------------------------------------
      1         16           0       -0.723308   -0.233583    0.000001
      2         14           0        1.260951    0.828549   -0.000002
      3          6           0       -2.022997    1.018762    0.000009
      4          8           0       -0.824356   -0.957683    1.265727
      5          8           0       -0.824365   -0.957677   -1.265727
      6          1           0       -1.937957    1.623202    0.902788
      7          1           0       -2.964201    0.465613    0.000011
      8          1           0       -1.937964    1.623207   -0.902767
      9          6           0        2.524887   -0.541576   -0.000008
     10          1           0        2.403703   -1.168029    0.886201
     11          1           0        3.536416   -0.126492   -0.000008
     12          1           0        2.403700   -1.168023   -0.886222
     13          1           0        1.297174    1.673966    1.213264
     14          1           0        1.297167    1.673970   -1.213266
 ---------------------------------------------------------------------

 SCF Done:  E(RHF) =  -916.873796683     A.U. after    2 cycles

 The electronic state is 1-A.
 Alpha  occ. eigenvalues --  -94.16388 -69.57655 -20.52393 -20.52389 -11.28440
 Alpha  occ. eigenvalues --  -11.24518  -8.42038  -6.40120  -6.39895  -6.39811
 Alpha  occ. eigenvalues --   -6.24667  -4.00049  -3.99944  -3.99941  -1.53270
 Alpha  occ. eigenvalues --   -1.41738  -1.05340  -0.98465  -0.87609  -0.74884
 Alpha  occ. eigenvalues --   -0.66784  -0.65391  -0.65142  -0.60099  -0.60076
 Alpha  occ. eigenvalues --   -0.59529  -0.57786  -0.51827  -0.50024  -0.48115
 Alpha  occ. eigenvalues --   -0.47048  -0.44803  -0.39641
 Alpha virt. eigenvalues --    0.02612   0.03253   0.04625   0.04759   0.05898
 Alpha virt. eigenvalues --    0.06370   0.06806   0.07568   0.08684   0.08776
 Alpha virt. eigenvalues --    0.10943   0.11320   0.12923   0.13758   0.13760

 Mulliken charges:
               1
     1  S    2.457810
     2  Si   1.350794
     3  C   -0.797977
     4  O   -1.445739
     5  O   -1.445739
     6  H    0.194740
     7  H    0.227839
     8  H    0.194739
     9  C   -0.649038
    10  H    0.125776
    11  H   -0.008975
    12  H    0.125779
    13  H   -0.165004
    14  H   -0.165005
 Sum of Mulliken charges =  -0.00000

 Dipole moment (field-independent basis, Debye):
    X=              1.8571    Y=              4.4359    Z=              0.0000  Tot=              4.8089

 Test job not archived.
 1\1\GINC-SE165\SP\RHF\Aug-CC-pVDZ\C2H8O2S1Si1\OHZDE\09-Apr-2025\0\\#t
 hf aug-cc-pvdz iop(5/13=1,5/36=2,99/5=2) pseudo=read geom=check guess=
 (read,tcheck) scf=(maxcycle=1)\\title\\0,1\S,0,-0.723308,-0.233583,0.0
 00001\Si,0,1.260951,0.828549,-0.000002\C,0,-2.022997,1.018762,0.000009
 \O,0,-0.824356,-0.957683,1.265727\O,0,-0.824365,-0.957677,-1.265727\H,
 0,-1.937957,1.623202,0.902788\H,0,-2.964201,0.465614,0.000011\H,0,-1.9
 37964,1.623207,-0.902767\C,0,2.524887,-0.541576,-0.000008\H,0,2.403703
 ,-1.168029,0.886201\H,0,3.536416,-0.126493,-0.000008\H,0,2.4037,-1.168

 Normal termination of Gaussian 16 at Wed Apr  9 00:15:26 2025.
