 Gaussian 16, Revision C.01,

 ----------------------------------------------------------------------
 #t hf aug-cc-pvdz symm=none int=(grid=ultrafine) guess=(read,tcheck) s
 table=(opt,rrhf)
 ----------------------------------------------------------------------
 -----
 title
 -----
 Symbolic Z-matrix:
 Charge =  0 Multiplicity = 1

 SCF Done:  E(RHF) =  -410.648238793     A.U. after   12 cycles
 Normal termination of Gaussian 16 at Wed Apr  9 00:45:27 2025.
 Gaussian 16:  ES64L-G16RevC.01  3-Jul-2019

 ----------------------------------------------------------------------
 #t hf aug-cc-pvdz iop(5/13=1,5/36=2,99/5=2) pseudo=read geom=check gue
 ss=(read,tcheck) scf=(maxcycle=1)
 ----------------------------------------------------------------------
 -----
 title
 -----
 Structure from the checkpoint file:  "BDE49_nonexpt_792_mol1.chk"
 Charge =  0 Multiplicity = 1

                         Standard orientation:
 ---------------------------------------------------------------------
 Center     Atomic      Atomic             Coordinates (Angstroms)
 Number     Number       Type             X           Y           Z
 ---------------------------------------------------------------------
      1          5           0       -0.541009    0.075598    0.000004
      2          7           0       -1.083715    1.361191   -0.000008
      3         14           0        1.487962   -0.103115   -0.000001
      4          6           0       -1.486066   -1.190237    0.000008
      5          1           0       -2.554236   -0.942766    0.000007
      6          1           0       -1.291866   -1.824323    0.873140
      7          1           0       -1.291866   -1.824330   -0.873119
      8          1           0       -0.530349    2.204312   -0.000016
      9          1           0       -2.080192    1.535039   -0.000010
     10          1           0        2.169399    1.222110   -0.000012
     11          1           0        1.977543   -0.845683   -1.192828
     12          1           0        1.977549   -0.845666    1.192835
 ---------------------------------------------------------------------

 SCF Done:  E(RHF) =  -410.814143274     A.U. after    2 cycles

 The electronic state is 1-A.
 Alpha  occ. eigenvalues --  -69.50035 -15.50155 -11.20402  -7.58314  -6.17339
 Alpha  occ. eigenvalues --   -3.92701  -3.92699  -3.92640  -1.17142  -0.94754
 Alpha  occ. eigenvalues --   -0.76243  -0.72485  -0.69903  -0.56391  -0.55424
 Alpha  occ. eigenvalues --   -0.51682  -0.48093  -0.47015  -0.46447  -0.40262
 Alpha virt. eigenvalues --    0.02977   0.04460   0.04775   0.05264   0.05983
 Alpha virt. eigenvalues --    0.06699   0.07258   0.07352   0.08348   0.09796
 Alpha virt. eigenvalues --    0.10131   0.10928   0.11026   0.11310   0.12537

 Mulliken charges:
               1
     1  B    0.129656
     2  N    0.199599
     3  Si   0.417174
     4  C   -0.399252
     5  H   -0.033852
     6  H    0.072021
     7  H    0.072021
     8  H   -0.033888
     9  H   -0.060545
    10  H   -0.139994
    11  H   -0.111470
    12  H   -0.111470
 Sum of Mulliken charges =  -0.00000

 Dipole moment (field-independent basis, Debye):
    X=             -1.6304    Y=              1.0158    Z=             -0.0000  Tot=              1.9210

 Test job not archived.
 1\1\GINC-SE159\SP\RHF\Aug-CC-pVDZ\C1H8B1N1Si1\OHZDE\09-Apr-2025\0\\#t
 hf aug-cc-pvdz iop(5/13=1,5/36=2,99/5=2) pseudo=read geom=check guess=
 (read,tcheck) scf=(maxcycle=1)\\title\\0,1\B,0,-0.541009,0.075598,0.00
 0004\N,0,-1.083716,1.361191,-0.000008\Si,0,1.487962,-0.103114,-0.00000
 1\C,0,-1.486066,-1.190237,0.000008\H,0,-2.554236,-0.942767,0.000007\H,
 0,-1.291865,-1.824323,0.87314\H,0,-1.291865,-1.82433,-0.873119\H,0,-0.
 53035,2.204312,-0.000016\H,0,-2.080193,1.535038,-0.00001\H,0,2.169398,
 1.222111,-0.000012\H,0,1.977543,-0.845682,-1.192828\H,0,1.977549,-0.84

 Normal termination of Gaussian 16 at Wed Apr  9 00:45:32 2025.
