 Gaussian 16, Revision C.01,

 ----------------------------------------------------------------------
 #t hf aug-cc-pvdz symm=none int=(grid=ultrafine) guess=(read,tcheck) s
 table=(opt,rrhf)
 ----------------------------------------------------------------------
 -----
 title
 -----
 Symbolic Z-matrix:
 Charge =  0 Multiplicity = 1

 SCF Done:  E(RHF) =  -524.370545194     A.U. after   12 cycles
 Normal termination of Gaussian 16 at Wed Apr  9 00:35:16 2025.
 Gaussian 16:  ES64L-G16RevC.01  3-Jul-2019

 ----------------------------------------------------------------------
 #t hf aug-cc-pvdz iop(5/13=1,5/36=2,99/5=2) pseudo=read geom=check gue
 ss=(read,tcheck) scf=(maxcycle=1)
 ----------------------------------------------------------------------
 -----
 title
 -----
 Structure from the checkpoint file:  "BDE49_nonexpt_462_mol1.chk"
 Charge =  0 Multiplicity = 1

                         Standard orientation:
 ---------------------------------------------------------------------
 Center     Atomic      Atomic             Coordinates (Angstroms)
 Number     Number       Type             X           Y           Z
 ---------------------------------------------------------------------
      1          1           0       -1.637919   -1.598449    0.000024
      2          1           0       -2.877694    0.053241    0.000054
      3          5           0       -1.781956   -0.419858   -0.000050
      4          6           0       -0.594185    0.581293   -0.000007
      5         17           0        1.076623   -0.136837    0.000012
      6          1           0       -0.656055    1.241469    0.872143
      7          1           0       -0.656024    1.241495   -0.872140
 ---------------------------------------------------------------------

 SCF Done:  E(RHF) =  -524.518817860     A.U. after    2 cycles

 The electronic state is 1-A.
 Alpha  occ. eigenvalues -- -105.55361 -11.29094 -10.60135  -7.77074  -7.76704
 Alpha  occ. eigenvalues --   -7.76702  -7.61853  -1.09023  -0.91786  -0.70999
 Alpha  occ. eigenvalues --   -0.62194  -0.58578  -0.53771  -0.49332  -0.44326
 Alpha  occ. eigenvalues --   -0.43472
 Alpha virt. eigenvalues --    0.03116   0.03285   0.04192   0.05017   0.06120
 Alpha virt. eigenvalues --    0.08557   0.09391   0.10533   0.11029   0.13672
 Alpha virt. eigenvalues --    0.15389   0.16429   0.16654   0.17784   0.18135

 Mulliken charges:
               1
     1  H    0.216819
     2  H    0.154270
     3  B   -0.062915
     4  C   -0.552514
     5  Cl  -0.206698
     6  H    0.225510
     7  H    0.225528
 Sum of Mulliken charges =  -0.00000

 Dipole moment (field-independent basis, Debye):
    X=             -1.9812    Y=              1.0924    Z=             -0.0002  Tot=              2.2624

 Test job not archived.
 1\1\GINC-SE109\SP\RHF\Aug-CC-pVDZ\C1H4B1Cl1\OHZDE\09-Apr-2025\0\\#t hf
  aug-cc-pvdz iop(5/13=1,5/36=2,99/5=2) pseudo=read geom=check guess=(r
 ead,tcheck) scf=(maxcycle=1)\\title\\0,1\H,0,-1.637919,-1.598449,0.000
 024\H,0,-2.877694,0.053241,0.000054\B,0,-1.781956,-0.419858,-0.00005\C
 ,0,-0.594185,0.581293,-0.000007\Cl,0,1.076623,-0.136837,0.000012\H,0,-
 0.656055,1.241469,0.872143\H,0,-0.656024,1.241495,-0.87214\\Version=ES
 64L-G16RevC.01\State=1-A\HF=-524.5188179\RMSD=5.065e-03\Dipole=-0.7794
 474,0.4297988,-0.0000665\Quadrupole=-1.1998695,0.1288989,1.0709706,-0.

 Normal termination of Gaussian 16 at Wed Apr  9 00:35:18 2025.
