 Gaussian 16, Revision C.01,

 ----------------------------------------------------------------------
 #t hf aug-cc-pvdz symm=none int=(grid=ultrafine) guess=(read,tcheck) s
 table=(opt,rrhf)
 ----------------------------------------------------------------------
 -----
 title
 -----
 Symbolic Z-matrix:
 Charge =  0 Multiplicity = 1

 SCF Done:  E(RHF) =  -1375.27930009     A.U. after   13 cycles
 Normal termination of Gaussian 16 at Wed Apr  9 00:51:09 2025.
 Gaussian 16:  ES64L-G16RevC.01  3-Jul-2019

 ----------------------------------------------------------------------
 #t hf aug-cc-pvdz iop(5/13=1,5/36=2,99/5=2) pseudo=read geom=check gue
 ss=(read,tcheck) scf=(maxcycle=1)
 ----------------------------------------------------------------------
 -----
 title
 -----
 Structure from the checkpoint file:  "BDE49_nonexpt_911_mol1.chk"
 Charge =  0 Multiplicity = 1

                         Standard orientation:
 ---------------------------------------------------------------------
 Center     Atomic      Atomic             Coordinates (Angstroms)
 Number     Number       Type             X           Y           Z
 ---------------------------------------------------------------------
      1         16           0       -0.219640   -0.802948   -0.553072
      2          5           0        1.322020   -0.065127    0.020361
      3         16           0        2.880141   -0.992915   -0.181425
      4          6           0       -1.569708    0.445881   -0.227443
      5          6           0       -1.690207    1.419172   -1.400306
      6          1           0       -0.754630    1.950580   -1.580662
      7          1           0       -2.467636    2.160993   -1.188995
      8          1           0       -1.963797    0.891175   -2.317512
      9          6           0       -2.880370   -0.309326    0.040986
     10          6           0       -2.911993   -1.104095    1.348119
     11          1           0       -3.094660   -0.968965   -0.808025
     12          1           0       -3.681795    0.438864    0.052431
     13          1           0       -2.147008   -1.883331    1.362451
     14          1           0       -3.884075   -1.584788    1.483801
     15          1           0       -2.739921   -0.451325    2.209269
     16          1           0       -1.280934    0.983044    0.679228
     17         16           0        1.380056    1.580517    0.807074
     18          1           0        2.702039    1.611630    1.050485
     19          1           0        2.367084   -2.086505   -0.773633
 ---------------------------------------------------------------------

 SCF Done:  E(RHF) =  -1375.65847824     A.U. after    2 cycles

 The electronic state is 1-A.
 Alpha  occ. eigenvalues --  -93.95967 -93.95619 -93.94436 -11.28453 -11.24472
 Alpha  occ. eigenvalues --  -11.23732 -11.22873  -8.24259  -8.23901  -8.22776
 Alpha  occ. eigenvalues --   -7.67546  -6.22099  -6.21957  -6.21786  -6.21744
 Alpha  occ. eigenvalues --   -6.21601  -6.21426  -6.20582  -6.20420  -6.20292
 Alpha  occ. eigenvalues --   -1.12088  -1.06073  -1.00867  -1.00491  -0.96797
 Alpha  occ. eigenvalues --   -0.87443  -0.79125  -0.68422  -0.63328  -0.61731
 Alpha  occ. eigenvalues --   -0.60931  -0.58947  -0.58516  -0.54478  -0.53452
 Alpha  occ. eigenvalues --   -0.50779  -0.50235  -0.49298  -0.47965  -0.45690
 Alpha  occ. eigenvalues --   -0.45252  -0.42817  -0.38042  -0.36442
 Alpha virt. eigenvalues --    0.03527   0.03768   0.03910   0.04005   0.05372
 Alpha virt. eigenvalues --    0.05922   0.06329   0.06536   0.06812   0.08235
 Alpha virt. eigenvalues --    0.08819   0.08947   0.10097   0.10259   0.10274

 Mulliken charges:
               1
     1  S   -0.041196
     2  B    1.167006
     3  S   -0.785071
     4  C   -0.792714
     5  C   -0.426896
     6  H    0.098660
     7  H    0.159218
     8  H    0.239971
     9  C   -0.127983
    10  C   -0.389283
    11  H    0.149729
    12  H    0.181495
    13  H    0.208286
    14  H    0.116399
    15  H    0.170828
    16  H    0.133497
    17  S   -0.625030
    18  H    0.286345
    19  H    0.276739
 Sum of Mulliken charges =  -0.00000

 Dipole moment (field-independent basis, Debye):
    X=             -1.4510    Y=              0.4473    Z=              0.0117  Tot=              1.5184

 Test job not archived.
 1\1\GINC-SE340\SP\RHF\Aug-CC-pVDZ\C4H11B1S3\OHZDE\09-Apr-2025\0\\#t hf
  aug-cc-pvdz iop(5/13=1,5/36=2,99/5=2) pseudo=read geom=check guess=(r
 ead,tcheck) scf=(maxcycle=1)\\title\\0,1\S,0,-0.21964,-0.802948,-0.553
 072\B,0,1.32202,-0.065127,0.020361\S,0,2.880141,-0.992915,-0.181425\C,
 0,-1.569708,0.445881,-0.227443\C,0,-1.690207,1.419172,-1.400306\H,0,-0
 .75463,1.95058,-1.580662\H,0,-2.467636,2.160993,-1.188995\H,0,-1.96379
 7,0.891175,-2.317512\C,0,-2.88037,-0.309326,0.040986\C,0,-2.911993,-1.
 104095,1.348119\H,0,-3.09466,-0.968965,-0.808025\H,0,-3.681795,0.43886

 Normal termination of Gaussian 16 at Wed Apr  9 00:51:18 2025.
