 Gaussian 16, Revision C.01,

 ----------------------------------------------------------------------
 #t hf aug-cc-pvdz symm=none int=(grid=ultrafine) guess=(read,tcheck) s
 table=opt
 ----------------------------------------------------------------------
 -----
 title
 -----
 Symbolic Z-matrix:
 Charge =  0 Multiplicity = 2

 SCF Done:  E(UHF) =  -496.925051739     A.U. after   15 cycles
 Normal termination of Gaussian 16 at Tue Apr  8 22:58:38 2025.
 Gaussian 16:  ES64L-G16RevC.01  3-Jul-2019

 ----------------------------------------------------------------------
 #t hf aug-cc-pvdz iop(5/13=1,5/36=2,99/5=2) pseudo=read geom=check gue
 ss=(read,tcheck) scf=(maxcycle=1)
 ----------------------------------------------------------------------
 -----
 title
 -----
 Structure from the checkpoint file:  "BDE49_expt_1952_mol2.chk"
 Charge =  0 Multiplicity = 2

                         Standard orientation:
 ---------------------------------------------------------------------
 Center     Atomic      Atomic             Coordinates (Angstroms)
 Number     Number       Type             X           Y           Z
 ---------------------------------------------------------------------
      1         16           0        0.000000    0.000000    0.590216
      2          9           0        0.000000    0.000000   -1.049272
 ---------------------------------------------------------------------

 SCF Done:  E(UHF) =  -497.064437356     A.U. after    2 cycles

 Unable to determine electronic state:  an orbital has unidentified symmetry.
 Alpha  occ. eigenvalues --  -94.07060 -26.50155  -8.34314  -6.33340  -6.31702
 Alpha  occ. eigenvalues --   -6.31148  -1.60937  -1.01138  -0.69878  -0.68305
 Alpha  occ. eigenvalues --   -0.66091  -0.48076  -0.41867
 Alpha virt. eigenvalues --    0.04832   0.10091   0.10609   0.11083   0.16436
 Alpha virt. eigenvalues --    0.25518   0.28478   0.29066   0.33068   0.33157
 Alpha virt. eigenvalues --    0.42005   0.44581   0.44870   0.56895   0.76071

  Beta  occ. eigenvalues --  -94.06146 -26.49708  -8.33267  -6.31295  -6.30603
  Beta  occ. eigenvalues --   -6.29178  -1.59641  -0.92571  -0.67754  -0.64631
  Beta  occ. eigenvalues --   -0.63817  -0.39823
  Beta virt. eigenvalues --   -0.01837   0.05836   0.10982   0.11213   0.12517
  Beta virt. eigenvalues --    0.17607   0.25906   0.28995   0.29094   0.36916
  Beta virt. eigenvalues --    0.37024   0.44794   0.45101   0.46072   0.58235

 Mulliken charges and spin densities:
               1          2
     1  S    0.560418   0.977697
     2  F   -0.560418   0.022303
 Sum of Mulliken charges =  -0.00000   1.00000

 Dipole moment (field-independent basis, Debye):
    X=              0.0000    Y=              0.0000    Z=              1.1168  Tot=              1.1168
                          Isotropic Fermi Contact Couplings
        Atom                 a.u.       MegaHertz       Gauss      10(-4) cm-1
     1  S(33)              0.20657      70.95202      25.31745      23.66705
     2  F(19)              0.04782     201.21561      71.79873      67.11830
 --------------------------------------------------------
       Center         ----  Spin Dipole Couplings  ----
                      3XX-RR        3YY-RR        3ZZ-RR
 --------------------------------------------------------
     1   Atom       -0.630919      2.862652     -2.231733
     2   Atom       -0.085514      0.381086     -0.295572

 Normal termination of Gaussian 16 at Tue Apr  8 22:58:39 2025.
