 Gaussian 16, Revision C.01,

 ----------------------------------------------------------------------
 #t hf aug-cc-pvdz symm=none int=(grid=ultrafine) guess=(read,tcheck) s
 table=(opt,rrhf)
 ----------------------------------------------------------------------
 -----
 title
 -----
 Symbolic Z-matrix:
 Charge =  0 Multiplicity = 1

 SCF Done:  E(RHF) =  -841.441918811     A.U. after   16 cycles
 Normal termination of Gaussian 16 at Tue Apr  8 22:49:52 2025.
 Gaussian 16:  ES64L-G16RevC.01  3-Jul-2019

 ----------------------------------------------------------------------
 #t hf aug-cc-pvdz iop(5/13=1,5/36=2,99/5=2) pseudo=read geom=check gue
 ss=(read,tcheck) scf=(maxcycle=1)
 ----------------------------------------------------------------------
 -----
 title
 -----
 Structure from the checkpoint file:  "BDE49_expt_1679_mol1.chk"
 Charge =  0 Multiplicity = 1

                         Standard orientation:
 ---------------------------------------------------------------------
 Center     Atomic      Atomic             Coordinates (Angstroms)
 Number     Number       Type             X           Y           Z
 ---------------------------------------------------------------------
      1          6           0        0.987858   -1.208970   -0.000015
      2          6           0       -0.402605   -1.162476   -0.000057
      3          6           0       -1.079836    0.062385   -0.000070
      4          6           0       -0.332700    1.247657   -0.000034
      5          6           0        1.053909    1.217846    0.000009
      6          6           0        1.703018   -0.015745    0.000018
      7          1           0        1.512731   -2.155293   -0.000007
      8          1           0       -0.952379   -2.095466   -0.000081
      9          1           0        1.631438    2.133162    0.000035
     10         17           0        3.454398   -0.064831    0.000072
     11          6           0       -2.577458    0.169382   -0.000123
     12          8           0       -3.116659    1.257832    0.000036
     13          6           0       -3.401554   -1.105113    0.000013
     14          1           0       -3.182315   -1.713650   -0.882231
     15          1           0       -4.456066   -0.835284    0.000108
     16          1           0       -3.182141   -1.713589    0.882257
     17          1           0       -0.866552    2.189795   -0.000044
 ---------------------------------------------------------------------

 SCF Done:  E(RHF) =  -841.904564958     A.U. after    2 cycles

 The electronic state is 1-A.
 Alpha  occ. eigenvalues -- -105.58368 -20.54083 -11.35198 -11.32963 -11.27767
 Alpha  occ. eigenvalues --  -11.27008 -11.26909 -11.26772 -11.26580 -11.25298
 Alpha  occ. eigenvalues --  -10.63165  -7.80132  -7.79729  -7.79715  -1.47563
 Alpha  occ. eigenvalues --   -1.19976  -1.11699  -1.05148  -1.03719  -0.99429
 Alpha  occ. eigenvalues --   -0.87293  -0.86364  -0.78705  -0.71693  -0.69089
 Alpha  occ. eigenvalues --   -0.66449  -0.64543  -0.62978  -0.61877  -0.61868
 Alpha  occ. eigenvalues --   -0.56952  -0.56577  -0.54706  -0.53614  -0.51963
 Alpha  occ. eigenvalues --   -0.48050  -0.47599  -0.42427  -0.37394  -0.35813
 Alpha virt. eigenvalues --    0.02906   0.03636   0.03992   0.04272   0.05670
 Alpha virt. eigenvalues --    0.05836   0.05903   0.07985   0.08524   0.08781
 Alpha virt. eigenvalues --    0.09716   0.10818   0.11143   0.12110   0.13209

 Mulliken charges:
               1
     1  C    0.136152
     2  C    0.678377
     3  C    1.687455
     4  C   -0.151771
     5  C    0.374943
     6  C   -0.396875
     7  H   -0.181879
     8  H   -0.376176
     9  H   -0.190596
    10  Cl  -0.319521
    11  C    0.505382
    12  O   -1.467496
    13  C   -0.622988
    14  H    0.308671
    15  H    0.039876
    16  H    0.308654
    17  H   -0.332208
 Sum of Mulliken charges =   0.00000

 Dipole moment (field-independent basis, Debye):
    X=             -0.0245    Y=             -2.5225    Z=             -0.0002  Tot=              2.5226

 Test job not archived.
 1\1\GINC-SE226\SP\RHF\Aug-CC-pVDZ\C8H7Cl1O1\OHZDE\08-Apr-2025\0\\#t hf
  aug-cc-pvdz iop(5/13=1,5/36=2,99/5=2) pseudo=read geom=check guess=(r
 ead,tcheck) scf=(maxcycle=1)\\title\\0,1\C,0,0.987858,-1.20897,-0.0000
 15\C,0,-0.402605,-1.162476,-0.000057\C,0,-1.079836,0.062385,-0.00007\C
 ,0,-0.3327,1.247657,-0.000034\C,0,1.053909,1.217846,0.000009\C,0,1.703
 018,-0.015745,0.000018\H,0,1.512731,-2.155293,-0.000007\H,0,-0.952379,
 -2.095466,-0.000081\H,0,1.631438,2.133162,0.000035\Cl,0,3.454398,-0.06
 4831,0.000072\C,0,-2.577458,0.169382,-0.000123\O,0,-3.116659,1.257832,

 Normal termination of Gaussian 16 at Tue Apr  8 22:50:01 2025.
