 Gaussian 16, Revision C.01,

 ----------------------------------------------------------------------
 #t hf aug-cc-pvdz symm=none int=(grid=ultrafine) guess=(read,tcheck) s
 table=(opt,rrhf)
 ----------------------------------------------------------------------
 -----
 title
 -----
 Symbolic Z-matrix:
 Charge =  0 Multiplicity = 1

 SCF Done:  E(RHF) =  -666.397043708     A.U. after   15 cycles
 Normal termination of Gaussian 16 at Tue Apr  8 23:38:23 2025.
 Gaussian 16:  ES64L-G16RevC.01  3-Jul-2019

 ----------------------------------------------------------------------
 #t hf aug-cc-pvdz iop(5/13=1,5/36=2,99/5=2) pseudo=read geom=check gue
 ss=(read,tcheck) scf=(maxcycle=1)
 ----------------------------------------------------------------------
 -----
 title
 -----
 Structure from the checkpoint file:  "BDE49_nonexpt_1552_mol1.chk"
 Charge =  0 Multiplicity = 1

                         Standard orientation:
 ---------------------------------------------------------------------
 Center     Atomic      Atomic             Coordinates (Angstroms)
 Number     Number       Type             X           Y           Z
 ---------------------------------------------------------------------
      1          6           0        0.960210   -0.044278   -0.113761
      2          7           0       -1.869985    0.129684    0.175252
      3          6           0       -1.913192   -0.939575    1.170817
      4          1           0       -1.386768   -1.842837    0.839107
      5          1           0       -2.956849   -1.198467    1.378095
      6          1           0       -1.461443   -0.596040    2.103758
      7          8           0        0.800219   -1.152628   -0.576991
      8          6           0        2.327669    0.487644    0.299753
      9          6           0       -2.674226   -0.136526   -1.016948
     10          1           0       -2.627360    0.718650   -1.693410
     11          1           0       -3.720676   -0.286746   -0.728755
     12          1           0       -2.334841   -1.027465   -1.562116
     13          6           0        3.490932   -0.399326   -0.141441
     14          1           0        2.311815    0.596780    1.392046
     15          1           0        2.429651    1.507661   -0.091540
     16          1           0        3.374875   -1.412031    0.247695
     17          1           0        4.441508    0.003965    0.215174
     18          1           0        3.535614   -0.472432   -1.230157
     19         15           0       -0.517778    1.135896   -0.001988
     20          1           0       -0.299085    1.476117    1.358575
 ---------------------------------------------------------------------

 SCF Done:  E(RHF) =  -666.783137339     A.U. after    2 cycles

 The electronic state is 1-A.
 Alpha  occ. eigenvalues --  -84.29749 -20.54076 -15.49727 -11.33548 -11.26002
 Alpha  occ. eigenvalues --  -11.25918 -11.25166 -11.23097  -6.76532  -4.29620
 Alpha  occ. eigenvalues --   -4.28969  -4.28542  -1.47242  -1.21452  -1.06070
 Alpha  occ. eigenvalues --   -0.96598  -0.94343  -0.89256  -0.80804  -0.73226
 Alpha  occ. eigenvalues --   -0.66833  -0.64996  -0.64236  -0.63396  -0.63111
 Alpha  occ. eigenvalues --   -0.57969  -0.55759  -0.54738  -0.53435  -0.53182
 Alpha  occ. eigenvalues --   -0.51922  -0.51597  -0.49328  -0.42949  -0.38343
 Alpha  occ. eigenvalues --   -0.33170
 Alpha virt. eigenvalues --    0.03437   0.03997   0.04450   0.04656   0.05302
 Alpha virt. eigenvalues --    0.05426   0.06327   0.06532   0.06875   0.07559
 Alpha virt. eigenvalues --    0.08797   0.09126   0.10704   0.10931   0.11980

 Mulliken charges:
               1
     1  C    1.074252
     2  N    0.341497
     3  C   -0.529216
     4  H    0.240467
     5  H    0.056790
     6  H    0.055671
     7  O   -1.326912
     8  C   -0.847472
     9  C   -0.509880
    10  H    0.095592
    11  H    0.096204
    12  H    0.225693
    13  C   -0.250975
    14  H    0.240777
    15  H    0.241336
    16  H    0.178436
    17  H    0.132897
    18  H    0.163388
    19  P   -0.009299
    20  H    0.330755
 Sum of Mulliken charges =   0.00000

 Dipole moment (field-independent basis, Debye):
    X=              0.2180    Y=              1.0720    Z=              1.1971  Tot=              1.6217

 Test job not archived.
 1\1\GINC-SE072\SP\RHF\Aug-CC-pVDZ\C5H12N1O1P1\OHZDE\08-Apr-2025\0\\#t
 hf aug-cc-pvdz iop(5/13=1,5/36=2,99/5=2) pseudo=read geom=check guess=
 (read,tcheck) scf=(maxcycle=1)\\title\\0,1\C,0,-0.96021,0.044278,-0.11
 3761\N,0,1.869985,-0.129684,0.175252\C,0,1.913192,0.939575,1.170817\H,
 0,1.386768,1.842837,0.839107\H,0,2.956849,1.198467,1.378095\H,0,1.4614
 43,0.59604,2.103758\O,0,-0.800219,1.152628,-0.576991\C,0,-2.327669,-0.
 487644,0.299753\C,0,2.674226,0.136526,-1.016948\H,0,2.62736,-0.71865,-
 1.69341\H,0,3.720676,0.286746,-0.728755\H,0,2.334841,1.027465,-1.56211

 Normal termination of Gaussian 16 at Tue Apr  8 23:38:33 2025.
