 Gaussian 16, Revision C.01,

 ----------------------------------------------------------------------
 #t hf aug-cc-pvdz symm=none int=(grid=ultrafine) guess=(read,tcheck) s
 table=opt
 ----------------------------------------------------------------------
 -----
 title
 -----
 Symbolic Z-matrix:
 Charge =  0 Multiplicity = 2

 SCF Done:  E(UHF) =  -99.3810917930     A.U. after    9 cycles
 Normal termination of Gaussian 16 at Tue Apr  8 22:43:25 2025.
 Gaussian 16:  ES64L-G16RevC.01  3-Jul-2019

 ----------------------------------------------------------------------
 #t hf aug-cc-pvdz iop(5/13=1,5/36=2,99/5=2) pseudo=read geom=check gue
 ss=(read,tcheck) scf=(maxcycle=1)
 ----------------------------------------------------------------------
 -----
 title
 -----
 Structure from the checkpoint file:  "BDE49_expt_1496_mol3.chk"
 Charge =  0 Multiplicity = 2

                         Standard orientation:
 ---------------------------------------------------------------------
 Center     Atomic      Atomic             Coordinates (Angstroms)
 Number     Number       Type             X           Y           Z
 ---------------------------------------------------------------------
      1          9           0        0.000000    0.000000    0.000000
 ---------------------------------------------------------------------

 SCF Done:  E(UHF) =  -99.4636626761     A.U. after    2 cycles

 Unable to determine electronic state:  an orbital has unidentified symmetry.
 Alpha  occ. eigenvalues --  -26.58054  -1.63834  -0.81488  -0.70497  -0.70497
 Alpha virt. eigenvalues --    0.22454   0.22837   0.23825   0.23825   1.21765
 Alpha virt. eigenvalues --    1.22889   1.22889   1.26329   1.26329   1.55575
 Alpha virt. eigenvalues --    1.62361   1.62361   2.21939   4.89851   4.92154

  Beta  occ. eigenvalues --  -26.53195  -1.44848  -0.65345  -0.65345
  Beta virt. eigenvalues --    0.04442   0.23893   0.24154   0.24154   0.30126
  Beta virt. eigenvalues --    1.26404   1.26404   1.27450   1.27450   1.27889
  Beta virt. eigenvalues --    1.64850   1.64850   1.76742   2.27696   5.01389

 Mulliken charges and spin densities:
               1          2
     1  F   -0.000000   1.000000
 Sum of Mulliken charges =  -0.00000   1.00000

 Dipole moment (field-independent basis, Debye):
    X=             -0.0000    Y=             -0.0000    Z=             -0.0000  Tot=              0.0000
                          Isotropic Fermi Contact Couplings
        Atom                 a.u.       MegaHertz       Gauss      10(-4) cm-1
     1  F(19)              0.25398    1068.58950     381.29931     356.44309
 --------------------------------------------------------
       Center         ----  Spin Dipole Couplings  ----
                      3XX-RR        3YY-RR        3ZZ-RR
 --------------------------------------------------------
     1   Atom       -2.851800     -2.633008      5.484808
 --------------------------------------------------------
                        XY            XZ            YZ

 Normal termination of Gaussian 16 at Tue Apr  8 22:43:26 2025.
