 Gaussian 16, Revision C.01,

 ----------------------------------------------------------------------
 #t hf aug-cc-pvdz symm=none int=(grid=ultrafine) guess=(read,tcheck) s
 table=(opt,rrhf)
 ----------------------------------------------------------------------
 -----
 title
 -----
 Symbolic Z-matrix:
 Charge =  0 Multiplicity = 1

 SCF Done:  E(RHF) =  -795.947118868     A.U. after   20 cycles
 Normal termination of Gaussian 16 at Tue Apr  8 22:55:14 2025.
 Gaussian 16:  ES64L-G16RevC.01  3-Jul-2019

 ----------------------------------------------------------------------
 #t hf aug-cc-pvdz iop(5/13=1,5/36=2,99/5=2) pseudo=read geom=check gue
 ss=(read,tcheck) scf=(maxcycle=1)
 ----------------------------------------------------------------------
 -----
 title
 -----
 Structure from the checkpoint file:  "BDE49_expt_1828_mol1.chk"
 Charge =  0 Multiplicity = 1

                         Standard orientation:
 ---------------------------------------------------------------------
 Center     Atomic      Atomic             Coordinates (Angstroms)
 Number     Number       Type             X           Y           Z
 ---------------------------------------------------------------------
      1          7           0       -2.537570   -0.318499    0.728502
      2          8           0       -1.871268   -0.158443    1.671792
      3         16           0       -1.607172   -0.418940   -0.966643
      4          6           0        0.080334   -0.281760   -0.452736
      5          6           0        0.822583   -1.460837   -0.297671
      6          6           0        2.148435   -1.414017    0.115253
      7          6           0        2.736488   -0.181472    0.386814
      8          6           0        1.997830    0.990135    0.245298
      9          6           0        0.663311    0.972721   -0.170451
     10          1           0        0.347874   -2.411005   -0.510495
     11          1           0        2.714748   -2.331340    0.226326
     12          1           0        2.464779    1.944939    0.462502
     13          1           0        3.770113   -0.130080    0.710045
     14          6           0       -0.103907    2.263470   -0.306334
     15          1           0        0.548282    3.119288   -0.124883
     16          1           0       -0.928055    2.311587    0.410736
     17          1           0       -0.540292    2.367244   -1.302827
 ---------------------------------------------------------------------

 SCF Done:  E(RHF) =  -796.398276102     A.U. after    2 cycles

 The electronic state is 1-A.
 Alpha  occ. eigenvalues --  -93.97773 -20.65815 -15.70035 -11.27703 -11.27001
 Alpha  occ. eigenvalues --  -11.26160 -11.25995 -11.25034 -11.24946 -11.24145
 Alpha  occ. eigenvalues --   -8.25686  -6.23450  -6.23281  -6.23070  -1.66357
 Alpha  occ. eigenvalues --   -1.17889  -1.08912  -1.05895  -1.01556  -0.95310
 Alpha  occ. eigenvalues --   -0.91613  -0.83831  -0.81159  -0.73403  -0.72237
 Alpha  occ. eigenvalues --   -0.69466  -0.67658  -0.65989  -0.63684  -0.59911
 Alpha  occ. eigenvalues --   -0.59028  -0.57253  -0.55163  -0.51764  -0.51425
 Alpha  occ. eigenvalues --   -0.48751  -0.40883  -0.38778  -0.35286  -0.34675
 Alpha virt. eigenvalues --    0.03171   0.03522   0.04090   0.04644   0.05336
 Alpha virt. eigenvalues --    0.05556   0.05874   0.06238   0.08032   0.09309
 Alpha virt. eigenvalues --    0.09381   0.10069   0.10614   0.11406   0.12910

 Mulliken charges:
               1
     1  N    0.693177
     2  O   -0.910884
     3  S    0.007787
     4  C    0.456427
     5  C   -0.368101
     6  C    0.014281
     7  C   -0.007807
     8  C    0.538001
     9  C    0.692916
    10  H   -0.213865
    11  H   -0.212391
    12  H   -0.287167
    13  H   -0.225888
    14  C   -0.751241
    15  H   -0.002438
    16  H    0.285729
    17  H    0.291464
 Sum of Mulliken charges =   0.00000

 Dipole moment (field-independent basis, Debye):
    X=              2.6607    Y=              0.5681    Z=              0.1089  Tot=              2.7228

 Test job not archived.
 1\1\GINC-SE070\SP\RHF\Aug-CC-pVDZ\C7H7N1O1S1\OHZDE\08-Apr-2025\0\\#t h
 f aug-cc-pvdz iop(5/13=1,5/36=2,99/5=2) pseudo=read geom=check guess=(
 read,tcheck) scf=(maxcycle=1)\\title\\0,1\N,0,-2.53757,-0.318499,0.728
 502\O,0,-1.871268,-0.158443,1.671792\S,0,-1.607172,-0.41894,-0.966643\
 C,0,0.080334,-0.28176,-0.452736\C,0,0.822583,-1.460837,-0.297671\C,0,2
 .148435,-1.414017,0.115253\C,0,2.736488,-0.181472,0.386814\C,0,1.99783
 ,0.990135,0.245298\C,0,0.663311,0.972721,-0.170451\H,0,0.347874,-2.411
 005,-0.510495\H,0,2.714748,-2.33134,0.226326\H,0,2.464779,1.944939,0.4

 Normal termination of Gaussian 16 at Tue Apr  8 22:55:23 2025.
