 Gaussian 16, Revision C.01,

 ----------------------------------------------------------------------
 #t hf aug-cc-pvdz symm=none int=(grid=ultrafine) guess=(read,tcheck) s
 table=(opt,rrhf)
 ----------------------------------------------------------------------
 -----
 title
 -----
 Symbolic Z-matrix:
 Charge =  0 Multiplicity = 1

 SCF Done:  E(RHF) =  -667.579332935     A.U. after   14 cycles
 Normal termination of Gaussian 16 at Tue Apr  8 23:05:17 2025.
 Gaussian 16:  ES64L-G16RevC.01  3-Jul-2019

 ----------------------------------------------------------------------
 #t hf aug-cc-pvdz iop(5/13=1,5/36=2,99/5=2) pseudo=read geom=check gue
 ss=(read,tcheck) scf=(maxcycle=1)
 ----------------------------------------------------------------------
 -----
 title
 -----
 Structure from the checkpoint file:  "BDE49_expt_386_mol1.chk"
 Charge =  0 Multiplicity = 1

                         Standard orientation:
 ---------------------------------------------------------------------
 Center     Atomic      Atomic             Coordinates (Angstroms)
 Number     Number       Type             X           Y           Z
 ---------------------------------------------------------------------
      1          8           0        0.638684   -1.308491   -0.540361
      2          6           0        1.619246   -0.976586    0.435770
      3          6           0        1.984768    0.490211    0.222484
      4          1           0        2.464528   -1.646135    0.267351
      5          1           0        1.237601   -1.132225    1.452729
      6         16           0        0.373013    1.299806   -0.103534
      7          1           0        2.648306    0.615993   -0.633979
      8          1           0        2.438244    0.935308    1.108799
      9          6           0       -0.399601   -0.347622   -0.579600
     10          6           0       -1.580497   -0.717716    0.316068
     11          1           0       -0.720756   -0.281150   -1.621359
     12          6           0       -2.759703    0.249695    0.194296
     13          1           0       -1.243170   -0.771018    1.355370
     14          1           0       -1.891292   -1.727087    0.022762
     15          1           0       -2.485215    1.255049    0.524649
     16          1           0       -3.599189   -0.083643    0.808803
     17          1           0       -3.112009    0.318059   -0.839794
 ---------------------------------------------------------------------

 SCF Done:  E(RHF) =  -667.926506095     A.U. after    2 cycles

 The electronic state is 1-A.
 Alpha  occ. eigenvalues --  -93.93771 -20.55839 -11.32074 -11.29915 -11.27076
 Alpha  occ. eigenvalues --  -11.23607 -11.22891  -8.21893  -6.19683  -6.19573
 Alpha  occ. eigenvalues --   -6.19336  -1.47940  -1.08384  -1.06783  -0.98339
 Alpha  occ. eigenvalues --   -0.87812  -0.83251  -0.78797  -0.69826  -0.67101
 Alpha  occ. eigenvalues --   -0.63489  -0.61805  -0.59160  -0.56381  -0.54346
 Alpha  occ. eigenvalues --   -0.52476  -0.50878  -0.49873  -0.47702  -0.43858
 Alpha  occ. eigenvalues --   -0.42190  -0.34877
 Alpha virt. eigenvalues --    0.03607   0.03858   0.04132   0.04424   0.05582
 Alpha virt. eigenvalues --    0.05843   0.06238   0.07350   0.08230   0.09504
 Alpha virt. eigenvalues --    0.10303   0.11951   0.12709   0.13245   0.14603

 Mulliken charges:
               1
     1  O   -1.467546
     2  C    0.461003
     3  C   -0.814920
     4  H   -0.006984
     5  H    0.195990
     6  S    0.431292
     7  H    0.141730
     8  H    0.188341
     9  C    1.078687
    10  C   -0.679610
    11  H    0.008431
    12  C   -0.332921
    13  H    0.118052
    14  H    0.198014
    15  H    0.188252
    16  H    0.115014
    17  H    0.177176
 Sum of Mulliken charges =  -0.00000

 Dipole moment (field-independent basis, Debye):
    X=              0.5646    Y=             -0.7898    Z=              0.9231  Tot=              1.3397

 Test job not archived.
 1\1\GINC-SE332\SP\RHF\Aug-CC-pVDZ\C5H10O1S1\OHZDE\08-Apr-2025\0\\#t hf
  aug-cc-pvdz iop(5/13=1,5/36=2,99/5=2) pseudo=read geom=check guess=(r
 ead,tcheck) scf=(maxcycle=1)\\title\\0,1\O,0,0.638684,-1.308491,-0.540
 361\C,0,1.619246,-0.976586,0.43577\C,0,1.984768,0.490211,0.222484\H,0,
 2.464528,-1.646135,0.267351\H,0,1.237601,-1.132225,1.452729\S,0,0.3730
 13,1.299806,-0.103534\H,0,2.648306,0.615993,-0.633979\H,0,2.438244,0.9
 35308,1.108799\C,0,-0.399601,-0.347622,-0.5796\C,0,-1.580497,-0.717716
 ,0.316068\H,0,-0.720756,-0.28115,-1.621359\C,0,-2.759703,0.249695,0.19

 Normal termination of Gaussian 16 at Tue Apr  8 23:05:22 2025.
