 Gaussian 16, Revision C.01,

 ----------------------------------------------------------------------
 #t hf aug-cc-pvdz symm=none int=(grid=ultrafine) guess=(read,tcheck) s
 table=(opt,rrhf)
 ----------------------------------------------------------------------
 -----
 title
 -----
 Symbolic Z-matrix:
 Charge =  0 Multiplicity = 1

 SCF Done:  E(RHF) =  -502.234733986     A.U. after   12 cycles

 1\1\GINC-SE094\Stability\RHF\Aug-CC-pVDZ\C9H20O2\OHZDE\08-Apr-2025\0\\
 #t hf aug-cc-pvdz symm=none int=(grid=ultrafine) guess=(read,tcheck) s
 table=(opt,rrhf)\\title\\0,1\C,0,0.,0.,1.910693\O,0,-0.766323,-0.89578
 5,1.149471\O,0,0.766323,0.895785,1.149471\H,0,0.722544,-0.538033,2.536
 277\H,0,-0.722544,0.538033,2.536277\C,0,0.,-1.878898,0.451843\C,0,0.,1
 .878898,0.451843\C,0,0.948751,2.866667,-0.222901\H,0,-0.650317,2.40554
 2,1.166381\H,0,-0.644865,1.396375,-0.294295\C,0,0.148408,4.002689,-0.8
 72873\H,0,-0.510915,3.620216,-1.659474\H,0,0.817118,4.735971,-1.331208

 Normal termination of Gaussian 16 at Tue Apr  8 23:04:22 2025.
 Gaussian 16:  ES64L-G16RevC.01  3-Jul-2019

 ----------------------------------------------------------------------
 #t hf aug-cc-pvdz iop(5/13=1,5/36=2,99/5=2) pseudo=read geom=check gue
 ss=(read,tcheck) scf=(maxcycle=1)
 ----------------------------------------------------------------------
 -----
 title
 -----
 Structure from the checkpoint file:  "BDE49_expt_193_mol1.chk"
 Charge =  0 Multiplicity = 1

                         Standard orientation:
 ---------------------------------------------------------------------
 Center     Atomic      Atomic             Coordinates (Angstroms)
 Number     Number       Type             X           Y           Z
 ---------------------------------------------------------------------
      1          6           0        0.000000    0.000000    1.910693
      2          8           0       -0.766323   -0.895785    1.149471
      3          8           0        0.766323    0.895785    1.149471
      4          1           0        0.722544   -0.538033    2.536277
      5          1           0       -0.722544    0.538033    2.536277
      6          6           0        0.000000   -1.878898    0.451843
      7          6           0        0.000000    1.878898    0.451843
      8          6           0        0.948751    2.866667   -0.222901
      9          1           0       -0.650317    2.405542    1.166381
     10          1           0       -0.644865    1.396375   -0.294295
     11          6           0        0.148408    4.002689   -0.872873
     12          1           0       -0.510915    3.620216   -1.659474
     13          1           0        0.817118    4.735971   -1.331208
     14          1           0       -0.472750    4.529265   -0.142096
     15          6           0        1.861774    2.166731   -1.236470
     16          1           0        1.577460    3.292856    0.568538
     17          1           0        1.274456    1.731674   -2.053009
     18          1           0        2.426663    1.363897   -0.760270
     19          1           0        2.571369    2.873345   -1.676283
     20          6           0       -0.948751   -2.866667   -0.222901
     21          1           0        0.650317   -2.405542    1.166381
     22          1           0        0.644865   -1.396375   -0.294295
     23          6           0       -0.148408   -4.002689   -0.872873
     24          1           0        0.510915   -3.620216   -1.659474
     25          1           0       -0.817118   -4.735971   -1.331208
     26          1           0        0.472750   -4.529265   -0.142096
     27          6           0       -1.861774   -2.166731   -1.236470
     28          1           0       -1.577460   -3.292856    0.568538
     29          1           0       -2.571369   -2.873345   -1.676283
     30          1           0       -1.274456   -1.731674   -2.053009
     31          1           0       -2.426663   -1.363897   -0.760270
 ---------------------------------------------------------------------

 SCF Done:  E(RHF) =  -502.775141171     A.U. after    2 cycles

 The electronic state is 1-A.
 Alpha  occ. eigenvalues --  -20.54415 -20.54414 -11.33213 -11.27718 -11.27709
 Alpha  occ. eigenvalues --  -11.23218 -11.23217 -11.22410 -11.22410 -11.21623
 Alpha  occ. eigenvalues --  -11.21622  -1.49396  -1.43115  -1.08625  -1.07980
 Alpha  occ. eigenvalues --   -0.95933  -0.92999  -0.92946  -0.92161  -0.85130
 Alpha  occ. eigenvalues --   -0.78315  -0.77583  -0.68929  -0.68850  -0.68354
 Alpha  occ. eigenvalues --   -0.64127  -0.63101  -0.60345  -0.59468  -0.59424
 Alpha  occ. eigenvalues --   -0.56829  -0.55041  -0.54587  -0.54193  -0.53701
 Alpha  occ. eigenvalues --   -0.53180  -0.48907  -0.48412  -0.48083  -0.47954
 Alpha  occ. eigenvalues --   -0.47132  -0.46839  -0.45197  -0.42829  -0.42456
 Alpha virt. eigenvalues --    0.03258   0.03407   0.03657   0.03950   0.04523
 Alpha virt. eigenvalues --    0.05058   0.05067   0.05822   0.06571   0.07055
 Alpha virt. eigenvalues --    0.07279   0.07403   0.08079   0.08663   0.09474

 Mulliken charges:
               1
     1  C    0.775849
     2  O   -1.353039
     3  O   -1.353039
     4  H    0.067823
     5  H    0.067823
     6  C    0.825080
     7  C    0.825080
     8  C   -1.467697
     9  H    0.130809
    10  H    0.232348
    11  C   -0.106188
    12  H    0.224560
    13  H    0.150082
    14  H    0.167415
    15  C   -0.013473
    16  H    0.200782
    17  H    0.249455
    18  H    0.210423
    19  H    0.093694
    20  C   -1.467697
    21  H    0.130809
    22  H    0.232348
    23  C   -0.106188
    24  H    0.224560
    25  H    0.150082
    26  H    0.167415
    27  C   -0.013473
    28  H    0.200782
    29  H    0.093694
    30  H    0.249455
    31  H    0.210423
 Sum of Mulliken charges =  -0.00000

 Dipole moment (field-independent basis, Debye):
    X=              0.0000    Y=              0.0000    Z=              0.0311  Tot=              0.0311

 Test job not archived.
 1\1\GINC-SE094\SP\RHF\Aug-CC-pVDZ\C9H20O2\OHZDE\08-Apr-2025\0\\#t hf a
 ug-cc-pvdz iop(5/13=1,5/36=2,99/5=2) pseudo=read geom=check guess=(rea
 d,tcheck) scf=(maxcycle=1)\\title\\0,1\C,0,0.,0.,1.910693\O,0,-0.76632
 3,-0.895785,1.149471\O,0,0.766323,0.895785,1.149471\H,0,0.722544,-0.53
 8033,2.536277\H,0,-0.722544,0.538033,2.536277\C,0,0.,-1.878898,0.45184
 3\C,0,0.,1.878898,0.451843\C,0,0.948751,2.866667,-0.222901\H,0,-0.6503
 17,2.405542,1.166381\H,0,-0.644865,1.396375,-0.294295\C,0,0.148408,4.0
 02689,-0.872873\H,0,-0.510915,3.620216,-1.659474\H,0,0.817118,4.735971

 Normal termination of Gaussian 16 at Tue Apr  8 23:04:37 2025.
