 Gaussian 16, Revision C.01,

 ----------------------------------------------------------------------
 #t hf aug-cc-pvdz symm=none int=(grid=ultrafine) guess=(read,tcheck) s
 table=(opt,rrhf)
 ----------------------------------------------------------------------
 -----
 title
 -----
 Symbolic Z-matrix:
 Charge =  0 Multiplicity = 1

 SCF Done:  E(RHF) =  -1190.23884843     A.U. after   15 cycles
 Normal termination of Gaussian 16 at Wed Apr  9 00:24:49 2025.
 Gaussian 16:  ES64L-G16RevC.01  3-Jul-2019

 ----------------------------------------------------------------------
 #t hf aug-cc-pvdz iop(5/13=1,5/36=2,99/5=2) pseudo=read geom=check gue
 ss=(read,tcheck) scf=(maxcycle=1)
 ----------------------------------------------------------------------
 -----
 title
 -----
 Structure from the checkpoint file:  "BDE49_nonexpt_2464_mol1.chk"
 Charge =  0 Multiplicity = 1

                         Standard orientation:
 ---------------------------------------------------------------------
 Center     Atomic      Atomic             Coordinates (Angstroms)
 Number     Number       Type             X           Y           Z
 ---------------------------------------------------------------------
      1         14           0       -0.955984    2.397519   -0.704281
      2         14           0        0.955984    2.397519    0.704281
      3          6           0        1.963154    0.837478    0.390210
      4          1           0        0.507993    2.444467    2.119703
      5          1           0        1.808081    3.582619    0.433854
      6          6           0        1.454310   -0.414578    0.770008
      7          6           0        3.165763    0.878042   -0.329456
      8          6           0        3.830044   -0.303751   -0.660610
      9          6           0        3.301130   -1.540058   -0.309675
     10          6           0        2.099103   -1.593915    0.399681
     11          1           0        3.586789    1.829784   -0.633778
     12          1           0        4.765282   -0.261942   -1.208038
     13          6           0       -1.963154    0.837478   -0.390210
     14          1           0       -0.507993    2.444467   -2.119703
     15          1           0       -1.808081    3.582619   -0.433854
     16          6           0       -1.454310   -0.414578   -0.770008
     17          6           0       -3.165763    0.878042    0.329456
     18          6           0       -3.830044   -0.303751    0.660610
     19          6           0       -3.301130   -1.540058    0.309675
     20          6           0       -2.099103   -1.593915   -0.399681
     21          1           0       -3.586789    1.829784    0.633778
     22          1           0       -4.765282   -0.261942    1.208038
     23          8           0        1.584122   -2.831934    0.677033
     24          8           0       -1.584122   -2.831934   -0.677034
     25          1           0        3.795265   -2.466185   -0.577435
     26          1           0       -3.795265   -2.466185    0.577435
     27          1           0        0.527555   -0.480465    1.333075
     28          1           0       -0.527555   -0.480465   -1.333075
     29          1           0        0.754590   -2.737365    1.158772
     30          1           0       -0.754590   -2.737365   -1.158772
 ---------------------------------------------------------------------

 SCF Done:  E(RHF) =  -1190.92263209     A.U. after    2 cycles

 The electronic state is 1-A.
 Alpha  occ. eigenvalues --  -69.52940 -69.52940 -20.58714 -20.58713 -11.31635
 Alpha  occ. eigenvalues --  -11.31635 -11.25475 -11.25475 -11.24988 -11.24987
 Alpha  occ. eigenvalues --  -11.24662 -11.24662 -11.24591 -11.24591 -11.24517
 Alpha  occ. eigenvalues --  -11.24515  -6.20074  -6.20062  -3.95431  -3.95420
 Alpha  occ. eigenvalues --   -3.95416  -3.95415  -3.95407  -3.95338  -1.50017
 Alpha  occ. eigenvalues --   -1.49824  -1.15747  -1.15581  -1.03126  -1.02595
 Alpha  occ. eigenvalues --   -1.01532  -1.01418  -0.86528  -0.85976  -0.84447
 Alpha  occ. eigenvalues --   -0.83659  -0.77373  -0.74836  -0.73139  -0.70801
 Alpha  occ. eigenvalues --   -0.69806  -0.67878  -0.66343  -0.65770  -0.61890
 Alpha  occ. eigenvalues --   -0.61663  -0.60095  -0.59131  -0.58204  -0.58141
 Alpha  occ. eigenvalues --   -0.56964  -0.56229  -0.52946  -0.52853  -0.50687
 Alpha  occ. eigenvalues --   -0.50646  -0.48674  -0.48662  -0.46598  -0.46196
 Alpha  occ. eigenvalues --   -0.42005  -0.35456  -0.35396  -0.32751  -0.32725
 Alpha virt. eigenvalues --    0.03114   0.03222   0.03492   0.03609   0.04377
 Alpha virt. eigenvalues --    0.04459   0.05377   0.05466   0.06152   0.06570
 Alpha virt. eigenvalues --    0.06726   0.07797   0.07808   0.08171   0.08324

 Mulliken charges:
               1
     1  Si   0.057467
     2  Si   0.057467
     3  C   -0.942528
     4  H   -0.015678
     5  H   -0.125952
     6  C    0.761073
     7  C    0.418868
     8  C    0.573130
     9  C    0.620100
    10  C    1.210089
    11  H   -0.318173
    12  H   -0.225156
    13  C   -0.942528
    14  H   -0.015678
    15  H   -0.125952
    16  C    0.761072
    17  C    0.418868
    18  C    0.573130
    19  C    0.620100
    20  C    1.210089
    21  H   -0.318173
    22  H   -0.225156
    23  O   -1.807390
    24  O   -1.807390
    25  H   -0.249303
    26  H   -0.249303
    27  H   -0.389688
    28  H   -0.389688
    29  H    0.433142
    30  H    0.433142
 Sum of Mulliken charges =  -0.00000

 Dipole moment (field-independent basis, Debye):
    X=             -0.0000    Y=              0.5551    Z=              0.0000  Tot=              0.5551

 Test job not archived.
 1\1\GINC-SE097\SP\RHF\Aug-CC-pVDZ\C12H14O2Si2\OHZDE\09-Apr-2025\0\\#t
 hf aug-cc-pvdz iop(5/13=1,5/36=2,99/5=2) pseudo=read geom=check guess=
 (read,tcheck) scf=(maxcycle=1)\\title\\0,1\Si,0,0.955984,2.397519,0.70
 4281\Si,0,-0.955984,2.397519,-0.704281\C,0,-1.963154,0.837478,-0.39021
 \H,0,-0.507993,2.444467,-2.119703\H,0,-1.808081,3.582619,-0.433854\C,0
 ,-1.45431,-0.414578,-0.770008\C,0,-3.165763,0.878042,0.329456\C,0,-3.8
 30044,-0.303751,0.66061\C,0,-3.30113,-1.540058,0.309675\C,0,-2.099103,
 -1.593915,-0.399681\H,0,-3.586789,1.829784,0.633778\H,0,-4.765282,-0.2

 Normal termination of Gaussian 16 at Wed Apr  9 00:25:32 2025.
