 Gaussian 16, Revision C.01,

 ----------------------------------------------------------------------
 #t hf aug-cc-pvdz symm=none int=(grid=ultrafine) guess=(read,tcheck) s
 table=(opt,rrhf)
 ----------------------------------------------------------------------
 -----
 title
 -----
 Symbolic Z-matrix:
 Charge =  0 Multiplicity = 1

 SCF Done:  E(RHF) =  -1086.00233941     A.U. after   15 cycles
 Normal termination of Gaussian 16 at Tue Apr  8 23:35:05 2025.
 Gaussian 16:  ES64L-G16RevC.01  3-Jul-2019

 ----------------------------------------------------------------------
 #t hf aug-cc-pvdz iop(5/13=1,5/36=2,99/5=2) pseudo=read geom=check gue
 ss=(read,tcheck) scf=(maxcycle=1)
 ----------------------------------------------------------------------
 -----
 title
 -----
 Structure from the checkpoint file:  "BDE49_nonexpt_1481_mol1.chk"
 Charge =  0 Multiplicity = 1

                         Standard orientation:
 ---------------------------------------------------------------------
 Center     Atomic      Atomic             Coordinates (Angstroms)
 Number     Number       Type             X           Y           Z
 ---------------------------------------------------------------------
      1          6           0        1.858189   -0.037263   -0.000002
      2          6           0        1.358322    1.259748    0.000002
      3          6           0       -0.015387    1.465490    0.000002
      4          6           0        0.989660   -1.122429   -0.000006
      5          6           0       -0.384879   -0.914381   -0.000006
      6          6           0       -0.912559    0.385529   -0.000002
      7          1           0        2.036150    2.103751    0.000005
      8          1           0       -0.398541    2.481056    0.000005
      9          1           0        1.383915   -2.130656   -0.000009
     10          1           0       -1.048482   -1.769638   -0.000010
     11          7           0       -2.288847    0.646466   -0.000004
     12         15           0       -3.546820   -0.525253    0.000008
     13          1           0       -2.522483    1.628058   -0.000001
     14         17           0        3.596795   -0.305435   -0.000001
     15          1           0       -4.365969    0.006602   -1.032676
     16          1           0       -4.365953    0.006601    1.032705
 ---------------------------------------------------------------------

 SCF Done:  E(RHF) =  -1086.41463862     A.U. after    2 cycles

 The electronic state is 1-A.
 Alpha  occ. eigenvalues -- -105.56433 -84.31199 -15.52454 -11.30270 -11.29602
 Alpha  occ. eigenvalues --  -11.26062 -11.25959 -11.24912 -11.24547 -10.61215
 Alpha  occ. eigenvalues --   -7.78181  -7.77792  -7.77769  -6.77883  -4.30933
 Alpha  occ. eigenvalues --   -4.29991  -4.29804  -1.24295  -1.16734  -1.07894
 Alpha  occ. eigenvalues --   -1.03415  -0.97930  -0.88946  -0.85857  -0.81198
 Alpha  occ. eigenvalues --   -0.74780  -0.68688  -0.66062  -0.63370  -0.61307
 Alpha  occ. eigenvalues --   -0.60125  -0.59634  -0.54392  -0.53780  -0.52407
 Alpha  occ. eigenvalues --   -0.49548  -0.45847  -0.44259  -0.36951  -0.36259
 Alpha  occ. eigenvalues --   -0.31419
 Alpha virt. eigenvalues --    0.02788   0.04019   0.04635   0.04854   0.06210
 Alpha virt. eigenvalues --    0.06234   0.07181   0.08348   0.08732   0.09395
 Alpha virt. eigenvalues --    0.09826   0.11029   0.12025   0.12497   0.13393

 Mulliken charges:
               1
     1  C   -0.153303
     2  C    0.161725
     3  C    0.721824
     4  C    0.267185
     5  C    1.248781
     6  C   -1.972825
     7  H   -0.170157
     8  H   -0.347917
     9  H   -0.170347
    10  H   -0.296014
    11  N    1.056684
    12  P   -0.378779
    13  H   -0.187131
    14  Cl  -0.350407
    15  H    0.285338
    16  H    0.285342
 Sum of Mulliken charges =  -0.00000

 Dipole moment (field-independent basis, Debye):
    X=             -3.1371    Y=              1.1702    Z=              0.0000  Tot=              3.3483

 Test job not archived.
 1\1\GINC-SE070\SP\RHF\Aug-CC-pVDZ\C6H7Cl1N1P1\OHZDE\08-Apr-2025\0\\#t
 hf aug-cc-pvdz iop(5/13=1,5/36=2,99/5=2) pseudo=read geom=check guess=
 (read,tcheck) scf=(maxcycle=1)\\title\\0,1\C,0,1.858189,-0.037263,-0.0
 00002\C,0,1.358322,1.259748,0.000002\C,0,-0.015387,1.46549,0.000002\C,
 0,0.98966,-1.122429,-0.000006\C,0,-0.384879,-0.914381,-0.000006\C,0,-0
 .912559,0.385529,-0.000002\H,0,2.03615,2.103751,0.000005\H,0,-0.398541
 ,2.481056,0.000005\H,0,1.383915,-2.130656,-0.000009\H,0,-1.048482,-1.7
 69638,-0.00001\N,0,-2.288847,0.646466,-0.000004\P,0,-3.54682,-0.525253

 Normal termination of Gaussian 16 at Tue Apr  8 23:35:13 2025.
