 Gaussian 16, Revision C.01,

 ----------------------------------------------------------------------
 #t hf aug-cc-pvdz symm=none int=(grid=ultrafine) guess=(read,tcheck) s
 table=opt
 ----------------------------------------------------------------------
 -----
 title
 -----
 Symbolic Z-matrix:
 Charge =  0 Multiplicity = 2

 SCF Done:  E(UHF) =  -626.275758508     A.U. after   14 cycles
 Normal termination of Gaussian 16 at Tue Apr  8 23:55:22 2025.
 Gaussian 16:  ES64L-G16RevC.01  3-Jul-2019

 ----------------------------------------------------------------------
 #t hf aug-cc-pvdz iop(5/13=1,5/36=2,99/5=2) pseudo=read geom=check gue
 ss=(read,tcheck) scf=(maxcycle=1)
 ----------------------------------------------------------------------
 -----
 title
 -----
 Structure from the checkpoint file:  "BDE49_nonexpt_1978_mol2.chk"
 Charge =  0 Multiplicity = 2

                         Standard orientation:
 ---------------------------------------------------------------------
 Center     Atomic      Atomic             Coordinates (Angstroms)
 Number     Number       Type             X           Y           Z
 ---------------------------------------------------------------------
      1         14           0        1.561348   -0.033798   -0.000000
      2          6           0       -0.370251   -0.027300    0.000000
      3          9           0       -0.877113    1.232861    0.000000
      4          9           0       -0.877113   -0.652815    1.090371
      5          9           0       -0.877113   -0.652815   -1.090371
      6          1           0        2.022348    0.645945    1.231446
      7          1           0        2.022348    0.645945   -1.231446
 ---------------------------------------------------------------------

 SCF Done:  E(UHF) =  -626.610354220     A.U. after    2 cycles

 The electronic state is 2-A'.
 Alpha  occ. eigenvalues --  -69.58016 -26.50306 -26.50304 -26.50252 -11.50244
 Alpha  occ. eigenvalues --   -6.25203  -4.01153  -4.00239  -4.00194  -1.70478
 Alpha  occ. eigenvalues --   -1.60609  -1.60562  -0.96015  -0.84021  -0.79871
 Alpha  occ. eigenvalues --   -0.79850  -0.71369  -0.68218  -0.68125  -0.63375
 Alpha  occ. eigenvalues --   -0.63297  -0.61665  -0.53237  -0.50679  -0.38258
 Alpha virt. eigenvalues --    0.03510   0.05192   0.05448   0.06056   0.08319
 Alpha virt. eigenvalues --    0.09313   0.11765   0.12194   0.13718   0.14746
 Alpha virt. eigenvalues --    0.16432   0.16920   0.21314   0.22224   0.22374

  Beta  occ. eigenvalues --  -69.57414 -26.50321 -26.50319 -26.50121 -11.50209
  Beta  occ. eigenvalues --   -6.24283  -3.99825  -3.99780  -3.98884  -1.70396
  Beta  occ. eigenvalues --   -1.60649  -1.60335  -0.95491  -0.82468  -0.79835
  Beta  occ. eigenvalues --   -0.79668  -0.68386  -0.68157  -0.67663  -0.63350
  Beta  occ. eigenvalues --   -0.63142  -0.61589  -0.52230  -0.49881
  Beta virt. eigenvalues --    0.00101   0.03864   0.05447   0.05562   0.07502
  Beta virt. eigenvalues --    0.08672   0.09852   0.12116   0.12284   0.14824
  Beta virt. eigenvalues --    0.16352   0.18574   0.19417   0.22120   0.23424

 Mulliken charges and spin densities:
               1          2
     1  Si   0.852040   0.953353
     2  C    1.653456   0.004167
     3  F   -0.739506  -0.001857
     4  F   -0.701069  -0.004155
     5  F   -0.701069  -0.004155
     6  H   -0.181926   0.026323
     7  H   -0.181926   0.026323
 Sum of Mulliken charges =  -0.00000   1.00000

 Dipole moment (field-independent basis, Debye):
    X=              2.3875    Y=              0.0635    Z=             -0.0000  Tot=              2.3883
                          Isotropic Fermi Contact Couplings
        Atom                 a.u.       MegaHertz       Gauss      10(-4) cm-1
     1  Si(29)             0.65874    -585.43985    -208.89950    -195.28172
     2  C(13)              0.01123      12.62177       4.50376       4.21017
     3  F(19)              0.02650     111.48094      39.77917      37.18604
     4  F(19)             -0.00351     -14.78162      -5.27445      -4.93062
     5  F(19)             -0.00351     -14.78162      -5.27445      -4.93062
     6  H(1)               0.00469      20.95245       7.47635       6.98898
     7  H(1)               0.00469      20.95245       7.47635       6.98898
 --------------------------------------------------------

 Normal termination of Gaussian 16 at Tue Apr  8 23:55:24 2025.
