 Gaussian 16, Revision C.01,

 ----------------------------------------------------------------------
 #t hf aug-cc-pvdz symm=none int=(grid=ultrafine) guess=(read,tcheck) s
 table=opt
 ----------------------------------------------------------------------
 -----
 title
 -----
 Symbolic Z-matrix:
 Charge =  0 Multiplicity = 2

 SCF Done:  E(UHF) =  -419.957252923     A.U. after   14 cycles
 Normal termination of Gaussian 16 at Tue Apr  8 23:26:59 2025.
 Gaussian 16:  ES64L-G16RevC.01  3-Jul-2019

 ----------------------------------------------------------------------
 #t hf aug-cc-pvdz iop(5/13=1,5/36=2,99/5=2) pseudo=read geom=check gue
 ss=(read,tcheck) scf=(maxcycle=1)
 ----------------------------------------------------------------------
 -----
 title
 -----
 Structure from the checkpoint file:  "BDE49_nonexpt_1296_mol3.chk"
 Charge =  0 Multiplicity = 2

                         Standard orientation:
 ---------------------------------------------------------------------
 Center     Atomic      Atomic             Coordinates (Angstroms)
 Number     Number       Type             X           Y           Z
 ---------------------------------------------------------------------
      1         15           0       -0.000000   -0.000000    0.704938
      2          6           0        0.000000    1.408246   -0.504227
      3          6           0       -0.000000   -1.408246   -0.504227
      4          1           0        0.885603   -1.376601   -1.148491
      5          1           0       -0.885603   -1.376600   -1.148491
      6          1           0       -0.000000   -2.357400    0.035305
      7          1           0       -0.885603    1.376601   -1.148491
      8          1           0        0.885603    1.376600   -1.148491
      9          1           0        0.000000    2.357400    0.035305
 ---------------------------------------------------------------------

 SCF Done:  E(UHF) =  -420.088671360     A.U. after    2 cycles

 The electronic state is 2-B.
 Alpha  occ. eigenvalues --  -84.26774 -11.23647 -11.23642  -6.73982  -4.26464
 Alpha  occ. eigenvalues --   -4.25986  -4.25410  -1.01398  -0.93928  -0.74410
 Alpha  occ. eigenvalues --   -0.59608  -0.58990  -0.56364  -0.56042  -0.45627
 Alpha  occ. eigenvalues --   -0.36452  -0.30125
 Alpha virt. eigenvalues --    0.03822   0.04307   0.05089   0.05607   0.07384
 Alpha virt. eigenvalues --    0.07785   0.08349   0.11939   0.12234   0.12382
 Alpha virt. eigenvalues --    0.16195   0.16351   0.16631   0.17437   0.17602

  Beta  occ. eigenvalues --  -84.26091 -11.23788 -11.23783  -6.73115  -4.25455
  Beta  occ. eigenvalues --   -4.25036  -4.23113  -0.99833  -0.93898  -0.68996
  Beta  occ. eigenvalues --   -0.58892  -0.57885  -0.56095  -0.55238  -0.45421
  Beta  occ. eigenvalues --   -0.34258
  Beta virt. eigenvalues --    0.03849   0.04335   0.04883   0.05639   0.06435
  Beta virt. eigenvalues --    0.07389   0.07791   0.08514   0.12051   0.12620
  Beta virt. eigenvalues --    0.15842   0.16317   0.16415   0.16960   0.17582

 Mulliken charges and spin densities:
               1          2
     1  P    1.125913   1.183666
     2  C   -0.866542  -0.113505
     3  C   -0.866542  -0.113505
     4  H    0.116584   0.010981
     5  H    0.116585   0.010981
     6  H    0.070417  -0.000291
     7  H    0.116584   0.010981
     8  H    0.116585   0.010981
     9  H    0.070417  -0.000291
 Sum of Mulliken charges =   0.00000   1.00000

 Dipole moment (field-independent basis, Debye):
    X=              0.0000    Y=              0.0000    Z=             -1.1998  Tot=              1.1998
                          Isotropic Fermi Contact Couplings
        Atom                 a.u.       MegaHertz       Gauss      10(-4) cm-1
     1  P(31)              0.22145     401.06175     143.10880     133.77980
     2  C(13)             -0.02615     -29.39305     -10.48817      -9.80447
     3  C(13)             -0.02615     -29.39305     -10.48817      -9.80447
     4  H(1)               0.01046      46.73829      16.67739      15.59022
     5  H(1)               0.01046      46.73827      16.67738      15.59021
     6  H(1)               0.00035       1.57207       0.56095       0.52439
     7  H(1)               0.01046      46.73829      16.67739      15.59022
     8  H(1)               0.01046      46.73827      16.67738      15.59021

 Normal termination of Gaussian 16 at Tue Apr  8 23:27:02 2025.
