 Gaussian 16, Revision C.01,

 ----------------------------------------------------------------------
 #t hf aug-cc-pvdz symm=none int=(grid=ultrafine) guess=(read,tcheck) s
 table=(opt,rrhf)
 ----------------------------------------------------------------------
 -----
 title
 -----
 Symbolic Z-matrix:
 Charge =  0 Multiplicity = 1

 SCF Done:  E(RHF) =  -846.999517138     A.U. after   13 cycles
 Normal termination of Gaussian 16 at Tue Apr  8 22:56:16 2025.
 Gaussian 16:  ES64L-G16RevC.01  3-Jul-2019

 ----------------------------------------------------------------------
 #t hf aug-cc-pvdz iop(5/13=1,5/36=2,99/5=2) pseudo=read geom=check gue
 ss=(read,tcheck) scf=(maxcycle=1)
 ----------------------------------------------------------------------
 -----
 title
 -----
 Structure from the checkpoint file:  "BDE49_expt_1705_mol1.chk"
 Charge =  0 Multiplicity = 1

                         Standard orientation:
 ---------------------------------------------------------------------
 Center     Atomic      Atomic             Coordinates (Angstroms)
 Number     Number       Type             X           Y           Z
 ---------------------------------------------------------------------
      1          6           0        0.927312    0.000022    0.000010
      2          6           0        0.436489   -0.089582    1.449841
      3          6           0       -1.110266   -0.089931    1.450693
      4          1           0        0.820900    0.758609    2.023686
      5          1           0        0.821385   -1.001658    1.915076
      6          6           0       -1.622666   -1.302194    0.647857
      7          6           0       -1.110170   -1.211545   -0.803266
      8          1           0       -2.718026   -1.323921    0.658789
      9          1           0       -1.279860   -2.234011    1.111447
     10          6           0        0.436613   -1.210788   -0.802570
     11          1           0        0.821202   -2.131828   -0.355066
     12          1           0        0.821416   -1.157500   -1.825099
     13          6           0        0.436655    1.300484   -0.647252
     14          6           0       -1.110118    1.301468   -0.647575
     15          1           0        0.821220    1.373392   -1.668669
     16          1           0        0.821481    2.159380   -0.089864
     17          6           0       -1.622737    1.212144    0.803607
     18          1           0       -1.462482   -0.153937    2.485264
     19          1           0       -1.280028    2.079575    1.378797
     20          1           0       -2.718104    1.232370    0.816889
     21          6           0       -1.622650    0.089971   -1.451476
     22          1           0       -1.462331    2.229489   -1.109320
     23          1           0       -2.718020    0.091519   -1.475604
     24          1           0       -1.280005    0.154262   -2.490298
     25          1           0       -1.462376   -2.075439   -1.376100
     26         17           0        2.777815   -0.000035    0.000050
 ---------------------------------------------------------------------

 SCF Done:  E(RHF) =  -847.491456214     A.U. after    2 cycles

 The electronic state is 1-A.
 Alpha  occ. eigenvalues -- -105.53651 -11.30314 -11.23938 -11.23938 -11.23903
 Alpha  occ. eigenvalues --  -11.23561 -11.23560 -11.23519 -11.23078 -11.23077
 Alpha  occ. eigenvalues --  -11.23036 -10.58438  -7.75364  -7.75032  -7.75032
 Alpha  occ. eigenvalues --   -1.18664  -1.08751  -1.04917  -1.04915  -0.97791
 Alpha  occ. eigenvalues --   -0.92330  -0.92328  -0.81440  -0.81440  -0.78842
 Alpha  occ. eigenvalues --   -0.72423  -0.64107  -0.63758  -0.63757  -0.62926
 Alpha  occ. eigenvalues --   -0.59063  -0.59062  -0.57920  -0.56409  -0.56407
 Alpha  occ. eigenvalues --   -0.54578  -0.49755  -0.49753  -0.48589  -0.48587
 Alpha  occ. eigenvalues --   -0.48140  -0.43830  -0.43828  -0.43078  -0.41715
 Alpha  occ. eigenvalues --   -0.41714
 Alpha virt. eigenvalues --    0.02983   0.02983   0.03001   0.04006   0.04926
 Alpha virt. eigenvalues --    0.04926   0.05525   0.05525   0.06349   0.08596
 Alpha virt. eigenvalues --    0.08915   0.08916   0.09320   0.09384   0.09384

 Mulliken charges:
               1
     1  C   -0.620550
     2  C    0.092852
     3  C   -0.198202
     4  H    0.096992
     5  H    0.096746
     6  C   -0.063288
     7  C   -0.198236
     8  H    0.068696
     9  H    0.081454
    10  C    0.092975
    11  H    0.096884
    12  H    0.096799
    13  C    0.093002
    14  C   -0.198241
    15  H    0.096952
    16  H    0.096783
    17  C   -0.063333
    18  H    0.075286
    19  H    0.081459
    20  H    0.068681
    21  C   -0.063308
    22  H    0.075243
    23  H    0.068749
    24  H    0.081372
    25  H    0.075262
    26  Cl  -0.131029
 Sum of Mulliken charges =   0.00000

 Dipole moment (field-independent basis, Debye):
    X=             -3.1143    Y=              0.0001    Z=             -0.0001  Tot=              3.1143

 Test job not archived.
 1\1\GINC-SE125\SP\RHF\Aug-CC-pVDZ\C10H15Cl1\OHZDE\08-Apr-2025\0\\#t hf
  aug-cc-pvdz iop(5/13=1,5/36=2,99/5=2) pseudo=read geom=check guess=(r
 ead,tcheck) scf=(maxcycle=1)\\title\\0,1\C,0,0.927312,0.000022,0.00001
 \C,0,0.436489,-0.089582,1.449841\C,0,-1.110266,-0.089931,1.450693\H,0,
 0.8209,0.758609,2.023686\H,0,0.821385,-1.001658,1.915076\C,0,-1.622666
 ,-1.302194,0.647857\C,0,-1.11017,-1.211545,-0.803266\H,0,-2.718026,-1.
 323922,0.658789\H,0,-1.27986,-2.234011,1.111447\C,0,0.436613,-1.210788
 ,-0.80257\H,0,0.821202,-2.131828,-0.355066\H,0,0.821416,-1.1575,-1.825

 Normal termination of Gaussian 16 at Tue Apr  8 22:56:41 2025.
