 Gaussian 16, Revision C.01,

 ----------------------------------------------------------------------
 #t hf aug-cc-pvdz symm=none int=(grid=ultrafine) guess=(read,tcheck) s
 table=(opt,rrhf)
 ----------------------------------------------------------------------
 -----
 title
 -----
 Symbolic Z-matrix:
 Charge =  0 Multiplicity = 1

 SCF Done:  E(RHF) =  -401.103466017     A.U. after   12 cycles
 Normal termination of Gaussian 16 at Tue Apr  8 23:04:48 2025.
 Gaussian 16:  ES64L-G16RevC.01  3-Jul-2019

 ----------------------------------------------------------------------
 #t hf aug-cc-pvdz iop(5/13=1,5/36=2,99/5=2) pseudo=read geom=check gue
 ss=(read,tcheck) scf=(maxcycle=1)
 ----------------------------------------------------------------------
 -----
 title
 -----
 Structure from the checkpoint file:  "BDE49_expt_349_mol1.chk"
 Charge =  0 Multiplicity = 1

                         Standard orientation:
 ---------------------------------------------------------------------
 Center     Atomic      Atomic             Coordinates (Angstroms)
 Number     Number       Type             X           Y           Z
 ---------------------------------------------------------------------
      1          6           0        2.014201   -0.129026    0.452241
      2          6           0        1.155492    1.103811    0.138358
      3          7           0       -0.255826    0.811488   -0.123053
      4          1           0        1.551021    1.570755   -0.768475
      5          1           0        1.284455    1.832285    0.962596
      6          8           0        1.927147   -1.153102   -0.520365
      7          1           0        1.786661   -0.516241    1.454867
      8          1           0        3.057512    0.197739    0.477324
      9          1           0        1.086619   -1.614655   -0.391674
     10          6           0       -0.976119    1.972389   -0.630411
     11          1           0       -0.488377    2.346317   -1.533734
     12          1           0       -1.026406    2.798222    0.101302
     13          1           0       -1.998897    1.694273   -0.895438
     14          6           0       -0.976651    0.113356    0.947926
     15          6           0       -1.802424   -1.026797    0.332558
     16          1           0       -0.256934   -0.316944    1.645668
     17          1           0       -1.618568    0.792437    1.529382
     18          8           0       -1.005064   -1.753541   -0.597758
     19          1           0       -2.697416   -0.629954   -0.166239
     20          1           0       -2.131953   -1.727666    1.101987
     21          1           0       -0.620600   -1.056247   -1.155228
 ---------------------------------------------------------------------

 SCF Done:  E(RHF) =  -401.527359189     A.U. after    2 cycles

 The electronic state is 1-A.
 Alpha  occ. eigenvalues --  -20.54585 -20.53492 -15.49965 -11.28708 -11.28362
 Alpha  occ. eigenvalues --  -11.26776 -11.26473 -11.26414  -1.44968  -1.43569
 Alpha  occ. eigenvalues --   -1.23288  -1.02465  -1.00298  -0.91939  -0.86406
 Alpha  occ. eigenvalues --   -0.79840  -0.71054  -0.69847  -0.68386  -0.65831
 Alpha  occ. eigenvalues --   -0.64390  -0.62143  -0.58898  -0.58520  -0.56952
 Alpha  occ. eigenvalues --   -0.54648  -0.54077  -0.52964  -0.49678  -0.48425
 Alpha  occ. eigenvalues --   -0.44595  -0.42950  -0.39972
 Alpha virt. eigenvalues --    0.03352   0.03740   0.03913   0.04553   0.05086
 Alpha virt. eigenvalues --    0.05329   0.06138   0.06397   0.07153   0.08886
 Alpha virt. eigenvalues --    0.09122   0.10025   0.11082   0.12970   0.13386

 Mulliken charges:
               1
     1  C    0.701125
     2  C   -0.438596
     3  N    0.621849
     4  H    0.035846
     5  H    0.138888
     6  O   -1.235298
     7  H    0.163379
     8  H    0.005702
     9  H    0.404192
    10  C   -0.315790
    11  H    0.119124
    12  H    0.250390
    13  H    0.042308
    14  C   -0.761942
    15  C    0.807653
    16  H   -0.071587
    17  H    0.138447
    18  O   -1.280453
    19  H    0.058401
    20  H    0.059356
    21  H    0.557006
 Sum of Mulliken charges =  -0.00000

 Dipole moment (field-independent basis, Debye):
    X=             -1.4853    Y=              2.9064    Z=              1.9247  Tot=              3.7892

 Test job not archived.
 1\1\GINC-SE049\SP\RHF\Aug-CC-pVDZ\C5H13N1O2\OHZDE\08-Apr-2025\0\\#t hf
  aug-cc-pvdz iop(5/13=1,5/36=2,99/5=2) pseudo=read geom=check guess=(r
 ead,tcheck) scf=(maxcycle=1)\\title\\0,1\C,0,2.014201,-0.129025,0.4522
 41\C,0,1.155491,1.103812,0.138358\N,0,-0.255826,0.811488,-0.123053\H,0
 ,1.55102,1.570756,-0.768475\H,0,1.284454,1.832286,0.962596\O,0,1.92714
 8,-1.153101,-0.520365\H,0,1.786661,-0.51624,1.454867\H,0,3.057512,0.19
 7741,0.477324\H,0,1.08662,-1.614654,-0.391674\C,0,-0.97612,1.972389,-0
 .630411\H,0,-0.488378,2.346317,-1.533734\H,0,-1.026407,2.798222,0.1013

 Normal termination of Gaussian 16 at Tue Apr  8 23:04:58 2025.
