 Gaussian 16, Revision C.01,

 ----------------------------------------------------------------------
 #t hf aug-cc-pvdz symm=none int=(grid=ultrafine) guess=(read,tcheck) s
 table=opt
 ----------------------------------------------------------------------
 -----
 title
 -----
 Symbolic Z-matrix:
 Charge =  0 Multiplicity = 2

 SCF Done:  E(UHF) =  -291.383572395     A.U. after   18 cycles
 Normal termination of Gaussian 16 at Wed Apr  9 00:33:16 2025.
 Gaussian 16:  ES64L-G16RevC.01  3-Jul-2019

 ----------------------------------------------------------------------
 #t hf aug-cc-pvdz iop(5/13=1,5/36=2,99/5=2) pseudo=read geom=check gue
 ss=(read,tcheck) scf=(maxcycle=1)
 ----------------------------------------------------------------------
 -----
 title
 -----
 Structure from the checkpoint file:  "BDE49_nonexpt_410_mol2.chk"
 Charge =  0 Multiplicity = 2

                         Standard orientation:
 ---------------------------------------------------------------------
 Center     Atomic      Atomic             Coordinates (Angstroms)
 Number     Number       Type             X           Y           Z
 ---------------------------------------------------------------------
      1          9           0       -2.342104   -0.150124   -0.000002
      2          5           0       -1.201351    0.503068    0.000003
      3          6           0        1.248036   -0.029545    0.000001
      4          8           0        2.409492    0.006554   -0.000001
      5          7           0        0.045934   -0.148483    0.000001
 ---------------------------------------------------------------------

 SCF Done:  E(UHF) =  -291.649739433     A.U. after    2 cycles

 The electronic state is 2-A.
 Alpha  occ. eigenvalues --  -26.49596 -20.63486 -15.54928 -11.45446  -7.73618
 Alpha  occ. eigenvalues --   -1.63029  -1.58263  -1.30403  -0.92927  -0.78181
 Alpha  occ. eigenvalues --   -0.76122  -0.71274  -0.69903  -0.67563  -0.67091
 Alpha  occ. eigenvalues --   -0.54158  -0.51304  -0.38528
 Alpha virt. eigenvalues --    0.04264   0.04398   0.05443   0.05868   0.08356
 Alpha virt. eigenvalues --    0.09633   0.09969   0.10295   0.13511   0.16026
 Alpha virt. eigenvalues --    0.19967   0.20128   0.21422   0.21983   0.23899

  Beta  occ. eigenvalues --  -26.49257 -20.63358 -15.54854 -11.45361  -7.71473
  Beta  occ. eigenvalues --   -1.62043  -1.58001  -1.29896  -0.91279  -0.77125
  Beta  occ. eigenvalues --   -0.75283  -0.69827  -0.69095  -0.67119  -0.65772
  Beta  occ. eigenvalues --   -0.52252  -0.51457
  Beta virt. eigenvalues --    0.02679   0.04836   0.04948   0.05771   0.09176
  Beta virt. eigenvalues --    0.09787   0.09813   0.11335   0.11586   0.13719
  Beta virt. eigenvalues --    0.17448   0.20231   0.20660   0.22971   0.23526

 Mulliken charges and spin densities:
               1          2
     1  F   -0.487854  -0.017748
     2  B    0.532063   0.976933
     3  C   -0.017587  -0.010925
     4  O   -0.714410   0.025761
     5  N    0.687788   0.025978
 Sum of Mulliken charges =  -0.00000   1.00000

 Dipole moment (field-independent basis, Debye):
    X=              0.2069    Y=              0.4558    Z=              0.0000  Tot=              0.5006
                          Isotropic Fermi Contact Couplings
        Atom                 a.u.       MegaHertz       Gauss      10(-4) cm-1
     1  F(19)              0.09285     390.66406     139.39865     130.31150
     2  B(11)              0.44228     634.38812     226.36545     211.60910
     3  C(13)              0.00217       2.44162       0.87123       0.81444
     4  O(17)              0.01066      -6.46457      -2.30672      -2.15635
     5  N(14)              0.06384      20.62620       7.35994       6.88016
 --------------------------------------------------------
       Center         ----  Spin Dipole Couplings  ----
                      3XX-RR        3YY-RR        3ZZ-RR

 Normal termination of Gaussian 16 at Wed Apr  9 00:33:19 2025.
