 Gaussian 16, Revision C.01,

 ----------------------------------------------------------------------
 #t hf aug-cc-pvdz symm=none int=(grid=ultrafine) guess=(read,tcheck) s
 table=(opt,rrhf)
 ----------------------------------------------------------------------
 -----
 title
 -----
 Symbolic Z-matrix:
 Charge =  0 Multiplicity = 1

 SCF Done:  E(RHF) =  -665.738662760     A.U. after   14 cycles
 Normal termination of Gaussian 16 at Tue Apr  8 23:53:01 2025.
 Gaussian 16:  ES64L-G16RevC.01  3-Jul-2019

 ----------------------------------------------------------------------
 #t hf aug-cc-pvdz iop(5/13=1,5/36=2,99/5=2) pseudo=read geom=check gue
 ss=(read,tcheck) scf=(maxcycle=1)
 ----------------------------------------------------------------------
 -----
 title
 -----
 Structure from the checkpoint file:  "BDE49_nonexpt_1925_mol1.chk"
 Charge =  0 Multiplicity = 1

                         Standard orientation:
 ---------------------------------------------------------------------
 Center     Atomic      Atomic             Coordinates (Angstroms)
 Number     Number       Type             X           Y           Z
 ---------------------------------------------------------------------
      1          6           0       -0.452728    1.297889    0.727256
      2         14           0        0.687592    1.036004   -0.762675
      3          6           0        1.355533   -0.730552   -0.875937
      4          1           0        1.824049    1.976666   -0.630796
      5          1           0       -0.015904    1.324137   -2.031307
      6          7           0        2.100179   -1.313478   -0.019913
      7          8           0        2.372663   -0.472416    1.078852
      8          1           0        2.950239   -1.014058    1.626548
      9          1           0        1.120955   -1.365928   -1.728215
     10          6           0       -1.698885    0.467827    0.730255
     11          7           0       -1.906035   -0.368589   -0.204277
     12          1           0       -2.428403    0.576573    1.536768
     13          8           0       -3.114096   -1.058644   -0.032962
     14          1           0       -3.133769   -1.643969   -0.796572
     15          1           0       -0.721708    2.361062    0.779172
     16          1           0        0.127207    1.093433    1.634618
 ---------------------------------------------------------------------

 SCF Done:  E(RHF) =  -666.147281592     A.U. after    2 cycles

 The electronic state is 1-A.
 Alpha  occ. eigenvalues --  -69.53603 -20.58993 -20.58823 -15.57567 -15.56687
 Alpha  occ. eigenvalues --  -11.29270 -11.26561 -11.24126  -6.20631  -3.96008
 Alpha  occ. eigenvalues --   -3.95975  -3.95968  -1.50320  -1.50280  -1.19377
 Alpha  occ. eigenvalues --   -1.17801  -0.99422  -0.83864  -0.79727  -0.74739
 Alpha  occ. eigenvalues --   -0.73969  -0.69998  -0.66967  -0.63470  -0.62178
 Alpha  occ. eigenvalues --   -0.60329  -0.58975  -0.57730  -0.55440  -0.48682
 Alpha  occ. eigenvalues --   -0.48059  -0.46723  -0.44233  -0.41872  -0.41012
 Alpha virt. eigenvalues --    0.03427   0.04019   0.04458   0.04524   0.05300
 Alpha virt. eigenvalues --    0.06416   0.06480   0.07002   0.08637   0.09414
 Alpha virt. eigenvalues --    0.09942   0.10415   0.11080   0.12139   0.13655

 Mulliken charges:
               1
     1  C   -0.484886
     2  Si   1.409225
     3  C   -0.860503
     4  H   -0.182699
     5  H   -0.186539
     6  N    1.165366
     7  O   -1.128850
     8  H    0.349458
     9  H   -0.106558
    10  C   -0.967342
    11  N    1.409496
    12  H   -0.020455
    13  O   -1.067258
    14  H    0.289536
    15  H    0.118193
    16  H    0.263817
 Sum of Mulliken charges =  -0.00000

 Dipole moment (field-independent basis, Debye):
    X=             -0.3786    Y=              1.1595    Z=              0.7033  Tot=              1.4079

 Test job not archived.
 1\1\GINC-SE341\SP\RHF\Aug-CC-pVDZ\C3H8N2O2Si1\OHZDE\08-Apr-2025\0\\#t
 hf aug-cc-pvdz iop(5/13=1,5/36=2,99/5=2) pseudo=read geom=check guess=
 (read,tcheck) scf=(maxcycle=1)\\title\\0,1\C,0,-0.452728,1.297889,0.72
 7256\Si,0,0.687592,1.036004,-0.762675\C,0,1.355533,-0.730552,-0.875937
 \H,0,1.824049,1.976666,-0.630796\H,0,-0.015904,1.324137,-2.031307\N,0,
 2.100179,-1.313478,-0.019913\O,0,2.372663,-0.472416,1.078852\H,0,2.950
 239,-1.014058,1.626548\H,0,1.120955,-1.365928,-1.728215\C,0,-1.698885,
 0.467827,0.730255\N,0,-1.906035,-0.368589,-0.204277\H,0,-2.428403,0.57

 Normal termination of Gaussian 16 at Tue Apr  8 23:53:07 2025.
