 Gaussian 16, Revision C.01,

 ----------------------------------------------------------------------
 #t hf aug-cc-pvdz symm=none int=(grid=ultrafine) guess=(read,tcheck) s
 table=(opt,rrhf)
 ----------------------------------------------------------------------
 -----
 title
 -----
 Symbolic Z-matrix:
 Charge =  0 Multiplicity = 1

 SCF Done:  E(RHF) =  -1148.56632271     A.U. after   15 cycles

 1\1\GINC-SE103\Stability\RHF\Aug-CC-pVDZ\C6H4Cl2\OHZDE\08-Apr-2025\0\\
 #t hf aug-cc-pvdz symm=none int=(grid=ultrafine) guess=(read,tcheck) s
 table=(opt,rrhf)\\title\\0,1\C,0,0.,0.699073,-0.025772\C,0,0.,1.391744
 ,1.183908\C,0,0.,0.696546,2.387623\C,0,0.,-0.696546,2.387623\C,0,0.,-1
 .391744,1.183908\C,0,0.,-0.699073,-0.025772\Cl,0,0.,1.608246,-1.515448
 \H,0,0.,1.245486,3.321548\H,0,0.,-1.245486,3.321548\H,0,0.,2.473891,1.
 166512\H,0,0.,-2.473891,1.166512\Cl,0,0.,-1.608246,-1.515448\\Version=
 ES64L-G16RevC.01\HF=-1148.5663227\RMSD=2.557e-09\Dipole=0.,0.,1.172193

 Normal termination of Gaussian 16 at Tue Apr  8 22:48:52 2025.
 Gaussian 16:  ES64L-G16RevC.01  3-Jul-2019

 ----------------------------------------------------------------------
 #t hf aug-cc-pvdz iop(5/13=1,5/36=2,99/5=2) pseudo=read geom=check gue
 ss=(read,tcheck) scf=(maxcycle=1)
 ----------------------------------------------------------------------
 -----
 title
 -----
 Structure from the checkpoint file:  "BDE49_expt_1672_mol1.chk"
 Charge =  0 Multiplicity = 1

                         Standard orientation:
 ---------------------------------------------------------------------
 Center     Atomic      Atomic             Coordinates (Angstroms)
 Number     Number       Type             X           Y           Z
 ---------------------------------------------------------------------
      1          6           0        0.000000    0.699073   -0.025772
      2          6           0        0.000000    1.391744    1.183908
      3          6           0        0.000000    0.696546    2.387623
      4          6           0       -0.000000   -0.696546    2.387623
      5          6           0       -0.000000   -1.391744    1.183908
      6          6           0       -0.000000   -0.699073   -0.025772
      7         17           0        0.000000    1.608246   -1.515448
      8          1           0        0.000000    1.245486    3.321548
      9          1           0       -0.000000   -1.245486    3.321548
     10          1           0        0.000000    2.473891    1.166512
     11          1           0       -0.000000   -2.473891    1.166512
     12         17           0       -0.000000   -1.608246   -1.515448
 ---------------------------------------------------------------------

 SCF Done:  E(RHF) =  -1148.95144565     A.U. after    2 cycles

 The electronic state is 1-A1.
 Alpha  occ. eigenvalues -- -105.58113-105.58112 -11.32841 -11.32762 -11.27215
 Alpha  occ. eigenvalues --  -11.27180 -11.26829 -11.26761 -10.62920 -10.62920
 Alpha  occ. eigenvalues --   -7.79897  -7.79883  -7.79478  -7.79471  -7.79463
 Alpha  occ. eigenvalues --   -7.79461  -1.21202  -1.11312  -1.10998  -1.01912
 Alpha  occ. eigenvalues --   -0.98879  -0.86528  -0.83546  -0.72370  -0.69196
 Alpha  occ. eigenvalues --   -0.66077  -0.62131  -0.61147  -0.58487  -0.54572
 Alpha  occ. eigenvalues --   -0.54322  -0.50223  -0.48556  -0.48392  -0.46121
 Alpha  occ. eigenvalues --   -0.36603  -0.35433
 Alpha virt. eigenvalues --    0.03023   0.03559   0.04552   0.05999   0.07815
 Alpha virt. eigenvalues --    0.07917   0.08410   0.10351   0.11150   0.11254
 Alpha virt. eigenvalues --    0.13087   0.13143   0.13496   0.13828   0.14561

 Mulliken charges:
               1
     1  C    0.145876
     2  C    0.279089
     3  C    0.188385
     4  C    0.188385
     5  C    0.279089
     6  C    0.145876
     7  Cl  -0.259965
     8  H   -0.195114
     9  H   -0.195114
    10  H   -0.158270
    11  H   -0.158270
    12  Cl  -0.259965
 Sum of Mulliken charges =  -0.00000

 Dipole moment (field-independent basis, Debye):
    X=              0.0000    Y=              0.0000    Z=              2.9760  Tot=              2.9760

 Test job not archived.
 1\1\GINC-SE103\SP\RHF\Aug-CC-pVDZ\C6H4Cl2\OHZDE\08-Apr-2025\0\\#t hf a
 ug-cc-pvdz iop(5/13=1,5/36=2,99/5=2) pseudo=read geom=check guess=(rea
 d,tcheck) scf=(maxcycle=1)\\title\\0,1\C,0,0.,0.699073,-0.025772\C,0,0
 .,1.391744,1.183908\C,0,0.,0.696546,2.387623\C,0,0.,-0.696546,2.387623
 \C,0,0.,-1.391744,1.183908\C,0,0.,-0.699073,-0.025772\Cl,0,0.,1.608246
 ,-1.515448\H,0,0.,1.245486,3.321548\H,0,0.,-1.245486,3.321548\H,0,0.,2
 .473891,1.166512\H,0,0.,-2.473891,1.166512\Cl,0,0.,-1.608246,-1.515448
 \\Version=ES64L-G16RevC.01\State=1-A1\HF=-1148.9514457\RMSD=4.666e-02\

 Normal termination of Gaussian 16 at Tue Apr  8 22:48:59 2025.
