 Gaussian 16, Revision C.01,

 ----------------------------------------------------------------------
 #t hf aug-cc-pvdz symm=none int=(grid=ultrafine) guess=(read,tcheck) s
 table=(opt,rrhf)
 ----------------------------------------------------------------------
 -----
 title
 -----
 Symbolic Z-matrix:
 Charge =  0 Multiplicity = 1

 SCF Done:  E(RHF) =  -2615.13440089     A.U. after   12 cycles
 Normal termination of Gaussian 16 at Wed Apr  9 00:09:42 2025.
 Gaussian 16:  ES64L-G16RevC.01  3-Jul-2019

 ----------------------------------------------------------------------
 #t hf aug-cc-pvdz iop(5/13=1,5/36=2,99/5=2) pseudo=read geom=check gue
 ss=(read,tcheck) scf=(maxcycle=1)
 ----------------------------------------------------------------------
 -----
 title
 -----
 Structure from the checkpoint file:  "BDE49_nonexpt_2328_mol1.chk"
 Charge =  0 Multiplicity = 1

                         Standard orientation:
 ---------------------------------------------------------------------
 Center     Atomic      Atomic             Coordinates (Angstroms)
 Number     Number       Type             X           Y           Z
 ---------------------------------------------------------------------
      1         14           0        1.356918    0.514563   -0.000002
      2         14           0       -0.911884   -0.069566   -0.000001
      3         17           0       -2.059690    1.634004   -0.000021
      4         17           0       -1.332744   -1.177832    1.677317
      5          9           0        1.684786    1.396392    1.281179
      6         17           0        2.574779   -1.123293    0.000018
      7         17           0       -1.332737   -1.177866   -1.677299
      8          9           0        1.684792    1.396365   -1.281201
 ---------------------------------------------------------------------

 SCF Done:  E(RHF) =  -2615.68284477     A.U. after    2 cycles

 The electronic state is 1-A.
 Alpha  occ. eigenvalues -- -105.60021-105.60021-105.60006-105.59929 -69.69918
 Alpha  occ. eigenvalues --  -69.69357 -26.49855 -26.49854 -10.65040 -10.65026
 Alpha  occ. eigenvalues --  -10.65011 -10.64988  -7.81927  -7.81920  -7.81902
 Alpha  occ. eigenvalues --   -7.81871  -7.81586  -7.81586  -7.81582  -7.81580
 Alpha  occ. eigenvalues --   -7.81565  -7.81561  -7.81537  -7.81532  -6.35695
 Alpha  occ. eigenvalues --   -6.35202  -4.11048  -4.10975  -4.10774  -4.10542
 Alpha  occ. eigenvalues --   -4.10542  -4.10358  -1.62556  -1.60186  -1.13268
 Alpha  occ. eigenvalues --   -1.09837  -1.08007  -1.07979  -0.82598  -0.75329
 Alpha  occ. eigenvalues --   -0.73445  -0.70720  -0.69945  -0.67014  -0.65130
 Alpha  occ. eigenvalues --   -0.62235  -0.60538  -0.60486  -0.57470  -0.53047
 Alpha  occ. eigenvalues --   -0.52948  -0.52290  -0.51662  -0.50356  -0.50286
 Alpha  occ. eigenvalues --   -0.48913  -0.45930
 Alpha virt. eigenvalues --    0.04786   0.04938   0.05333   0.05456   0.07616
 Alpha virt. eigenvalues --    0.07780   0.07891   0.08834   0.08921   0.09068
 Alpha virt. eigenvalues --    0.11820   0.12208   0.13644   0.14841   0.15572

 Mulliken charges:
               1
     1  Si   2.364055
     2  Si   1.285105
     3  Cl  -0.498309
     4  Cl  -0.499894
     5  F   -0.825259
     6  Cl  -0.500545
     7  Cl  -0.499894
     8  F   -0.825258
 Sum of Mulliken charges =  -0.00000

 Dipole moment (field-independent basis, Debye):
    X=             -0.3380    Y=             -0.4135    Z=              0.0000  Tot=              0.5341

 Test job not archived.
 1\1\GINC-SE329\SP\RHF\Aug-CC-pVDZ\Cl4F2Si2\OHZDE\09-Apr-2025\0\\#t hf
 aug-cc-pvdz iop(5/13=1,5/36=2,99/5=2) pseudo=read geom=check guess=(re
 ad,tcheck) scf=(maxcycle=1)\\title\\0,1\Si,0,1.356918,0.514563,-0.0000
 02\Si,0,-0.911884,-0.069566,-0.000001\Cl,0,-2.05969,1.634004,-0.000021
 \Cl,0,-1.332744,-1.177832,1.677317\F,0,1.684786,1.396392,1.281179\Cl,0
 ,2.574779,-1.123293,0.000018\Cl,0,-1.332737,-1.177866,-1.677299\F,0,1.
 684792,1.396365,-1.281201\\Version=ES64L-G16RevC.01\State=1-A\HF=-2615
 .6828448\RMSD=2.571e-03\Dipole=-0.1329652,-0.162702,0.0000038\Quadrupo

 Normal termination of Gaussian 16 at Wed Apr  9 00:09:46 2025.
