 Gaussian 16, Revision C.01,

 ----------------------------------------------------------------------
 #t hf aug-cc-pvdz symm=none int=(grid=ultrafine) guess=(read,tcheck) s
 table=(opt,rrhf)
 ----------------------------------------------------------------------
 -----
 title
 -----
 Symbolic Z-matrix:
 Charge =  0 Multiplicity = 1

 SCF Done:  E(RHF) =  -498.624273753     A.U. after   12 cycles

 1\1\GINC-SE058\Stability\RHF\Aug-CC-pVDZ\C4H11P1\OHZDE\08-Apr-2025\0\\
 #t hf aug-cc-pvdz symm=none int=(grid=ultrafine) guess=(read,tcheck) s
 table=(opt,rrhf)\\title\\0,1\P,0,1.535773,0.,-0.131093\C,0,-0.356542,0
 .,0.007204\C,0,-0.842422,0.,1.464955\H,0,-0.491356,0.883747,2.004086\H
 ,0,-0.491356,-0.883747,2.004086\C,0,-0.870102,-1.259052,-0.716726\H,0,
 -1.938848,0.,1.499948\H,0,-1.965475,-1.275965,-0.709296\H,0,-0.542011,
 -1.286683,-1.759494\H,0,-0.521658,-2.174115,-0.228651\C,0,-0.870102,1.
 259052,-0.716726\H,0,-0.521658,2.174115,-0.228651\H,0,-1.965475,1.2759

 Normal termination of Gaussian 16 at Tue Apr  8 23:26:10 2025.
 Gaussian 16:  ES64L-G16RevC.01  3-Jul-2019

 ----------------------------------------------------------------------
 #t hf aug-cc-pvdz iop(5/13=1,5/36=2,99/5=2) pseudo=read geom=check gue
 ss=(read,tcheck) scf=(maxcycle=1)
 ----------------------------------------------------------------------
 -----
 title
 -----
 Structure from the checkpoint file:  "BDE49_nonexpt_1272_mol1.chk"
 Charge =  0 Multiplicity = 1

                         Standard orientation:
 ---------------------------------------------------------------------
 Center     Atomic      Atomic             Coordinates (Angstroms)
 Number     Number       Type             X           Y           Z
 ---------------------------------------------------------------------
      1         15           0       -1.535773   -0.000000   -0.131093
      2          6           0        0.356542    0.000000    0.007204
      3          6           0        0.842422    0.000000    1.464955
      4          1           0        0.491356   -0.883747    2.004086
      5          1           0        0.491356    0.883747    2.004086
      6          6           0        0.870102    1.259052   -0.716726
      7          1           0        1.938848    0.000000    1.499948
      8          1           0        1.965475    1.275965   -0.709296
      9          1           0        0.542011    1.286683   -1.759494
     10          1           0        0.521658    2.174115   -0.228651
     11          6           0        0.870102   -1.259052   -0.716726
     12          1           0        0.521658   -2.174115   -0.228651
     13          1           0        1.965475   -1.275965   -0.709296
     14          1           0        0.542011   -1.286683   -1.759494
     15          1           0       -1.789129    1.033480    0.810461
     16          1           0       -1.789128   -1.033480    0.810461
 ---------------------------------------------------------------------

 SCF Done:  E(RHF) =  -498.848606127     A.U. after    2 cycles

 The electronic state is 1-A.
 Alpha  occ. eigenvalues --  -84.26221 -11.25471 -11.23058 -11.23041 -11.22902
 Alpha  occ. eigenvalues --   -6.73297  -4.25934  -4.25826  -4.25197  -1.09946
 Alpha  occ. eigenvalues --   -0.93962  -0.93874  -0.86052  -0.73205  -0.61855
 Alpha  occ. eigenvalues --   -0.61284  -0.60842  -0.55541  -0.55185  -0.52648
 Alpha  occ. eigenvalues --   -0.49345  -0.48495  -0.47425  -0.42453  -0.33413
 Alpha virt. eigenvalues --    0.03766   0.04120   0.04267   0.04587   0.06453
 Alpha virt. eigenvalues --    0.06474   0.06609   0.07167   0.07459   0.09664
 Alpha virt. eigenvalues --    0.10014   0.10674   0.12175   0.12632   0.13712

 Mulliken charges:
               1
     1  P   -0.472276
     2  C   -1.917883
     3  C    0.080588
     4  H    0.144136
     5  H    0.144137
     6  C    0.006182
     7  H    0.219218
     8  H    0.210240
     9  H    0.168519
    10  H    0.155892
    11  C    0.006182
    12  H    0.155892
    13  H    0.210240
    14  H    0.168519
    15  H    0.360207
    16  H    0.360207
 Sum of Mulliken charges =  -0.00000

 Dipole moment (field-independent basis, Debye):
    X=              0.9062    Y=              0.0000    Z=              0.4054  Tot=              0.9927

 Test job not archived.
 1\1\GINC-SE058\SP\RHF\Aug-CC-pVDZ\C4H11P1\OHZDE\08-Apr-2025\0\\#t hf a
 ug-cc-pvdz iop(5/13=1,5/36=2,99/5=2) pseudo=read geom=check guess=(rea
 d,tcheck) scf=(maxcycle=1)\\title\\0,1\P,0,1.535773,0.,-0.131093\C,0,-
 0.356542,0.,0.007204\C,0,-0.842422,0.,1.464955\H,0,-0.491356,0.883747,
 2.004086\H,0,-0.491356,-0.883747,2.004086\C,0,-0.870102,-1.259052,-0.7
 16726\H,0,-1.938848,0.,1.499948\H,0,-1.965475,-1.275965,-0.709296\H,0,
 -0.542011,-1.286683,-1.759494\H,0,-0.521658,-2.174115,-0.228651\C,0,-0
 .870102,1.259052,-0.716726\H,0,-0.521658,2.174115,-0.228651\H,0,-1.965

 Normal termination of Gaussian 16 at Tue Apr  8 23:26:15 2025.
