 Gaussian 16, Revision C.01,

 ----------------------------------------------------------------------
 #t hf aug-cc-pvdz symm=none int=(grid=ultrafine) guess=(read,tcheck) s
 table=(opt,rrhf)
 ----------------------------------------------------------------------
 -----
 title
 -----
 Symbolic Z-matrix:
 Charge =  0 Multiplicity = 1

 SCF Done:  E(RHF) =  -734.289520876     A.U. after   14 cycles
 Normal termination of Gaussian 16 at Wed Apr  9 00:20:36 2025.
 Gaussian 16:  ES64L-G16RevC.01  3-Jul-2019

 ----------------------------------------------------------------------
 #t hf aug-cc-pvdz iop(5/13=1,5/36=2,99/5=2) pseudo=read geom=check gue
 ss=(read,tcheck) scf=(maxcycle=1)
 ----------------------------------------------------------------------
 -----
 title
 -----
 Structure from the checkpoint file:  "BDE49_nonexpt_2623_mol1.chk"
 Charge =  0 Multiplicity = 1

                         Standard orientation:
 ---------------------------------------------------------------------
 Center     Atomic      Atomic             Coordinates (Angstroms)
 Number     Number       Type             X           Y           Z
 ---------------------------------------------------------------------
      1          9           0       -1.854559    0.525995    0.309332
      2         16           0       -0.807605   -0.624226   -0.285574
      3          6           0        0.715237    0.142329    0.344561
      4          9           0        1.677741   -0.802046    0.167455
      5          9           0        1.066876    1.245704   -0.354184
      6          1           0        0.619732    0.406766    1.398393
 ---------------------------------------------------------------------

 SCF Done:  E(RHF) =  -734.654621951     A.U. after    2 cycles

 The electronic state is 1-A.
 Alpha  occ. eigenvalues --  -94.06631 -26.51916 -26.50890 -26.49836 -11.47840
 Alpha  occ. eigenvalues --   -8.34025  -6.31786  -6.31508  -6.31192  -1.68285
 Alpha  occ. eigenvalues --   -1.61351  -1.59844  -1.08202  -0.93009  -0.80756
 Alpha  occ. eigenvalues --   -0.78062  -0.76661  -0.68270  -0.67921  -0.66802
 Alpha  occ. eigenvalues --   -0.64518  -0.63625  -0.61428  -0.50874  -0.41965
 Alpha virt. eigenvalues --    0.03888   0.04946   0.06814   0.09545   0.10585
 Alpha virt. eigenvalues --    0.11604   0.12513   0.14592   0.16478   0.21379
 Alpha virt. eigenvalues --    0.22149   0.23769   0.24021   0.27219   0.28724

 Mulliken charges:
               1
     1  F   -0.652656
     2  S    0.908533
     3  C    0.848911
     4  F   -0.610991
     5  F   -0.611307
     6  H    0.117511
 Sum of Mulliken charges =  -0.00000

 Dipole moment (field-independent basis, Debye):
    X=              0.2491    Y=             -0.5262    Z=              0.9908  Tot=              1.1492

 Test job not archived.
 1\1\GINC-SE455\SP\RHF\Aug-CC-pVDZ\C1H1F3S1\OHZDE\09-Apr-2025\0\\#t hf
 aug-cc-pvdz iop(5/13=1,5/36=2,99/5=2) pseudo=read geom=check guess=(re
 ad,tcheck) scf=(maxcycle=1)\\title\\0,1\F,0,-1.854559,0.525994,0.30933
 2\S,0,-0.807605,-0.624226,-0.285574\C,0,0.715237,0.142329,0.344561\F,0
 ,1.677741,-0.802046,0.167455\F,0,1.066875,1.245704,-0.354184\H,0,0.619
 732,0.406766,1.398393\\Version=ES64L-G16RevC.01\State=1-A\HF=-734.6546
 22\RMSD=3.830e-03\Dipole=0.0980028,-0.2070194,0.3898018\Quadrupole=-1.
 4672004,-0.2896375,1.7568379,0.8886779,1.3199853,1.2664532\PG=C01 [X(C

 Normal termination of Gaussian 16 at Wed Apr  9 00:20:38 2025.
