 Gaussian 16, Revision C.01,

 ----------------------------------------------------------------------
 #t hf aug-cc-pvdz symm=none int=(grid=ultrafine) guess=(read,tcheck) s
 table=(opt,rrhf)
 ----------------------------------------------------------------------
 -----
 title
 -----
 Symbolic Z-matrix:
 Charge =  0 Multiplicity = 1

 SCF Done:  E(RHF) =  -967.946439017     A.U. after   17 cycles
 Normal termination of Gaussian 16 at Tue Apr  8 23:20:02 2025.
 Gaussian 16:  ES64L-G16RevC.01  3-Jul-2019

 ----------------------------------------------------------------------
 #t hf aug-cc-pvdz iop(5/13=1,5/36=2,99/5=2) pseudo=read geom=check gue
 ss=(read,tcheck) scf=(maxcycle=1)
 ----------------------------------------------------------------------
 -----
 title
 -----
 Structure from the checkpoint file:  "BDE49_nonexpt_1090_mol1.chk"
 Charge =  0 Multiplicity = 1

                         Standard orientation:
 ---------------------------------------------------------------------
 Center     Atomic      Atomic             Coordinates (Angstroms)
 Number     Number       Type             X           Y           Z
 ---------------------------------------------------------------------
      1         17           0        3.702736   -0.496463   -0.000000
      2          8           0        2.538446    0.781945    0.000003
      3          6           0        1.211836    0.416995    0.000005
      4          6           0        0.346704    1.520033   -0.000005
      5          6           0       -1.020819    1.311305   -0.000001
      6          6           0       -1.509418    0.005981    0.000011
      7          6           0        0.719499   -0.885086    0.000017
      8          1           0        1.395098   -1.727999    0.000024
      9          6           0       -0.656006   -1.088656    0.000020
     10          1           0       -1.072401   -2.086100    0.000030
     11          7           0       -2.965624   -0.216597    0.000015
     12          8           0       -3.689108    0.771171   -0.000037
     13          8           0       -3.362995   -1.374600   -0.000017
     14          1           0        0.763504    2.518684   -0.000015
     15          1           0       -1.714870    2.139891   -0.000009
 ---------------------------------------------------------------------

 SCF Done:  E(RHF) =  -968.515407221     A.U. after    2 cycles

 The electronic state is 1-A.
 Alpha  occ. eigenvalues -- -105.65723 -20.67243 -20.59245 -20.59217 -15.79657
 Alpha  occ. eigenvalues --  -11.36309 -11.31724 -11.29746 -11.29548 -11.28092
 Alpha  occ. eigenvalues --  -11.28031 -10.69884  -7.86882  -7.86323  -7.86286
 Alpha  occ. eigenvalues --   -1.67209  -1.54236  -1.50899  -1.21446  -1.12304
 Alpha  occ. eigenvalues --   -1.07889  -1.05975  -0.97418  -0.89653  -0.85145
 Alpha  occ. eigenvalues --   -0.80995  -0.75752  -0.75432  -0.74882  -0.71080
 Alpha  occ. eigenvalues --   -0.67494  -0.67143  -0.65056  -0.62312  -0.60703
 Alpha  occ. eigenvalues --   -0.55246  -0.55186  -0.50581  -0.50049  -0.49125
 Alpha  occ. eigenvalues --   -0.49012  -0.45442  -0.39310  -0.37442
 Alpha virt. eigenvalues --    0.02309   0.02966   0.03323   0.04380   0.04777
 Alpha virt. eigenvalues --    0.06617   0.07226   0.08051   0.09688   0.09862
 Alpha virt. eigenvalues --    0.12179   0.12315   0.12377   0.12491   0.13153

 Mulliken charges:
               1
     1  Cl   0.348937
     2  O   -1.610399
     3  C    0.762032
     4  C    0.585028
     5  C    0.444526
     6  C   -0.095643
     7  C    0.273665
     8  H   -0.250758
     9  C    0.156809
    10  H   -0.197973
    11  N    2.932731
    12  O   -1.462821
    13  O   -1.464705
    14  H   -0.221833
    15  H   -0.199598
 Sum of Mulliken charges =  -0.00000

 Dipole moment (field-independent basis, Debye):
    X=              4.0030    Y=              0.2089    Z=              0.0001  Tot=              4.0085

 Test job not archived.
 1\1\GINC-SE365\SP\RHF\Aug-CC-pVDZ\C6H4Cl1N1O3\OHZDE\08-Apr-2025\0\\#t
 hf aug-cc-pvdz iop(5/13=1,5/36=2,99/5=2) pseudo=read geom=check guess=
 (read,tcheck) scf=(maxcycle=1)\\title\\0,1\Cl,0,3.702736,-0.496463,0.\
 O,0,2.538446,0.781945,0.000003\C,0,1.211836,0.416995,0.000005\C,0,0.34
 6704,1.520033,-0.000005\C,0,-1.020819,1.311305,-0.000001\C,0,-1.509418
 ,0.005981,0.000011\C,0,0.719499,-0.885086,0.000017\H,0,1.395098,-1.727
 999,0.000024\C,0,-0.656006,-1.088656,0.00002\H,0,-1.072401,-2.0861,0.0
 0003\N,0,-2.965624,-0.216597,0.000015\O,0,-3.689108,0.771171,-0.000037

 Normal termination of Gaussian 16 at Tue Apr  8 23:20:09 2025.
