 Gaussian 16, Revision C.01,

 ----------------------------------------------------------------------
 #t hf aug-cc-pvdz symm=none int=(grid=ultrafine) guess=(read,tcheck) s
 table=opt
 ----------------------------------------------------------------------
 -----
 title
 -----
 Symbolic Z-matrix:
 Charge =  0 Multiplicity = 2

 SCF Done:  E(UHF) =  -664.917702143     A.U. after   22 cycles
 Normal termination of Gaussian 16 at Wed Apr  9 00:19:42 2025.
 Gaussian 16:  ES64L-G16RevC.01  3-Jul-2019

 ----------------------------------------------------------------------
 #t hf aug-cc-pvdz iop(5/13=1,5/36=2,99/5=2) pseudo=read geom=check gue
 ss=(read,tcheck) scf=(maxcycle=1)
 ----------------------------------------------------------------------
 -----
 title
 -----
 Structure from the checkpoint file:  "BDE49_nonexpt_2586_mol2.chk"
 Charge =  0 Multiplicity = 2

                         Standard orientation:
 ---------------------------------------------------------------------
 Center     Atomic      Atomic             Coordinates (Angstroms)
 Number     Number       Type             X           Y           Z
 ---------------------------------------------------------------------
      1         16           0       -1.484368   -1.098722   -0.100664
      2          6           0        0.013269   -0.195040    0.483801
      3          8           0       -0.196223    1.157259    0.721907
      4          8           0        0.967306   -0.457151   -0.506185
      5          6           0       -0.491920    1.970378   -0.421276
      6          1           0       -0.660570    2.972940   -0.032235
      7          1           0       -1.389408    1.613394   -0.932126
      8          1           0        0.344366    1.978349   -1.123546
      9          6           0        2.311239   -0.509332   -0.019390
     10          1           0        2.949487   -0.645209   -0.891121
     11          1           0        2.448228   -1.354695    0.664180
     12          1           0        2.579280    0.421695    0.489757
     13          1           0        0.314313   -0.603814    1.451130
 ---------------------------------------------------------------------

 SCF Done:  E(UHF) =  -665.245487020     A.U. after    2 cycles

 The electronic state is 2-A.
 Alpha  occ. eigenvalues --  -93.96675 -20.57170 -20.56494 -11.38237 -11.29933
 Alpha  occ. eigenvalues --  -11.28404  -8.24775  -6.23960  -6.22170  -6.21857
 Alpha  occ. eigenvalues --   -1.52189  -1.45404  -1.05715  -0.96037  -0.94922
 Alpha  occ. eigenvalues --   -0.82720  -0.71745  -0.70226  -0.67110  -0.62508
 Alpha  occ. eigenvalues --   -0.61746  -0.58655  -0.54048  -0.53719  -0.48456
 Alpha  occ. eigenvalues --   -0.46736  -0.43722  -0.42839  -0.38880
 Alpha virt. eigenvalues --    0.03509   0.04234   0.04463   0.05265   0.06542
 Alpha virt. eigenvalues --    0.07044   0.07449   0.09074   0.11063   0.12266
 Alpha virt. eigenvalues --    0.13618   0.14575   0.14794   0.15627   0.16186

  Beta  occ. eigenvalues --  -93.95765 -20.57023 -20.56467 -11.38378 -11.29923
  Beta  occ. eigenvalues --  -11.28409  -8.23730  -6.21626  -6.21313  -6.19928
  Beta  occ. eigenvalues --   -1.51995  -1.45199  -1.02289  -0.95370  -0.91505
  Beta  occ. eigenvalues --   -0.80916  -0.71674  -0.69831  -0.66083  -0.62324
  Beta  occ. eigenvalues --   -0.61598  -0.58348  -0.53821  -0.53325  -0.47992
  Beta  occ. eigenvalues --   -0.45226  -0.42242  -0.36572
  Beta virt. eigenvalues --    0.00815   0.03514   0.04240   0.04574   0.05304
  Beta virt. eigenvalues --    0.06577   0.07072   0.07553   0.09217   0.11353
  Beta virt. eigenvalues --    0.13173   0.13692   0.14823   0.15356   0.15698

 Mulliken charges and spin densities:
               1          2
     1  S    0.247400   1.105371
     2  C    1.072388  -0.077487
     3  O   -1.297858   0.005231
     4  O   -1.180657  -0.022442
     5  C    0.128633   0.003591
     6  H   -0.013884   0.000514
     7  H    0.221920  -0.016542
     8  H    0.169934   0.001007
     9  C    0.169588  -0.004699
    10  H    0.010902  -0.000820
    11  H    0.134439  -0.000057
    12  H    0.198478   0.000519
    13  H    0.138719   0.005814
 Sum of Mulliken charges =  -0.00000   1.00000

 Dipole moment (field-independent basis, Debye):
    X=              1.9941    Y=              0.7581    Z=              0.2126  Tot=              2.1439
                          Isotropic Fermi Contact Couplings
        Atom                 a.u.       MegaHertz       Gauss      10(-4) cm-1
     1  S(33)              0.18487      63.49934      22.65814      21.18110
     2  C(13)             -0.02327     -26.15794      -9.33380      -8.72535
     3  O(17)              0.00176      -1.06683      -0.38067      -0.35586
     4  O(17)              0.04499     -27.27059      -9.73082      -9.09649
     5  C(13)             -0.00114      -1.28089      -0.45705      -0.42726
     6  H(1)               0.00009       0.38111       0.13599       0.12712
     7  H(1)               0.00012       0.53524       0.19099       0.17854
     8  H(1)              -0.00003      -0.14222      -0.05075      -0.04744

 Normal termination of Gaussian 16 at Wed Apr  9 00:19:48 2025.
