 Gaussian 16, Revision C.01,

 ----------------------------------------------------------------------
 #t hf aug-cc-pvdz symm=none int=(grid=ultrafine) guess=(read,tcheck) s
 table=(opt,rrhf)
 ----------------------------------------------------------------------
 -----
 title
 -----
 Symbolic Z-matrix:
 Charge =  0 Multiplicity = 1

 SCF Done:  E(RHF) =  -986.770235293     A.U. after   15 cycles
 Normal termination of Gaussian 16 at Wed Apr  9 00:22:38 2025.
 Gaussian 16:  ES64L-G16RevC.01  3-Jul-2019

 ----------------------------------------------------------------------
 #t hf aug-cc-pvdz iop(5/13=1,5/36=2,99/5=2) pseudo=read geom=check gue
 ss=(read,tcheck) scf=(maxcycle=1)
 ----------------------------------------------------------------------
 -----
 title
 -----
 Structure from the checkpoint file:  "BDE49_nonexpt_2663_mol1.chk"
 Charge =  0 Multiplicity = 1

                         Standard orientation:
 ---------------------------------------------------------------------
 Center     Atomic      Atomic             Coordinates (Angstroms)
 Number     Number       Type             X           Y           Z
 ---------------------------------------------------------------------
      1          9           0        1.815516    1.217974    0.000004
      2         16           0        1.736341   -0.450606   -0.000004
      3          7           0        0.141883   -0.765238   -0.000002
      4          6           0       -0.974291   -0.302324    0.000002
      5         16           0       -2.454283    0.213659    0.000002
 ---------------------------------------------------------------------

 SCF Done:  E(RHF) =  -987.060811780     A.U. after    2 cycles

 The electronic state is 1-A.
 Alpha  occ. eigenvalues --  -94.11269 -93.98205 -26.49716 -15.58974 -11.41979
 Alpha  occ. eigenvalues --   -8.37989  -8.26459  -6.35753  -6.35484  -6.35083
 Alpha  occ. eigenvalues --   -6.24337  -6.23943  -6.23861  -1.59889  -1.33751
 Alpha  occ. eigenvalues --   -1.12792  -1.06129  -0.80123  -0.69664  -0.69126
 Alpha  occ. eigenvalues --   -0.64545  -0.64059  -0.62019  -0.58919  -0.46194
 Alpha  occ. eigenvalues --   -0.42746  -0.36689
 Alpha virt. eigenvalues --    0.02614   0.06058   0.06366   0.07404   0.08094
 Alpha virt. eigenvalues --    0.08117   0.10229   0.11786   0.13615   0.13937
 Alpha virt. eigenvalues --    0.14476   0.15802   0.16526   0.20846   0.22015

 Mulliken charges:
               1
     1  F   -0.634237
     2  S    0.976212
     3  N    0.137682
     4  C   -0.898046
     5  S    0.418389
 Sum of Mulliken charges =  -0.00000

 Dipole moment (field-independent basis, Debye):
    X=              0.1845    Y=             -0.6781    Z=             -0.0000  Tot=              0.7028

 Test job not archived.
 1\1\GINC-SE120\SP\RHF\Aug-CC-pVDZ\C1F1N1S2\OHZDE\09-Apr-2025\0\\#t hf
 aug-cc-pvdz iop(5/13=1,5/36=2,99/5=2) pseudo=read geom=check guess=(re
 ad,tcheck) scf=(maxcycle=1)\\title\\0,1\F,0,1.815516,1.217974,0.000004
 \S,0,1.736341,-0.450606,-0.000004\N,0,0.141883,-0.765238,-0.000002\C,0
 ,-0.974291,-0.302324,0.000002\S,0,-2.454283,0.213659,0.000002\\Version
 =ES64L-G16RevC.01\State=1-A\HF=-987.0608118\RMSD=9.050e-03\Dipole=0.07
 25786,-0.266788,-0.0000014\Quadrupole=2.0596026,-0.824292,-1.2353107,-
 1.8214686,-0.0000102,0.0000026\PG=C01 [X(C1F1N1S2)]\\@

 Normal termination of Gaussian 16 at Wed Apr  9 00:22:40 2025.
