 Gaussian 16, Revision C.01,

 ----------------------------------------------------------------------
 #t hf aug-cc-pvdz symm=none int=(grid=ultrafine) guess=(read,tcheck) s
 table=(opt,rrhf)
 ----------------------------------------------------------------------
 -----
 title
 -----
 Symbolic Z-matrix:
 Charge =  0 Multiplicity = 1

 SCF Done:  E(RHF) =  -651.995604223     A.U. after   14 cycles
 Normal termination of Gaussian 16 at Tue Apr  8 23:16:55 2025.
 Gaussian 16:  ES64L-G16RevC.01  3-Jul-2019

 ----------------------------------------------------------------------
 #t hf aug-cc-pvdz iop(5/13=1,5/36=2,99/5=2) pseudo=read geom=check gue
 ss=(read,tcheck) scf=(maxcycle=1)
 ----------------------------------------------------------------------
 -----
 title
 -----
 Structure from the checkpoint file:  "BDE49_nonexpt_1039_mol1.chk"
 Charge =  0 Multiplicity = 1

                         Standard orientation:
 ---------------------------------------------------------------------
 Center     Atomic      Atomic             Coordinates (Angstroms)
 Number     Number       Type             X           Y           Z
 ---------------------------------------------------------------------
      1         17           0       -2.098452   -0.166139    0.067273
      2          8           0       -0.437983   -0.210201   -0.437300
      3          6           0        0.346608    0.762415    0.271848
      4          6           0        1.778292    0.576455   -0.218785
      5          1           0       -0.022514    1.768624    0.047669
      6          6           0        2.393683   -0.773361    0.160003
      7          1           0        2.366916    1.396478    0.208390
      8          1           0        1.794586    0.712755   -1.304619
      9          1           0        2.420914   -0.902292    1.246275
     10          1           0        3.418358   -0.851182   -0.211281
     11          1           0        0.271591    0.586534    1.350938
     12          1           0        1.816202   -1.598003   -0.260997
 ---------------------------------------------------------------------

 SCF Done:  E(RHF) =  -652.274454544     A.U. after    2 cycles

 The electronic state is 1-A.
 Alpha  occ. eigenvalues -- -105.61226 -20.62167 -11.30314 -11.24538 -11.23013
 Alpha  occ. eigenvalues --  -10.65463  -7.82442  -7.81924  -7.81899  -1.47463
 Alpha  occ. eigenvalues --   -1.07921  -1.01148  -0.92677  -0.81951  -0.68035
 Alpha  occ. eigenvalues --   -0.67210  -0.62608  -0.59977  -0.56469  -0.54379
 Alpha  occ. eigenvalues --   -0.50645  -0.49876  -0.49118  -0.46281  -0.43049
 Alpha virt. eigenvalues --    0.03571   0.04132   0.04271   0.05211   0.06706
 Alpha virt. eigenvalues --    0.07092   0.07660   0.08020   0.10758   0.11872
 Alpha virt. eigenvalues --    0.14435   0.14600   0.15597   0.15994   0.16482

 Mulliken charges:
               1
     1  Cl   0.293356
     2  O   -1.074818
     3  C    0.598955
     4  C   -0.522674
     5  H    0.087519
     6  C   -0.309322
     7  H    0.187694
     8  H    0.147641
     9  H    0.153541
    10  H    0.124142
    11  H    0.127101
    12  H    0.186864
 Sum of Mulliken charges =   0.00000

 Dipole moment (field-independent basis, Debye):
    X=              1.6829    Y=              1.1432    Z=              0.6777  Tot=              2.1444

 Test job not archived.
 1\1\GINC-SE402\SP\RHF\Aug-CC-pVDZ\C3H7Cl1O1\OHZDE\08-Apr-2025\0\\#t hf
  aug-cc-pvdz iop(5/13=1,5/36=2,99/5=2) pseudo=read geom=check guess=(r
 ead,tcheck) scf=(maxcycle=1)\\title\\0,1\Cl,0,-2.098452,-0.166139,0.06
 7273\O,0,-0.437983,-0.210201,-0.4373\C,0,0.346608,0.762415,0.271848\C,
 0,1.778292,0.576455,-0.218785\H,0,-0.022514,1.768624,0.047669\C,0,2.39
 3683,-0.773361,0.160003\H,0,2.366916,1.396478,0.20839\H,0,1.794586,0.7
 12755,-1.304619\H,0,2.420914,-0.902292,1.246275\H,0,3.418358,-0.851182
 ,-0.211281\H,0,0.271591,0.586534,1.350938\H,0,1.816202,-1.598003,-0.26

 Normal termination of Gaussian 16 at Tue Apr  8 23:16:58 2025.
