 Gaussian 16, Revision C.01,

 ----------------------------------------------------------------------
 #t hf aug-cc-pvdz symm=none int=(grid=ultrafine) guess=(read,tcheck) s
 table=(opt,rrhf)
 ----------------------------------------------------------------------
 -----
 title
 -----
 Symbolic Z-matrix:
 Charge =  0 Multiplicity = 1

 SCF Done:  E(RHF) =  -572.249804648     A.U. after   17 cycles
 Normal termination of Gaussian 16 at Tue Apr  8 23:18:48 2025.
 Gaussian 16:  ES64L-G16RevC.01  3-Jul-2019

 ----------------------------------------------------------------------
 #t hf aug-cc-pvdz iop(5/13=1,5/36=2,99/5=2) pseudo=read geom=check gue
 ss=(read,tcheck) scf=(maxcycle=1)
 ----------------------------------------------------------------------
 -----
 title
 -----
 Structure from the checkpoint file:  "BDE49_nonexpt_1099_mol1.chk"
 Charge =  0 Multiplicity = 1

                         Standard orientation:
 ---------------------------------------------------------------------
 Center     Atomic      Atomic             Coordinates (Angstroms)
 Number     Number       Type             X           Y           Z
 ---------------------------------------------------------------------
      1          9           0       -1.571834   -0.323685   -0.016932
      2         16           0        0.994156   -0.126133   -0.095289
      3          8           0       -0.371274    0.675046    0.059544
      4          1           0        1.210197   -0.469064    1.200668
 ---------------------------------------------------------------------

 SCF Done:  E(RHF) =  -572.468541825     A.U. after    2 cycles

 The electronic state is 1-A.
 Alpha  occ. eigenvalues --  -94.05637 -26.49307 -20.72520  -8.33230  -6.31132
 Alpha  occ. eigenvalues --   -6.30797  -6.30603  -1.61980  -1.42673  -1.00430
 Alpha  occ. eigenvalues --   -0.72569  -0.68676  -0.66485  -0.60289  -0.58046
 Alpha  occ. eigenvalues --   -0.50516  -0.42427
 Alpha virt. eigenvalues --    0.03243   0.04818   0.08002   0.09735   0.10802
 Alpha virt. eigenvalues --    0.15970   0.17219   0.19879   0.22065   0.22964
 Alpha virt. eigenvalues --    0.23464   0.25946   0.30518   0.34046   0.34699

 Mulliken charges:
               1
     1  F   -0.302680
     2  S    0.500701
     3  O   -0.533860
     4  H    0.335839
 Sum of Mulliken charges =  -0.00000

 Dipole moment (field-independent basis, Debye):
    X=              2.4445    Y=             -0.3938    Z=              0.9160  Tot=              2.6400

 Test job not archived.
 1\1\GINC-SE071\SP\RHF\Aug-CC-pVDZ\F1H1O1S1\OHZDE\08-Apr-2025\0\\#t hf
 aug-cc-pvdz iop(5/13=1,5/36=2,99/5=2) pseudo=read geom=check guess=(re
 ad,tcheck) scf=(maxcycle=1)\\title\\0,1\F,0,-1.571834,-0.323685,-0.016
 932\S,0,0.994156,-0.126133,-0.095289\O,0,-0.371274,0.675046,0.059544\H
 ,0,1.210197,-0.469064,1.200668\\Version=ES64L-G16RevC.01\State=1-A\HF=
 -572.4685418\RMSD=4.658e-03\Dipole=0.9617473,-0.1549266,0.3603829\Quad
 rupole=-0.4124678,-0.6468053,1.0592731,-1.0626714,1.0351129,-0.6864982
 \PG=C01 [X(F1H1O1S1)]\\@

 Normal termination of Gaussian 16 at Tue Apr  8 23:18:50 2025.
