 Gaussian 16, Revision C.01,

 ----------------------------------------------------------------------
 #t hf aug-cc-pvdz symm=none int=(grid=ultrafine) guess=(read,tcheck) s
 table=(opt,rrhf)
 ----------------------------------------------------------------------
 -----
 title
 -----
 Symbolic Z-matrix:
 Charge =  0 Multiplicity = 1

 SCF Done:  E(RHF) =  -572.874731913     A.U. after   14 cycles
 Normal termination of Gaussian 16 at Wed Apr  9 00:00:43 2025.
 Gaussian 16:  ES64L-G16RevC.01  3-Jul-2019

 ----------------------------------------------------------------------
 #t hf aug-cc-pvdz iop(5/13=1,5/36=2,99/5=2) pseudo=read geom=check gue
 ss=(read,tcheck) scf=(maxcycle=1)
 ----------------------------------------------------------------------
 -----
 title
 -----
 Structure from the checkpoint file:  "BDE49_nonexpt_2106_mol1.chk"
 Charge =  0 Multiplicity = 1

                         Standard orientation:
 ---------------------------------------------------------------------
 Center     Atomic      Atomic             Coordinates (Angstroms)
 Number     Number       Type             X           Y           Z
 ---------------------------------------------------------------------
      1         14           0        0.669560    0.095340    0.419923
      2          7           0       -1.155248   -0.093500    0.005566
      3          8           0       -1.566951   -1.145284   -0.477335
      4          8           0       -1.862091    0.883809    0.246519
      5          6           0        1.218123    1.613716   -0.507307
      6          1           0        0.573248    2.458386   -0.257173
      7          1           0        1.177514    1.454764   -1.588065
      8          6           0        1.518030   -1.487389   -0.058832
      9          1           0        1.448984   -1.659477   -1.135462
     10          1           0        1.064166   -2.340591    0.449476
     11          1           0        2.576447   -1.445415    0.217071
     12          1           0        2.246705    1.873482   -0.240033
     13          1           0        0.641256    0.312414    1.879670
 ---------------------------------------------------------------------

 SCF Done:  E(RHF) =  -573.192346993     A.U. after    2 cycles

 The electronic state is 1-A.
 Alpha  occ. eigenvalues --  -69.58429 -20.58390 -20.58145 -15.74441 -11.24556
 Alpha  occ. eigenvalues --  -11.24419  -6.25299  -4.00705  -4.00541  -4.00537
 Alpha  occ. eigenvalues --   -1.64494  -1.48668  -1.01896  -0.96588  -0.96197
 Alpha  occ. eigenvalues --   -0.80106  -0.73012  -0.71609  -0.66779  -0.60495
 Alpha  occ. eigenvalues --   -0.59072  -0.58428  -0.58193  -0.50384  -0.49536
 Alpha  occ. eigenvalues --   -0.47316  -0.45693  -0.43792
 Alpha virt. eigenvalues --    0.02545   0.03995   0.04140   0.04712   0.06256
 Alpha virt. eigenvalues --    0.06347   0.06591   0.07252   0.08484   0.09693
 Alpha virt. eigenvalues --    0.09825   0.12324   0.13922   0.14615   0.15105

 Mulliken charges:
               1
     1  Si   1.739027
     2  N    1.804202
     3  O   -1.150298
     4  O   -1.288228
     5  C   -0.611353
     6  H    0.046064
     7  H    0.091729
     8  C   -0.611168
     9  H    0.157247
    10  H    0.044377
    11  H    0.029329
    12  H    0.006688
    13  H   -0.257616
 Sum of Mulliken charges =  -0.00000

 Dipole moment (field-independent basis, Debye):
    X=              4.8746    Y=              0.3053    Z=              0.2668  Tot=              4.8914

 Test job not archived.
 1\1\GINC-SE102\SP\RHF\Aug-CC-pVDZ\C2H7N1O2Si1\OHZDE\09-Apr-2025\0\\#t
 hf aug-cc-pvdz iop(5/13=1,5/36=2,99/5=2) pseudo=read geom=check guess=
 (read,tcheck) scf=(maxcycle=1)\\title\\0,1\Si,0,0.66956,0.09534,0.4199
 23\N,0,-1.155248,-0.0935,0.005566\O,0,-1.566951,-1.145284,-0.477335\O,
 0,-1.862091,0.883809,0.246519\C,0,1.218123,1.613716,-0.507307\H,0,0.57
 3248,2.458386,-0.257173\H,0,1.177514,1.454764,-1.588065\C,0,1.51803,-1
 .487389,-0.058832\H,0,1.448984,-1.659477,-1.135462\H,0,1.064166,-2.340
 591,0.449476\H,0,2.576447,-1.445415,0.217071\H,0,2.246705,1.873482,-0.

 Normal termination of Gaussian 16 at Wed Apr  9 00:00:47 2025.
