 Gaussian 16, Revision C.01,

 ----------------------------------------------------------------------
 #t hf aug-cc-pvdz symm=none int=(grid=ultrafine) guess=(read,tcheck) s
 table=(opt,rrhf)
 ----------------------------------------------------------------------
 -----
 title
 -----
 Symbolic Z-matrix:
 Charge =  0 Multiplicity = 1

 SCF Done:  E(RHF) =  -1069.22159866     A.U. after   14 cycles
 Normal termination of Gaussian 16 at Wed Apr  9 00:16:56 2025.
 Gaussian 16:  ES64L-G16RevC.01  3-Jul-2019

 ----------------------------------------------------------------------
 #t hf aug-cc-pvdz iop(5/13=1,5/36=2,99/5=2) pseudo=read geom=check gue
 ss=(read,tcheck) scf=(maxcycle=1)
 ----------------------------------------------------------------------
 -----
 title
 -----
 Structure from the checkpoint file:  "BDE49_nonexpt_2556_mol1.chk"
 Charge =  0 Multiplicity = 1

                         Standard orientation:
 ---------------------------------------------------------------------
 Center     Atomic      Atomic             Coordinates (Angstroms)
 Number     Number       Type             X           Y           Z
 ---------------------------------------------------------------------
      1         17           0       -1.863529    0.283240    0.000001
      2         16           0       -0.203170   -0.923313   -0.000001
      3          6           0        1.083989    0.302873    0.000003
      4          8           0        1.034627    1.476473    0.000017
      5          9           0        2.238862   -0.407899   -0.000017
 ---------------------------------------------------------------------

 SCF Done:  E(RHF) =  -1069.55158045     A.U. after    2 cycles

 The electronic state is 1-A.
 Alpha  occ. eigenvalues -- -105.62168 -94.06702 -26.53534 -20.60609 -11.49002
 Alpha  occ. eigenvalues --  -10.66870  -8.34484  -7.83823  -7.83329  -7.83297
 Alpha  occ. eigenvalues --   -6.32257  -6.32038  -6.31742  -1.67633  -1.55015
 Alpha  occ. eigenvalues --   -1.17677  -1.02316  -0.86457  -0.75640  -0.74833
 Alpha  occ. eigenvalues --   -0.74002  -0.63864  -0.59179  -0.58151  -0.54613
 Alpha  occ. eigenvalues --   -0.52041  -0.48612  -0.42373
 Alpha virt. eigenvalues --    0.02746   0.06292   0.08458   0.09894   0.10229
 Alpha virt. eigenvalues --    0.10781   0.11115   0.12601   0.13434   0.13723
 Alpha virt. eigenvalues --    0.15424   0.16361   0.20172   0.23350   0.24353

 Mulliken charges:
               1
     1  Cl  -0.198607
     2  S    0.523288
     3  C    1.001641
     4  O   -0.762483
     5  F   -0.563840
 Sum of Mulliken charges =  -0.00000

 Dipole moment (field-independent basis, Debye):
    X=             -0.5488    Y=             -1.6504    Z=             -0.0000  Tot=              1.7392

 Test job not archived.
 1\1\GINC-SE116\SP\RHF\Aug-CC-pVDZ\C1Cl1F1O1S1\OHZDE\09-Apr-2025\0\\#t
 hf aug-cc-pvdz iop(5/13=1,5/36=2,99/5=2) pseudo=read geom=check guess=
 (read,tcheck) scf=(maxcycle=1)\\title\\0,1\Cl,0,-1.863529,0.28324,0.00
 0001\S,0,-0.20317,-0.923313,-0.000001\C,0,1.083989,0.302873,0.000003\O
 ,0,1.034627,1.476473,0.000017\F,0,2.238862,-0.407899,-0.000017\\Versio
 n=ES64L-G16RevC.01\State=1-A\HF=-1069.5515804\RMSD=5.379e-03\Dipole=-0
 .2158989,-0.6493191,-0.0000031\Quadrupole=0.1992455,-0.7447232,0.54547
 78,-1.2442414,0.0000092,-0.0000372\PG=C01 [X(C1Cl1F1O1S1)]\\@

 Normal termination of Gaussian 16 at Wed Apr  9 00:16:59 2025.
