 Gaussian 16, Revision C.01,

 ----------------------------------------------------------------------
 #t hf aug-cc-pvdz symm=none int=(grid=ultrafine) guess=(read,tcheck) s
 table=(opt,rrhf)
 ----------------------------------------------------------------------
 -----
 title
 -----
 Symbolic Z-matrix:
 Charge =  0 Multiplicity = 1

 SCF Done:  E(RHF) =  -683.257278595     A.U. after   11 cycles

 1\1\GINC-SE250\Stability\RHF\Aug-CC-pVDZ\B1Cl1F2\OHZDE\09-Apr-2025\0\\
 #t hf aug-cc-pvdz symm=none int=(grid=ultrafine) guess=(read,tcheck) s
 table=(opt,rrhf)\\title\\0,1\F,0,-0.000133,-1.111043,1.134279\B,0,-0.0
 00133,-0.44566,0.\Cl,0,0.00018,1.307475,0.\F,0,-0.000133,-1.111043,-1.
 134279\\Version=ES64L-G16RevC.01\HF=-683.2572786\RMSD=4.719e-09\Dipole
 =-0.0001258,0.0858477,0.\Quadrupole=1.7756335,-0.4262135,-1.34942,-0.0
 000098,0.,0.\PG=Unknown\\@
 The archive entry for this job was punched.

 Normal termination of Gaussian 16 at Wed Apr  9 00:09:27 2025.
 Gaussian 16:  ES64L-G16RevC.01  3-Jul-2019

 ----------------------------------------------------------------------
 #t hf aug-cc-pvdz iop(5/13=1,5/36=2,99/5=2) pseudo=read geom=check gue
 ss=(read,tcheck) scf=(maxcycle=1)
 ----------------------------------------------------------------------
 -----
 title
 -----
 Structure from the checkpoint file:  "BDE49_nonexpt_232_mol1.chk"
 Charge =  0 Multiplicity = 1

                         Standard orientation:
 ---------------------------------------------------------------------
 Center     Atomic      Atomic             Coordinates (Angstroms)
 Number     Number       Type             X           Y           Z
 ---------------------------------------------------------------------
      1          9           0       -0.000133   -1.111043    1.134279
      2          5           0       -0.000133   -0.445660    0.000000
      3         17           0        0.000180    1.307475   -0.000000
      4          9           0       -0.000133   -1.111043   -1.134279
 ---------------------------------------------------------------------

 SCF Done:  E(RHF) =  -683.534812345     A.U. after    2 cycles

 The electronic state is 1-A'.
 Alpha  occ. eigenvalues -- -105.59531 -26.50860 -26.50860 -10.64559  -7.81462
 Alpha  occ. eigenvalues --   -7.81149  -7.81114  -7.79506  -1.66338  -1.62481
 Alpha  occ. eigenvalues --   -1.10370  -0.83325  -0.77953  -0.73878  -0.72687
 Alpha  occ. eigenvalues --   -0.66193  -0.65590  -0.59392  -0.51458  -0.50441
 Alpha virt. eigenvalues --    0.04997   0.05049   0.05732   0.05776   0.12748
 Alpha virt. eigenvalues --    0.13315   0.15504   0.16700   0.19573   0.23365
 Alpha virt. eigenvalues --    0.24182   0.25284   0.27512   0.28300   0.29109

 Mulliken charges:
               1
     1  F   -0.586019
     2  B    1.447803
     3  Cl  -0.275764
     4  F   -0.586019
 Sum of Mulliken charges =  -0.00000

 Dipole moment (field-independent basis, Debye):
    X=             -0.0003    Y=              0.0935    Z=              0.0000  Tot=              0.0935

 Test job not archived.
 1\1\GINC-SE250\SP\RHF\Aug-CC-pVDZ\B1Cl1F2\OHZDE\09-Apr-2025\0\\#t hf a
 ug-cc-pvdz iop(5/13=1,5/36=2,99/5=2) pseudo=read geom=check guess=(rea
 d,tcheck) scf=(maxcycle=1)\\title\\0,1\F,0,-0.000133,-1.111043,1.13427
 9\B,0,-0.000133,-0.44566,0.\Cl,0,0.00018,1.307475,0.\F,0,-0.000133,-1.
 111043,-1.134279\\Version=ES64L-G16RevC.01\State=1-A'\HF=-683.5348123\
 RMSD=4.176e-03\Dipole=-0.0001198,0.0367947,0.\Quadrupole=1.546558,-0.3
 502084,-1.1963496,0.000008,0.,0.\PG=CS [SG(B1Cl1),X(F2)]\\@

 Normal termination of Gaussian 16 at Wed Apr  9 00:09:29 2025.
