 Gaussian 16, Revision C.01,

 ----------------------------------------------------------------------
 #t hf aug-cc-pvdz symm=none int=(grid=ultrafine) guess=(read,tcheck) s
 table=opt
 ----------------------------------------------------------------------
 -----
 title
 -----
 Symbolic Z-matrix:
 Charge =  0 Multiplicity = 2

 SCF Done:  E(UHF) =  -574.946097967     A.U. after   17 cycles

 1\1\GINC-SE120\Stability\UHF\Aug-CC-pVDZ\C6H12P1\OHZDE\08-Apr-2025\0\\
 #t hf aug-cc-pvdz symm=none int=(grid=ultrafine) guess=(read,tcheck) s
 table=opt\\title\\0,2\C,0,0.662122,-0.013134,0.35097\C,0,-0.03368,1.26
 2766,-0.172385\C,0,-1.529202,1.28145,0.185531\C,0,-2.247244,0.016969,-
 0.304377\C,0,-1.562365,-1.252262,0.219714\C,0,-0.068579,-1.279098,-0.1
 38663\H,0,0.077873,1.310586,-1.263038\H,0,0.460594,2.151495,0.231342\H
 ,0,-1.9987,2.174877,-0.238993\H,0,-1.636706,1.359817,1.274996\H,0,-2.2
 43823,0.002021,-1.401966\H,0,-3.297585,0.035484,0.003375\H,0,-2.055837

 Normal termination of Gaussian 16 at Tue Apr  8 23:38:33 2025.
 Gaussian 16:  ES64L-G16RevC.01  3-Jul-2019

 ----------------------------------------------------------------------
 #t hf aug-cc-pvdz iop(5/13=1,5/36=2,99/5=2) pseudo=read geom=check gue
 ss=(read,tcheck) scf=(maxcycle=1)
 ----------------------------------------------------------------------
 -----
 title
 -----
 Structure from the checkpoint file:  "BDE49_nonexpt_1530_mol2.chk"
 Charge =  0 Multiplicity = 2

                         Standard orientation:
 ---------------------------------------------------------------------
 Center     Atomic      Atomic             Coordinates (Angstroms)
 Number     Number       Type             X           Y           Z
 ---------------------------------------------------------------------
      1          6           0        0.662122   -0.013134    0.350970
      2          6           0       -0.033680    1.262766   -0.172385
      3          6           0       -1.529202    1.281450    0.185531
      4          6           0       -2.247244    0.016969   -0.304377
      5          6           0       -1.562365   -1.252262    0.219714
      6          6           0       -0.068579   -1.279098   -0.138663
      7          1           0        0.077873    1.310586   -1.263038
      8          1           0        0.460594    2.151495    0.231342
      9          1           0       -1.998700    2.174877   -0.238993
     10          1           0       -1.636706    1.359817    1.274996
     11          1           0       -2.243823    0.002021   -1.401966
     12          1           0       -3.297585    0.035484    0.003375
     13          1           0       -2.055837   -2.143838   -0.180397
     14          1           0       -1.671996   -1.298574    1.310915
     15          1           0        0.039984   -1.355389   -1.228598
     16          1           0        0.403543   -2.172442    0.282516
     17         15           0        2.476578   -0.088073   -0.106238
     18          1           0        0.622835    0.006562    1.449724
     19          1           0        2.824836    1.150342    0.508947
 ---------------------------------------------------------------------

 SCF Done:  E(UHF) =  -575.244209593     A.U. after    2 cycles

 The electronic state is 2-A.
 Alpha  occ. eigenvalues --  -84.26999 -11.24318 -11.23421 -11.23218 -11.22920
 Alpha  occ. eigenvalues --  -11.22851 -11.22752  -6.74156  -4.26888  -4.26451
 Alpha  occ. eigenvalues --   -4.25841  -1.12385  -1.01768  -1.00814  -0.87134
 Alpha  occ. eigenvalues --   -0.84086  -0.78573  -0.75506  -0.65171  -0.61575
 Alpha  occ. eigenvalues --   -0.61131  -0.59989  -0.54442  -0.53946  -0.50826
 Alpha  occ. eigenvalues --   -0.49904  -0.49552  -0.46338  -0.44883  -0.43001
 Alpha  occ. eigenvalues --   -0.36626  -0.31683
 Alpha virt. eigenvalues --    0.03562   0.03611   0.03627   0.04237   0.05825
 Alpha virt. eigenvalues --    0.06027   0.06224   0.06591   0.06892   0.08709
 Alpha virt. eigenvalues --    0.09246   0.09403   0.10436   0.12164   0.12821

  Beta  occ. eigenvalues --  -84.26322 -11.24463 -11.23333 -11.23210 -11.22907
  Beta  occ. eigenvalues --  -11.22858 -11.22751  -6.73298  -4.25920  -4.25460
  Beta  occ. eigenvalues --   -4.23569  -1.12244  -1.01348  -1.00753  -0.85159
  Beta  occ. eigenvalues --   -0.83988  -0.76773  -0.73177  -0.64815  -0.61402
  Beta  occ. eigenvalues --   -0.61104  -0.59703  -0.54185  -0.53849  -0.50635
  Beta  occ. eigenvalues --   -0.49573  -0.49495  -0.46228  -0.44611  -0.42467
  Beta  occ. eigenvalues --   -0.34875
  Beta virt. eigenvalues --    0.03124   0.03600   0.03622   0.04305   0.04896
  Beta virt. eigenvalues --    0.05862   0.06084   0.06257   0.06726   0.08339
  Beta virt. eigenvalues --    0.08835   0.09327   0.09431   0.10471   0.12800

 Mulliken charges and spin densities:
               1          2
     1  C   -0.332686  -0.178015
     2  C   -0.296067   0.028214
     3  C   -0.295381   0.010610
     4  C   -0.248644   0.000176
     5  C   -0.313912  -0.001583
     6  C   -0.344424   0.050539
     7  H    0.167760  -0.009527
     8  H    0.088626  -0.007441
     9  H    0.106872  -0.000472
    10  H    0.152381   0.000030
    11  H    0.150463   0.000135
    12  H    0.114689   0.000038
    13  H    0.107675   0.000240
    14  H    0.150799   0.000166
    15  H    0.175753  -0.005405
    16  H    0.094934  -0.005191
    17  P    0.265364   1.311007
    18  H    0.109195  -0.003941
    19  H    0.146603  -0.189580
 Sum of Mulliken charges =   0.00000   1.00000

 Dipole moment (field-independent basis, Debye):
    X=             -1.2209    Y=              0.3144    Z=              0.4055  Tot=              1.3243
                          Isotropic Fermi Contact Couplings
        Atom                 a.u.       MegaHertz       Gauss      10(-4) cm-1
     1  C(13)             -0.02782     -31.27506     -11.15972     -10.43224
     2  C(13)              0.02451      27.55210       9.83128       9.19039
     3  C(13)              0.00189       2.12820       0.75939       0.70989
     4  C(13)              0.00013       0.14332       0.05114       0.04781
     5  C(13)             -0.00143      -1.60343      -0.57215      -0.53485
     6  C(13)              0.00086       0.96405       0.34400       0.32157
     7  H(1)              -0.00053      -2.35486      -0.84027      -0.78550
     8  H(1)              -0.00036      -1.61137      -0.57498      -0.53749

 Normal termination of Gaussian 16 at Tue Apr  8 23:38:43 2025.
