 Gaussian 16, Revision C.01,

 ----------------------------------------------------------------------
 #t hf aug-cc-pvdz symm=none int=(grid=ultrafine) guess=(read,tcheck) s
 table=(opt,rrhf)
 ----------------------------------------------------------------------
 -----
 title
 -----
 Symbolic Z-matrix:
 Charge =  0 Multiplicity = 1

 SCF Done:  E(RHF) =  -385.366238743     A.U. after   11 cycles
 Normal termination of Gaussian 16 at Wed Apr  9 00:01:25 2025.
 Gaussian 16:  ES64L-G16RevC.01  3-Jul-2019

 ----------------------------------------------------------------------
 #t hf aug-cc-pvdz iop(5/13=1,5/36=2,99/5=2) pseudo=read geom=check gue
 ss=(read,tcheck) scf=(maxcycle=1)
 ----------------------------------------------------------------------
 -----
 title
 -----
 Structure from the checkpoint file:  "BDE49_nonexpt_2135_mol1.chk"
 Charge =  0 Multiplicity = 1

                         Standard orientation:
 ---------------------------------------------------------------------
 Center     Atomic      Atomic             Coordinates (Angstroms)
 Number     Number       Type             X           Y           Z
 ---------------------------------------------------------------------
      1          7           0        1.409263   -0.559259   -0.061248
      2         14           0        0.064039    0.522658    0.029229
      3          1           0        1.505036   -1.307160    0.611518
      4          1           0        2.317379   -0.200127   -0.319335
      5          6           0       -1.532533   -0.455449   -0.039768
      6          1           0       -1.606796   -1.018978   -0.973136
      7          1           0       -2.396372    0.212269    0.031124
      8          1           0       -1.597265   -1.164850    0.791361
      9          1           0        0.191988    1.432669   -1.134927
     10          1           0        0.019847    1.376474    1.251532
 ---------------------------------------------------------------------

 SCF Done:  E(RHF) =  -385.507506202     A.U. after    2 cycles

 The electronic state is 1-A.
 Alpha  occ. eigenvalues --  -69.53062 -15.47416 -11.21218  -6.19855  -3.95271
 Alpha  occ. eigenvalues --   -3.95226  -3.95178  -1.13622  -0.94750  -0.72722
 Alpha  occ. eigenvalues --   -0.68673  -0.58962  -0.56506  -0.54063  -0.49256
 Alpha  occ. eigenvalues --   -0.46217  -0.42071
 Alpha virt. eigenvalues --    0.03280   0.04514   0.04948   0.05443   0.06942
 Alpha virt. eigenvalues --    0.07116   0.07971   0.08200   0.09524   0.10727
 Alpha virt. eigenvalues --    0.13951   0.16249   0.16574   0.17018   0.17884

 Mulliken charges:
               1
     1  N   -0.078154
     2  Si   1.000578
     3  H   -0.008887
     4  H   -0.036690
     5  C   -0.635817
     6  H    0.093001
     7  H   -0.030820
     8  H    0.103489
     9  H   -0.173934
    10  H   -0.232766
 Sum of Mulliken charges =  -0.00000

 Dipole moment (field-independent basis, Debye):
    X=              0.3594    Y=             -0.4474    Z=              0.6154  Tot=              0.8414

 Test job not archived.
 1\1\GINC-SE361\SP\RHF\Aug-CC-pVDZ\C1H7N1Si1\OHZDE\09-Apr-2025\0\\#t hf
  aug-cc-pvdz iop(5/13=1,5/36=2,99/5=2) pseudo=read geom=check guess=(r
 ead,tcheck) scf=(maxcycle=1)\\title\\0,1\N,0,1.409263,-0.559259,-0.061
 248\Si,0,0.064039,0.522658,0.029229\H,0,1.505036,-1.30716,0.611518\H,0
 ,2.317379,-0.200127,-0.319335\C,0,-1.532533,-0.455449,-0.039768\H,0,-1
 .606796,-1.018978,-0.973136\H,0,-2.396372,0.212269,0.031124\H,0,-1.597
 265,-1.16485,0.791361\H,0,0.191988,1.432669,-1.134927\H,0,0.019847,1.3
 76474,1.251532\\Version=ES64L-G16RevC.01\State=1-A\HF=-385.5075062\RMS

 Normal termination of Gaussian 16 at Wed Apr  9 00:01:27 2025.
