 Gaussian 16, Revision C.01,

 ----------------------------------------------------------------------
 #t hf aug-cc-pvdz symm=none int=(grid=ultrafine) guess=(read,tcheck) s
 table=(opt,rrhf)
 ----------------------------------------------------------------------
 -----
 title
 -----
 Symbolic Z-matrix:
 Charge =  0 Multiplicity = 1

 SCF Done:  E(RHF) =  -650.118102071     A.U. after   15 cycles

 1\1\GINC-SE118\Stability\RHF\Aug-CC-pVDZ\C8H11P1\OHZDE\08-Apr-2025\0\\
 #t hf aug-cc-pvdz symm=none int=(grid=ultrafine) guess=(read,tcheck) s
 table=(opt,rrhf)\\title\\0,1\C,0,-2.50185,-0.171329,0.590353\P,0,-1.49
 8808,-0.737715,-0.888998\C,0,0.217556,-0.280092,-0.394418\C,0,0.851873
 ,0.898348,-0.810883\C,0,0.943229,-1.181667,0.398082\C,0,2.251369,-0.90
 3009,0.784093\C,0,2.868667,0.273667,0.363386\C,0,2.167495,1.169923,-0.
 439857\H,0,3.89095,0.48712,0.654592\H,0,2.642359,2.085643,-0.774893\H,
 0,0.314971,1.609311,-1.428883\H,0,0.483501,-2.115039,0.708056\H,0,2.79

 Normal termination of Gaussian 16 at Tue Apr  8 23:30:23 2025.
 Gaussian 16:  ES64L-G16RevC.01  3-Jul-2019

 ----------------------------------------------------------------------
 #t hf aug-cc-pvdz iop(5/13=1,5/36=2,99/5=2) pseudo=read geom=check gue
 ss=(read,tcheck) scf=(maxcycle=1)
 ----------------------------------------------------------------------
 -----
 title
 -----
 Structure from the checkpoint file:  "BDE49_nonexpt_1336_mol1.chk"
 Charge =  0 Multiplicity = 1

                         Standard orientation:
 ---------------------------------------------------------------------
 Center     Atomic      Atomic             Coordinates (Angstroms)
 Number     Number       Type             X           Y           Z
 ---------------------------------------------------------------------
      1          6           0       -2.501850   -0.171329    0.590353
      2         15           0       -1.498808   -0.737715   -0.888998
      3          6           0        0.217556   -0.280092   -0.394418
      4          6           0        0.851873    0.898348   -0.810883
      5          6           0        0.943229   -1.181667    0.398082
      6          6           0        2.251369   -0.903009    0.784093
      7          6           0        2.868667    0.273667    0.363386
      8          6           0        2.167495    1.169923   -0.439857
      9          1           0        3.890950    0.487120    0.654592
     10          1           0        2.642359    2.085643   -0.774893
     11          1           0        0.314971    1.609311   -1.428883
     12          1           0        0.483501   -2.115039    0.708056
     13          1           0        2.793299   -1.610502    1.402014
     14          6           0       -2.334148    1.277653    1.050522
     15          1           0       -2.259776   -0.865734    1.401817
     16          1           0       -3.544964   -0.374711    0.323854
     17          1           0       -1.298148    1.491266    1.322253
     18          1           0       -2.959585    1.484506    1.924940
     19          1           0       -2.623199    1.978099    0.261876
     20          1           0       -1.742434    0.394804   -1.708329
 ---------------------------------------------------------------------

 SCF Done:  E(RHF) =  -650.490313212     A.U. after    2 cycles

 The electronic state is 1-A.
 Alpha  occ. eigenvalues --  -84.26692 -11.24891 -11.24757 -11.24726 -11.24686
 Alpha  occ. eigenvalues --  -11.24595 -11.24592 -11.24122 -11.22864  -6.73732
 Alpha  occ. eigenvalues --   -4.26744  -4.26250  -4.25726  -1.15731  -1.04868
 Alpha  occ. eigenvalues --   -1.01942  -1.01651  -0.88984  -0.83793  -0.83399
 Alpha  occ. eigenvalues --   -0.77095  -0.70254  -0.64712  -0.63783  -0.61978
 Alpha  occ. eigenvalues --   -0.60192  -0.58245  -0.55810  -0.53696  -0.51505
 Alpha  occ. eigenvalues --   -0.50961  -0.50574  -0.46707  -0.44271  -0.36729
 Alpha  occ. eigenvalues --   -0.34919  -0.31024
 Alpha virt. eigenvalues --    0.03385   0.03555   0.03801   0.04488   0.04832
 Alpha virt. eigenvalues --    0.05084   0.06847   0.07039   0.07481   0.07622
 Alpha virt. eigenvalues --    0.09249   0.09503   0.10152   0.10506   0.11051

 Mulliken charges:
               1
     1  C   -0.655435
     2  P    0.131548
     3  C    0.405317
     4  C    0.104129
     5  C   -0.264988
     6  C    0.372666
     7  C    0.170046
     8  C    0.347669
     9  H   -0.211274
    10  H   -0.220201
    11  H   -0.321461
    12  H   -0.256042
    13  H   -0.215318
    14  C   -0.431660
    15  H    0.175607
    16  H    0.118022
    17  H    0.161546
    18  H    0.097001
    19  H    0.134966
    20  H    0.357862
 Sum of Mulliken charges =  -0.00000

 Dipole moment (field-independent basis, Debye):
    X=              0.2042    Y=              0.7777    Z=              0.8183  Tot=              1.1472

 Test job not archived.
 1\1\GINC-SE118\SP\RHF\Aug-CC-pVDZ\C8H11P1\OHZDE\08-Apr-2025\0\\#t hf a
 ug-cc-pvdz iop(5/13=1,5/36=2,99/5=2) pseudo=read geom=check guess=(rea
 d,tcheck) scf=(maxcycle=1)\\title\\0,1\C,0,-2.50185,-0.171329,0.590353
 \P,0,-1.498808,-0.737715,-0.888998\C,0,0.217556,-0.280092,-0.394418\C,
 0,0.851873,0.898348,-0.810883\C,0,0.943229,-1.181667,0.398082\C,0,2.25
 1369,-0.903009,0.784093\C,0,2.868667,0.273667,0.363386\C,0,2.167495,1.
 169923,-0.439857\H,0,3.89095,0.48712,0.654592\H,0,2.642359,2.085643,-0
 .774893\H,0,0.314971,1.609311,-1.428883\H,0,0.483501,-2.115039,0.70805

 Normal termination of Gaussian 16 at Tue Apr  8 23:30:34 2025.
