 Gaussian 16, Revision C.01,

 ----------------------------------------------------------------------
 #t hf aug-cc-pvdz symm=none int=(grid=ultrafine) guess=(read,tcheck) s
 table=(opt,rrhf)
 ----------------------------------------------------------------------
 -----
 title
 -----
 Symbolic Z-matrix:
 Charge =  0 Multiplicity = 1

 SCF Done:  E(RHF) =  -664.079622782     A.U. after   14 cycles
 Normal termination of Gaussian 16 at Wed Apr  9 00:22:37 2025.
 Gaussian 16:  ES64L-G16RevC.01  3-Jul-2019

 ----------------------------------------------------------------------
 #t hf aug-cc-pvdz iop(5/13=1,5/36=2,99/5=2) pseudo=read geom=check gue
 ss=(read,tcheck) scf=(maxcycle=1)
 ----------------------------------------------------------------------
 -----
 title
 -----
 Structure from the checkpoint file:  "BDE49_nonexpt_2674_mol1.chk"
 Charge =  0 Multiplicity = 1

                         Standard orientation:
 ---------------------------------------------------------------------
 Center     Atomic      Atomic             Coordinates (Angstroms)
 Number     Number       Type             X           Y           Z
 ---------------------------------------------------------------------
      1          9           0       -1.547676    0.995048    0.164712
      2         16           0       -1.003420   -0.482355   -0.292400
      3          6           0        1.505540   -0.003400    0.088169
      4          7           0        2.481969    0.469740   -0.308124
      5          8           0        0.447097   -0.563192    0.602980
 ---------------------------------------------------------------------

 SCF Done:  E(RHF) =  -664.380474219     A.U. after    2 cycles

 The electronic state is 1-A.
 Alpha  occ. eigenvalues --  -94.15182 -26.53329 -20.70350 -15.53644 -11.36709
 Alpha  occ. eigenvalues --   -8.41706  -6.39415  -6.39206  -6.38740  -1.64885
 Alpha  occ. eigenvalues --   -1.60075  -1.25570  -1.05668  -0.84154  -0.74797
 Alpha  occ. eigenvalues --   -0.73711  -0.70766  -0.66579  -0.63354  -0.62387
 Alpha  occ. eigenvalues --   -0.51229  -0.50272  -0.44772
 Alpha virt. eigenvalues --    0.02787   0.04284   0.06126   0.08467   0.10032
 Alpha virt. eigenvalues --    0.11388   0.11689   0.13203   0.14844   0.17668
 Alpha virt. eigenvalues --    0.18616   0.19792   0.20665   0.22079   0.22517

 Mulliken charges:
               1
     1  F   -0.633077
     2  S    1.345476
     3  C   -0.284210
     4  N    0.602868
     5  O   -1.031057
 Sum of Mulliken charges =  -0.00000

 Dipole moment (field-independent basis, Debye):
    X=             -3.6265    Y=             -2.1187    Z=              0.1307  Tot=              4.2021

 Test job not archived.
 1\1\GINC-SE072\SP\RHF\Aug-CC-pVDZ\C1F1N1O1S1\OHZDE\09-Apr-2025\0\\#t h
 f aug-cc-pvdz iop(5/13=1,5/36=2,99/5=2) pseudo=read geom=check guess=(
 read,tcheck) scf=(maxcycle=1)\\title\\0,1\F,0,-1.547676,0.995048,0.164
 712\S,0,-1.00342,-0.482355,-0.2924\C,0,1.50554,-0.0034,0.088169\N,0,2.
 481969,0.46974,-0.308124\O,0,0.447097,-0.563192,0.60298\\Version=ES64L
 -G16RevC.01\State=1-A\HF=-664.3804742\RMSD=1.142e-02\Dipole=-1.4267597
 ,-0.8335646,0.0514361\Quadrupole=-4.5001633,2.3072097,2.1929536,-1.269
 0149,2.713535,0.9890688\PG=C01 [X(C1F1N1O1S1)]\\@

 Normal termination of Gaussian 16 at Wed Apr  9 00:22:39 2025.
