 Gaussian 16, Revision C.01,

 ----------------------------------------------------------------------
 #t hf aug-cc-pvdz symm=none int=(grid=ultrafine) guess=(read,tcheck) s
 table=(opt,rrhf)
 ----------------------------------------------------------------------
 -----
 title
 -----
 Symbolic Z-matrix:
 Charge =  0 Multiplicity = 1

 SCF Done:  E(RHF) =  -246.921762297     A.U. after   12 cycles

 1\1\GINC-SE457\Stability\RHF\Aug-CC-pVDZ\C5H14B2\OHZDE\09-Apr-2025\0\\
 #t hf aug-cc-pvdz symm=none int=(grid=ultrafine) guess=(read,tcheck) s
 table=(opt,rrhf)\\title\\0,1\C,0,2.063629,1.254069,-0.180113\B,0,1.284
 062,-0.067109,0.181664\H,0,2.80484,1.411762,0.61935\H,0,1.440734,2.153
 395,-0.191931\H,0,2.632884,1.198156,-1.113275\C,0,1.795468,-1.440807,-
 0.398391\H,0,2.889519,-1.503455,-0.412561\H,0,1.492244,-1.493542,-1.45
 5626\H,0,1.397789,-2.331831,0.093977\C,0,0.000008,-0.00001,1.09915\B,0
 ,-1.284055,0.067104,0.181676\H,0,0.045015,0.899013,1.725018\H,0,-0.044

 Normal termination of Gaussian 16 at Wed Apr  9 00:29:36 2025.
 Gaussian 16:  ES64L-G16RevC.01  3-Jul-2019

 ----------------------------------------------------------------------
 #t hf aug-cc-pvdz iop(5/13=1,5/36=2,99/5=2) pseudo=read geom=check gue
 ss=(read,tcheck) scf=(maxcycle=1)
 ----------------------------------------------------------------------
 -----
 title
 -----
 Structure from the checkpoint file:  "BDE49_nonexpt_312_mol1.chk"
 Charge =  0 Multiplicity = 1

                         Standard orientation:
 ---------------------------------------------------------------------
 Center     Atomic      Atomic             Coordinates (Angstroms)
 Number     Number       Type             X           Y           Z
 ---------------------------------------------------------------------
      1          6           0        2.063629    1.254069   -0.180113
      2          5           0        1.284062   -0.067109    0.181664
      3          1           0        2.804840    1.411762    0.619350
      4          1           0        1.440734    2.153395   -0.191931
      5          1           0        2.632884    1.198156   -1.113275
      6          6           0        1.795468   -1.440807   -0.398391
      7          1           0        2.889519   -1.503455   -0.412561
      8          1           0        1.492244   -1.493542   -1.455626
      9          1           0        1.397789   -2.331831    0.093977
     10          6           0        0.000008   -0.000010    1.099150
     11          5           0       -1.284055    0.067104    0.181676
     12          1           0        0.045015    0.899013    1.725018
     13          1           0       -0.044994   -0.899043    1.725003
     14          6           0       -2.063633   -1.254065   -0.180104
     15          1           0       -2.632906   -1.198138   -1.113254
     16          1           0       -2.804829   -1.411768    0.619372
     17          1           0       -1.440741   -2.153393   -0.191947
     18          6           0       -1.795473    1.440814   -0.398341
     19          1           0       -2.889524    1.503459   -0.412496
     20          1           0       -1.492262    1.493575   -1.455578
     21          1           0       -1.397791    2.331829    0.094043
 ---------------------------------------------------------------------

 SCF Done:  E(RHF) =  -247.200411844     A.U. after    2 cycles

 The electronic state is 1-A.
 Alpha  occ. eigenvalues --  -11.19828 -11.19823 -11.19750 -11.19749 -11.17648
 Alpha  occ. eigenvalues --   -7.57852  -7.57775  -0.99912  -0.96641  -0.92523
 Alpha  occ. eigenvalues --   -0.91783  -0.90971  -0.62623  -0.61453  -0.59100
 Alpha  occ. eigenvalues --   -0.57931  -0.57404  -0.55525  -0.55042  -0.53596
 Alpha  occ. eigenvalues --   -0.53130  -0.52598  -0.51310  -0.46367  -0.45488
 Alpha  occ. eigenvalues --   -0.43828  -0.42342
 Alpha virt. eigenvalues --    0.02994   0.03340   0.03429   0.03899   0.05581
 Alpha virt. eigenvalues --    0.05884   0.06072   0.06323   0.06680   0.08449
 Alpha virt. eigenvalues --    0.08643   0.08823   0.09157   0.09508   0.09690

 Mulliken charges:
               1
     1  C   -0.483334
     2  B    1.004273
     3  H    0.172082
     4  H   -0.043171
     5  H   -0.017725
     6  C   -0.472508
     7  H   -0.083869
     8  H    0.170201
     9  H   -0.005384
    10  C   -0.297438
    11  B    1.004276
    12  H   -0.091843
    13  H   -0.091845
    14  C   -0.483334
    15  H   -0.017730
    16  H    0.172082
    17  H   -0.043171
    18  C   -0.472510
    19  H   -0.083872
    20  H    0.170199
    21  H   -0.005381
 Sum of Mulliken charges =  -0.00000

 Dipole moment (field-independent basis, Debye):
    X=              0.0000    Y=             -0.0000    Z=              0.0827  Tot=              0.0827

 Test job not archived.
 1\1\GINC-SE457\SP\RHF\Aug-CC-pVDZ\C5H14B2\OHZDE\09-Apr-2025\0\\#t hf a
 ug-cc-pvdz iop(5/13=1,5/36=2,99/5=2) pseudo=read geom=check guess=(rea
 d,tcheck) scf=(maxcycle=1)\\title\\0,1\C,0,2.063629,1.254069,-0.180113
 \B,0,1.284062,-0.067109,0.181664\H,0,2.80484,1.411762,0.61935\H,0,1.44
 0734,2.153395,-0.191931\H,0,2.632884,1.198156,-1.113275\C,0,1.795468,-
 1.440807,-0.398391\H,0,2.889519,-1.503455,-0.412561\H,0,1.492244,-1.49
 3542,-1.455626\H,0,1.397789,-2.331831,0.093977\C,0,0.000008,-0.00001,1
 .09915\B,0,-1.284055,0.067104,0.181676\H,0,0.045015,0.899013,1.725018\

 Normal termination of Gaussian 16 at Wed Apr  9 00:29:44 2025.
