 Gaussian 16, Revision C.01,

 ----------------------------------------------------------------------
 #t hf aug-cc-pvdz symm=none int=(grid=ultrafine) guess=(read,tcheck) s
 table=opt
 ----------------------------------------------------------------------
 -----
 title
 -----
 Symbolic Z-matrix:
 Charge =  0 Multiplicity = 2

 SCF Done:  E(UHF) =  -336.322766632     A.U. after   22 cycles
 Normal termination of Gaussian 16 at Wed Apr  9 00:32:14 2025.
 Gaussian 16:  ES64L-G16RevC.01  3-Jul-2019

 ----------------------------------------------------------------------
 #t hf aug-cc-pvdz iop(5/13=1,5/36=2,99/5=2) pseudo=read geom=check gue
 ss=(read,tcheck) scf=(maxcycle=1)
 ----------------------------------------------------------------------
 -----
 title
 -----
 Structure from the checkpoint file:  "BDE49_nonexpt_381_mol2.chk"
 Charge =  0 Multiplicity = 2

                         Standard orientation:
 ---------------------------------------------------------------------
 Center     Atomic      Atomic             Coordinates (Angstroms)
 Number     Number       Type             X           Y           Z
 ---------------------------------------------------------------------
      1          9           0       -2.015700   -0.017117   -0.202619
      2          5           0       -0.945595   -0.027629    0.530975
      3          6           0        0.542788    0.133040    0.056415
      4          8           0        1.137394    1.151203   -0.070925
      5          9           0        1.168156   -1.079518   -0.066933
 ---------------------------------------------------------------------

 SCF Done:  E(UHF) =  -336.626339308     A.U. after    2 cycles

 The electronic state is 2-A.
 Alpha  occ. eigenvalues --  -26.53675 -26.51094 -20.60328 -11.44418  -7.75018
 Alpha  occ. eigenvalues --   -1.67119  -1.64804  -1.53654  -0.93558  -0.83162
 Alpha  occ. eigenvalues --   -0.78668  -0.73943  -0.73737  -0.71110  -0.70789
 Alpha  occ. eigenvalues --   -0.62789  -0.57521  -0.51702  -0.40641
 Alpha virt. eigenvalues --    0.03146   0.04457   0.04858   0.05447   0.07598
 Alpha virt. eigenvalues --    0.10261   0.12572   0.13283   0.13642   0.17390
 Alpha virt. eigenvalues --    0.21327   0.23017   0.24315   0.24905   0.25454

  Beta  occ. eigenvalues --  -26.53362 -26.51104 -20.59806 -11.44334  -7.73014
  Beta  occ. eigenvalues --   -1.66282  -1.64738  -1.52564  -0.91612  -0.82206
  Beta  occ. eigenvalues --   -0.77675  -0.73258  -0.71618  -0.71111  -0.69811
  Beta  occ. eigenvalues --   -0.61872  -0.54581  -0.49851
  Beta virt. eigenvalues --    0.02090   0.04127   0.04881   0.05316   0.06943
  Beta virt. eigenvalues --    0.10001   0.11321   0.12832   0.14154   0.16083
  Beta virt. eigenvalues --    0.17711   0.21846   0.23358   0.24689   0.25818

 Mulliken charges and spin densities:
               1          2
     1  F   -0.364040  -0.042233
     2  B    0.553997   0.955441
     3  C    1.423542  -0.046354
     4  O   -0.941800   0.126938
     5  F   -0.671699   0.006208
 Sum of Mulliken charges =  -0.00000   1.00000

 Dipole moment (field-independent basis, Debye):
    X=             -1.7355    Y=             -0.7307    Z=              0.4330  Tot=              1.9322
                          Isotropic Fermi Contact Couplings
        Atom                 a.u.       MegaHertz       Gauss      10(-4) cm-1
     1  F(19)              0.06225     261.90202      93.45315      87.36111
     2  B(11)              0.34532     495.31586     176.74102     165.21959
     3  C(13)              0.06769      76.09932      27.15413      25.38400
     4  O(17)              0.03825     -23.18553      -8.27317      -7.73386
     5  F(19)             -0.00376     -15.83409      -5.65000      -5.28169
 --------------------------------------------------------
       Center         ----  Spin Dipole Couplings  ----
                      3XX-RR        3YY-RR        3ZZ-RR

 Normal termination of Gaussian 16 at Wed Apr  9 00:32:15 2025.
