 Gaussian 16, Revision C.01,

 ----------------------------------------------------------------------
 #t hf aug-cc-pvdz symm=none int=(grid=ultrafine) guess=(read,tcheck) s
 table=(opt,rrhf)
 ----------------------------------------------------------------------
 -----
 title
 -----
 Symbolic Z-matrix:
 Charge =  0 Multiplicity = 1

 SCF Done:  E(RHF) =  -1409.97004325     A.U. after   15 cycles
 Normal termination of Gaussian 16 at Tue Apr  8 22:52:52 2025.
 Gaussian 16:  ES64L-G16RevC.01  3-Jul-2019

 ----------------------------------------------------------------------
 #t hf aug-cc-pvdz iop(5/13=1,5/36=2,99/5=2) pseudo=read geom=check gue
 ss=(read,tcheck) scf=(maxcycle=1)
 ----------------------------------------------------------------------
 -----
 title
 -----
 Structure from the checkpoint file:  "BDE49_expt_1797_mol1.chk"
 Charge =  0 Multiplicity = 1

                         Standard orientation:
 ---------------------------------------------------------------------
 Center     Atomic      Atomic             Coordinates (Angstroms)
 Number     Number       Type             X           Y           Z
 ---------------------------------------------------------------------
      1          8           0        0.942880   -1.007860    0.157277
      2          7           0        2.254053   -0.165486    0.040892
      3          8           0        2.287651    0.835888    0.665193
      4          8           0        3.003567   -0.744695   -0.668570
      5          8           0        0.058041   -0.344849    1.022589
      6          6           0       -1.041742    0.157044    0.314933
      7          9           0       -1.760642    0.755961    1.263498
      8         17           0       -2.008371   -1.152519   -0.421789
      9         17           0       -0.580998    1.358673   -0.928755
 ---------------------------------------------------------------------

 SCF Done:  E(RHF) =  -1410.57667118     A.U. after    2 cycles

 The electronic state is 1-A.
 Alpha  occ. eigenvalues -- -105.61764-105.61469 -26.54420 -20.73743 -20.70788
 Alpha  occ. eigenvalues --  -20.67444 -20.67028 -15.90275 -11.55445 -10.66635
 Alpha  occ. eigenvalues --  -10.66346  -7.83581  -7.83294  -7.83147  -7.83131
 Alpha  occ. eigenvalues --   -7.82847  -7.82843  -1.78550  -1.71724  -1.66611
 Alpha  occ. eigenvalues --   -1.62649  -1.37526  -1.17121  -1.09879  -0.99397
 Alpha  occ. eigenvalues --   -0.91420  -0.87350  -0.84751  -0.82907  -0.80245
 Alpha  occ. eigenvalues --   -0.77782  -0.76532  -0.68875  -0.66102  -0.64191
 Alpha  occ. eigenvalues --   -0.58200  -0.57300  -0.55748  -0.53157  -0.52960
 Alpha  occ. eigenvalues --   -0.52117  -0.51538  -0.50464  -0.48636
 Alpha virt. eigenvalues --    0.03667   0.05911   0.07482   0.08371   0.08924
 Alpha virt. eigenvalues --    0.09808   0.11090   0.11599   0.12571   0.13499
 Alpha virt. eigenvalues --    0.14084   0.14337   0.16272   0.17269   0.17862

 Mulliken charges:
               1
     1  O   -0.569399
     2  N    2.551601
     3  O   -1.000461
     4  O   -1.018452
     5  O   -0.631181
     6  C    1.209533
     7  F   -0.599063
     8  Cl   0.060998
     9  Cl  -0.003577
 Sum of Mulliken charges =   0.00000

 Dipole moment (field-independent basis, Debye):
    X=             -0.4481    Y=              0.0318    Z=             -0.1823  Tot=              0.4848

 Test job not archived.
 1\1\GINC-SE108\SP\RHF\Aug-CC-pVDZ\C1Cl2F1N1O4\OHZDE\08-Apr-2025\0\\#t
 hf aug-cc-pvdz iop(5/13=1,5/36=2,99/5=2) pseudo=read geom=check guess=
 (read,tcheck) scf=(maxcycle=1)\\title\\0,1\O,0,0.94288,-1.00786,0.1572
 77\N,0,2.254053,-0.165486,0.040892\O,0,2.287651,0.835888,0.665193\O,0,
 3.003567,-0.744695,-0.66857\O,0,0.058041,-0.344849,1.022589\C,0,-1.041
 742,0.157044,0.314933\F,0,-1.760642,0.755961,1.263498\Cl,0,-2.008371,-
 1.152519,-0.421789\Cl,0,-0.580998,1.358673,-0.928755\\Version=ES64L-G1
 6RevC.01\State=1-A\HF=-1410.5766712\RMSD=1.030e-02\Dipole=-0.176288,0.

 Normal termination of Gaussian 16 at Tue Apr  8 22:52:57 2025.
