 Gaussian 16, Revision C.01,

 ----------------------------------------------------------------------
 #t hf aug-cc-pvdz symm=none int=(grid=ultrafine) guess=(read,tcheck) s
 table=(opt,rrhf)
 ----------------------------------------------------------------------
 -----
 title
 -----
 Symbolic Z-matrix:
 Charge =  0 Multiplicity = 1

 SCF Done:  E(RHF) =  -518.194570208     A.U. after   19 cycles
 Normal termination of Gaussian 16 at Tue Apr  8 23:22:23 2025.
 Gaussian 16:  ES64L-G16RevC.01  3-Jul-2019

 ----------------------------------------------------------------------
 #t hf aug-cc-pvdz iop(5/13=1,5/36=2,99/5=2) pseudo=read geom=check gue
 ss=(read,tcheck) scf=(maxcycle=1)
 ----------------------------------------------------------------------
 -----
 title
 -----
 Structure from the checkpoint file:  "BDE49_nonexpt_1177_mol1.chk"
 Charge =  0 Multiplicity = 1

                         Standard orientation:
 ---------------------------------------------------------------------
 Center     Atomic      Atomic             Coordinates (Angstroms)
 Number     Number       Type             X           Y           Z
 ---------------------------------------------------------------------
      1          9           0        1.793891   -1.694751    0.789634
      2          8           0        1.067522   -1.204945   -0.633545
      3          6           0       -0.036143   -0.595655   -0.296396
      4          6           0       -0.062287    0.814552   -0.031858
      5          6           0       -1.311373    1.425214    0.188605
      6          1           0       -1.326221    2.493806    0.362286
      7          6           0       -2.469761    0.674892    0.203498
      8          6           0       -1.246290   -1.339608   -0.231686
      9          1           0       -1.163378   -2.406987   -0.395791
     10          6           0       -2.449463   -0.720677   -0.005294
     11          1           0       -3.371447   -1.287904    0.017358
     12          1           0       -3.415733    1.173174    0.384584
     13          8           0        0.985938    1.629845    0.006857
     14          6           0        2.351858    1.176954   -0.145367
     15          1           0        2.950471    2.053664    0.093147
     16          1           0        2.529919    0.863202   -1.174256
     17          1           0        2.564445    0.350574    0.530454
 ---------------------------------------------------------------------

 SCF Done:  E(RHF) =  -518.707365403     A.U. after    2 cycles

 The electronic state is 1-A.
 Alpha  occ. eigenvalues --  -26.41976 -20.68884 -20.60077 -11.35888 -11.31553
 Alpha  occ. eigenvalues --  -11.29710 -11.29046 -11.28292 -11.26076 -11.25993
 Alpha  occ. eigenvalues --   -1.55921  -1.52509  -1.40341  -1.17301  -1.05664
 Alpha  occ. eigenvalues --   -1.02568  -0.95785  -0.87709  -0.84681  -0.74991
 Alpha  occ. eigenvalues --   -0.72784  -0.72071  -0.67430  -0.67208  -0.63729
 Alpha  occ. eigenvalues --   -0.62486  -0.61337  -0.60505  -0.56667  -0.55811
 Alpha  occ. eigenvalues --   -0.54735  -0.53547  -0.52343  -0.48883  -0.48278
 Alpha  occ. eigenvalues --   -0.37349  -0.33949
 Alpha virt. eigenvalues --    0.01088   0.02864   0.03422   0.04053   0.05058
 Alpha virt. eigenvalues --    0.05336   0.06464   0.07883   0.09736   0.10158
 Alpha virt. eigenvalues --    0.11143   0.11781   0.12981   0.13069   0.13525

 Mulliken charges:
               1
     1  F   -0.458683
     2  O   -1.251145
     3  C    0.977258
     4  C    1.524885
     5  C    0.250333
     6  H   -0.283425
     7  C    0.443399
     8  C    0.474092
     9  H   -0.297267
    10  C    0.398361
    11  H   -0.195755
    12  H   -0.200999
    13  O   -1.879557
    14  C    0.130224
    15  H   -0.023106
    16  H    0.142184
    17  H    0.249201
 Sum of Mulliken charges =   0.00000

 Dipole moment (field-independent basis, Debye):
    X=             -2.6534    Y=              2.1455    Z=             -0.9098  Tot=              3.5315

 Test job not archived.
 1\1\GINC-SE072\SP\RHF\Aug-CC-pVDZ\C7H7F1O2\OHZDE\08-Apr-2025\0\\#t hf
 aug-cc-pvdz iop(5/13=1,5/36=2,99/5=2) pseudo=read geom=check guess=(re
 ad,tcheck) scf=(maxcycle=1)\\title\\0,1\F,0,-1.793891,1.694751,0.78963
 4\O,0,-1.067522,1.204945,-0.633545\C,0,0.036143,0.595655,-0.296396\C,0
 ,0.062287,-0.814552,-0.031858\C,0,1.311373,-1.425214,0.188605\H,0,1.32
 6221,-2.493806,0.362286\C,0,2.469761,-0.674892,0.203498\C,0,1.24629,1.
 339608,-0.231686\H,0,1.163378,2.406987,-0.395791\C,0,2.449463,0.720677
 ,-0.005294\H,0,3.371447,1.287905,0.017358\H,0,3.415733,-1.173173,0.384

 Normal termination of Gaussian 16 at Tue Apr  8 23:22:32 2025.
