 Gaussian 16, Revision C.01,

 ----------------------------------------------------------------------
 #t hf aug-cc-pvdz symm=none int=(grid=ultrafine) guess=(read,tcheck) s
 table=(opt,rrhf)
 ----------------------------------------------------------------------
 -----
 title
 -----
 Symbolic Z-matrix:
 Charge =  0 Multiplicity = 1

 SCF Done:  E(RHF) =  -627.083445653     A.U. after   15 cycles
 Normal termination of Gaussian 16 at Tue Apr  8 23:32:41 2025.
 Gaussian 16:  ES64L-G16RevC.01  3-Jul-2019

 ----------------------------------------------------------------------
 #t hf aug-cc-pvdz iop(5/13=1,5/36=2,99/5=2) pseudo=read geom=check gue
 ss=(read,tcheck) scf=(maxcycle=1)
 ----------------------------------------------------------------------
 -----
 title
 -----
 Structure from the checkpoint file:  "BDE49_nonexpt_1427_mol1.chk"
 Charge =  0 Multiplicity = 1

                         Standard orientation:
 ---------------------------------------------------------------------
 Center     Atomic      Atomic             Coordinates (Angstroms)
 Number     Number       Type             X           Y           Z
 ---------------------------------------------------------------------
      1          6           0       -0.237763   -1.200570   -0.001476
      2          6           0        1.152280   -1.203857   -0.004658
      3          6           0        1.867087    0.002165   -0.005826
      4          6           0       -0.968851   -0.006670    0.000023
      5          6           0       -0.246252    1.195788   -0.001945
      6          6           0        1.139870    1.205918   -0.005423
      7          1           0       -0.764952   -2.148862    0.001328
      8          1           0        1.690846   -2.146286   -0.009853
      9          7           0        3.255500    0.012346   -0.066328
     10          1           0        3.716916   -0.826322    0.252077
     11          1           0        3.705489    0.852943    0.263087
     12         15           0       -2.807522   -0.114558    0.005914
     13          1           0        1.673524    2.151399   -0.012030
     14          1           0       -0.775500    2.142491    0.000069
     15          1           0       -3.083153    0.815786   -1.031889
     16          1           0       -3.077058    0.834154    1.028625
 ---------------------------------------------------------------------

 SCF Done:  E(RHF) =  -627.424441739     A.U. after    2 cycles

 The electronic state is 1-A.
 Alpha  occ. eigenvalues --  -84.26719 -15.51694 -11.29364 -11.25183 -11.25040
 Alpha  occ. eigenvalues --  -11.23770 -11.23628 -11.23514  -6.73751  -4.26569
 Alpha  occ. eigenvalues --   -4.25993  -4.25802  -1.23323  -1.13755  -1.02113
 Alpha  occ. eigenvalues --   -1.00608  -0.87263  -0.85037  -0.80005  -0.73373
 Alpha  occ. eigenvalues --   -0.72742  -0.64252  -0.62561  -0.60848  -0.59967
 Alpha  occ. eigenvalues --   -0.56318  -0.51501  -0.50535  -0.47414  -0.46288
 Alpha  occ. eigenvalues --   -0.35243  -0.34167  -0.31463
 Alpha virt. eigenvalues --    0.02732   0.03874   0.04228   0.05263   0.05587
 Alpha virt. eigenvalues --    0.06874   0.07503   0.08537   0.08956   0.09168
 Alpha virt. eigenvalues --    0.10699   0.11407   0.11628   0.12546   0.12958

 Mulliken charges:
               1
     1  C   -0.601676
     2  C    0.754943
     3  C   -1.568560
     4  C    0.147309
     5  C    0.598268
     6  C    0.847032
     7  H   -0.241043
     8  H   -0.296579
     9  N    0.816238
    10  H    0.003020
    11  H    0.003862
    12  P   -0.668093
    13  H   -0.305660
    14  H   -0.265800
    15  H    0.391260
    16  H    0.385478
 Sum of Mulliken charges =  -0.00000

 Dipole moment (field-independent basis, Debye):
    X=              2.2222    Y=              0.4875    Z=              0.9526  Tot=              2.4665

 Test job not archived.
 1\1\GINC-SE332\SP\RHF\Aug-CC-pVDZ\C6H8N1P1\OHZDE\08-Apr-2025\0\\#t hf
 aug-cc-pvdz iop(5/13=1,5/36=2,99/5=2) pseudo=read geom=check guess=(re
 ad,tcheck) scf=(maxcycle=1)\\title\\0,1\C,0,-0.237763,-1.20057,-0.0014
 76\C,0,1.15228,-1.203857,-0.004658\C,0,1.867087,0.002165,-0.005826\C,0
 ,-0.968851,-0.00667,0.000023\C,0,-0.246252,1.195788,-0.001945\C,0,1.13
 987,1.205918,-0.005423\H,0,-0.764952,-2.148862,0.001328\H,0,1.690846,-
 2.146286,-0.009853\N,0,3.2555,0.012346,-0.066328\H,0,3.716916,-0.82632
 2,0.252077\H,0,3.705489,0.852943,0.263087\P,0,-2.807522,-0.114558,0.00

 Normal termination of Gaussian 16 at Tue Apr  8 23:32:47 2025.
