 Gaussian 16, Revision C.01,

 ----------------------------------------------------------------------
 #t hf aug-cc-pvdz symm=none int=(grid=ultrafine) guess=(read,tcheck) s
 table=(opt,rrhf)
 ----------------------------------------------------------------------
 -----
 title
 -----
 Symbolic Z-matrix:
 Charge =  0 Multiplicity = 1

 SCF Done:  E(RHF) =  -1158.60377779     A.U. after   15 cycles
 Normal termination of Gaussian 16 at Wed Apr  9 00:22:46 2025.
 Gaussian 16:  ES64L-G16RevC.01  3-Jul-2019

 ----------------------------------------------------------------------
 #t hf aug-cc-pvdz iop(5/13=1,5/36=2,99/5=2) pseudo=read geom=check gue
 ss=(read,tcheck) scf=(maxcycle=1)
 ----------------------------------------------------------------------
 -----
 title
 -----
 Structure from the checkpoint file:  "BDE49_nonexpt_2670_mol1.chk"
 Charge =  0 Multiplicity = 1

                         Standard orientation:
 ---------------------------------------------------------------------
 Center     Atomic      Atomic             Coordinates (Angstroms)
 Number     Number       Type             X           Y           Z
 ---------------------------------------------------------------------
      1          9           0       -1.847117    1.166396    0.375458
      2         16           0       -1.550313   -0.260185   -0.428380
      3         16           0        0.458528   -0.597689    0.154085
      4          8           0        0.690696   -1.891287   -0.415606
      5          8           0        1.325557    0.423731   -0.722888
      6          6           0        1.429199    1.805729   -0.276073
      7          1           0        2.187016    2.243006   -0.921454
      8          1           0        1.740477    1.839038    0.766572
      9          1           0        0.474022    2.313558   -0.411856
     10          8           0        0.623236   -0.282638    1.542589
 ---------------------------------------------------------------------

 SCF Done:  E(RHF) =  -1159.07327034     A.U. after    2 cycles

 The electronic state is 1-A.
 Alpha  occ. eigenvalues --  -94.27666 -94.09171 -26.51450 -20.63900 -20.58785
 Alpha  occ. eigenvalues --  -20.58560 -11.33352  -8.52295  -8.36469  -6.50390
 Alpha  occ. eigenvalues --   -6.50226  -6.50136  -6.34177  -6.33926  -6.33570
 Alpha  occ. eigenvalues --   -1.64482  -1.61349  -1.51416  -1.49401  -1.08135
 Alpha  occ. eigenvalues --   -1.00824  -0.87884  -0.77685  -0.75078  -0.72110
 Alpha  occ. eigenvalues --   -0.69653  -0.68428  -0.67743  -0.65099  -0.63055
 Alpha  occ. eigenvalues --   -0.59215  -0.54872  -0.53374  -0.52994  -0.50657
 Alpha  occ. eigenvalues --   -0.47387  -0.43579
 Alpha virt. eigenvalues --    0.02962   0.03824   0.05555   0.05769   0.06207
 Alpha virt. eigenvalues --    0.08952   0.10097   0.10895   0.12104   0.13136
 Alpha virt. eigenvalues --    0.13203   0.14906   0.15255   0.15911   0.16770

 Mulliken charges:
               1
     1  F   -0.627919
     2  S    0.812540
     3  S    3.483730
     4  O   -1.348071
     5  O   -1.481920
     6  C    0.182882
     7  H    0.040643
     8  H    0.176626
     9  H    0.167218
    10  O   -1.405730
 Sum of Mulliken charges =  -0.00000

 Dipole moment (field-independent basis, Debye):
    X=             -0.0326    Y=              3.1758    Z=             -1.3480  Tot=              3.4502

 Test job not archived.
 1\1\GINC-SE366\SP\RHF\Aug-CC-pVDZ\C1H3F1O3S2\OHZDE\09-Apr-2025\0\\#t h
 f aug-cc-pvdz iop(5/13=1,5/36=2,99/5=2) pseudo=read geom=check guess=(
 read,tcheck) scf=(maxcycle=1)\\title\\0,1\F,0,-1.847117,1.166396,0.375
 458\S,0,-1.550313,-0.260185,-0.42838\S,0,0.458528,-0.597689,0.154085\O
 ,0,0.690696,-1.891287,-0.415606\O,0,1.325557,0.423731,-0.722888\C,0,1.
 429199,1.805729,-0.276073\H,0,2.187016,2.243006,-0.921454\H,0,1.740477
 ,1.839038,0.766572\H,0,0.474022,2.313558,-0.411856\O,0,0.623236,-0.282
 638,1.542589\\Version=ES64L-G16RevC.01\State=1-A\HF=-1159.0732703\RMSD

 Normal termination of Gaussian 16 at Wed Apr  9 00:22:49 2025.
