 Gaussian 16, Revision C.01,

 ----------------------------------------------------------------------
 #t hf aug-cc-pvdz symm=none int=(grid=ultrafine) guess=(read,tcheck) s
 table=(opt,rrhf)
 ----------------------------------------------------------------------
 -----
 title
 -----
 Symbolic Z-matrix:
 Charge =  0 Multiplicity = 1

 SCF Done:  E(RHF) =  -634.732362930     A.U. after   13 cycles
 Normal termination of Gaussian 16 at Wed Apr  9 00:41:55 2025.
 Gaussian 16:  ES64L-G16RevC.01  3-Jul-2019

 ----------------------------------------------------------------------
 #t hf aug-cc-pvdz iop(5/13=1,5/36=2,99/5=2) pseudo=read geom=check gue
 ss=(read,tcheck) scf=(maxcycle=1)
 ----------------------------------------------------------------------
 -----
 title
 -----
 Structure from the checkpoint file:  "BDE49_nonexpt_684_mol1.chk"
 Charge =  0 Multiplicity = 1

                         Standard orientation:
 ---------------------------------------------------------------------
 Center     Atomic      Atomic             Coordinates (Angstroms)
 Number     Number       Type             X           Y           Z
 ---------------------------------------------------------------------
      1         15           0       -0.570472    1.313413   -0.218215
      2          5           0       -1.589084   -0.331762   -0.032391
      3          8           0       -1.231092   -1.398966   -0.800640
      4          8           0       -2.712210   -0.445233    0.744169
      5          6           0        1.167855    0.680766   -0.502864
      6          6           0        1.763636   -0.254914    0.555052
      7          1           0        1.804316    1.562545   -0.631903
      8          1           0        1.136532    0.178711   -1.475576
      9          6           0        3.197878   -0.684945    0.225879
     10          1           0        1.128534   -1.140962    0.645474
     11          1           0        1.746066    0.244355    1.530321
     12          1           0        3.240660   -1.217653   -0.728976
     13          1           0        3.597572   -1.350558    0.996125
     14          1           0        3.865625    0.179285    0.154044
     15          1           0       -1.849016   -2.134244   -0.705024
     16          1           0       -2.911633    0.336956    1.264735
     17          1           0       -0.485948    1.607321    1.169327
 ---------------------------------------------------------------------

 SCF Done:  E(RHF) =  -635.084356248     A.U. after    2 cycles

 The electronic state is 1-A.
 Alpha  occ. eigenvalues --  -84.24896 -20.56750 -20.56051 -11.23883 -11.23169
 Alpha  occ. eigenvalues --  -11.22383  -7.65362  -6.72211  -4.24802  -4.24730
 Alpha  occ. eigenvalues --   -4.24096  -1.48856  -1.44517  -1.06513  -0.95031
 Alpha  occ. eigenvalues --   -0.83811  -0.79807  -0.76571  -0.72797  -0.64012
 Alpha  occ. eigenvalues --   -0.61340  -0.58401  -0.57822  -0.56515  -0.54998
 Alpha  occ. eigenvalues --   -0.54141  -0.49995  -0.49448  -0.48104  -0.45938
 Alpha  occ. eigenvalues --   -0.42333  -0.32165
 Alpha virt. eigenvalues --    0.03323   0.03869   0.04044   0.04410   0.05604
 Alpha virt. eigenvalues --    0.06203   0.06433   0.07168   0.07749   0.08864
 Alpha virt. eigenvalues --    0.09141   0.09622   0.10409   0.11766   0.12195

 Mulliken charges:
               1
     1  P   -0.395443
     2  B    2.116331
     3  O   -1.215606
     4  O   -1.283905
     5  C   -0.764081
     6  C   -0.384328
     7  H    0.102607
     8  H    0.166340
     9  C   -0.392775
    10  H    0.118881
    11  H    0.143812
    12  H    0.167003
    13  H    0.119724
    14  H    0.159257
    15  H    0.555807
    16  H    0.519406
    17  H    0.266969
 Sum of Mulliken charges =  -0.00000

 Dipole moment (field-independent basis, Debye):
    X=             -0.1165    Y=             -0.2823    Z=              1.0875  Tot=              1.1296

 Test job not archived.
 1\1\GINC-SE249\SP\RHF\Aug-CC-pVDZ\C3H10B1O2P1\OHZDE\09-Apr-2025\0\\#t
 hf aug-cc-pvdz iop(5/13=1,5/36=2,99/5=2) pseudo=read geom=check guess=
 (read,tcheck) scf=(maxcycle=1)\\title\\0,1\P,0,-0.570472,1.313413,-0.2
 18215\B,0,-1.589084,-0.331762,-0.032391\O,0,-1.231092,-1.398966,-0.800
 64\O,0,-2.71221,-0.445233,0.744169\C,0,1.167855,0.680766,-0.502864\C,0
 ,1.763636,-0.254914,0.555052\H,0,1.804316,1.562545,-0.631903\H,0,1.136
 532,0.178711,-1.475576\C,0,3.197878,-0.684945,0.225879\H,0,1.128534,-1
 .140962,0.645474\H,0,1.746066,0.244355,1.530321\H,0,3.24066,-1.217653,

 Normal termination of Gaussian 16 at Wed Apr  9 00:42:02 2025.
