 Gaussian 16, Revision C.01,

 ----------------------------------------------------------------------
 #t hf aug-cc-pvdz symm=none int=(grid=ultrafine) guess=(read,tcheck) s
 table=opt
 ----------------------------------------------------------------------
 -----
 title
 -----
 Symbolic Z-matrix:
 Charge =  0 Multiplicity = 2

 SCF Done:  E(UHF) =  -2373.18729304     A.U. after   18 cycles
 Normal termination of Gaussian 16 at Tue Apr  8 22:40:46 2025.
 Gaussian 16:  ES64L-G16RevC.01  3-Jul-2019

 ----------------------------------------------------------------------
 #t hf aug-cc-pvdz iop(5/13=1,5/36=2,99/5=2) pseudo=read geom=check gue
 ss=(read,tcheck) scf=(maxcycle=1)
 ----------------------------------------------------------------------
 -----
 title
 -----
 Structure from the checkpoint file:  "BDE49_expt_131_mol2.chk"
 Charge =  0 Multiplicity = 2

                         Standard orientation:
 ---------------------------------------------------------------------
 Center     Atomic      Atomic             Coordinates (Angstroms)
 Number     Number       Type             X           Y           Z
 ---------------------------------------------------------------------
      1          6           0       -0.095519   -0.585477    0.000000
      2          6           0        0.446181    0.811463   -0.000000
      3         17           0        0.451010   -1.478350    1.454684
      4         17           0        0.451010   -1.478350   -1.454684
      5         17           0       -1.927803   -0.550649    0.000000
      6         17           0        0.451010    1.713795    1.455270
      7         17           0        0.451010    1.713795   -1.455270
 ---------------------------------------------------------------------

 SCF Done:  E(UHF) =  -2373.63402158     A.U. after    2 cycles

 The electronic state is 2-A'.
 Alpha  occ. eigenvalues -- -105.61618-105.61617-105.60888-105.60888-105.60335
 Alpha  occ. eigenvalues --  -11.47691 -11.41343 -10.66454 -10.66448 -10.65710
 Alpha  occ. eigenvalues --  -10.65703 -10.65104  -7.83301  -7.83296  -7.83107
 Alpha  occ. eigenvalues --   -7.83105  -7.82960  -7.82960  -7.82686  -7.82675
 Alpha  occ. eigenvalues --   -7.82226  -7.82208  -7.82208  -7.82201  -7.82198
 Alpha  occ. eigenvalues --   -7.81597  -7.81579  -1.26825  -1.17990  -1.10632
 Alpha  occ. eigenvalues --   -1.07803  -1.07361  -0.95961  -0.78949  -0.69980
 Alpha  occ. eigenvalues --   -0.68880  -0.68397  -0.61328  -0.60491  -0.53269
 Alpha  occ. eigenvalues --   -0.52982  -0.51623  -0.51543  -0.50332  -0.50246
 Alpha  occ. eigenvalues --   -0.47961  -0.47080  -0.46316  -0.39434
 Alpha virt. eigenvalues --    0.05609   0.06802   0.07216   0.08341   0.09241
 Alpha virt. eigenvalues --    0.09419   0.10371   0.12017   0.12228   0.14005
 Alpha virt. eigenvalues --    0.14287   0.14693   0.16985   0.17252   0.17700

  Beta  occ. eigenvalues -- -105.61588-105.61587-105.60872-105.60871-105.60207
  Beta  occ. eigenvalues --  -11.48079 -11.38434 -10.66419 -10.66414 -10.65693
  Beta  occ. eigenvalues --  -10.65686 -10.64971  -7.83534  -7.83529  -7.82939
  Beta  occ. eigenvalues --   -7.82939  -7.82754  -7.82753  -7.82620  -7.82610
  Beta  occ. eigenvalues --   -7.82199  -7.82197  -7.82190  -7.82188  -7.81754
  Beta  occ. eigenvalues --   -7.81505  -7.81468  -1.24703  -1.16609  -1.10296
  Beta  occ. eigenvalues --   -1.07188  -1.06984  -0.93400  -0.76453  -0.68962
  Beta  occ. eigenvalues --   -0.67644  -0.64760  -0.60861  -0.55794  -0.52774
  Beta  occ. eigenvalues --   -0.52608  -0.51275  -0.50362  -0.49466  -0.49221
  Beta  occ. eigenvalues --   -0.47798  -0.46959  -0.46251
  Beta virt. eigenvalues --    0.03144   0.05706   0.07158   0.07329   0.08773
  Beta virt. eigenvalues --    0.09252   0.09711   0.10644   0.12364   0.13188
  Beta virt. eigenvalues --    0.14320   0.14553   0.14754   0.17199   0.17248

 Mulliken charges and spin densities:
               1          2
     1  C   -0.918410  -0.234411
     2  C    0.246472   1.150424
     3  Cl   0.208886   0.008588
     4  Cl   0.208886   0.008588
     5  Cl   0.149318   0.081682
     6  Cl   0.052424  -0.007435
     7  Cl   0.052424  -0.007435
 Sum of Mulliken charges =  -0.00000   1.00000

 Dipole moment (field-independent basis, Debye):
    X=              0.3877    Y=              0.3397    Z=             -0.0000  Tot=              0.5155
                          Isotropic Fermi Contact Couplings
        Atom                 a.u.       MegaHertz       Gauss      10(-4) cm-1
     1  C(13)             -0.06259     -70.36044     -25.10635     -23.46971
     2  C(13)              0.33416     375.66006     134.04485     125.30671
     3  Cl(35)             0.00339       1.48770       0.53085       0.49624
     4  Cl(35)             0.00339       1.48770       0.53085       0.49624
     5  Cl(35)             0.03161      13.85794       4.94486       4.62251
     6  Cl(35)             0.03672      16.09891       5.74449       5.37002
     7  Cl(35)             0.03672      16.09891       5.74449       5.37002
 --------------------------------------------------------

 Normal termination of Gaussian 16 at Tue Apr  8 22:40:50 2025.
