 Gaussian 16, Revision C.01,

 ----------------------------------------------------------------------
 #t hf aug-cc-pvdz symm=none int=(grid=ultrafine) guess=(read,tcheck) s
 table=opt
 ----------------------------------------------------------------------
 -----
 title
 -----
 Symbolic Z-matrix:
 Charge =  0 Multiplicity = 2

 SCF Done:  E(UHF) =  -154.379039991     A.U. after   16 cycles
 Normal termination of Gaussian 16 at Tue Apr  8 22:52:37 2025.
 Gaussian 16:  ES64L-G16RevC.01  3-Jul-2019

 ----------------------------------------------------------------------
 #t hf aug-cc-pvdz iop(5/13=1,5/36=2,99/5=2) pseudo=read geom=check gue
 ss=(read,tcheck) scf=(maxcycle=1)
 ----------------------------------------------------------------------
 -----
 title
 -----
 Structure from the checkpoint file:  "BDE49_expt_1813_mol2.chk"
 Charge =  0 Multiplicity = 2

                         Standard orientation:
 ---------------------------------------------------------------------
 Center     Atomic      Atomic             Coordinates (Angstroms)
 Number     Number       Type             X           Y           Z
 ---------------------------------------------------------------------
      1          7           0        0.059993    0.716103    0.000000
      2          1           0       -0.959889    0.898256    0.000000
      3          9           0        0.059993   -0.656775    0.000000
 ---------------------------------------------------------------------

 SCF Done:  E(UHF) =  -154.520408001     A.U. after    2 cycles

 The electronic state is 2-A".
 Alpha  occ. eigenvalues --  -26.50276 -15.65257  -1.63653  -1.15337  -0.76962
 Alpha  occ. eigenvalues --   -0.75106  -0.69253  -0.55783  -0.55192
 Alpha virt. eigenvalues --    0.03305   0.11951   0.15382   0.15422   0.18123
 Alpha virt. eigenvalues --    0.24567   0.27219   0.28547   0.29330   0.31155
 Alpha virt. eigenvalues --    0.35783   0.44933   0.50718   0.57951   0.67842

  Beta  occ. eigenvalues --  -26.49889 -15.61526  -1.61624  -1.04204  -0.75104
  Beta  occ. eigenvalues --   -0.67832  -0.64565  -0.52782
  Beta virt. eigenvalues --    0.03454   0.05573   0.12335   0.15648   0.18860
  Beta virt. eigenvalues --    0.19526   0.24840   0.28506   0.28847   0.29715
  Beta virt. eigenvalues --    0.32613   0.37689   0.45464   0.50992   0.59124

 Mulliken charges and spin densities:
               1          2
     1  N    0.555151   1.071075
     2  H    0.010742  -0.076170
     3  F   -0.565893   0.005095
 Sum of Mulliken charges =  -0.00000   1.00000

 Dipole moment (field-independent basis, Debye):
    X=             -1.7411    Y=              0.7162    Z=              0.0000  Tot=              1.8826
                          Isotropic Fermi Contact Couplings
        Atom                 a.u.       MegaHertz       Gauss      10(-4) cm-1
     1  N(14)              0.31395     101.43969      36.19620      33.83664
     2  H(1)              -0.02459    -109.92292     -39.22323     -36.66634
     3  F(19)              0.05947     250.23493      89.29005      83.46939
 --------------------------------------------------------
       Center         ----  Spin Dipole Couplings  ----
                      3XX-RR        3YY-RR        3ZZ-RR
 --------------------------------------------------------
     1   Atom       -1.175672     -1.277245      2.452917

 Normal termination of Gaussian 16 at Tue Apr  8 22:52:38 2025.
