 Gaussian 16, Revision C.01,

 ----------------------------------------------------------------------
 #t hf aug-cc-pvdz symm=none int=(grid=ultrafine) guess=(read,tcheck) s
 table=(opt,rrhf)
 ----------------------------------------------------------------------
 -----
 title
 -----
 Symbolic Z-matrix:
 Charge =  0 Multiplicity = 1

 SCF Done:  E(RHF) =  -665.237610054     A.U. after   15 cycles
 Normal termination of Gaussian 16 at Wed Apr  9 00:22:39 2025.
 Gaussian 16:  ES64L-G16RevC.01  3-Jul-2019

 ----------------------------------------------------------------------
 #t hf aug-cc-pvdz iop(5/13=1,5/36=2,99/5=2) pseudo=read geom=check gue
 ss=(read,tcheck) scf=(maxcycle=1)
 ----------------------------------------------------------------------
 -----
 title
 -----
 Structure from the checkpoint file:  "BDE49_nonexpt_2675_mol1.chk"
 Charge =  0 Multiplicity = 1

                         Standard orientation:
 ---------------------------------------------------------------------
 Center     Atomic      Atomic             Coordinates (Angstroms)
 Number     Number       Type             X           Y           Z
 ---------------------------------------------------------------------
      1          9           0       -2.103322    0.740824   -0.204245
      2         16           0       -1.118751   -0.580445    0.098907
      3          6           0        0.405819    0.247300    0.244171
      4          7           0        1.409457   -0.312938   -0.312300
      5          1           0        0.476151    1.134825    0.872394
      6          8           0        2.599221    0.296280    0.069114
      7          1           0        3.258875   -0.178596   -0.448541
 ---------------------------------------------------------------------

 SCF Done:  E(RHF) =  -665.549794952     A.U. after    2 cycles

 The electronic state is 1-A.
 Alpha  occ. eigenvalues --  -94.05764 -26.48260 -20.61834 -15.60786 -11.33605
 Alpha  occ. eigenvalues --   -8.33096  -6.30868  -6.30600  -6.30285  -1.58122
 Alpha  occ. eigenvalues --   -1.53817  -1.22862  -1.03687  -0.83160  -0.77015
 Alpha  occ. eigenvalues --   -0.71613  -0.66802  -0.66602  -0.65170  -0.62804
 Alpha  occ. eigenvalues --   -0.54639  -0.50110  -0.47133  -0.38963
 Alpha virt. eigenvalues --    0.03591   0.04596   0.05138   0.07228   0.08623
 Alpha virt. eigenvalues --    0.10650   0.11948   0.13243   0.14107   0.16071
 Alpha virt. eigenvalues --    0.16886   0.17450   0.18397   0.20446   0.21408

 Mulliken charges:
               1
     1  F   -0.645962
     2  S    1.030509
     3  C   -0.914230
     4  N    1.190927
     5  H    0.101735
     6  O   -1.093856
     7  H    0.330877
 Sum of Mulliken charges =  -0.00000

 Dipole moment (field-independent basis, Debye):
    X=              1.5426    Y=             -0.0722    Z=              0.5462  Tot=              1.6380

 Test job not archived.
 1\1\GINC-SE461\SP\RHF\Aug-CC-pVDZ\C1H2F1N1O1S1\OHZDE\09-Apr-2025\0\\#t
  hf aug-cc-pvdz iop(5/13=1,5/36=2,99/5=2) pseudo=read geom=check guess
 =(read,tcheck) scf=(maxcycle=1)\\title\\0,1\F,0,-2.103322,0.740824,-0.
 204245\S,0,-1.118751,-0.580445,0.098907\C,0,0.405819,0.2473,0.244171\N
 ,0,1.409457,-0.312938,-0.3123\H,0,0.476151,1.134825,0.872394\O,0,2.599
 221,0.29628,0.069114\H,0,3.258875,-0.178596,-0.448541\\Version=ES64L-G
 16RevC.01\State=1-A\HF=-665.549795\RMSD=1.160e-02\Dipole=0.6069024,-0.
 0284247,0.214886\Quadrupole=1.8646885,-0.6246918,-1.2399967,0.1320469,

 Normal termination of Gaussian 16 at Wed Apr  9 00:22:41 2025.
