 Gaussian 16, Revision C.01,

 ----------------------------------------------------------------------
 #t hf aug-cc-pvdz symm=none int=(grid=ultrafine) guess=(read,tcheck) s
 table=opt
 ----------------------------------------------------------------------
 -----
 title
 -----
 Symbolic Z-matrix:
 Charge =  0 Multiplicity = 2

 SCF Done:  E(UHF) =  -2063.93394892     A.U. after   24 cycles
 Normal termination of Gaussian 16 at Tue Apr  8 23:10:25 2025.
 Gaussian 16:  ES64L-G16RevC.01  3-Jul-2019

 ----------------------------------------------------------------------
 #t hf aug-cc-pvdz iop(5/13=1,5/36=2,99/5=2) pseudo=read geom=check gue
 ss=(read,tcheck) scf=(maxcycle=1)
 ----------------------------------------------------------------------
 -----
 title
 -----
 Structure from the checkpoint file:  "BDE49_expt_626_mol2.chk"
 Charge =  0 Multiplicity = 2

                         Standard orientation:
 ---------------------------------------------------------------------
 Center     Atomic      Atomic             Coordinates (Angstroms)
 Number     Number       Type             X           Y           Z
 ---------------------------------------------------------------------
      1          6           0       -0.618234    0.096700    0.136294
      2          8           0       -1.129235    1.461662   -0.015631
      3          8           0       -1.192682    1.831186   -1.277858
      4          6           0        0.752576   -0.018361   -0.575765
      5         17           0       -0.540186   -0.131629    1.882073
      6         17           0        1.443936   -1.652534   -0.427743
      7          1           0        0.588977    0.181475   -1.629882
      8         17           0        1.892345    1.220739    0.023435
      9         17           0       -1.785489   -1.024475   -0.618081
 ---------------------------------------------------------------------

 SCF Done:  E(UHF) =  -2064.44803188     A.U. after    2 cycles

 The electronic state is 2-A.
 Alpha  occ. eigenvalues -- -105.61252-105.61038-105.60281-105.60102 -20.71078
 Alpha  occ. eigenvalues --  -20.70181 -11.48068 -11.41761 -10.66104 -10.65885
 Alpha  occ. eigenvalues --  -10.65096 -10.64912  -7.83063  -7.82853  -7.82611
 Alpha  occ. eigenvalues --   -7.82608  -7.82403  -7.82393  -7.82047  -7.81866
 Alpha  occ. eigenvalues --   -7.81623  -7.81612  -7.81441  -7.81430  -1.74015
 Alpha  occ. eigenvalues --   -1.33722  -1.21342  -1.14666  -1.09293  -1.07207
 Alpha  occ. eigenvalues --   -0.96582  -0.84046  -0.79514  -0.76613  -0.73163
 Alpha  occ. eigenvalues --   -0.69360  -0.65803  -0.62656  -0.60458  -0.55387
 Alpha  occ. eigenvalues --   -0.53689  -0.52531  -0.51392  -0.50686  -0.49663
 Alpha  occ. eigenvalues --   -0.49586  -0.48257  -0.47380  -0.46862
 Alpha virt. eigenvalues --    0.04495   0.06589   0.07097   0.08100   0.08722
 Alpha virt. eigenvalues --    0.10033   0.11278   0.12035   0.12746   0.13462
 Alpha virt. eigenvalues --    0.14083   0.15202   0.15378   0.16432   0.17057

  Beta  occ. eigenvalues -- -105.61258-105.61032-105.60282-105.60104 -20.69451
  Beta  occ. eigenvalues --  -20.66999 -11.48141 -11.41748 -10.66111 -10.65879
  Beta  occ. eigenvalues --  -10.65097 -10.64914  -7.83079  -7.82816  -7.82623
  Beta  occ. eigenvalues --   -7.82612  -7.82398  -7.82395  -7.82056  -7.81869
  Beta  occ. eigenvalues --   -7.81624  -7.81611  -7.81446  -7.81433  -1.68052
  Beta  occ. eigenvalues --   -1.27318  -1.19125  -1.13383  -1.09141  -1.07203
  Beta  occ. eigenvalues --   -0.96344  -0.83051  -0.75967  -0.71620  -0.70828
  Beta  occ. eigenvalues --   -0.66311  -0.62985  -0.60447  -0.57133  -0.53782
  Beta  occ. eigenvalues --   -0.52042  -0.51090  -0.50246  -0.49657  -0.49325
  Beta  occ. eigenvalues --   -0.48273  -0.47181  -0.46663
  Beta virt. eigenvalues --    0.04470   0.06555   0.06634   0.07133   0.08127
  Beta virt. eigenvalues --    0.08739   0.10303   0.11330   0.12284   0.12838
  Beta virt. eigenvalues --    0.13860   0.14204   0.15329   0.15432   0.16640

 Mulliken charges and spin densities:
               1          2
     1  C    0.780824  -0.004661
     2  O   -0.606614   0.044687
     3  O   -0.239070   0.967146
     4  C   -0.627283   0.006830
     5  Cl   0.056082  -0.005256
     6  Cl   0.058816  -0.001412
     7  H    0.457460  -0.007060
     8  Cl   0.067342  -0.002668
     9  Cl   0.052445   0.002393
 Sum of Mulliken charges =  -0.00000   1.00000

 Dipole moment (field-independent basis, Debye):
    X=              0.0535    Y=             -0.4098    Z=             -0.7348  Tot=              0.8430
                          Isotropic Fermi Contact Couplings
        Atom                 a.u.       MegaHertz       Gauss      10(-4) cm-1
     1  C(13)             -0.01320     -14.83582      -5.29379      -4.94870
     2  O(17)              0.07335     -44.46207     -15.86517     -14.83095
     3  O(17)              0.26790    -162.40022     -57.94844     -54.17088
     4  C(13)              0.00005       0.05354       0.01911       0.01786
     5  Cl(35)            -0.00320      -1.40365      -0.50086      -0.46821
     6  Cl(35)            -0.00009      -0.03757      -0.01341      -0.01253
     7  H(1)               0.00003       0.13385       0.04776       0.04465
     8  Cl(35)            -0.00178      -0.77884      -0.27791      -0.25979

 Normal termination of Gaussian 16 at Tue Apr  8 23:10:32 2025.
