 Gaussian 16, Revision C.01,

 ----------------------------------------------------------------------
 #t hf aug-cc-pvdz symm=none int=(grid=ultrafine) guess=(read,tcheck) s
 table=(opt,rrhf)
 ----------------------------------------------------------------------
 -----
 title
 -----
 Symbolic Z-matrix:
 Charge =  0 Multiplicity = 1

 SCF Done:  E(RHF) =  -514.637634289     A.U. after   13 cycles
 Normal termination of Gaussian 16 at Tue Apr  8 23:37:23 2025.
 Gaussian 16:  ES64L-G16RevC.01  3-Jul-2019

 ----------------------------------------------------------------------
 #t hf aug-cc-pvdz iop(5/13=1,5/36=2,99/5=2) pseudo=read geom=check gue
 ss=(read,tcheck) scf=(maxcycle=1)
 ----------------------------------------------------------------------
 -----
 title
 -----
 Structure from the checkpoint file:  "BDE49_nonexpt_1544_mol1.chk"
 Charge =  0 Multiplicity = 1

                         Standard orientation:
 ---------------------------------------------------------------------
 Center     Atomic      Atomic             Coordinates (Angstroms)
 Number     Number       Type             X           Y           Z
 ---------------------------------------------------------------------
      1          7           0        2.019628    0.413959    0.310330
      2         15           0        0.823838   -0.595214   -0.393259
      3          6           0       -0.737194    0.109971    0.364558
      4          6           0       -1.021372    1.499483   -0.217619
      5          1           0       -1.214983    1.440055   -1.293680
      6          1           0       -0.172351    2.169206   -0.064615
      7          6           0       -1.901747   -0.861650    0.130233
      8          1           0       -1.900639    1.946944    0.257221
      9          1           0       -0.571964    0.208864    1.444443
     10          1           0       -2.826046   -0.465949    0.562271
     11          1           0       -2.077462   -1.015714   -0.939392
     12          1           0       -1.715804   -1.839857    0.583109
     13          1           0        0.862846   -1.752491    0.442002
     14          1           0        2.215267    0.347271    1.300584
     15          1           0        2.868051    0.505344   -0.228409
 ---------------------------------------------------------------------

 SCF Done:  E(RHF) =  -514.876417081     A.U. after    2 cycles

 The electronic state is 1-A.
 Alpha  occ. eigenvalues --  -84.27968 -15.49080 -11.23712 -11.22770 -11.22088
 Alpha  occ. eigenvalues --   -6.74687  -4.27537  -4.27113  -4.26438  -1.16131
 Alpha  occ. eigenvalues --   -1.06445  -0.93164  -0.85336  -0.75623  -0.69794
 Alpha  occ. eigenvalues --   -0.63002  -0.60504  -0.59330  -0.54728  -0.53910
 Alpha  occ. eigenvalues --   -0.48949  -0.48885  -0.47611  -0.40873  -0.32592
 Alpha virt. eigenvalues --    0.03377   0.04108   0.04659   0.04870   0.06289
 Alpha virt. eigenvalues --    0.06640   0.07256   0.07374   0.08017   0.09048
 Alpha virt. eigenvalues --    0.10684   0.11500   0.12703   0.14551   0.15414

 Mulliken charges:
               1
     1  N   -0.042922
     2  P    0.177704
     3  C   -1.025563
     4  C   -0.329510
     5  H    0.214553
     6  H    0.168319
     7  C   -0.211954
     8  H    0.142765
     9  H    0.152026
    10  H    0.165397
    11  H    0.196125
    12  H    0.099975
    13  H    0.309365
    14  H   -0.015382
    15  H   -0.000898
 Sum of Mulliken charges =  -0.00000

 Dipole moment (field-independent basis, Debye):
    X=              0.3697    Y=             -0.1618    Z=              1.1962  Tot=              1.2624

 Test job not archived.
 1\1\GINC-SE423\SP\RHF\Aug-CC-pVDZ\C3H10N1P1\OHZDE\08-Apr-2025\0\\#t hf
  aug-cc-pvdz iop(5/13=1,5/36=2,99/5=2) pseudo=read geom=check guess=(r
 ead,tcheck) scf=(maxcycle=1)\\title\\0,1\N,0,2.019628,0.413958,0.31033
 \P,0,0.823838,-0.595214,-0.393259\C,0,-0.737194,0.109971,0.364558\C,0,
 -1.021371,1.499483,-0.217619\H,0,-1.214982,1.440055,-1.29368\H,0,-0.17
 235,2.169206,-0.064615\C,0,-1.901747,-0.86165,0.130233\H,0,-1.900638,1
 .946944,0.257221\H,0,-0.571964,0.208864,1.444443\H,0,-2.826046,-0.4659
 49,0.562271\H,0,-2.077462,-1.015714,-0.939392\H,0,-1.715804,-1.839857,

 Normal termination of Gaussian 16 at Tue Apr  8 23:37:28 2025.
