 Gaussian 16, Revision C.01,

 ----------------------------------------------------------------------
 #t hf aug-cc-pvdz symm=none int=(grid=ultrafine) guess=(read,tcheck) s
 table=opt
 ----------------------------------------------------------------------
 -----
 title
 -----
 Symbolic Z-matrix:
 Charge =  0 Multiplicity = 2

 SCF Done:  E(UHF) =  -641.423333552     a.u. after    7 cycles
 Normal termination of Gaussian 16 at Tue Apr  8 23:39:27 2025.
 Gaussian 16:  ES64L-G16RevC.01  3-Jul-2019

 ----------------------------------------------------------------------
 #t hf aug-cc-pvdz iop(5/13=1,5/36=2,99/5=2) pseudo=read geom=check gue
 ss=(read,tcheck) scf=(maxcycle=1)
 ----------------------------------------------------------------------
 -----
 title
 -----
 Structure from the checkpoint file:  "BDE49_nonexpt_1591_mol2.chk"
 Charge =  0 Multiplicity = 2

                         Standard orientation:
 ---------------------------------------------------------------------
 Center     Atomic      Atomic             Coordinates (Angstroms)
 Number     Number       Type             X           Y           Z
 ---------------------------------------------------------------------
      1         15           0       -0.081665   -0.030395    0.000649
      2          8           0       -1.006439   -0.048653    1.193150
      3          8           0       -1.014440   -0.146417   -1.180005
      4          8           0        0.864294    1.256530   -0.047942
      5          1           0        0.379537    2.091263   -0.044585
      6          8           0        1.021314   -1.161587    0.030931
      7          1           0        1.927601   -0.834327    0.065775
 ---------------------------------------------------------------------

 SCF Done:  E(UHF) =  -641.755541561     A.U. after    2 cycles

 The electronic state is 2-A.
 Alpha  occ. eigenvalues --  -84.48033 -20.67937 -20.62709 -20.62125 -20.53076
 Alpha  occ. eigenvalues --   -6.93119  -4.47140  -4.46790  -4.46534  -1.61229
 Alpha  occ. eigenvalues --   -1.53434  -1.50420  -1.39796  -0.88270  -0.79678
 Alpha  occ. eigenvalues --   -0.75763  -0.71965  -0.67959  -0.63440  -0.61593
 Alpha  occ. eigenvalues --   -0.60275  -0.57210  -0.55441  -0.48618  -0.47274
 Alpha virt. eigenvalues --    0.02621   0.04253   0.07853   0.09038   0.10355
 Alpha virt. eigenvalues --    0.12275   0.16870   0.17850   0.18559   0.19020
 Alpha virt. eigenvalues --    0.19898   0.22904   0.25119   0.26588   0.27108

  Beta  occ. eigenvalues --  -84.48135 -20.64243 -20.62704 -20.62103 -20.51928
  Beta  occ. eigenvalues --   -6.93268  -4.47366  -4.46976  -4.46640  -1.58115
  Beta  occ. eigenvalues --   -1.50397  -1.44371  -1.35117  -0.87351  -0.79541
  Beta  occ. eigenvalues --   -0.71537  -0.66761  -0.63076  -0.61042  -0.59648
  Beta  occ. eigenvalues --   -0.55668  -0.53464  -0.45865  -0.43709
  Beta virt. eigenvalues --   -0.00234   0.02714   0.04267   0.08281   0.09349
  Beta virt. eigenvalues --    0.10449   0.12397   0.16888   0.18124   0.18571
  Beta virt. eigenvalues --    0.19089   0.19953   0.23104   0.25259   0.26681

 Mulliken charges and spin densities:
               1          2
     1  P    3.929975  -0.215055
     2  O   -1.266894   0.239527
     3  O   -0.910295   0.965340
     4  O   -1.236885   0.002591
     5  H    0.373259  -0.000104
     6  O   -1.305093   0.010022
     7  H    0.415933  -0.002321
 Sum of Mulliken charges =  -0.00000   1.00000

 Dipole moment (field-independent basis, Debye):
    X=              3.4399    Y=              2.0404    Z=             -2.2712  Tot=              4.5994
                          Isotropic Fermi Contact Couplings
        Atom                 a.u.       MegaHertz       Gauss      10(-4) cm-1
     1  P(31)             -0.12070    -218.60209     -78.00266     -72.91781
     2  O(17)              0.06767     -41.02294     -14.63801     -13.68378
     3  O(17)              0.20287    -122.98153     -43.88287     -41.02222
     4  O(17)             -0.00248       1.50440       0.53681       0.50182
     5  H(1)              -0.00011      -0.48402      -0.17271      -0.16145
     6  O(17)             -0.00334       2.02749       0.72346       0.67630
     7  H(1)              -0.00051      -2.26701      -0.80893      -0.75619
 --------------------------------------------------------

 Normal termination of Gaussian 16 at Tue Apr  8 23:39:29 2025.
