 Gaussian 16, Revision C.01,

 ----------------------------------------------------------------------
 #t hf aug-cc-pvdz symm=none int=(grid=ultrafine) guess=(read,tcheck) s
 table=(opt,rrhf)
 ----------------------------------------------------------------------
 -----
 title
 -----
 Symbolic Z-matrix:
 Charge =  0 Multiplicity = 1

 SCF Done:  E(RHF) =  -535.739457697     A.U. after   12 cycles

 1\1\GINC-SE116\Stability\RHF\Aug-CC-pVDZ\C2H1Cl1\OHZDE\08-Apr-2025\0\\
 #t hf aug-cc-pvdz symm=none int=(grid=ultrafine) guess=(read,tcheck) s
 table=(opt,rrhf)\\title\\0,1\C,0,0.,0.617259,0.\Cl,0,-0.021855,-1.0281
 32,0.\C,0,0.043928,1.816389,0.\H,0,0.107957,2.876366,0.\\Version=ES64L
 -G16RevC.01\HF=-535.7394577\RMSD=5.899e-09\Dipole=0.0268354,0.2463097,
 0.\Quadrupole=-1.926237,3.8633304,-1.9370935,0.2490388,0.,0.\PG=Unknow
 n\\@
 The archive entry for this job was punched.

 Normal termination of Gaussian 16 at Tue Apr  8 22:47:28 2025.
 Gaussian 16:  ES64L-G16RevC.01  3-Jul-2019

 ----------------------------------------------------------------------
 #t hf aug-cc-pvdz iop(5/13=1,5/36=2,99/5=2) pseudo=read geom=check gue
 ss=(read,tcheck) scf=(maxcycle=1)
 ----------------------------------------------------------------------
 -----
 title
 -----
 Structure from the checkpoint file:  "BDE49_expt_1621_mol1.chk"
 Charge =  0 Multiplicity = 1

                         Standard orientation:
 ---------------------------------------------------------------------
 Center     Atomic      Atomic             Coordinates (Angstroms)
 Number     Number       Type             X           Y           Z
 ---------------------------------------------------------------------
      1          6           0       -0.000000    0.617259   -0.000000
      2         17           0       -0.021854   -1.028132    0.000000
      3          6           0        0.043927    1.816389   -0.000000
      4          1           0        0.107956    2.876366   -0.000000
 ---------------------------------------------------------------------

 SCF Done:  E(RHF) =  -535.892907223     A.U. after    2 cycles

 The electronic state is 1-A'.
 Alpha  occ. eigenvalues -- -105.62508 -11.30879 -11.26303 -10.67182  -7.84196
 Alpha  occ. eigenvalues --   -7.83703  -7.83703  -1.16071  -1.02515  -0.75430
 Alpha  occ. eigenvalues --   -0.68402  -0.56190  -0.56190  -0.40689  -0.40688
 Alpha virt. eigenvalues --    0.03608   0.06727   0.09933   0.10346   0.10350
 Alpha virt. eigenvalues --    0.14102   0.14106   0.16318   0.16489   0.16723
 Alpha virt. eigenvalues --    0.16733   0.22481   0.22586   0.23110   0.25781

 Mulliken charges:
               1
     1  C   -0.456578
     2  Cl  -0.039198
     3  C    0.608241
     4  H   -0.112466
 Sum of Mulliken charges =   0.00000

 Dipole moment (field-independent basis, Debye):
    X=              0.0686    Y=              0.6477    Z=             -0.0000  Tot=              0.6513

 Test job not archived.
 1\1\GINC-SE116\SP\RHF\Aug-CC-pVDZ\C2H1Cl1\OHZDE\08-Apr-2025\0\\#t hf a
 ug-cc-pvdz iop(5/13=1,5/36=2,99/5=2) pseudo=read geom=check guess=(rea
 d,tcheck) scf=(maxcycle=1)\\title\\0,1\C,0,0.,0.617259,0.\Cl,0,-0.0218
 55,-1.028132,0.\C,0,0.043928,1.816389,0.\H,0,0.107957,2.876366,0.\\Ver
 sion=ES64L-G16RevC.01\State=1-A'\HF=-535.8929072\RMSD=1.777e-02\Dipole
 =0.0270056,0.254821,0.\Quadrupole=-1.9921145,3.9953055,-2.0031911,0.25
 42893,0.,0.\PG=CS [SG(C2H1Cl1)]\\@

 Normal termination of Gaussian 16 at Tue Apr  8 22:47:30 2025.
