 Gaussian 16, Revision C.01,

 ----------------------------------------------------------------------
 #t hf aug-cc-pvdz symm=none int=(grid=ultrafine) guess=(read,tcheck) s
 table=(opt,rrhf)
 ----------------------------------------------------------------------
 -----
 title
 -----
 Symbolic Z-matrix:
 Charge =  0 Multiplicity = 1

 SCF Done:  E(RHF) =  -516.079294464     A.U. after   14 cycles
 Normal termination of Gaussian 16 at Tue Apr  8 23:51:39 2025.
 Gaussian 16:  ES64L-G16RevC.01  3-Jul-2019

 ----------------------------------------------------------------------
 #t hf aug-cc-pvdz iop(5/13=1,5/36=2,99/5=2) pseudo=read geom=check gue
 ss=(read,tcheck) scf=(maxcycle=1)
 ----------------------------------------------------------------------
 -----
 title
 -----
 Structure from the checkpoint file:  "BDE49_nonexpt_1904_mol1.chk"
 Charge =  0 Multiplicity = 1

                         Standard orientation:
 ---------------------------------------------------------------------
 Center     Atomic      Atomic             Coordinates (Angstroms)
 Number     Number       Type             X           Y           Z
 ---------------------------------------------------------------------
      1         14           0       -0.979095   -0.995310    0.102549
      2          6           0        0.846693   -1.026946   -0.429587
      3          6           0        1.746906   -0.132567    0.376589
      4          7           0        2.363935    0.912384   -0.001408
      5          1           0        1.867971   -0.415911    1.427975
      6          1           0        2.197643    1.090018   -0.997757
      7          6           0       -1.751521    0.736194   -0.057869
      8          1           0       -1.090256   -1.448471    1.510665
      9          1           0       -1.736250   -1.937147   -0.755752
     10          7           0       -1.172127    1.871770   -0.010453
     11          1           0       -2.840945    0.769838   -0.201745
     12          1           0       -0.162119    1.780221    0.132399
     13          1           0        0.911269   -0.783122   -1.495454
     14          1           0        1.164904   -2.070238   -0.307797
 ---------------------------------------------------------------------

 SCF Done:  E(RHF) =  -516.346425568     A.U. after    2 cycles

 The electronic state is 1-A.
 Alpha  occ. eigenvalues --  -69.55333 -15.51361 -15.50403 -11.30822 -11.28394
 Alpha  occ. eigenvalues --  -11.25653  -6.22423  -3.97782  -3.97765  -3.97758
 Alpha  occ. eigenvalues --   -1.22636  -1.21361  -1.01483  -0.86108  -0.83183
 Alpha  occ. eigenvalues --   -0.75687  -0.68112  -0.66354  -0.63970  -0.60269
 Alpha  occ. eigenvalues --   -0.57643  -0.53783  -0.51658  -0.47410  -0.46540
 Alpha  occ. eigenvalues --   -0.45170  -0.42170
 Alpha virt. eigenvalues --    0.02851   0.03694   0.03722   0.04316   0.05775
 Alpha virt. eigenvalues --    0.06279   0.07004   0.07346   0.08100   0.08661
 Alpha virt. eigenvalues --    0.09397   0.09572   0.11238   0.12431   0.12742

 Mulliken charges:
               1
     1  Si   1.428090
     2  C   -0.600682
     3  C   -1.046518
     4  N    0.716848
     5  H   -0.036031
     6  H    0.116370
     7  C   -1.145214
     8  H   -0.198982
     9  H   -0.170317
    10  N    0.733397
    11  H   -0.120406
    12  H    0.090317
    13  H    0.085514
    14  H    0.147614
 Sum of Mulliken charges =  -0.00000

 Dipole moment (field-independent basis, Debye):
    X=             -1.0244    Y=             -4.5656    Z=             -0.8730  Tot=              4.7599

 Test job not archived.
 1\1\GINC-SE458\SP\RHF\Aug-CC-pVDZ\C3H8N2Si1\OHZDE\08-Apr-2025\0\\#t hf
  aug-cc-pvdz iop(5/13=1,5/36=2,99/5=2) pseudo=read geom=check guess=(r
 ead,tcheck) scf=(maxcycle=1)\\title\\0,1\Si,0,-0.979095,-0.99531,0.102
 549\C,0,0.846693,-1.026946,-0.429587\C,0,1.746906,-0.132567,0.376589\N
 ,0,2.363935,0.912384,-0.001408\H,0,1.867971,-0.415911,1.427975\H,0,2.1
 97643,1.090018,-0.997757\C,0,-1.751521,0.736194,-0.057869\H,0,-1.09025
 6,-1.448471,1.510665\H,0,-1.73625,-1.937147,-0.755752\N,0,-1.172127,1.
 87177,-0.010453\H,0,-2.840945,0.769839,-0.201745\H,0,-0.162119,1.78022

 Normal termination of Gaussian 16 at Tue Apr  8 23:51:43 2025.
