 Gaussian 16, Revision C.01,

 ----------------------------------------------------------------------
 #t hf aug-cc-pvdz symm=none int=(grid=ultrafine) guess=(read,tcheck) s
 table=(opt,rrhf)
 ----------------------------------------------------------------------
 -----
 title
 -----
 Symbolic Z-matrix:
 Charge =  0 Multiplicity = 1

 SCF Done:  E(RHF) =  -1000.64032322     A.U. after   19 cycles
 Normal termination of Gaussian 16 at Tue Apr  8 22:55:04 2025.
 Gaussian 16:  ES64L-G16RevC.01  3-Jul-2019

 ----------------------------------------------------------------------
 #t hf aug-cc-pvdz iop(5/13=1,5/36=2,99/5=2) pseudo=read geom=check gue
 ss=(read,tcheck) scf=(maxcycle=1)
 ----------------------------------------------------------------------
 -----
 title
 -----
 Structure from the checkpoint file:  "BDE49_expt_1752_mol1.chk"
 Charge =  0 Multiplicity = 1

                         Standard orientation:
 ---------------------------------------------------------------------
 Center     Atomic      Atomic             Coordinates (Angstroms)
 Number     Number       Type             X           Y           Z
 ---------------------------------------------------------------------
      1          6           0        3.463938    0.670040   -0.441672
      2          6           0        2.943059   -0.435418   -1.111591
      3          6           0        1.670700   -0.906626   -0.797938
      4          6           0        2.720400    1.308808    0.551121
      5          6           0        1.449562    0.848267    0.878892
      6          6           0        0.938400   -0.252974    0.191569
      7          1           0        4.455103    1.032279   -0.689097
      8          1           0        3.527795   -0.936344   -1.873963
      9          1           0        1.255198   -1.774693   -1.292611
     10          1           0        3.132364    2.162849    1.075343
     11          1           0        0.860616    1.324620    1.651547
     12         16           0       -0.685401   -0.853353    0.608562
     13          8           0       -0.864007   -2.156440    0.023146
     14          8           0       -0.942762   -0.572336    1.990099
     15          7           0       -1.743097    0.168446   -0.304927
     16          7           0       -1.881563    1.431216    0.185427
     17          8           0       -2.554234    2.153844   -0.513116
     18          6           0       -2.299145   -0.208944   -1.606470
     19          1           0       -2.115276   -1.267984   -1.758114
     20          1           0       -1.838925    0.385909   -2.399059
     21          1           0       -3.371304   -0.010092   -1.599041
 ---------------------------------------------------------------------

 SCF Done:  E(RHF) =  -1001.30090092     A.U. after    2 cycles

 The electronic state is 1-A.
 Alpha  occ. eigenvalues --  -94.24106 -20.60567 -20.56441 -20.56072 -15.69413
 Alpha  occ. eigenvalues --  -15.59479 -11.30068 -11.29435 -11.28689 -11.28530
 Alpha  occ. eigenvalues --  -11.28164 -11.27542 -11.27483  -8.48967  -6.47106
 Alpha  occ. eigenvalues --   -6.46894  -6.46760  -1.61290  -1.59089  -1.47177
 Alpha  occ. eigenvalues --   -1.31171  -1.19872  -1.08387  -1.05685  -1.05485
 Alpha  occ. eigenvalues --   -0.99035  -0.89221  -0.87554  -0.82949  -0.79770
 Alpha  occ. eigenvalues --   -0.75492  -0.74906  -0.72203  -0.69109  -0.68912
 Alpha  occ. eigenvalues --   -0.66168  -0.66020  -0.65730  -0.63852  -0.60154
 Alpha  occ. eigenvalues --   -0.59926  -0.56935  -0.55409  -0.54398  -0.53777
 Alpha  occ. eigenvalues --   -0.51959  -0.49196  -0.48834  -0.46590  -0.45335
 Alpha  occ. eigenvalues --   -0.38807  -0.37982
 Alpha virt. eigenvalues --    0.02488   0.03050   0.03655   0.04667   0.05150
 Alpha virt. eigenvalues --    0.05568   0.05931   0.06890   0.07007   0.07324
 Alpha virt. eigenvalues --    0.08366   0.08645   0.09921   0.11350   0.11832

 Mulliken charges:
               1
     1  C   -0.045775
     2  C    0.593609
     3  C   -0.578786
     4  C    0.570128
     5  C   -0.638790
     6  C    0.865710
     7  H   -0.203671
     8  H   -0.215039
     9  H   -0.297256
    10  H   -0.221320
    11  H   -0.269300
    12  S    4.087900
    13  O   -1.664803
    14  O   -1.646955
    15  N   -0.433314
    16  N    0.929068
    17  O   -1.061339
    18  C   -0.246979
    19  H    0.083077
    20  H    0.229017
    21  H    0.164817
 Sum of Mulliken charges =   0.00000

 Dipole moment (field-independent basis, Debye):
    X=              3.8386    Y=              0.6568    Z=             -3.5254  Tot=              5.2531

 Test job not archived.
 1\1\GINC-SE118\SP\RHF\Aug-CC-pVDZ\C7H8N2O3S1\OHZDE\08-Apr-2025\0\\#t h
 f aug-cc-pvdz iop(5/13=1,5/36=2,99/5=2) pseudo=read geom=check guess=(
 read,tcheck) scf=(maxcycle=1)\\title\\0,1\C,0,3.463938,0.67004,-0.4416
 72\C,0,2.943059,-0.435418,-1.111591\C,0,1.6707,-0.906626,-0.797938\C,0
 ,2.7204,1.308808,0.551121\C,0,1.449562,0.848267,0.878892\C,0,0.9384,-0
 .252974,0.191569\H,0,4.455103,1.032279,-0.689097\H,0,3.527795,-0.93634
 4,-1.873963\H,0,1.255198,-1.774693,-1.292611\H,0,3.132364,2.162849,1.0
 75343\H,0,0.860616,1.32462,1.651547\S,0,-0.685401,-0.853353,0.608562\O

 Normal termination of Gaussian 16 at Tue Apr  8 22:55:22 2025.
