 Gaussian 16, Revision C.01,

 ----------------------------------------------------------------------
 #t hf aug-cc-pvdz symm=none int=(grid=ultrafine) guess=(read,tcheck) s
 table=(opt,rrhf)
 ----------------------------------------------------------------------
 -----
 title
 -----
 Symbolic Z-matrix:
 Charge =  0 Multiplicity = 1

 SCF Done:  E(RHF) =  -686.995916602     A.U. after   10 cycles
 Normal termination of Gaussian 16 at Tue Apr  8 22:57:36 2025.
 Gaussian 16:  ES64L-G16RevC.01  3-Jul-2019

 ----------------------------------------------------------------------
 #t hf aug-cc-pvdz iop(5/13=1,5/36=2,99/5=2) pseudo=read geom=check gue
 ss=(read,tcheck) scf=(maxcycle=1)
 ----------------------------------------------------------------------
 -----
 title
 -----
 Structure from the checkpoint file:  "BDE49_expt_1930_mol1.chk"
 Charge =  0 Multiplicity = 1

                         Standard orientation:
 ---------------------------------------------------------------------
 Center     Atomic      Atomic             Coordinates (Angstroms)
 Number     Number       Type             X           Y           Z
 ---------------------------------------------------------------------
      1         14           0        0.000004    0.000006   -0.000001
      2          9           0        0.038922    1.539407    0.300100
      3          9           0       -0.346087   -0.780778    1.316022
      4          9           0        1.401251   -0.464927   -0.530752
      5          9           0       -1.094093   -0.293710   -1.085368
 ---------------------------------------------------------------------

 SCF Done:  E(RHF) =  -687.384938426     A.U. after    2 cycles

 The electronic state is 1-A.
 Alpha  occ. eigenvalues --  -69.73867 -26.51080 -26.51080 -26.51080 -26.51078
 Alpha  occ. eigenvalues --   -6.39422  -4.14692  -4.14692  -4.14692  -1.66210
 Alpha  occ. eigenvalues --   -1.61947  -1.61947  -1.61947  -0.85589  -0.77039
 Alpha  occ. eigenvalues --   -0.77039  -0.77039  -0.70758  -0.70757  -0.68677
 Alpha  occ. eigenvalues --   -0.68676  -0.68676  -0.65303  -0.65303  -0.65303
 Alpha virt. eigenvalues --    0.05906   0.05906   0.05906   0.05993   0.19442
 Alpha virt. eigenvalues --    0.19442   0.19442   0.23701   0.23701   0.24609
 Alpha virt. eigenvalues --    0.25213   0.25214   0.25214   0.28050   0.30974

 Mulliken charges:
               1
     1  Si   3.404518
     2  F   -0.851127
     3  F   -0.851139
     4  F   -0.851122
     5  F   -0.851131
 Sum of Mulliken charges =  -0.00000

 Dipole moment (field-independent basis, Debye):
    X=              0.0000    Y=              0.0001    Z=             -0.0000  Tot=              0.0001

 Test job not archived.
 1\1\GINC-SE080\SP\RHF\Aug-CC-pVDZ\F4Si1\OHZDE\08-Apr-2025\0\\#t hf aug
 -cc-pvdz iop(5/13=1,5/36=2,99/5=2) pseudo=read geom=check guess=(read,
 tcheck) scf=(maxcycle=1)\\title\\0,1\Si,0,-0.000004,0.000006,0.000001\
 F,0,-0.027036,1.538191,-0.307548\F,0,0.325171,-0.790692,-1.315437\F,0,
 -1.400249,-0.448591,0.5472\F,0,1.102121,-0.298917,1.075782\\Version=ES
 64L-G16RevC.01\State=1-A\HF=-687.3849384\RMSD=2.717e-03\Dipole=-0.0000
 176,0.000031,0.000001\Quadrupole=-0.000068,-0.0000097,0.0000777,0.0000
 014,-0.0000034,-0.0000044\PG=C01 [X(F4Si1)]\\@

 Normal termination of Gaussian 16 at Tue Apr  8 22:57:38 2025.
