 Gaussian 16, Revision C.01,

 ----------------------------------------------------------------------
 #t hf aug-cc-pvdz symm=none int=(grid=ultrafine) guess=(read,tcheck) s
 table=(opt,rrhf)
 ----------------------------------------------------------------------
 -----
 title
 -----
 Symbolic Z-matrix:
 Charge =  0 Multiplicity = 1

 SCF Done:  E(RHF) =  -643.690235946     A.U. after   12 cycles
 Normal termination of Gaussian 16 at Wed Apr  9 00:31:24 2025.
 Gaussian 16:  ES64L-G16RevC.01  3-Jul-2019

 ----------------------------------------------------------------------
 #t hf aug-cc-pvdz iop(5/13=1,5/36=2,99/5=2) pseudo=read geom=check gue
 ss=(read,tcheck) scf=(maxcycle=1)
 ----------------------------------------------------------------------
 -----
 title
 -----
 Structure from the checkpoint file:  "BDE49_nonexpt_362_mol1.chk"
 Charge =  0 Multiplicity = 1

                         Standard orientation:
 ---------------------------------------------------------------------
 Center     Atomic      Atomic             Coordinates (Angstroms)
 Number     Number       Type             X           Y           Z
 ---------------------------------------------------------------------
      1          9           0       -1.773900    1.131653    0.110949
      2          9           0       -1.773902   -1.131652    0.110947
      3          5           0       -1.089527   -0.000000   -0.035482
      4         15           0        0.740075   -0.000001   -0.597366
      5          6           0        1.413035   -1.461111    0.339691
      6          6           0        1.413035    1.461111    0.339690
      7          1           0        0.871744   -2.355683    0.026057
      8          1           0        1.322977   -1.356725    1.423057
      9          1           0        2.465433   -1.597037    0.083158
     10          1           0        0.871744    2.355682    0.026055
     11          1           0        2.465434    1.597036    0.083156
     12          1           0        1.322978    1.356726    1.423055
 ---------------------------------------------------------------------

 SCF Done:  E(RHF) =  -644.028180971     A.U. after    2 cycles

 The electronic state is 1-A.
 Alpha  occ. eigenvalues --  -84.26625 -26.47938 -26.47938 -11.24897 -11.24890
 Alpha  occ. eigenvalues --   -7.72329  -6.73951  -4.26488  -4.26386  -4.25650
 Alpha  occ. eigenvalues --   -1.63010  -1.58936  -1.02121  -0.95261  -0.82184
 Alpha  occ. eigenvalues --   -0.77364  -0.74050  -0.69223  -0.68195  -0.63289
 Alpha  occ. eigenvalues --   -0.62619  -0.60067  -0.59376  -0.57300  -0.57115
 Alpha  occ. eigenvalues --   -0.46735  -0.45543  -0.32563
 Alpha virt. eigenvalues --    0.03210   0.04223   0.04422   0.05081   0.06475
 Alpha virt. eigenvalues --    0.06640   0.07276   0.07497   0.07929   0.09818
 Alpha virt. eigenvalues --    0.11196   0.12009   0.13221   0.15120   0.15945

 Mulliken charges:
               1
     1  F   -0.711553
     2  F   -0.711553
     3  B    2.006934
     4  P    0.461035
     5  C   -0.802816
     6  C   -0.802814
     7  H    0.080694
     8  H    0.090733
     9  H    0.108957
    10  H    0.080693
    11  H    0.108960
    12  H    0.090730
 Sum of Mulliken charges =  -0.00000

 Dipole moment (field-independent basis, Debye):
    X=              1.9460    Y=             -0.0000    Z=              0.8065  Tot=              2.1065

 Test job not archived.
 1\1\GINC-SE106\SP\RHF\Aug-CC-pVDZ\C2H6B1F2P1\OHZDE\09-Apr-2025\0\\#t h
 f aug-cc-pvdz iop(5/13=1,5/36=2,99/5=2) pseudo=read geom=check guess=(
 read,tcheck) scf=(maxcycle=1)\\title\\0,1\F,0,1.7739,-1.131653,0.11094
 9\F,0,1.773902,1.131652,0.110947\B,0,1.089527,0.,-0.035482\P,0,-0.7400
 75,0.000001,-0.597366\C,0,-1.413035,1.461111,0.339691\C,0,-1.413035,-1
 .461111,0.33969\H,0,-0.871744,2.355683,0.026057\H,0,-1.322977,1.356725
 ,1.423057\H,0,-2.465433,1.597037,0.083158\H,0,-0.871744,-2.355682,0.02
 6055\H,0,-2.465434,-1.597036,0.083156\H,0,-1.322978,-1.356726,1.423055

 Normal termination of Gaussian 16 at Wed Apr  9 00:31:28 2025.
