 Gaussian 16, Revision C.01,

 ----------------------------------------------------------------------
 #t hf aug-cc-pvdz symm=none int=(grid=ultrafine) guess=(read,tcheck) s
 table=(opt,rrhf)
 ----------------------------------------------------------------------
 -----
 title
 -----
 Symbolic Z-matrix:
 Charge =  0 Multiplicity = 1

 SCF Done:  E(RHF) =  -939.185895069     A.U. after   15 cycles
 Normal termination of Gaussian 16 at Wed Apr  9 00:07:21 2025.
 Gaussian 16:  ES64L-G16RevC.01  3-Jul-2019

 ----------------------------------------------------------------------
 #t hf aug-cc-pvdz iop(5/13=1,5/36=2,99/5=2) pseudo=read geom=check gue
 ss=(read,tcheck) scf=(maxcycle=1)
 ----------------------------------------------------------------------
 -----
 title
 -----
 Structure from the checkpoint file:  "BDE49_nonexpt_1971_mol1.chk"
 Charge =  0 Multiplicity = 1

                         Standard orientation:
 ---------------------------------------------------------------------
 Center     Atomic      Atomic             Coordinates (Angstroms)
 Number     Number       Type             X           Y           Z
 ---------------------------------------------------------------------
      1         14           0        0.503904    2.299681   -0.470921
      2          6           0       -0.960034    2.171091    0.736702
      3          6           0       -1.851002    0.974664    0.500025
      4          6           0       -2.914275    1.030870   -0.407048
      5          6           0       -1.627971   -0.242483    1.158606
      6          6           0       -2.429390   -1.354492    0.929313
      7          6           0       -3.485568   -1.275931    0.021114
      8          6           0       -3.725614   -0.075402   -0.647611
      9          1           0       -0.811347   -0.321533    1.868325
     10          1           0       -2.253532   -2.289279    1.447969
     11          6           0        1.718201    0.884209   -0.317697
     12          1           0        1.228587    3.566193   -0.189346
     13          1           0       -0.040824    2.348907   -1.850759
     14          6           0        1.485253   -0.359627   -0.925658
     15          6           0        2.900174    1.021121    0.432216
     16          6           0        3.803925   -0.023531    0.576882
     17          6           0        3.544188   -1.250586   -0.036866
     18          6           0        2.380351   -1.416126   -0.791126
     19          1           0        3.127332    1.968875    0.910537
     20          1           0        4.714248    0.090775    1.153094
     21          8           0       -4.246414   -2.398121   -0.168349
     22          8           0        4.461386   -2.246071    0.131277
     23          1           0       -3.119761    1.956943   -0.934392
     24          1           0        0.589383   -0.515173   -1.517503
     25          1           0       -4.548838   -0.000855   -1.352919
     26          1           0        2.176487   -2.368660   -1.272619
     27          1           0        4.166892   -3.032040   -0.340709
     28          1           0       -4.941024   -2.203127   -0.805452
     29          1           0       -1.534506    3.099757    0.645579
     30          1           0       -0.556963    2.154562    1.754567
 ---------------------------------------------------------------------

 SCF Done:  E(RHF) =  -939.880360708     A.U. after    2 cycles

 The electronic state is 1-A.
 Alpha  occ. eigenvalues --  -69.52229 -20.58616 -20.57889 -11.31626 -11.30512
 Alpha  occ. eigenvalues --  -11.25489 -11.25416 -11.24552 -11.24477 -11.24322
 Alpha  occ. eigenvalues --  -11.24260 -11.24220 -11.23754 -11.23595 -11.22572
 Alpha  occ. eigenvalues --  -11.22347  -6.19257  -3.94629  -3.94615  -3.94584
 Alpha  occ. eigenvalues --   -1.49993  -1.49108  -1.15526  -1.15161  -1.04193
 Alpha  occ. eigenvalues --   -1.02415  -1.02004  -1.00915  -0.93209  -0.85759
 Alpha  occ. eigenvalues --   -0.85407  -0.83502  -0.81241  -0.74745  -0.73937
 Alpha  occ. eigenvalues --   -0.72492  -0.68462  -0.67625  -0.65365  -0.63983
 Alpha  occ. eigenvalues --   -0.61846  -0.61050  -0.60401  -0.59993  -0.59315
 Alpha  occ. eigenvalues --   -0.58757  -0.58197  -0.57094  -0.54805  -0.53540
 Alpha  occ. eigenvalues --   -0.50963  -0.50346  -0.49723  -0.48758  -0.47139
 Alpha  occ. eigenvalues --   -0.46066  -0.44818  -0.35585  -0.34953  -0.32519
 Alpha  occ. eigenvalues --   -0.30652
 Alpha virt. eigenvalues --    0.02805   0.02925   0.03296   0.03862   0.04298
 Alpha virt. eigenvalues --    0.04752   0.04996   0.05535   0.06388   0.06677
 Alpha virt. eigenvalues --    0.07310   0.08031   0.08282   0.09201   0.09469

 Mulliken charges:
               1
     1  Si   1.104429
     2  C   -1.163614
     3  C    1.380909
     4  C    0.163394
     5  C    0.852827
     6  C   -0.008441
     7  C    1.438592
     8  C   -0.212023
     9  H   -0.400203
    10  H   -0.296837
    11  C   -1.288958
    12  H   -0.198650
    13  H   -0.176782
    14  C    0.886873
    15  C    0.790580
    16  C    0.651060
    17  C    1.653087
    18  C   -0.250282
    19  H   -0.372916
    20  H   -0.250950
    21  O   -1.764826
    22  O   -1.746647
    23  H   -0.350709
    24  H   -0.360990
    25  H   -0.336586
    26  H   -0.359232
    27  H    0.411802
    28  H    0.404147
    29  H   -0.160630
    30  H   -0.038424
 Sum of Mulliken charges =   0.00000

 Dipole moment (field-independent basis, Debye):
    X=             -1.0934    Y=             -0.3417    Z=             -1.1262  Tot=              1.6064

 Test job not archived.
 1\1\GINC-SE284\SP\RHF\Aug-CC-pVDZ\C13H14O2Si1\OHZDE\09-Apr-2025\0\\#t
 hf aug-cc-pvdz iop(5/13=1,5/36=2,99/5=2) pseudo=read geom=check guess=
 (read,tcheck) scf=(maxcycle=1)\\title\\0,1\Si,0,0.503904,2.299681,-0.4
 70921\C,0,-0.960034,2.171091,0.736702\C,0,-1.851002,0.974664,0.500025\
 C,0,-2.914275,1.03087,-0.407048\C,0,-1.627971,-0.242483,1.158606\C,0,-
 2.42939,-1.354492,0.929313\C,0,-3.485568,-1.275931,0.021114\C,0,-3.725
 614,-0.075402,-0.647611\H,0,-0.811347,-0.321533,1.868325\H,0,-2.253532
 ,-2.289279,1.447969\C,0,1.718201,0.884209,-0.317697\H,0,1.228587,3.566

 Normal termination of Gaussian 16 at Wed Apr  9 00:08:00 2025.
