 Gaussian 16, Revision C.01,

 ----------------------------------------------------------------------
 #t hf aug-cc-pvdz symm=none int=(grid=ultrafine) guess=(read,tcheck) s
 table=opt
 ----------------------------------------------------------------------
 -----
 title
 -----
 Symbolic Z-matrix:
 Charge =  0 Multiplicity = 2

 SCF Done:  E(UHF) =  -688.199142957     A.U. after   15 cycles

 1\1\GINC-SE329\Stability\UHF\Aug-CC-pVDZ\H3S1Si1\OHZDE\08-Apr-2025\0\\
 #t hf aug-cc-pvdz symm=none int=(grid=ultrafine) guess=(read,tcheck) s
 table=opt\\title\\0,2\S,0,-1.068456,-0.084145,0.032919\Si,0,1.085911,0
 .023102,-0.103063\H,0,-1.276084,1.218151,-0.232835\H,0,1.553535,-1.301
 349,0.377841\H,0,1.615091,1.1061,0.771164\\Version=ES64L-G16RevC.01\HF
 =-688.199143\S2=0.756238\S2-1=0.\S2A=0.750019\RMSD=8.151e-09\Dipole=0.
 3221832,0.3449408,-0.0879177\Quadrupole=0.1078914,1.2432329,-1.3511243
 ,-1.2684302,0.1631473,-0.4501371\PG=Unknown\\@

 Normal termination of Gaussian 16 at Tue Apr  8 23:56:18 2025.
 Gaussian 16:  ES64L-G16RevC.01  3-Jul-2019

 ----------------------------------------------------------------------
 #t hf aug-cc-pvdz iop(5/13=1,5/36=2,99/5=2) pseudo=read geom=check gue
 ss=(read,tcheck) scf=(maxcycle=1)
 ----------------------------------------------------------------------
 -----
 title
 -----
 Structure from the checkpoint file:  "BDE49_nonexpt_2007_mol2.chk"
 Charge =  0 Multiplicity = 2

                         Standard orientation:
 ---------------------------------------------------------------------
 Center     Atomic      Atomic             Coordinates (Angstroms)
 Number     Number       Type             X           Y           Z
 ---------------------------------------------------------------------
      1         16           0       -1.068456   -0.084145    0.032919
      2         14           0        1.085911    0.023102   -0.103063
      3          1           0       -1.276084    1.218151   -0.232835
      4          1           0        1.553535   -1.301349    0.377841
      5          1           0        1.615091    1.106100    0.771164
 ---------------------------------------------------------------------

 SCF Done:  E(UHF) =  -688.291389964     A.U. after    2 cycles

 The electronic state is 2-A.
 Alpha  occ. eigenvalues --  -93.95569 -69.57098  -8.23839  -6.24015  -6.21678
 Alpha  occ. eigenvalues --   -6.21570  -6.21357  -3.99838  -3.99076  -3.98974
 Alpha  occ. eigenvalues --   -1.01651  -0.73850  -0.56954  -0.50329  -0.47858
 Alpha  occ. eigenvalues --   -0.42187  -0.33323
 Alpha virt. eigenvalues --    0.03623   0.04268   0.05724   0.06527   0.07776
 Alpha virt. eigenvalues --    0.08759   0.11690   0.12795   0.14150   0.14453
 Alpha virt. eigenvalues --    0.15397   0.17623   0.17824   0.19916   0.22635

  Beta  occ. eigenvalues --  -93.95466 -69.56542  -8.23719  -6.23149  -6.21552
  Beta  occ. eigenvalues --   -6.21427  -6.21062  -3.98715  -3.98617  -3.97778
  Beta  occ. eigenvalues --   -1.00746  -0.69613  -0.56266  -0.49264  -0.45856
  Beta  occ. eigenvalues --   -0.39404
  Beta virt. eigenvalues --    0.01662   0.03969   0.04512   0.05836   0.07665
  Beta virt. eigenvalues --    0.08220   0.09093   0.12131   0.13622   0.14538
  Beta virt. eigenvalues --    0.15025   0.16580   0.18702   0.19769   0.21054

 Mulliken charges and spin densities:
               1          2
     1  S   -0.823984   0.077306
     2  Si   0.903690   0.848915
     3  H    0.308308  -0.008407
     4  H   -0.213674   0.025436
     5  H   -0.174339   0.056749
 Sum of Mulliken charges =   0.00000   1.00000

 Dipole moment (field-independent basis, Debye):
    X=              0.8062    Y=              0.9091    Z=             -0.1815  Tot=              1.2286
                          Isotropic Fermi Contact Couplings
        Atom                 a.u.       MegaHertz       Gauss      10(-4) cm-1
     1  S(33)              0.03618      12.42530       4.43365       4.14463
     2  Si(29)             0.67844    -602.94727    -215.14658    -201.12156
     3  H(1)              -0.00015      -0.65416      -0.23342      -0.21821
     4  H(1)               0.00666      29.76925      10.62241       9.92995
     5  H(1)               0.01600      71.52741      25.52276      23.85897
 --------------------------------------------------------
       Center         ----  Spin Dipole Couplings  ----
                      3XX-RR        3YY-RR        3ZZ-RR

 Normal termination of Gaussian 16 at Tue Apr  8 23:56:19 2025.
