 Gaussian 16, Revision C.01,

 ----------------------------------------------------------------------
 #t hf aug-cc-pvdz symm=none int=(grid=ultrafine) guess=(read,tcheck) s
 table=(opt,rrhf)
 ----------------------------------------------------------------------
 -----
 title
 -----
 Symbolic Z-matrix:
 Charge =  0 Multiplicity = 1

 SCF Done:  E(RHF) =  -169.788220915     A.U. after   14 cycles
 Normal termination of Gaussian 16 at Tue Apr  8 22:36:21 2025.
 Gaussian 16:  ES64L-G16RevC.01  3-Jul-2019

 ----------------------------------------------------------------------
 #t hf aug-cc-pvdz iop(5/13=1,5/36=2,99/5=2) pseudo=read geom=check gue
 ss=(read,tcheck) scf=(maxcycle=1)
 ----------------------------------------------------------------------
 -----
 title
 -----
 Structure from the checkpoint file:  "BDE49_expt_1150_mol1.chk"
 Charge =  0 Multiplicity = 1

                         Standard orientation:
 ---------------------------------------------------------------------
 Center     Atomic      Atomic             Coordinates (Angstroms)
 Number     Number       Type             X           Y           Z
 ---------------------------------------------------------------------
      1          6           0        0.782657    0.089647   -0.000000
      2          6           0       -0.583663    0.502537    0.000001
      3          7           0        1.894612   -0.223809   -0.000001
      4          6           0       -1.604994   -0.355958   -0.000000
      5          1           0       -0.750962    1.574635    0.000002
      6          1           0       -1.448500   -1.427736   -0.000001
      7          1           0       -2.626819    0.002411    0.000001
 ---------------------------------------------------------------------

 SCF Done:  E(RHF) =  -169.958317489     A.U. after    2 cycles

 The electronic state is 1-A.
 Alpha  occ. eigenvalues --  -15.52062 -11.30189 -11.29419 -11.28895  -1.23877
 Alpha  occ. eigenvalues --   -1.10599  -0.89576  -0.74025  -0.67715  -0.61726
 Alpha  occ. eigenvalues --   -0.57957  -0.54697  -0.50613  -0.41700
 Alpha virt. eigenvalues --    0.02753   0.04017   0.04714   0.05355   0.09187
 Alpha virt. eigenvalues --    0.10762   0.10901   0.13182   0.13438   0.14271
 Alpha virt. eigenvalues --    0.14784   0.14968   0.16367   0.16841   0.17671

 Mulliken charges:
               1
     1  C   -1.793333
     2  C    1.103661
     3  N    0.772384
     4  C    0.063108
     5  H   -0.103094
     6  H   -0.004297
     7  H   -0.038429
 Sum of Mulliken charges =  -0.00000

 Dipole moment (field-independent basis, Debye):
    X=             -4.9414    Y=              0.8313    Z=              0.0000  Tot=              5.0108

 Test job not archived.
 1\1\GINC-SE457\SP\RHF\Aug-CC-pVDZ\C3H3N1\OHZDE\08-Apr-2025\0\\#t hf au
 g-cc-pvdz iop(5/13=1,5/36=2,99/5=2) pseudo=read geom=check guess=(read
 ,tcheck) scf=(maxcycle=1)\\title\\0,1\C,0,0.782657,0.089647,0.\C,0,-0.
 583663,0.502537,0.000001\N,0,1.894612,-0.223809,-0.000001\C,0,-1.60499
 4,-0.355958,0.\H,0,-0.750962,1.574635,0.000002\H,0,-1.4485,-1.427736,-
 0.000001\H,0,-2.626819,0.002411,0.000001\\Version=ES64L-G16RevC.01\Sta
 te=1-A\HF=-169.9583175\RMSD=2.188e-02\Dipole=-1.9440827,0.3270585,0.00
 00012\Quadrupole=-2.4316049,2.8239274,-0.3923225,1.2042306,0.0000026,0

 Normal termination of Gaussian 16 at Tue Apr  8 22:36:23 2025.
