 Gaussian 16, Revision C.01,

 ----------------------------------------------------------------------
 #t hf aug-cc-pvdz symm=none int=(grid=ultrafine) guess=(read,tcheck) s
 table=(opt,rrhf)
 ----------------------------------------------------------------------
 -----
 title
 -----
 Symbolic Z-matrix:
 Charge =  0 Multiplicity = 1

 SCF Done:  E(RHF) =  -499.989856269     A.U. after   15 cycles
 Normal termination of Gaussian 16 at Wed Apr  9 00:41:05 2025.
 Gaussian 16:  ES64L-G16RevC.01  3-Jul-2019

 ----------------------------------------------------------------------
 #t hf aug-cc-pvdz iop(5/13=1,5/36=2,99/5=2) pseudo=read geom=check gue
 ss=(read,tcheck) scf=(maxcycle=1)
 ----------------------------------------------------------------------
 -----
 title
 -----
 Structure from the checkpoint file:  "BDE49_nonexpt_599_mol1.chk"
 Charge =  0 Multiplicity = 1

                         Standard orientation:
 ---------------------------------------------------------------------
 Center     Atomic      Atomic             Coordinates (Angstroms)
 Number     Number       Type             X           Y           Z
 ---------------------------------------------------------------------
      1          6           0        1.823443   -1.780376   -0.205068
      2          6           0        0.522192   -1.311159   -0.362351
      3          6           0        2.856288   -0.891373    0.070441
      4          6           0        2.569891    0.467747    0.183174
      5          6           0        1.272524    0.962184    0.049391
      6          6           0        0.225134    0.052891   -0.220178
      7          1           0        2.026922   -2.839064   -0.321312
      8          1           0       -0.265038   -1.999260   -0.648359
      9          5           0       -2.319945   -0.115542    0.032113
     10          8           0       -2.402566   -1.309253    0.705860
     11          8           0       -3.479275    0.543816   -0.288697
     12          1           0        3.373124    1.167270    0.392170
     13          1           0        3.873483   -1.246145    0.187317
     14          6           0        0.988142    2.435894    0.198805
     15          1           0        1.887140    2.976566    0.498145
     16          1           0        0.214720    2.619958    0.951461
     17          1           0        0.638382    2.884600   -0.739320
     18          1           0       -4.250183    0.080164    0.049738
     19          1           0       -1.550007   -1.649433    0.992762
     20          7           0       -1.093786    0.517623   -0.352391
     21          1           0       -1.183272    1.468336   -0.679026
 ---------------------------------------------------------------------

 SCF Done:  E(RHF) =  -500.501313137     A.U. after    2 cycles

 The electronic state is 1-A.
 Alpha  occ. eigenvalues --  -20.55392 -20.54746 -15.49851 -11.28811 -11.24751
 Alpha  occ. eigenvalues --  -11.24629 -11.24466 -11.24135 -11.24032 -11.23684
 Alpha  occ. eigenvalues --   -7.64952  -1.47660  -1.43546  -1.22648  -1.13892
 Alpha  occ. eigenvalues --   -1.05178  -1.00398  -0.94244  -0.85018  -0.82344
 Alpha  occ. eigenvalues --   -0.77397  -0.74569  -0.72874  -0.69607  -0.65873
 Alpha  occ. eigenvalues --   -0.64969  -0.61504  -0.59608  -0.58684  -0.57862
 Alpha  occ. eigenvalues --   -0.56334  -0.55708  -0.55036  -0.52358  -0.51653
 Alpha  occ. eigenvalues --   -0.50406  -0.48912  -0.46270  -0.34586  -0.31989
 Alpha virt. eigenvalues --    0.03312   0.03462   0.03647   0.04568   0.04948
 Alpha virt. eigenvalues --    0.05196   0.06167   0.06441   0.07463   0.07812
 Alpha virt. eigenvalues --    0.08422   0.09665   0.10211   0.10433   0.11232

 Mulliken charges:
               1
     1  C   -0.140632
     2  C    1.111530
     3  C    0.055011
     4  C    0.776398
     5  C    0.790681
     6  C   -2.644155
     7  H   -0.243269
     8  H   -0.414325
     9  B    1.480563
    10  O   -1.373193
    11  O   -1.326116
    12  H   -0.284037
    13  H   -0.241980
    14  C   -0.862469
    15  H   -0.036819
    16  H    0.264279
    17  H    0.259111
    18  H    0.511713
    19  H    0.638500
    20  N    1.685578
    21  H   -0.006371
 Sum of Mulliken charges =   0.00000

 Dipole moment (field-independent basis, Debye):
    X=              1.0990    Y=              0.1985    Z=              0.5562  Tot=              1.2477

 Test job not archived.
 1\1\GINC-SE125\SP\RHF\Aug-CC-pVDZ\C7H10B1N1O2\OHZDE\09-Apr-2025\0\\#t
 hf aug-cc-pvdz iop(5/13=1,5/36=2,99/5=2) pseudo=read geom=check guess=
 (read,tcheck) scf=(maxcycle=1)\\title\\0,1\C,0,1.823443,-1.780376,-0.2
 05068\C,0,0.522192,-1.311159,-0.362351\C,0,2.856288,-0.891373,0.070441
 \C,0,2.569891,0.467747,0.183174\C,0,1.272524,0.962184,0.049391\C,0,0.2
 25134,0.052891,-0.220178\H,0,2.026922,-2.839064,-0.321312\H,0,-0.26503
 8,-1.99926,-0.648359\B,0,-2.319945,-0.115542,0.032113\O,0,-2.402566,-1
 .309253,0.70586\O,0,-3.479275,0.543816,-0.288697\H,0,3.373124,1.16727,

 Normal termination of Gaussian 16 at Wed Apr  9 00:41:19 2025.
