 Gaussian 16, Revision C.01,

 ----------------------------------------------------------------------
 #t hf aug-cc-pvdz symm=none int=(grid=ultrafine) guess=(read,tcheck) s
 table=(opt,rrhf)
 ----------------------------------------------------------------------
 -----
 title
 -----
 Symbolic Z-matrix:
 Charge =  0 Multiplicity = 1

 SCF Done:  E(RHF) =  -743.979748360     A.U. after   14 cycles
 Normal termination of Gaussian 16 at Tue Apr  8 23:53:11 2025.
 Gaussian 16:  ES64L-G16RevC.01  3-Jul-2019

 ----------------------------------------------------------------------
 #t hf aug-cc-pvdz iop(5/13=1,5/36=2,99/5=2) pseudo=read geom=check gue
 ss=(read,tcheck) scf=(maxcycle=1)
 ----------------------------------------------------------------------
 -----
 title
 -----
 Structure from the checkpoint file:  "BDE49_nonexpt_1893_mol1.chk"
 Charge =  0 Multiplicity = 1

                         Standard orientation:
 ---------------------------------------------------------------------
 Center     Atomic      Atomic             Coordinates (Angstroms)
 Number     Number       Type             X           Y           Z
 ---------------------------------------------------------------------
      1         14           0       -0.596920   -1.601507   -0.129007
      2          6           0        0.941442   -1.141255    0.908941
      3          6           0        1.673190    0.074721    0.391860
      4          8           0        1.161509    1.194008    0.419106
      5          7           0        2.909159   -0.142851   -0.128599
      6          6           0       -1.991938   -0.286671   -0.198326
      7          1           0       -1.180699   -2.818352    0.472392
      8          1           0       -0.167745   -1.894794   -1.516395
      9          8           0       -3.074804   -0.699631   -0.608158
     10          7           0       -1.747505    0.988380    0.188978
     11          6           0        3.722645    0.915430   -0.707061
     12          1           0        3.280456   -1.078405   -0.104250
     13          1           0        3.976372    0.688023   -1.745873
     14          1           0        4.645475    1.059098   -0.137970
     15          1           0        3.138846    1.833111   -0.673298
     16          6           0       -2.758676    2.032753    0.109438
     17          1           0       -0.786352    1.240137    0.412459
     18          1           0       -3.703861    1.566691   -0.164081
     19          1           0       -2.496964    2.778010   -0.648129
     20          1           0       -2.868668    2.536839    1.073337
     21          1           0        1.587241   -2.022198    0.980380
     22          1           0        0.587590   -0.910655    1.918176
 ---------------------------------------------------------------------

 SCF Done:  E(RHF) =  -744.477466839     A.U. after    2 cycles

 The electronic state is 1-A.
 Alpha  occ. eigenvalues --  -69.54459 -20.52327 -20.49756 -15.54600 -15.50861
 Alpha  occ. eigenvalues --  -11.38003 -11.33068 -11.28175 -11.25494 -11.25472
 Alpha  occ. eigenvalues --   -6.21499  -3.96862  -3.96835  -3.96829  -1.47249
 Alpha  occ. eigenvalues --   -1.43678  -1.25670  -1.21930  -1.04121  -0.96411
 Alpha  occ. eigenvalues --   -0.95529  -0.84168  -0.81069  -0.77413  -0.72273
 Alpha  occ. eigenvalues --   -0.69264  -0.67064  -0.65966  -0.63826  -0.62430
 Alpha  occ. eigenvalues --   -0.61085  -0.59595  -0.57288  -0.56244  -0.54406
 Alpha  occ. eigenvalues --   -0.54001  -0.53518  -0.48874  -0.47474  -0.44166
 Alpha  occ. eigenvalues --   -0.43491  -0.39707  -0.38464
 Alpha virt. eigenvalues --    0.02207   0.03600   0.04038   0.04314   0.05058
 Alpha virt. eigenvalues --    0.05250   0.05632   0.06269   0.06525   0.07511
 Alpha virt. eigenvalues --    0.07933   0.08705   0.09081   0.10428   0.10991

 Mulliken charges:
               1
     1  Si   1.280469
     2  C   -0.830729
     3  C    0.381381
     4  O   -1.588411
     5  N    1.024554
     6  C    0.101527
     7  H   -0.145368
     8  H   -0.153831
     9  O   -1.231393
    10  N    0.665697
    11  C   -0.282368
    12  H    0.055967
    13  H    0.115612
    14  H    0.112391
    15  H    0.091172
    16  C   -0.254649
    17  H    0.083838
    18  H    0.044951
    19  H    0.153398
    20  H    0.151409
    21  H   -0.027181
    22  H    0.251565
 Sum of Mulliken charges =  -0.00000

 Dipole moment (field-independent basis, Debye):
    X=              5.7555    Y=             -0.6304    Z=              0.9432  Tot=              5.8663

 Test job not archived.
 1\1\GINC-SE423\SP\RHF\Aug-CC-pVDZ\C5H12N2O2Si1\OHZDE\08-Apr-2025\0\\#t
  hf aug-cc-pvdz iop(5/13=1,5/36=2,99/5=2) pseudo=read geom=check guess
 =(read,tcheck) scf=(maxcycle=1)\\title\\0,1\Si,0,-0.59692,-1.601507,-0
 .129007\C,0,0.941442,-1.141255,0.908941\C,0,1.67319,0.074721,0.39186\O
 ,0,1.161509,1.194008,0.419106\N,0,2.909159,-0.142851,-0.128599\C,0,-1.
 991938,-0.286671,-0.198326\H,0,-1.180699,-2.818352,0.472392\H,0,-0.167
 745,-1.894794,-1.516395\O,0,-3.074804,-0.699631,-0.608158\N,0,-1.74750
 5,0.98838,0.188978\C,0,3.722645,0.91543,-0.707061\H,0,3.280456,-1.0784

 Normal termination of Gaussian 16 at Tue Apr  8 23:53:24 2025.
