 Gaussian 16, Revision C.01,

 ----------------------------------------------------------------------
 #t hf aug-cc-pvdz symm=none int=(grid=ultrafine) guess=(read,tcheck) s
 table=(opt,rrhf)
 ----------------------------------------------------------------------
 -----
 title
 -----
 Symbolic Z-matrix:
 Charge =  0 Multiplicity = 1

 SCF Done:  E(RHF) =  -564.550453107     A.U. after   12 cycles
 Normal termination of Gaussian 16 at Tue Apr  8 22:47:43 2025.
 Gaussian 16:  ES64L-G16RevC.01  3-Jul-2019

 ----------------------------------------------------------------------
 #t hf aug-cc-pvdz iop(5/13=1,5/36=2,99/5=2) pseudo=read geom=check gue
 ss=(read,tcheck) scf=(maxcycle=1)
 ----------------------------------------------------------------------
 -----
 title
 -----
 Structure from the checkpoint file:  "BDE49_expt_1542_mol1.chk"
 Charge =  0 Multiplicity = 1

                         Standard orientation:
 ---------------------------------------------------------------------
 Center     Atomic      Atomic             Coordinates (Angstroms)
 Number     Number       Type             X           Y           Z
 ---------------------------------------------------------------------
      1         14           0        1.026668   -0.116102   -0.019889
      2          6           0        1.388720   -0.070799    1.832143
      3          1           0        2.434204   -0.329453    2.028130
      4          1           0        0.765994   -0.781863    2.383180
      5          1           0        1.212467    0.923009    2.254526
      6          6           0        1.377567   -1.850705   -0.677688
      7          6           0        2.170367    1.098640   -0.903381
      8          6           0       -0.791675    0.349263   -0.365885
      9          1           0        2.435213   -2.103405   -0.551552
     10          1           0        1.146847   -1.926652   -1.745066
     11          1           0        0.794752   -2.615379   -0.156341
     12          1           0        3.217109    0.803828   -0.777954
     13          1           0        2.068153    2.115718   -0.514269
     14          1           0        1.964768    1.131251   -1.978096
     15          6           0       -1.100887    1.809668    0.020755
     16          1           0       -1.025301    1.957746    1.103519
     17          1           0       -2.110871    2.106875   -0.276654
     18          1           0       -0.410307    2.510630   -0.455727
     19          6           0       -1.786510   -0.646155    0.275780
     20          1           0       -0.901848    0.263310   -1.458347
     21          6           0       -3.240543   -0.495499   -0.192319
     22          1           0       -1.748972   -0.538800    1.367193
     23          1           0       -1.465354   -1.671934    0.063384
     24          1           0       -3.659142    0.478651    0.072126
     25          1           0       -3.878288   -1.258841    0.262976
     26          1           0       -3.315016   -0.605736   -1.279013
 ---------------------------------------------------------------------

 SCF Done:  E(RHF) =  -564.897074502     A.U. after    2 cycles

 The electronic state is 1-A.
 Alpha  occ. eigenvalues --  -69.50084 -11.22685 -11.22155 -11.21913 -11.21128
 Alpha  occ. eigenvalues --  -11.20422 -11.20408 -11.20406  -6.17119  -3.92455
 Alpha  occ. eigenvalues --   -3.92453  -3.92430  -1.06962  -0.98112  -0.96162
 Alpha  occ. eigenvalues --   -0.92237  -0.92193  -0.87063  -0.77774  -0.65269
 Alpha  occ. eigenvalues --   -0.62837  -0.59296  -0.58127  -0.56721  -0.56289
 Alpha  occ. eigenvalues --   -0.55797  -0.54657  -0.53924  -0.53376  -0.52867
 Alpha  occ. eigenvalues --   -0.52260  -0.50900  -0.46943  -0.46689  -0.43146
 Alpha  occ. eigenvalues --   -0.43006  -0.39628
 Alpha virt. eigenvalues --    0.03178   0.03358   0.03494   0.03686   0.05410
 Alpha virt. eigenvalues --    0.05506   0.05775   0.05999   0.06168   0.08024
 Alpha virt. eigenvalues --    0.08346   0.08470   0.08816   0.09236   0.09421

 Mulliken charges:
               1
     1  Si   2.455064
     2  C   -0.512422
     3  H   -0.072803
     4  H   -0.000198
     5  H   -0.008166
     6  C   -0.512457
     7  C   -0.552096
     8  C   -0.828133
     9  H   -0.064282
    10  H    0.029455
    11  H   -0.030315
    12  H   -0.084163
    13  H   -0.035939
    14  H    0.029140
    15  C   -0.307482
    16  H    0.155819
    17  H    0.121954
    18  H    0.149934
    19  C   -0.135369
    20  H   -0.004599
    21  C   -0.383437
    22  H    0.094067
    23  H    0.071377
    24  H    0.141919
    25  H    0.111464
    26  H    0.171668
 Sum of Mulliken charges =   0.00000

 Dipole moment (field-independent basis, Debye):
    X=             -0.0091    Y=             -0.0462    Z=             -0.0539  Tot=              0.0716

 Test job not archived.
 1\1\GINC-SE212\SP\RHF\Aug-CC-pVDZ\C7H18Si1\OHZDE\08-Apr-2025\0\\#t hf
 aug-cc-pvdz iop(5/13=1,5/36=2,99/5=2) pseudo=read geom=check guess=(re
 ad,tcheck) scf=(maxcycle=1)\\title\\0,1\Si,0,1.026668,-0.116102,-0.019
 889\C,0,1.38872,-0.070799,1.832143\H,0,2.434204,-0.329453,2.02813\H,0,
 0.765994,-0.781863,2.38318\H,0,1.212467,0.923009,2.254526\C,0,1.377567
 ,-1.850705,-0.677688\C,0,2.170367,1.09864,-0.903381\C,0,-0.791675,0.34
 9263,-0.365885\H,0,2.435213,-2.103405,-0.551552\H,0,1.146847,-1.926652
 ,-1.745066\H,0,0.794752,-2.615379,-0.156341\H,0,3.217109,0.803828,-0.7

 Normal termination of Gaussian 16 at Tue Apr  8 22:48:01 2025.
