 Gaussian 16, Revision C.01,

 ----------------------------------------------------------------------
 #t hf aug-cc-pvdz symm=none int=(grid=ultrafine) guess=(read,tcheck) s
 table=(opt,rrhf)
 ----------------------------------------------------------------------
 -----
 title
 -----
 Symbolic Z-matrix:
 Charge =  0 Multiplicity = 1

 SCF Done:  E(RHF) =  -590.969380620     A.U. after   10 cycles

 1\1\GINC-SE250\Stability\RHF\Aug-CC-pVDZ\H4O4Si1\OHZDE\08-Apr-2025\0\\
 #t hf aug-cc-pvdz symm=none int=(grid=ultrafine) guess=(read,tcheck) s
 table=(opt,rrhf)\\title\\0,1\Si,0,0.,0.,0.\O,0,-1.140062,0.789386,0.86
 5056\H,0,-1.880779,0.26978,1.185961\O,0,1.14006,-0.789386,0.865057\O,0
 ,0.789387,1.140061,-0.865055\O,0,-0.789385,-1.140061,-0.865057\H,0,1.8
 80777,-0.26978,1.185964\H,0,0.269781,1.880778,-1.185962\H,0,-0.269779,
 -1.880778,-1.185963\\Version=ES64L-G16RevC.01\HF=-590.9693806\RMSD=8.7
 84e-09\Dipole=0.0000008,-0.0000003,-0.0000017\Quadrupole=0.2346572,0.2

 Normal termination of Gaussian 16 at Tue Apr  8 22:56:42 2025.
 Gaussian 16:  ES64L-G16RevC.01  3-Jul-2019

 ----------------------------------------------------------------------
 #t hf aug-cc-pvdz iop(5/13=1,5/36=2,99/5=2) pseudo=read geom=check gue
 ss=(read,tcheck) scf=(maxcycle=1)
 ----------------------------------------------------------------------
 -----
 title
 -----
 Structure from the checkpoint file:  "BDE49_expt_1908_mol1.chk"
 Charge =  0 Multiplicity = 1

                         Standard orientation:
 ---------------------------------------------------------------------
 Center     Atomic      Atomic             Coordinates (Angstroms)
 Number     Number       Type             X           Y           Z
 ---------------------------------------------------------------------
      1         14           0        0.000000    0.000000    0.000000
      2          8           0        1.335892    0.371840   -0.865056
      3          1           0        1.865235   -0.361950   -1.185961
      4          8           0       -1.335890   -0.371841   -0.865057
      5          8           0       -0.371841    1.335891    0.865055
      6          8           0        0.371839   -1.335890    0.865057
      7          1           0       -1.865234    0.361949   -1.185964
      8          1           0        0.361948    1.865235    1.185962
      9          1           0       -0.361950   -1.865234    1.185963
 ---------------------------------------------------------------------

 SCF Done:  E(RHF) =  -591.300222958     A.U. after    2 cycles

 The electronic state is 1-A.
 Alpha  occ. eigenvalues --  -69.61847 -20.55228 -20.55228 -20.55226 -20.55222
 Alpha  occ. eigenvalues --   -6.27678  -4.03194  -4.03194  -4.03143  -1.47906
 Alpha  occ. eigenvalues --   -1.43549  -1.43549  -1.42731  -0.79788  -0.71924
 Alpha  occ. eigenvalues --   -0.71924  -0.70707  -0.59365  -0.56347  -0.55514
 Alpha  occ. eigenvalues --   -0.55514  -0.53437  -0.52158  -0.49207  -0.49207
 Alpha virt. eigenvalues --    0.03344   0.05281   0.05281   0.05477   0.07610
 Alpha virt. eigenvalues --    0.08091   0.08091   0.12499   0.17804   0.18452
 Alpha virt. eigenvalues --    0.20522   0.20522   0.20648   0.20975   0.24435

 Mulliken charges:
               1
     1  Si   4.052095
     2  O   -1.412378
     3  H    0.399355
     4  O   -1.412380
     5  O   -1.412379
     6  O   -1.412379
     7  H    0.399355
     8  H    0.399355
     9  H    0.399355
 Sum of Mulliken charges =  -0.00000

 Dipole moment (field-independent basis, Debye):
    X=             -0.0000    Y=             -0.0000    Z=              0.0000  Tot=              0.0000

 Test job not archived.
 1\1\GINC-SE250\SP\RHF\Aug-CC-pVDZ\H4O4Si1\OHZDE\08-Apr-2025\0\\#t hf a
 ug-cc-pvdz iop(5/13=1,5/36=2,99/5=2) pseudo=read geom=check guess=(rea
 d,tcheck) scf=(maxcycle=1)\\title\\0,1\Si,0,0.,0.,0.\O,0,-1.140062,0.7
 89386,0.865056\H,0,-1.880779,0.26978,1.185961\O,0,1.14006,-0.789386,0.
 865057\O,0,0.789387,1.140061,-0.865055\O,0,-0.789385,-1.140061,-0.8650
 57\H,0,1.880777,-0.26978,1.185964\H,0,0.269781,1.880778,-1.185962\H,0,
 -0.269779,-1.880778,-1.185963\\Version=ES64L-G16RevC.01\State=1-A\HF=-
 591.300223\RMSD=7.062e-03\Dipole=0.0000008,-0.0000003,-0.0000017\Quadr

 Normal termination of Gaussian 16 at Tue Apr  8 22:56:44 2025.
