 Gaussian 16, Revision C.01,

 ----------------------------------------------------------------------
 #t hf aug-cc-pvdz symm=none int=(grid=ultrafine) guess=(read,tcheck) s
 table=(opt,rrhf)
 ----------------------------------------------------------------------
 -----
 title
 -----
 Symbolic Z-matrix:
 Charge =  0 Multiplicity = 1

 SCF Done:  E(RHF) =  -734.688572480     A.U. after   13 cycles
 Normal termination of Gaussian 16 at Tue Apr  8 22:41:26 2025.
 Gaussian 16:  ES64L-G16RevC.01  3-Jul-2019

 ----------------------------------------------------------------------
 #t hf aug-cc-pvdz iop(5/13=1,5/36=2,99/5=2) pseudo=read geom=check gue
 ss=(read,tcheck) scf=(maxcycle=1)
 ----------------------------------------------------------------------
 -----
 title
 -----
 Structure from the checkpoint file:  "BDE49_expt_139_mol1.chk"
 Charge =  0 Multiplicity = 1

                         Standard orientation:
 ---------------------------------------------------------------------
 Center     Atomic      Atomic             Coordinates (Angstroms)
 Number     Number       Type             X           Y           Z
 ---------------------------------------------------------------------
      1          6           0       -0.257978   -0.732204    0.000004
      2          6           0        0.871633   -0.043204    0.000006
      3          9           0        2.063984   -0.615021   -0.000004
      4         17           0       -1.810518    0.034298   -0.000001
      5          1           0       -0.248761   -1.809940   -0.000001
      6          9           0        0.974420    1.268279   -0.000001
 ---------------------------------------------------------------------

 SCF Done:  E(RHF) =  -735.020591902     A.U. after    2 cycles

 The electronic state is 1-A.
 Alpha  occ. eigenvalues -- -105.59504 -26.53082 -26.53069 -11.45850 -11.32591
 Alpha  occ. eigenvalues --  -10.64272  -7.81244  -7.80813  -7.80798  -1.70416
 Alpha  occ. eigenvalues --   -1.63560  -1.15811  -1.02822  -0.88077  -0.80951
 Alpha  occ. eigenvalues --   -0.76352  -0.75796  -0.67975  -0.66764  -0.65285
 Alpha  occ. eigenvalues --   -0.60835  -0.53731  -0.48525  -0.39083
 Alpha virt. eigenvalues --    0.03645   0.07397   0.07528   0.10154   0.11311
 Alpha virt. eigenvalues --    0.11550   0.13404   0.13847   0.15248   0.15926
 Alpha virt. eigenvalues --    0.17595   0.18200   0.20704   0.21564   0.25725

 Mulliken charges:
               1
     1  C   -0.574607
     2  C    2.158490
     3  F   -0.705716
     4  Cl  -0.162424
     5  H   -0.052286
     6  F   -0.663457
 Sum of Mulliken charges =   0.00000

 Dipole moment (field-independent basis, Debye):
    X=              0.2400    Y=             -1.1445    Z=              0.0000  Tot=              1.1694

 Test job not archived.
 1\1\GINC-SE403\SP\RHF\Aug-CC-pVDZ\C2H1Cl1F2\OHZDE\08-Apr-2025\0\\#t hf
  aug-cc-pvdz iop(5/13=1,5/36=2,99/5=2) pseudo=read geom=check guess=(r
 ead,tcheck) scf=(maxcycle=1)\\title\\0,1\C,0,0.257978,-0.732204,-0.000
 004\C,0,-0.871633,-0.043204,-0.000006\F,0,-2.063984,-0.615021,0.000004
 \Cl,0,1.810518,0.034298,0.000001\H,0,0.248761,-1.80994,0.000001\F,0,-0
 .97442,1.268279,0.000001\\Version=ES64L-G16RevC.01\State=1-A\HF=-735.0
 205919\RMSD=8.632e-03\Dipole=-0.0944412,-0.4502724,-0.0000012\Quadrupo
 le=-1.2809571,1.3829256,-0.1019685,-0.0975891,0.0000176,-0.0000088\PG=

 Normal termination of Gaussian 16 at Tue Apr  8 22:41:28 2025.
