 Gaussian 16, Revision C.01,

 ----------------------------------------------------------------------
 #t hf aug-cc-pvdz symm=none int=(grid=ultrafine) guess=(read,tcheck) s
 table=(opt,rrhf)
 ----------------------------------------------------------------------
 -----
 title
 -----
 Symbolic Z-matrix:
 Charge =  0 Multiplicity = 1

 SCF Done:  E(RHF) =  -739.852099694     A.U. after   16 cycles
 Normal termination of Gaussian 16 at Tue Apr  8 23:34:30 2025.
 Gaussian 16:  ES64L-G16RevC.01  3-Jul-2019

 ----------------------------------------------------------------------
 #t hf aug-cc-pvdz iop(5/13=1,5/36=2,99/5=2) pseudo=read geom=check gue
 ss=(read,tcheck) scf=(maxcycle=1)
 ----------------------------------------------------------------------
 -----
 title
 -----
 Structure from the checkpoint file:  "BDE49_nonexpt_1441_mol1.chk"
 Charge =  0 Multiplicity = 1

                         Standard orientation:
 ---------------------------------------------------------------------
 Center     Atomic      Atomic             Coordinates (Angstroms)
 Number     Number       Type             X           Y           Z
 ---------------------------------------------------------------------
      1          6           0        0.660748    0.134686   -0.039676
      2          6           0       -0.800717    0.474496   -0.106111
      3          8           0       -1.191473    1.599970   -0.366587
      4          7           0       -1.686438   -0.549650    0.150683
      5         15           0       -3.406873   -0.260628   -0.005242
      6          1           0       -1.333568   -1.375597    0.609718
      7          6           0        1.153093   -1.167938   -0.179703
      8          6           0        2.522913   -1.411101   -0.125459
      9          6           0        3.411217   -0.355877    0.070877
     10          6           0        2.927500    0.945881    0.199454
     11          6           0        1.560716    1.190866    0.136972
     12          1           0        0.476036   -1.993659   -0.368165
     13          1           0        2.896333   -2.421663   -0.245308
     14          1           0        4.477590   -0.546426    0.115343
     15          1           0        3.617317    1.769446    0.344307
     16          1           0        1.164269    2.195137    0.218737
     17          1           0       -3.718875    0.086039    1.342609
     18          1           0       -3.751978   -1.622153    0.201187
 ---------------------------------------------------------------------

 SCF Done:  E(RHF) =  -740.298679194     A.U. after    2 cycles

 The electronic state is 1-A.
 Alpha  occ. eigenvalues --  -84.30947 -20.51741 -15.53029 -11.36893 -11.26657
 Alpha  occ. eigenvalues --  -11.26271 -11.26215 -11.25816 -11.25723 -11.25517
 Alpha  occ. eigenvalues --   -6.77563  -4.30475  -4.29757  -4.29250  -1.46657
 Alpha  occ. eigenvalues --   -1.22857  -1.17037  -1.04674  -1.03353  -0.91981
 Alpha  occ. eigenvalues --   -0.86018  -0.84528  -0.80946  -0.76090  -0.69667
 Alpha  occ. eigenvalues --   -0.66709  -0.64395  -0.63318  -0.61886  -0.61622
 Alpha  occ. eigenvalues --   -0.57785  -0.53607  -0.53209  -0.51966  -0.50602
 Alpha  occ. eigenvalues --   -0.44188  -0.43813  -0.36778  -0.35911  -0.35430
 Alpha virt. eigenvalues --    0.02727   0.03227   0.03806   0.04866   0.05663
 Alpha virt. eigenvalues --    0.05787   0.06303   0.07164   0.07546   0.09268
 Alpha virt. eigenvalues --    0.09299   0.10060   0.10454   0.11099   0.12228

 Mulliken charges:
               1
     1  C    2.235722
     2  C   -0.966979
     3  O   -1.329266
     4  N    0.791894
     5  P   -0.279944
     6  H   -0.062669
     7  C    0.360239
     8  C    0.129775
     9  C   -0.101868
    10  C    0.421848
    11  C   -0.419224
    12  H   -0.319954
    13  H   -0.239938
    14  H   -0.208475
    15  H   -0.209392
    16  H   -0.338282
    17  H    0.310294
    18  H    0.226220
 Sum of Mulliken charges =   0.00000

 Dipole moment (field-independent basis, Debye):
    X=              1.7658    Y=             -3.1313    Z=              1.3261  Tot=              3.8316

 Test job not archived.
 1\1\GINC-SE162\SP\RHF\Aug-CC-pVDZ\C7H8N1O1P1\OHZDE\08-Apr-2025\0\\#t h
 f aug-cc-pvdz iop(5/13=1,5/36=2,99/5=2) pseudo=read geom=check guess=(
 read,tcheck) scf=(maxcycle=1)\\title\\0,1\C,0,0.660748,0.134686,-0.039
 676\C,0,-0.800717,0.474496,-0.106111\O,0,-1.191473,1.59997,-0.366587\N
 ,0,-1.686438,-0.54965,0.150683\P,0,-3.406873,-0.260628,-0.005242\H,0,-
 1.333568,-1.375597,0.609718\C,0,1.153093,-1.167938,-0.179703\C,0,2.522
 913,-1.411101,-0.125459\C,0,3.411217,-0.355877,0.070877\C,0,2.9275,0.9
 45881,0.199454\C,0,1.560716,1.190866,0.136972\H,0,0.476036,-1.993659,-

 Normal termination of Gaussian 16 at Tue Apr  8 23:34:40 2025.
