 Gaussian 16, Revision C.01,

 ----------------------------------------------------------------------
 #t hf aug-cc-pvdz symm=none int=(grid=ultrafine) guess=(read,tcheck) s
 table=(opt,rrhf)
 ----------------------------------------------------------------------
 -----
 title
 -----
 Symbolic Z-matrix:
 Charge =  0 Multiplicity = 1

 SCF Done:  E(RHF) =  -229.901512555     A.U. after   13 cycles
 Normal termination of Gaussian 16 at Tue Apr  8 23:35:25 2025.
 Gaussian 16:  ES64L-G16RevC.01  3-Jul-2019

 ----------------------------------------------------------------------
 #t hf aug-cc-pvdz iop(5/13=1,5/36=2,99/5=2) pseudo=read geom=check gue
 ss=(read,tcheck) scf=(maxcycle=1)
 ----------------------------------------------------------------------
 -----
 title
 -----
 Structure from the checkpoint file:  "BDE49_nonexpt_148_mol1.chk"
 Charge =  0 Multiplicity = 1

                         Standard orientation:
 ---------------------------------------------------------------------
 Center     Atomic      Atomic             Coordinates (Angstroms)
 Number     Number       Type             X           Y           Z
 ---------------------------------------------------------------------
      1          5           0       -2.273817   -1.246858   -0.333395
      2          5           0       -1.207223   -0.489222    0.618160
      3          5           0        0.036125    0.544819    0.111077
      4          8           0        1.316874    0.171689   -0.141022
      5          6           0       -0.307023    2.075971   -0.091197
      6          1           0       -1.022619    2.463743    0.640529
      7          1           0       -0.774303    2.210572   -1.075771
      8          1           0        0.593962    2.696117   -0.065627
      9          6           0        1.781782   -1.169741   -0.028278
     10          1           0        2.484269   -1.236916    0.805849
     11          1           0        2.302797   -1.437013   -0.949841
     12          1           0        0.960414   -1.876103    0.134356
     13          1           0       -1.334131   -0.585970    1.811194
     14          1           0       -3.266966   -0.713788   -0.736626
     15          1           0       -2.102388   -2.375228   -0.698247
 ---------------------------------------------------------------------

 SCF Done:  E(RHF) =  -230.143522657     A.U. after    2 cycles

 The electronic state is 1-A.
 Alpha  occ. eigenvalues --  -20.54939 -11.29493 -11.19780  -7.59295  -7.57996
 Alpha  occ. eigenvalues --   -7.55952  -1.46109  -0.96798  -0.92545  -0.77126
 Alpha  occ. eigenvalues --   -0.70977  -0.64931  -0.63833  -0.62305  -0.55594
 Alpha  occ. eigenvalues --   -0.54483  -0.51740  -0.50843  -0.49261  -0.47041
 Alpha  occ. eigenvalues --   -0.44541  -0.39264
 Alpha virt. eigenvalues --    0.03145   0.03203   0.03498   0.03801   0.05349
 Alpha virt. eigenvalues --    0.05655   0.06101   0.06342   0.07117   0.07716
 Alpha virt. eigenvalues --    0.08799   0.09003   0.09650   0.10215   0.10292

 Mulliken charges:
               1
     1  B   -0.846021
     2  B   -0.599428
     3  B    1.586911
     4  O   -1.344826
     5  C   -0.519288
     6  H    0.012051
     7  H    0.100802
     8  H   -0.087867
     9  C    0.479623
    10  H    0.101629
    11  H    0.070076
    12  H    0.109781
    13  H    0.247984
    14  H    0.339370
    15  H    0.349203
 Sum of Mulliken charges =  -0.00000

 Dipole moment (field-independent basis, Debye):
    X=              0.3919    Y=             -1.0136    Z=              0.2228  Tot=              1.1093

 Test job not archived.
 1\1\GINC-SE227\SP\RHF\Aug-CC-pVDZ\C2H9B3O1\OHZDE\08-Apr-2025\0\\#t hf
 aug-cc-pvdz iop(5/13=1,5/36=2,99/5=2) pseudo=read geom=check guess=(re
 ad,tcheck) scf=(maxcycle=1)\\title\\0,1\B,0,-2.273818,-1.246857,-0.333
 395\B,0,-1.207223,-0.489221,0.61816\B,0,0.036125,0.544819,0.111077\O,0
 ,1.316874,0.171688,-0.141022\C,0,-0.307022,2.075971,-0.091197\H,0,-1.0
 22618,2.463743,0.640529\H,0,-0.774302,2.210572,-1.075771\H,0,0.593963,
 2.696117,-0.065627\C,0,1.781781,-1.169742,-0.028278\H,0,2.484268,-1.23
 6917,0.805849\H,0,2.302796,-1.437014,-0.949841\H,0,0.960413,-1.876103,

 Normal termination of Gaussian 16 at Tue Apr  8 23:35:29 2025.
