 Gaussian 16, Revision C.01,

 ----------------------------------------------------------------------
 #t hf aug-cc-pvdz symm=none int=(grid=ultrafine) guess=(read,tcheck) s
 table=(opt,rrhf)
 ----------------------------------------------------------------------
 -----
 title
 -----
 Symbolic Z-matrix:
 Charge =  0 Multiplicity = 1

 SCF Done:  E(RHF) =  -643.692542577     A.U. after   16 cycles
 Normal termination of Gaussian 16 at Tue Apr  8 23:18:48 2025.
 Gaussian 16:  ES64L-G16RevC.01  3-Jul-2019

 ----------------------------------------------------------------------
 #t hf aug-cc-pvdz iop(5/13=1,5/36=2,99/5=2) pseudo=read geom=check gue
 ss=(read,tcheck) scf=(maxcycle=1)
 ----------------------------------------------------------------------
 -----
 title
 -----
 Structure from the checkpoint file:  "BDE49_nonexpt_1081_mol1.chk"
 Charge =  0 Multiplicity = 1

                         Standard orientation:
 ---------------------------------------------------------------------
 Center     Atomic      Atomic             Coordinates (Angstroms)
 Number     Number       Type             X           Y           Z
 ---------------------------------------------------------------------
      1         17           0        1.361158   -0.240362    0.000023
      2          8           0       -0.150493    0.951522   -0.000011
      3          7           0       -1.298839    0.421379    0.000016
      4          7           0       -1.479002   -0.789405   -0.000066
      5          1           0       -2.490849   -0.949834    0.000046
 ---------------------------------------------------------------------

 SCF Done:  E(RHF) =  -643.944195083     A.U. after    2 cycles

 The electronic state is 1-A.
 Alpha  occ. eigenvalues -- -105.62563 -20.70963 -15.68886 -15.59034 -10.66710
 Alpha  occ. eigenvalues --   -7.83633  -7.83119  -7.83113  -1.63445  -1.37044
 Alpha  occ. eigenvalues --   -1.06233  -0.93092  -0.81164  -0.75704  -0.73483
 Alpha  occ. eigenvalues --   -0.57780  -0.53785  -0.49725  -0.47583  -0.47205
 Alpha virt. eigenvalues --   -0.00156   0.03442   0.06468   0.11108   0.11689
 Alpha virt. eigenvalues --    0.13835   0.14299   0.14587   0.17049   0.17451
 Alpha virt. eigenvalues --    0.18537   0.18889   0.20374   0.24515   0.27510

 Mulliken charges:
               1
     1  Cl   0.171957
     2  O   -0.982953
     3  N    0.795627
     4  N   -0.063513
     5  H    0.078882
 Sum of Mulliken charges =  -0.00000

 Dipole moment (field-independent basis, Debye):
    X=             -1.4486    Y=             -0.4236    Z=              0.0001  Tot=              1.5092

 Test job not archived.
 1\1\GINC-SE328\SP\RHF\Aug-CC-pVDZ\Cl1H1N2O1\OHZDE\08-Apr-2025\0\\#t hf
  aug-cc-pvdz iop(5/13=1,5/36=2,99/5=2) pseudo=read geom=check guess=(r
 ead,tcheck) scf=(maxcycle=1)\\title\\0,1\Cl,0,1.361158,-0.240362,0.000
 023\O,0,-0.150493,0.951522,-0.000011\N,0,-1.298839,0.421379,0.000016\N
 ,0,-1.479002,-0.789405,-0.000066\H,0,-2.490849,-0.949834,0.000046\\Ver
 sion=ES64L-G16RevC.01\State=1-A\HF=-643.9441951\RMSD=3.692e-02\Dipole=
 -0.5699138,-0.1666659,0.0000573\Quadrupole=3.6027017,-1.9066864,-1.696
 0154,1.2665588,-0.0001649,-0.0002287\PG=C01 [X(Cl1H1N2O1)]\\@

 Normal termination of Gaussian 16 at Tue Apr  8 23:18:50 2025.
