 Gaussian 16, Revision C.01,

 ----------------------------------------------------------------------
 #t hf aug-cc-pvdz symm=none int=(grid=ultrafine) guess=(read,tcheck) s
 table=(opt,rrhf)
 ----------------------------------------------------------------------
 -----
 title
 -----
 Symbolic Z-matrix:
 Charge =  0 Multiplicity = 1

 SCF Done:  E(RHF) =  -895.065909432     A.U. after   14 cycles
 Normal termination of Gaussian 16 at Wed Apr  9 00:20:35 2025.
 Gaussian 16:  ES64L-G16RevC.01  3-Jul-2019

 ----------------------------------------------------------------------
 #t hf aug-cc-pvdz iop(5/13=1,5/36=2,99/5=2) pseudo=read geom=check gue
 ss=(read,tcheck) scf=(maxcycle=1)
 ----------------------------------------------------------------------
 -----
 title
 -----
 Structure from the checkpoint file:  "BDE49_nonexpt_2616_mol1.chk"
 Charge =  0 Multiplicity = 1

                         Standard orientation:
 ---------------------------------------------------------------------
 Center     Atomic      Atomic             Coordinates (Angstroms)
 Number     Number       Type             X           Y           Z
 ---------------------------------------------------------------------
      1          9           0       -1.571948   -0.706871   -0.008659
      2         16           0        1.318563   -0.194395   -0.089161
      3         16           0       -0.531717    0.617815    0.017511
      4          1           0        1.557994   -0.412888    1.224326
 ---------------------------------------------------------------------

 SCF Done:  E(RHF) =  -895.274712797     A.U. after    2 cycles

 The electronic state is 1-A.
 Alpha  occ. eigenvalues --  -94.07004 -94.01464 -26.47404  -8.34147  -8.29515
 Alpha  occ. eigenvalues --   -6.31867  -6.31628  -6.31268  -6.27327  -6.27114
 Alpha  occ. eigenvalues --   -6.26908  -1.57085  -1.12268  -0.91993  -0.67506
 Alpha  occ. eigenvalues --   -0.65594  -0.65042  -0.58430  -0.50012  -0.43338
 Alpha  occ. eigenvalues --   -0.40151
 Alpha virt. eigenvalues --    0.03517   0.05643   0.06568   0.10015   0.10747
 Alpha virt. eigenvalues --    0.11745   0.13184   0.14048   0.16784   0.17377
 Alpha virt. eigenvalues --    0.19116   0.24568   0.25633   0.26929   0.30507

 Mulliken charges:
               1
     1  F   -0.593344
     2  S   -0.343544
     3  S    0.515412
     4  H    0.421476
 Sum of Mulliken charges =  -0.00000

 Dipole moment (field-independent basis, Debye):
    X=              1.6999    Y=              0.4934    Z=              0.9943  Tot=              2.0302

 Test job not archived.
 1\1\GINC-SE159\SP\RHF\Aug-CC-pVDZ\F1H1S2\OHZDE\09-Apr-2025\0\\#t hf au
 g-cc-pvdz iop(5/13=1,5/36=2,99/5=2) pseudo=read geom=check guess=(read
 ,tcheck) scf=(maxcycle=1)\\title\\0,1\F,0,-1.571948,-0.706871,-0.00865
 9\S,0,1.318563,-0.194395,-0.089161\S,0,-0.531717,0.617815,0.017511\H,0
 ,1.557994,-0.412888,1.224326\\Version=ES64L-G16RevC.01\State=1-A\HF=-8
 95.2747128\RMSD=3.613e-03\Dipole=0.6687886,0.1941297,0.3912073\Quadrup
 ole=0.2149396,-0.6971657,0.4822261,-1.8393279,1.3786945,-0.5173589\PG=
 C01 [X(F1H1S2)]\\@

 Normal termination of Gaussian 16 at Wed Apr  9 00:20:37 2025.
