 Gaussian 16, Revision C.01,

 ----------------------------------------------------------------------
 #t hf aug-cc-pvdz symm=none int=(grid=ultrafine) guess=(read,tcheck) s
 table=(opt,rrhf)
 ----------------------------------------------------------------------
 -----
 title
 -----
 Symbolic Z-matrix:
 Charge =  0 Multiplicity = 1

 SCF Done:  E(RHF) =  -747.515748344     A.U. after   16 cycles
 Normal termination of Gaussian 16 at Wed Apr  9 00:06:29 2025.
 Gaussian 16:  ES64L-G16RevC.01  3-Jul-2019

 ----------------------------------------------------------------------
 #t hf aug-cc-pvdz iop(5/13=1,5/36=2,99/5=2) pseudo=read geom=check gue
 ss=(read,tcheck) scf=(maxcycle=1)
 ----------------------------------------------------------------------
 -----
 title
 -----
 Structure from the checkpoint file:  "BDE49_nonexpt_2199_mol1.chk"
 Charge =  0 Multiplicity = 1

                         Standard orientation:
 ---------------------------------------------------------------------
 Center     Atomic      Atomic             Coordinates (Angstroms)
 Number     Number       Type             X           Y           Z
 ---------------------------------------------------------------------
      1          6           0       -1.595183    1.453107   -0.000016
      2          6           0       -1.252492    0.097813   -0.000024
      3          6           0        0.097296   -0.276641   -0.000014
      4          6           0       -0.590803    2.420212    0.000001
      5          6           0        0.747202    2.048972    0.000011
      6          6           0        1.094193    0.692869    0.000004
      7          1           0       -0.852812    3.472027    0.000007
      8          1           0        1.539893    2.787032    0.000025
      9          8           0        2.425919    0.391461    0.000014
     10         14           0        3.200081   -1.083951    0.000013
     11          1           0       -2.632693    1.761198   -0.000023
     12          1           0        0.328199   -1.335835   -0.000021
     13          6           0       -2.275498   -1.003001   -0.000046
     14          8           0       -1.929632   -2.167803    0.000011
     15          6           0       -3.747393   -0.633222    0.000007
     16          1           0       -4.000827   -0.037819    0.881843
     17          1           0       -4.334957   -1.549579    0.000041
     18          1           0       -4.000891   -0.037842   -0.881827
     19          1           0        4.634527   -0.749261    0.000031
     20          1           0        2.842105   -1.862253   -1.206300
     21          1           0        2.842078   -1.862270    1.206306
 ---------------------------------------------------------------------

 SCF Done:  E(RHF) =  -748.010194354     A.U. after    2 cycles

 The electronic state is 1-A.
 Alpha  occ. eigenvalues --  -69.56990 -20.56625 -20.53689 -11.34703 -11.32214
 Alpha  occ. eigenvalues --  -11.26173 -11.25970 -11.25709 -11.25487 -11.25197
 Alpha  occ. eigenvalues --  -11.24792  -6.23589  -3.99091  -3.98941  -3.98915
 Alpha  occ. eigenvalues --   -1.48275  -1.47125  -1.16869  -1.05778  -1.03037
 Alpha  occ. eigenvalues --   -1.00202  -0.88334  -0.86459  -0.79272  -0.75081
 Alpha  occ. eigenvalues --   -0.71899  -0.68475  -0.66592  -0.64974  -0.62628
 Alpha  occ. eigenvalues --   -0.61688  -0.61541  -0.60724  -0.56402  -0.56243
 Alpha  occ. eigenvalues --   -0.54312  -0.52757  -0.52093  -0.49866  -0.47837
 Alpha  occ. eigenvalues --   -0.47126  -0.41953  -0.36086  -0.33695
 Alpha virt. eigenvalues --    0.03019   0.03408   0.03731   0.04550   0.04711
 Alpha virt. eigenvalues --    0.05533   0.05572   0.06194   0.06518   0.07430
 Alpha virt. eigenvalues --    0.09026   0.09228   0.09582   0.10015   0.10559

 Mulliken charges:
               1
     1  C    0.419069
     2  C    2.103010
     3  C   -0.571741
     4  C    0.414669
     5  C    0.092270
     6  C    1.197240
     7  H   -0.226402
     8  H   -0.277166
     9  O   -2.318453
    10  Si   1.301489
    11  H   -0.354155
    12  H   -0.342175
    13  C    0.454326
    14  O   -1.525078
    15  C   -0.593544
    16  H    0.310825
    17  H    0.043588
    18  H    0.310835
    19  H   -0.183725
    20  H   -0.127441
    21  H   -0.127438
 Sum of Mulliken charges =   0.00000

 Dipole moment (field-independent basis, Debye):
    X=             -0.5715    Y=              2.4485    Z=             -0.0000  Tot=              2.5143

 Test job not archived.
 1\1\GINC-SE096\SP\RHF\Aug-CC-pVDZ\C8H10O2Si1\OHZDE\09-Apr-2025\0\\#t h
 f aug-cc-pvdz iop(5/13=1,5/36=2,99/5=2) pseudo=read geom=check guess=(
 read,tcheck) scf=(maxcycle=1)\\title\\0,1\C,0,-1.595183,1.453107,-0.00
 0016\C,0,-1.252492,0.097813,-0.000024\C,0,0.097296,-0.276641,-0.000014
 \C,0,-0.590803,2.420212,0.000001\C,0,0.747202,2.048972,0.000011\C,0,1.
 094193,0.692869,0.000004\H,0,-0.852812,3.472027,0.000007\H,0,1.539893,
 2.787032,0.000025\O,0,2.425919,0.391461,0.000014\Si,0,3.200081,-1.0839
 51,0.000013\H,0,-2.632693,1.761198,-0.000023\H,0,0.328199,-1.335835,-0

 Normal termination of Gaussian 16 at Wed Apr  9 00:06:44 2025.
