 Gaussian 16, Revision C.01,

 ----------------------------------------------------------------------
 #t hf aug-cc-pvdz symm=none int=(grid=ultrafine) guess=(read,tcheck) s
 table=(opt,rrhf)
 ----------------------------------------------------------------------
 -----
 title
 -----
 Symbolic Z-matrix:
 Charge =  0 Multiplicity = 1

 SCF Done:  E(RHF) =  -810.368403760     A.U. after   12 cycles
 Normal termination of Gaussian 16 at Tue Apr  8 22:42:46 2025.
 Gaussian 16:  ES64L-G16RevC.01  3-Jul-2019

 ----------------------------------------------------------------------
 #t hf aug-cc-pvdz iop(5/13=1,5/36=2,99/5=2) pseudo=read geom=check gue
 ss=(read,tcheck) scf=(maxcycle=1)
 ----------------------------------------------------------------------
 -----
 title
 -----
 Structure from the checkpoint file:  "BDE49_expt_144_mol1.chk"
 Charge =  0 Multiplicity = 1

                         Standard orientation:
 ---------------------------------------------------------------------
 Center     Atomic      Atomic             Coordinates (Angstroms)
 Number     Number       Type             X           Y           Z
 ---------------------------------------------------------------------
      1          6           0        1.295926   -0.140716   -0.028461
      2          6           0       -0.000000    0.527379   -0.509885
      3          9           0        1.371356   -1.400915   -0.487105
      4          9           0        1.390213   -0.165844    1.305034
      5          9           0        2.346348    0.543133   -0.509077
      6          6           0       -1.295926   -0.140716   -0.028461
      7          1           0       -0.000000    0.517618   -1.602227
      8          9           0       -0.000000    1.825775   -0.061809
      9          9           0       -1.371353   -1.400917   -0.487100
     10          9           0       -2.346348    0.543130   -0.509082
     11          9           0       -1.390216   -0.165839    1.305034
 ---------------------------------------------------------------------

 SCF Done:  E(RHF) =  -811.108214747     A.U. after    2 cycles

 The electronic state is 1-A.
 Alpha  occ. eigenvalues --  -26.53711 -26.53710 -26.53430 -26.53429 -26.53356
 Alpha  occ. eigenvalues --  -26.53355 -26.51777 -11.55814 -11.55787 -11.41249
 Alpha  occ. eigenvalues --   -1.74948  -1.74210  -1.65129  -1.64497  -1.64330
 Alpha  occ. eigenvalues --   -1.64216  -1.63881  -1.12791  -1.00134  -0.93595
 Alpha  occ. eigenvalues --   -0.86913  -0.86009  -0.84962  -0.83668  -0.82639
 Alpha  occ. eigenvalues --   -0.80278  -0.75823  -0.71840  -0.71443  -0.70958
 Alpha  occ. eigenvalues --   -0.70438  -0.68921  -0.67488  -0.67058  -0.66682
 Alpha  occ. eigenvalues --   -0.65830  -0.65408  -0.64962  -0.64339  -0.58422
 Alpha  occ. eigenvalues --   -0.56735
 Alpha virt. eigenvalues --    0.03657   0.07352   0.07706   0.08578   0.10833
 Alpha virt. eigenvalues --    0.10952   0.11381   0.11696   0.12878   0.15232
 Alpha virt. eigenvalues --    0.15688   0.19288   0.21068   0.21330   0.23617

 Mulliken charges:
               1
     1  C    2.436835
     2  C    0.123785
     3  F   -0.736234
     4  F   -0.727751
     5  F   -0.738681
     6  C    2.436835
     7  H    0.192720
     8  F   -0.784842
     9  F   -0.736234
    10  F   -0.738681
    11  F   -0.727751
 Sum of Mulliken charges =  -0.00000

 Dipole moment (field-independent basis, Debye):
    X=              0.0000    Y=             -0.0106    Z=             -1.4970  Tot=              1.4971

 Test job not archived.
 1\1\GINC-SE402\SP\RHF\Aug-CC-pVDZ\C3H1F7\OHZDE\08-Apr-2025\0\\#t hf au
 g-cc-pvdz iop(5/13=1,5/36=2,99/5=2) pseudo=read geom=check guess=(read
 ,tcheck) scf=(maxcycle=1)\\title\\0,1\C,0,1.295926,-0.140716,-0.028461
 \C,0,0.,0.527379,-0.509885\F,0,1.371356,-1.400915,-0.487105\F,0,1.3902
 13,-0.165844,1.305034\F,0,2.346348,0.543133,-0.509077\C,0,-1.295926,-0
 .140716,-0.028461\H,0,0.,0.517618,-1.602227\F,0,0.,1.825775,-0.061809\
 F,0,-1.371353,-1.400917,-0.4871\F,0,-2.346348,0.54313,-0.509082\F,0,-1
 .390216,-0.165839,1.305034\\Version=ES64L-G16RevC.01\State=1-A\HF=-811

 Normal termination of Gaussian 16 at Tue Apr  8 22:42:52 2025.
