 Gaussian 16, Revision C.01,

 ----------------------------------------------------------------------
 #t hf aug-cc-pvdz symm=none int=(grid=ultrafine) guess=(read,tcheck) s
 table=(opt,rrhf)
 ----------------------------------------------------------------------
 -----
 title
 -----
 Symbolic Z-matrix:
 Charge =  0 Multiplicity = 1

 SCF Done:  E(RHF) =  -854.927853401     A.U. after   16 cycles
 Normal termination of Gaussian 16 at Tue Apr  8 23:16:45 2025.
 Gaussian 16:  ES64L-G16RevC.01  3-Jul-2019

 ----------------------------------------------------------------------
 #t hf aug-cc-pvdz iop(5/13=1,5/36=2,99/5=2) pseudo=read geom=check gue
 ss=(read,tcheck) scf=(maxcycle=1)
 ----------------------------------------------------------------------
 -----
 title
 -----
 Structure from the checkpoint file:  "BDE49_expt_858_mol1.chk"
 Charge =  0 Multiplicity = 1

                         Standard orientation:
 ---------------------------------------------------------------------
 Center     Atomic      Atomic             Coordinates (Angstroms)
 Number     Number       Type             X           Y           Z
 ---------------------------------------------------------------------
      1          6           0       -1.520036   -2.291916    0.000002
      2          6           0       -0.247322   -1.750104    0.000000
      3          6           0       -0.031108   -0.358384   -0.000001
      4          6           0       -2.623424   -1.436424    0.000002
      5          6           0       -2.439122   -0.064587    0.000001
      6          6           0       -1.154867    0.504824   -0.000001
      7          6           0        1.369725    0.140236   -0.000003
      8          1           0       -3.629843   -1.839856    0.000004
      9          1           0       -3.300083    0.594349    0.000001
     10         16           0       -1.139675    2.278137   -0.000003
     11          1           0        0.201630    2.409875   -0.000008
     12          1           0        0.616619   -2.399130    0.000000
     13          1           0       -1.654526   -3.366701    0.000003
     14          8           0        1.722328    1.305201   -0.000002
     15          8           0        2.273621   -0.860768    0.000002
     16          6           0        3.654284   -0.458057    0.000005
     17          1           0        3.880246    0.133371    0.888321
     18          1           0        3.880251    0.133364   -0.888315
     19          1           0        4.224127   -1.384454    0.000010
 ---------------------------------------------------------------------

 SCF Done:  E(RHF) =  -855.446076613     A.U. after    2 cycles

 The electronic state is 1-A.
 Alpha  occ. eigenvalues --  -93.95173 -20.59801 -20.54369 -11.40497 -11.30389
 Alpha  occ. eigenvalues --  -11.30346 -11.26923 -11.26686 -11.26515 -11.25352
 Alpha  occ. eigenvalues --  -11.25041  -8.23379  -6.21234  -6.21077  -6.20869
 Alpha  occ. eigenvalues --   -1.55412  -1.45774  -1.18272  -1.07859  -1.06196
 Alpha  occ. eigenvalues --   -0.98950  -0.96789  -0.88155  -0.83540  -0.80021
 Alpha  occ. eigenvalues --   -0.74753  -0.69920  -0.68772  -0.68139  -0.66231
 Alpha  occ. eigenvalues --   -0.64139  -0.60073  -0.59287  -0.57623  -0.54974
 Alpha  occ. eigenvalues --   -0.54017  -0.53030  -0.52773  -0.48943  -0.46764
 Alpha  occ. eigenvalues --   -0.43708  -0.42437  -0.36809  -0.31913
 Alpha virt. eigenvalues --    0.03070   0.03313   0.04060   0.05053   0.05387
 Alpha virt. eigenvalues --    0.05748   0.06157   0.07085   0.07368   0.09076
 Alpha virt. eigenvalues --    0.10446   0.10831   0.11074   0.11328   0.12224

 Mulliken charges:
               1
     1  C   -0.014464
     2  C    0.042526
     3  C    2.287633
     4  C   -0.232750
     5  C    0.081679
     6  C   -0.267323
     7  C    1.146549
     8  H   -0.217846
     9  H   -0.226142
    10  S   -0.080043
    11  H    0.437547
    12  H   -0.353476
    13  H   -0.230635
    14  O   -1.344278
    15  O   -1.556075
    16  C    0.135013
    17  H    0.199594
    18  H    0.199596
    19  H   -0.007104
 Sum of Mulliken charges =  -0.00000

 Dipole moment (field-independent basis, Debye):
    X=              0.7951    Y=             -2.8751    Z=              0.0000  Tot=              2.9830

 Test job not archived.
 1\1\GINC-SE454\SP\RHF\Aug-CC-pVDZ\C8H8O2S1\OHZDE\08-Apr-2025\0\\#t hf
 aug-cc-pvdz iop(5/13=1,5/36=2,99/5=2) pseudo=read geom=check guess=(re
 ad,tcheck) scf=(maxcycle=1)\\title\\0,1\C,0,-1.520036,-2.291916,0.0000
 02\C,0,-0.247322,-1.750104,0.\C,0,-0.031108,-0.358384,-0.000001\C,0,-2
 .623424,-1.436424,0.000002\C,0,-2.439122,-0.064587,0.000001\C,0,-1.154
 867,0.504824,-0.000001\C,0,1.369725,0.140236,-0.000003\H,0,-3.629843,-
 1.839856,0.000004\H,0,-3.300083,0.594349,0.000001\S,0,-1.139675,2.2781
 37,-0.000003\H,0,0.20163,2.409875,-0.000008\H,0,0.616619,-2.39913,0.\H

 Normal termination of Gaussian 16 at Tue Apr  8 23:16:58 2025.
