 Gaussian 16, Revision C.01,

 ----------------------------------------------------------------------
 #t hf aug-cc-pvdz symm=none int=(grid=ultrafine) guess=(read,tcheck) s
 table=(opt,rrhf)
 ----------------------------------------------------------------------
 -----
 title
 -----
 Symbolic Z-matrix:
 Charge =  0 Multiplicity = 1

 SCF Done:  E(RHF) =  -1381.72298855     A.U. after   14 cycles
 Normal termination of Gaussian 16 at Wed Apr  9 00:40:10 2025.
 Gaussian 16:  ES64L-G16RevC.01  3-Jul-2019

 ----------------------------------------------------------------------
 #t hf aug-cc-pvdz iop(5/13=1,5/36=2,99/5=2) pseudo=read geom=check gue
 ss=(read,tcheck) scf=(maxcycle=1)
 ----------------------------------------------------------------------
 -----
 title
 -----
 Structure from the checkpoint file:  "BDE49_nonexpt_635_mol1.chk"
 Charge =  0 Multiplicity = 1

                         Standard orientation:
 ---------------------------------------------------------------------
 Center     Atomic      Atomic             Coordinates (Angstroms)
 Number     Number       Type             X           Y           Z
 ---------------------------------------------------------------------
      1          8           0        1.174517    0.633278   -0.465204
      2          5           0        2.349337   -0.059357   -0.104971
      3          8           0        3.396411    0.769931    0.109688
      4          8           0        2.435057   -1.405810    0.006105
      5          8           0        0.103988   -0.326356   -0.695852
      6          6           0       -0.936607   -0.017323    0.152811
      7          9           0       -0.548981   -0.098936    1.439851
      8         17           0       -2.142104   -1.287287   -0.182974
      9         17           0       -1.615014    1.610219   -0.119174
     10          1           0        4.196629    0.289695    0.341354
     11          1           0        1.608376   -1.856737   -0.193392
 ---------------------------------------------------------------------

 SCF Done:  E(RHF) =  -1382.31376179     A.U. after    2 cycles

 The electronic state is 1-A.
 Alpha  occ. eigenvalues -- -105.61230-105.60350 -26.52869 -20.68657 -20.65299
 Alpha  occ. eigenvalues --  -20.58344 -20.57716 -11.54085 -10.66104 -10.65218
 Alpha  occ. eigenvalues --   -7.83054  -7.82608  -7.82599  -7.82170  -7.81720
 Alpha  occ. eigenvalues --   -7.81719  -7.70155  -1.69370  -1.63536  -1.50754
 Alpha  occ. eigenvalues --   -1.47177  -1.37155  -1.15485  -1.09072  -0.90224
 Alpha  occ. eigenvalues --   -0.81680  -0.79321  -0.78340  -0.76935  -0.74441
 Alpha  occ. eigenvalues --   -0.71510  -0.65573  -0.64728  -0.61595  -0.59395
 Alpha  occ. eigenvalues --   -0.58397  -0.57715  -0.53889  -0.52672  -0.52121
 Alpha  occ. eigenvalues --   -0.51255  -0.50790  -0.49420  -0.47975
 Alpha virt. eigenvalues --    0.03831   0.04919   0.05549   0.05988   0.07807
 Alpha virt. eigenvalues --    0.08504   0.08938   0.10071   0.11285   0.12237
 Alpha virt. eigenvalues --    0.13487   0.14901   0.15366   0.15683   0.16378

 Mulliken charges:
               1
     1  O   -0.471822
     2  B    1.896288
     3  O   -1.091889
     4  O   -1.134059
     5  O   -0.824105
     6  C    1.230071
     7  F   -0.664373
     8  Cl  -0.003230
     9  Cl   0.063086
    10  H    0.413059
    11  H    0.586973
 Sum of Mulliken charges =  -0.00000

 Dipole moment (field-independent basis, Debye):
    X=              0.7568    Y=             -1.5785    Z=              0.0765  Tot=              1.7522

 Test job not archived.
 1\1\GINC-SE328\SP\RHF\Aug-CC-pVDZ\C1H2B1Cl2F1O4\OHZDE\09-Apr-2025\0\\#
 t hf aug-cc-pvdz iop(5/13=1,5/36=2,99/5=2) pseudo=read geom=check gues
 s=(read,tcheck) scf=(maxcycle=1)\\title\\0,1\O,0,1.174517,0.633278,-0.
 465204\B,0,2.349337,-0.059357,-0.104971\O,0,3.396411,0.769931,0.109688
 \O,0,2.435057,-1.40581,0.006105\O,0,0.103988,-0.326356,-0.695852\C,0,-
 0.936607,-0.017323,0.152811\F,0,-0.548981,-0.098936,1.439851\Cl,0,-2.1
 42104,-1.287286,-0.182974\Cl,0,-1.615014,1.610219,-0.119174\H,0,4.1966
 29,0.289694,0.341354\H,0,1.608376,-1.856737,-0.193392\\Version=ES64L-G

 Normal termination of Gaussian 16 at Wed Apr  9 00:40:16 2025.
