 Gaussian 16, Revision C.01,

 ----------------------------------------------------------------------
 #t hf aug-cc-pvdz symm=none int=(grid=ultrafine) guess=(read,tcheck) s
 table=(opt,rrhf)
 ----------------------------------------------------------------------
 -----
 title
 -----
 Symbolic Z-matrix:
 Charge =  0 Multiplicity = 1

 SCF Done:  E(RHF) =  -1253.56375440     A.U. after   15 cycles
 Normal termination of Gaussian 16 at Wed Apr  9 00:27:56 2025.
 Gaussian 16:  ES64L-G16RevC.01  3-Jul-2019

 ----------------------------------------------------------------------
 #t hf aug-cc-pvdz iop(5/13=1,5/36=2,99/5=2) pseudo=read geom=check gue
 ss=(read,tcheck) scf=(maxcycle=1)
 ----------------------------------------------------------------------
 -----
 title
 -----
 Structure from the checkpoint file:  "BDE49_nonexpt_2713_mol1.chk"
 Charge =  0 Multiplicity = 1

                         Standard orientation:
 ---------------------------------------------------------------------
 Center     Atomic      Atomic             Coordinates (Angstroms)
 Number     Number       Type             X           Y           Z
 ---------------------------------------------------------------------
      1         16           0       -0.878523    1.419535    0.541133
      2         16           0        0.878522    1.419534   -0.541140
      3          6           0        1.815318    0.044760    0.244753
      4          6           0       -1.815323    0.044765   -0.244763
      5          8           0       -1.373768   -0.632770   -1.129450
      6          8           0        1.373783   -0.632739    1.129478
      7          6           0       -3.155136   -0.107508    0.374928
      8          6           0       -4.279617   -0.614927   -0.517110
      9          6           0       -3.696864   -1.524592    0.509111
     10          1           0       -4.016277   -0.791975   -1.552174
     11          1           0       -5.261430   -0.190776   -0.348238
     12          1           0       -4.265550   -1.742709    1.404239
     13          1           0       -3.039984   -2.314017    0.166768
     14          1           0       -3.408576    0.602588    1.152861
     15          6           0        3.155128   -0.107521   -0.374942
     16          6           0        4.279617   -0.614912    0.517100
     17          6           0        3.696863   -1.524605   -0.509095
     18          1           0        3.408559    0.602558   -1.152894
     19          1           0        4.265543   -1.742741   -1.404221
     20          1           0        3.039988   -2.314025   -0.166728
     21          1           0        4.016285   -0.791936    1.552170
     22          1           0        5.261428   -0.190760    0.348211
 ---------------------------------------------------------------------

 SCF Done:  E(RHF) =  -1254.14893859     A.U. after    2 cycles

 The electronic state is 1-A.
 Alpha  occ. eigenvalues --  -93.98871 -93.98861 -20.55027 -20.55027 -11.37873
 Alpha  occ. eigenvalues --  -11.37872 -11.26668 -11.26667 -11.25924 -11.25923
 Alpha  occ. eigenvalues --  -11.25866 -11.25864  -8.26896  -8.26870  -6.24696
 Alpha  occ. eigenvalues --   -6.24653  -6.24456  -6.24445  -6.24244  -6.24244
 Alpha  occ. eigenvalues --   -1.49470  -1.49319  -1.17139  -1.17121  -1.11393
 Alpha  occ. eigenvalues --   -1.00336  -0.92603  -0.86259  -0.84421  -0.84413
 Alpha  occ. eigenvalues --   -0.75721  -0.75015  -0.71161  -0.69187  -0.67760
 Alpha  occ. eigenvalues --   -0.67170  -0.63447  -0.61155  -0.58390  -0.57986
 Alpha  occ. eigenvalues --   -0.57982  -0.57147  -0.53680  -0.53605  -0.50359
 Alpha  occ. eigenvalues --   -0.47017  -0.45618  -0.43996  -0.43834  -0.42652
 Alpha  occ. eigenvalues --   -0.42132  -0.38626  -0.37536
 Alpha virt. eigenvalues --    0.03363   0.03468   0.04344   0.04364   0.04816
 Alpha virt. eigenvalues --    0.04842   0.05514   0.06582   0.07163   0.08135
 Alpha virt. eigenvalues --    0.09003   0.09711   0.09908   0.10204   0.11187

 Mulliken charges:
               1
     1  S    0.075134
     2  S    0.075127
     3  C    0.607522
     4  C    0.607504
     5  O   -1.290904
     6  O   -1.290912
     7  C    0.706009
     8  C    0.237881
     9  C    0.218528
    10  H   -0.097002
    11  H   -0.128596
    12  H   -0.129403
    13  H   -0.089752
    14  H   -0.109401
    15  C    0.706009
    16  C    0.237877
    17  C    0.218529
    18  H   -0.109400
    19  H   -0.129407
    20  H   -0.089748
    21  H   -0.097003
    22  H   -0.128593
 Sum of Mulliken charges =  -0.00000

 Dipole moment (field-independent basis, Debye):
    X=             -0.0000    Y=             -0.2148    Z=             -0.0000  Tot=              0.2148

 Test job not archived.
 1\1\GINC-SE253\SP\RHF\Aug-CC-pVDZ\C8H10O2S2\OHZDE\09-Apr-2025\0\\#t hf
  aug-cc-pvdz iop(5/13=1,5/36=2,99/5=2) pseudo=read geom=check guess=(r
 ead,tcheck) scf=(maxcycle=1)\\title\\0,1\S,0,0.878523,1.419535,-0.5411
 33\S,0,-0.878522,1.419534,0.54114\C,0,-1.815318,0.04476,-0.244753\C,0,
 1.815323,0.044765,0.244763\O,0,1.373768,-0.63277,1.12945\O,0,-1.373783
 ,-0.632739,-1.129478\C,0,3.155136,-0.107508,-0.374928\C,0,4.279617,-0.
 614927,0.51711\C,0,3.696864,-1.524592,-0.509111\H,0,4.016277,-0.791975
 ,1.552174\H,0,5.26143,-0.190776,0.348238\H,0,4.26555,-1.742709,-1.4042

 Normal termination of Gaussian 16 at Wed Apr  9 00:28:12 2025.
