 Gaussian 16, Revision C.01,

 ----------------------------------------------------------------------
 #t hf aug-cc-pvdz symm=none int=(grid=ultrafine) guess=(read,tcheck) s
 table=opt
 ----------------------------------------------------------------------
 -----
 title
 -----
 Symbolic Z-matrix:
 Charge =  0 Multiplicity = 2

 SCF Done:  E(UHF) =  -877.541279226     A.U. after   14 cycles

 1\1\GINC-SE082\Stability\UHF\Aug-CC-pVDZ\F3H2Si2\OHZDE\08-Apr-2025\0\\
 #t hf aug-cc-pvdz symm=none int=(grid=ultrafine) guess=(read,tcheck) s
 table=opt\\title\\0,2\Si,0,1.932082,0.,-0.072754\Si,0,-0.390201,0.,0.0
 04425\F,0,-0.970658,-1.282114,-0.736839\F,0,-1.018021,-0.000001,1.4672
 15\F,0,-0.970658,1.282115,-0.736837\H,0,2.523855,-1.226443,0.507375\H,
 0,2.523855,1.226443,0.507376\\Version=ES64L-G16RevC.01\HF=-877.5412792
 \S2=0.757892\S2-1=0.\S2A=0.750025\RMSD=7.871e-09\Dipole=1.0012873,0.,0
 .0220628\Quadrupole=1.5172128,-0.5920759,-0.925137,-0.0000012,0.102331

 Normal termination of Gaussian 16 at Tue Apr  8 23:56:24 2025.
 Gaussian 16:  ES64L-G16RevC.01  3-Jul-2019

 ----------------------------------------------------------------------
 #t hf aug-cc-pvdz iop(5/13=1,5/36=2,99/5=2) pseudo=read geom=check gue
 ss=(read,tcheck) scf=(maxcycle=1)
 ----------------------------------------------------------------------
 -----
 title
 -----
 Structure from the checkpoint file:  "BDE49_nonexpt_2018_mol2.chk"
 Charge =  0 Multiplicity = 2

                         Standard orientation:
 ---------------------------------------------------------------------
 Center     Atomic      Atomic             Coordinates (Angstroms)
 Number     Number       Type             X           Y           Z
 ---------------------------------------------------------------------
      1         14           0        1.932082   -0.000000   -0.072754
      2         14           0       -0.390201    0.000000    0.004425
      3          9           0       -0.970658   -1.282114   -0.736839
      4          9           0       -1.018021   -0.000001    1.467215
      5          9           0       -0.970658    1.282115   -0.736837
      6          1           0        2.523855   -1.226443    0.507375
      7          1           0        2.523855    1.226443    0.507376
 ---------------------------------------------------------------------

 SCF Done:  E(UHF) =  -877.870559782     A.U. after    2 cycles

 The electronic state is 2-A.
 Alpha  occ. eigenvalues --  -69.67877 -69.56793 -26.48095 -26.48094 -26.48050
 Alpha  occ. eigenvalues --   -6.33690  -6.24124  -4.08981  -4.08974  -4.08698
 Alpha  occ. eigenvalues --   -4.00103  -3.99165  -3.99147  -1.61927  -1.58519
 Alpha  occ. eigenvalues --   -1.58478  -0.83249  -0.77161  -0.72852  -0.72838
 Alpha  occ. eigenvalues --   -0.69210  -0.66865  -0.66822  -0.64014  -0.63973
 Alpha  occ. eigenvalues --   -0.62293  -0.52751  -0.48597  -0.36724
 Alpha virt. eigenvalues --    0.03416   0.04941   0.05679   0.06306   0.06971
 Alpha virt. eigenvalues --    0.07693   0.07694   0.08133   0.11799   0.12993
 Alpha virt. eigenvalues --    0.14421   0.15362   0.16031   0.17769   0.18488

  Beta  occ. eigenvalues --  -69.67872 -69.56218 -26.48110 -26.48110 -26.47959
  Beta  occ. eigenvalues --   -6.33681  -6.23268  -4.08973  -4.08960  -4.08696
  Beta  occ. eigenvalues --   -3.98758  -3.98729  -3.97865  -1.61878  -1.58566
  Beta  occ. eigenvalues --   -1.58319  -0.82366  -0.73911  -0.72871  -0.72676
  Beta  occ. eigenvalues --   -0.68106  -0.66881  -0.66638  -0.64013  -0.63820
  Beta  occ. eigenvalues --   -0.62239  -0.52196  -0.47580
  Beta virt. eigenvalues --   -0.00518   0.03680   0.05027   0.05775   0.07179
  Beta virt. eigenvalues --    0.07644   0.07777   0.08402   0.08624   0.13034
  Beta virt. eigenvalues --    0.13533   0.16206   0.17114   0.17966   0.19045

 Mulliken charges and spin densities:
               1          2
     1  Si   0.112047   1.103660
     2  Si   2.579562  -0.040509
     3  F   -0.807750   0.006553
     4  F   -0.822268  -0.031847
     5  F   -0.807750   0.006553
     6  H   -0.126920  -0.022205
     7  H   -0.126920  -0.022205
 Sum of Mulliken charges =   0.00000   1.00000

 Dipole moment (field-independent basis, Debye):
    X=              2.3790    Y=             -0.0000    Z=              0.0984  Tot=              2.3811
                          Isotropic Fermi Contact Couplings
        Atom                 a.u.       MegaHertz       Gauss      10(-4) cm-1
     1  Si(29)             0.53960    -479.55871    -171.11847    -159.96357
     2  Si(29)             0.01143     -10.16008      -3.62537      -3.38904
     3  F(19)             -0.00445     -18.71210      -6.67694      -6.24169
     4  F(19)              0.02171      91.33399      32.59024      30.46574
     5  F(19)             -0.00445     -18.71209      -6.67694      -6.24168
     6  H(1)              -0.00405     -18.08450      -6.45300      -6.03234
     7  H(1)              -0.00405     -18.08451      -6.45300      -6.03234
 --------------------------------------------------------

 Normal termination of Gaussian 16 at Tue Apr  8 23:56:27 2025.
