 Gaussian 16, Revision C.01,

 ----------------------------------------------------------------------
 #t hf aug-cc-pvdz symm=none int=(grid=ultrafine) guess=(read,tcheck) s
 table=(opt,rrhf)
 ----------------------------------------------------------------------
 -----
 title
 -----
 Symbolic Z-matrix:
 Charge =  0 Multiplicity = 1

 SCF Done:  E(RHF) =  -854.909322518     A.U. after   17 cycles
 Normal termination of Gaussian 16 at Tue Apr  8 23:16:56 2025.
 Gaussian 16:  ES64L-G16RevC.01  3-Jul-2019

 ----------------------------------------------------------------------
 #t hf aug-cc-pvdz iop(5/13=1,5/36=2,99/5=2) pseudo=read geom=check gue
 ss=(read,tcheck) scf=(maxcycle=1)
 ----------------------------------------------------------------------
 -----
 title
 -----
 Structure from the checkpoint file:  "BDE49_expt_848_mol1.chk"
 Charge =  0 Multiplicity = 1

                         Standard orientation:
 ---------------------------------------------------------------------
 Center     Atomic      Atomic             Coordinates (Angstroms)
 Number     Number       Type             X           Y           Z
 ---------------------------------------------------------------------
      1          6           0       -0.173611    1.229043    0.097706
      2          6           0       -1.541420    0.990888    0.126959
      3          6           0       -2.018908   -0.316075   -0.032782
      4          6           0       -1.109226   -1.366518   -0.223327
      5          6           0        0.250806   -1.117431   -0.235758
      6          6           0        0.744443    0.185428   -0.066157
      7          1           0        0.205629    2.237445    0.205873
      8          1           0       -2.220991    1.819860    0.269419
      9          1           0       -1.500251   -2.366017   -0.366777
     10          1           0        0.928058   -1.942454   -0.416202
     11          8           0       -3.327582   -0.665571   -0.025362
     12          6           0        2.184523    0.560395   -0.098981
     13          8           0        2.570716    1.681379   -0.318446
     14         16           0        3.470068   -0.691614    0.219615
     15          1           0        2.695773   -1.693736    0.663125
     16          6           0       -4.310137    0.351034    0.149516
     17          1           0       -4.196617    0.853064    1.115834
     18          1           0       -5.270385   -0.159962    0.118856
     19          1           0       -4.266188    1.090573   -0.656560
 ---------------------------------------------------------------------

 SCF Done:  E(RHF) =  -855.426979528     A.U. after    2 cycles

 The electronic state is 1-A.
 Alpha  occ. eigenvalues --  -93.97123 -20.59372 -20.54606 -11.38142 -11.33524
 Alpha  occ. eigenvalues --  -11.31167 -11.27596 -11.27178 -11.26215 -11.25713
 Alpha  occ. eigenvalues --  -11.25424  -8.25277  -6.23104  -6.22954  -6.22739
 Alpha  occ. eigenvalues --   -1.51916  -1.48939  -1.17841  -1.07400  -1.04901
 Alpha  occ. eigenvalues --   -1.02875  -0.97238  -0.87217  -0.86376  -0.78601
 Alpha  occ. eigenvalues --   -0.74697  -0.70648  -0.69509  -0.67453  -0.65660
 Alpha  occ. eigenvalues --   -0.63086  -0.62361  -0.60679  -0.58559  -0.58105
 Alpha  occ. eigenvalues --   -0.54696  -0.54434  -0.51480  -0.50656  -0.48424
 Alpha  occ. eigenvalues --   -0.41859  -0.39236  -0.37224  -0.33970
 Alpha virt. eigenvalues --    0.02773   0.03255   0.03800   0.04680   0.05123
 Alpha virt. eigenvalues --    0.05715   0.06278   0.07090   0.08281   0.08831
 Alpha virt. eigenvalues --    0.09039   0.09229   0.10396   0.11541   0.11890

 Mulliken charges:
               1
     1  C   -0.306949
     2  C    0.150026
     3  C    1.569908
     4  C   -0.100637
     5  C    0.809494
     6  C    1.375033
     7  H   -0.320974
     8  H   -0.415967
     9  H   -0.306116
    10  H   -0.272309
    11  O   -1.856105
    12  C    0.328073
    13  O   -1.411712
    14  S   -0.006395
    15  H    0.336551
    16  C    0.096692
    17  H    0.184128
    18  H   -0.037184
    19  H    0.184446
 Sum of Mulliken charges =  -0.00000

 Dipole moment (field-independent basis, Debye):
    X=             -4.6784    Y=             -1.3593    Z=              0.7657  Tot=              4.9316

 Test job not archived.
 1\1\GINC-SE143\SP\RHF\Aug-CC-pVDZ\C8H8O2S1\OHZDE\08-Apr-2025\0\\#t hf
 aug-cc-pvdz iop(5/13=1,5/36=2,99/5=2) pseudo=read geom=check guess=(re
 ad,tcheck) scf=(maxcycle=1)\\title\\0,1\C,0,-0.173611,1.229043,0.09770
 6\C,0,-1.54142,0.990888,0.126959\C,0,-2.018908,-0.316075,-0.032782\C,0
 ,-1.109226,-1.366518,-0.223327\C,0,0.250806,-1.117431,-0.235758\C,0,0.
 744443,0.185428,-0.066157\H,0,0.205629,2.237445,0.205873\H,0,-2.220991
 ,1.81986,0.269419\H,0,-1.500251,-2.366017,-0.366777\H,0,0.928058,-1.94
 2454,-0.416202\O,0,-3.327582,-0.665571,-0.025362\C,0,2.184523,0.560395

 Normal termination of Gaussian 16 at Tue Apr  8 23:17:09 2025.
