 Gaussian 16, Revision C.01,

 ----------------------------------------------------------------------
 #t hf aug-cc-pvdz symm=none int=(grid=ultrafine) guess=(read,tcheck) s
 table=(opt,rrhf)
 ----------------------------------------------------------------------
 -----
 title
 -----
 Symbolic Z-matrix:
 Charge =  0 Multiplicity = 1

 SCF Done:  E(RHF) =  -572.331336689     A.U. after   15 cycles
 Normal termination of Gaussian 16 at Tue Apr  8 23:29:29 2025.
 Gaussian 16:  ES64L-G16RevC.01  3-Jul-2019

 ----------------------------------------------------------------------
 #t hf aug-cc-pvdz iop(5/13=1,5/36=2,99/5=2) pseudo=read geom=check gue
 ss=(read,tcheck) scf=(maxcycle=1)
 ----------------------------------------------------------------------
 -----
 title
 -----
 Structure from the checkpoint file:  "BDE49_nonexpt_1344_mol1.chk"
 Charge =  0 Multiplicity = 1

                         Standard orientation:
 ---------------------------------------------------------------------
 Center     Atomic      Atomic             Coordinates (Angstroms)
 Number     Number       Type             X           Y           Z
 ---------------------------------------------------------------------
      1          6           0        2.541693    0.176106    0.808054
      2          6           0        1.973963   -0.366473   -0.507015
      3          1           0        1.978576    1.046864    1.149976
      4          1           0        3.583727    0.482244    0.685472
      5          1           0        2.510083   -0.582795    1.596586
      6          6           0        0.523750   -0.848295   -0.394938
      7          1           0        2.588132   -1.202711   -0.856275
      8          1           0        2.026330    0.408431   -1.276398
      9          6           0       -0.498677    0.269825   -0.235836
     10          1           0        0.399968   -1.555192    0.435577
     11          1           0        0.228168   -1.402841   -1.295390
     12          8           0       -0.242502    1.434531   -0.417097
     13         15           0       -2.222497   -0.215199    0.384817
     14          1           0       -2.360562   -1.418041   -0.352555
     15          1           0       -2.921327    0.588801   -0.544058
 ---------------------------------------------------------------------

 SCF Done:  E(RHF) =  -572.618041904     A.U. after    2 cycles

 The electronic state is 1-A.
 Alpha  occ. eigenvalues --  -84.28741 -20.54912 -11.35252 -11.25568 -11.23807
 Alpha  occ. eigenvalues --  -11.22466  -6.75936  -4.28449  -4.28358  -4.27566
 Alpha  occ. eigenvalues --   -1.48453  -1.08363  -0.98280  -0.90364  -0.82811
 Alpha  occ. eigenvalues --   -0.73712  -0.66428  -0.63997  -0.61797  -0.58966
 Alpha  occ. eigenvalues --   -0.56282  -0.53474  -0.52239  -0.49739  -0.49262
 Alpha  occ. eigenvalues --   -0.48824  -0.40710  -0.35094
 Alpha virt. eigenvalues --    0.03276   0.03924   0.04228   0.04712   0.06134
 Alpha virt. eigenvalues --    0.06691   0.06828   0.07600   0.08315   0.09675
 Alpha virt. eigenvalues --    0.10491   0.10999   0.11880   0.13236   0.14409

 Mulliken charges:
               1
     1  C   -0.339990
     2  C   -0.250972
     3  H    0.151806
     4  H    0.117677
     5  H    0.160334
     6  C   -0.585703
     7  H    0.138294
     8  H    0.164374
     9  C    0.763656
    10  H    0.232111
    11  H    0.229821
    12  O   -1.252068
    13  P   -0.367293
    14  H    0.418213
    15  H    0.419740
 Sum of Mulliken charges =  -0.00000

 Dipole moment (field-independent basis, Debye):
    X=             -0.0826    Y=             -2.6169    Z=             -0.2049  Tot=              2.6262

 Test job not archived.
 1\1\GINC-SE103\SP\RHF\Aug-CC-pVDZ\C4H9O1P1\OHZDE\08-Apr-2025\0\\#t hf
 aug-cc-pvdz iop(5/13=1,5/36=2,99/5=2) pseudo=read geom=check guess=(re
 ad,tcheck) scf=(maxcycle=1)\\title\\0,1\C,0,2.541693,0.176106,0.808054
 \C,0,1.973963,-0.366473,-0.507015\H,0,1.978576,1.046864,1.149976\H,0,3
 .583727,0.482244,0.685472\H,0,2.510083,-0.582795,1.596586\C,0,0.52375,
 -0.848295,-0.394938\H,0,2.588132,-1.202711,-0.856275\H,0,2.02633,0.408
 431,-1.276398\C,0,-0.498677,0.269825,-0.235836\H,0,0.399968,-1.555192,
 0.435577\H,0,0.228168,-1.402841,-1.29539\O,0,-0.242502,1.434531,-0.417

 Normal termination of Gaussian 16 at Tue Apr  8 23:29:36 2025.
