 Gaussian 16, Revision C.01,

 ----------------------------------------------------------------------
 #t hf aug-cc-pvdz symm=none int=(grid=ultrafine) guess=(read,tcheck) s
 table=(opt,rrhf)
 ----------------------------------------------------------------------
 -----
 title
 -----
 Symbolic Z-matrix:
 Charge =  0 Multiplicity = 1

 SCF Done:  E(RHF) =  -997.089528619     A.U. after   12 cycles

 1\1\GINC-SE097\Stability\RHF\Aug-CC-pVDZ\C2H4Cl2\OHZDE\08-Apr-2025\0\\
 #t hf aug-cc-pvdz symm=none int=(grid=ultrafine) guess=(read,tcheck) s
 table=(opt,rrhf)\\title\\0,1\C,0,-0.477575,0.588155,0.\C,0,0.477575,-0
 .588155,0.\Cl,0,0.477575,2.13178,0.\H,0,-1.10141,0.600674,0.890691\H,0
 ,-1.10141,0.600674,-0.890691\H,0,1.10141,-0.600674,0.890691\H,0,1.1014
 1,-0.600674,-0.890691\Cl,0,-0.477575,-2.13178,0.\\Version=ES64L-G16Rev
 C.01\HF=-997.0895286\RMSD=2.649e-09\Dipole=0.,0.,0.\Quadrupole=2.30599
 28,-4.3609618,2.0549689,-1.8150534,0.,0.\PG=Unknown\\@

 Normal termination of Gaussian 16 at Tue Apr  8 22:29:38 2025.
 Gaussian 16:  ES64L-G16RevC.01  3-Jul-2019

 ----------------------------------------------------------------------
 #t hf aug-cc-pvdz iop(5/13=1,5/36=2,99/5=2) pseudo=read geom=check gue
 ss=(read,tcheck) scf=(maxcycle=1)
 ----------------------------------------------------------------------
 -----
 title
 -----
 Structure from the checkpoint file:  "BDE49_expt_1018_mol1.chk"
 Charge =  0 Multiplicity = 1

                         Standard orientation:
 ---------------------------------------------------------------------
 Center     Atomic      Atomic             Coordinates (Angstroms)
 Number     Number       Type             X           Y           Z
 ---------------------------------------------------------------------
      1          6           0       -0.477575    0.588155    0.000000
      2          6           0        0.477575   -0.588155    0.000000
      3         17           0        0.477575    2.131780    0.000000
      4          1           0       -1.101410    0.600674    0.890691
      5          1           0       -1.101410    0.600674   -0.890691
      6          1           0        1.101410   -0.600674    0.890691
      7          1           0        1.101410   -0.600674   -0.890691
      8         17           0       -0.477575   -2.131780    0.000000
 ---------------------------------------------------------------------

 SCF Done:  E(RHF) =  -997.327956878     A.U. after    2 cycles

 The electronic state is 1-AG.
 Alpha  occ. eigenvalues -- -105.57101-105.57100 -11.32739 -11.32711 -10.61891
 Alpha  occ. eigenvalues --  -10.61890  -7.78829  -7.78826  -7.78459  -7.78455
 Alpha  occ. eigenvalues --   -7.78444  -7.78443  -1.15542  -1.07894  -0.95693
 Alpha  occ. eigenvalues --   -0.85825  -0.69876  -0.62312  -0.61261  -0.58822
 Alpha  occ. eigenvalues --   -0.53314  -0.47270  -0.46040  -0.45815  -0.45263
 Alpha virt. eigenvalues --    0.03947   0.04513   0.04681   0.06826   0.06954
 Alpha virt. eigenvalues --    0.09929   0.11527   0.13440   0.14404   0.15257
 Alpha virt. eigenvalues --    0.15644   0.15668   0.16645   0.17603   0.18815

 Mulliken charges:
               1
     1  C   -0.435683
     2  C   -0.435683
     3  Cl  -0.069348
     4  H    0.252515
     5  H    0.252515
     6  H    0.252515
     7  H    0.252515
     8  Cl  -0.069348
 Sum of Mulliken charges =   0.00000

 Dipole moment (field-independent basis, Debye):
    X=             -0.0000    Y=             -0.0000    Z=              0.0000  Tot=              0.0000

 Test job not archived.
 1\1\GINC-SE097\SP\RHF\Aug-CC-pVDZ\C2H4Cl2\OHZDE\08-Apr-2025\0\\#t hf a
 ug-cc-pvdz iop(5/13=1,5/36=2,99/5=2) pseudo=read geom=check guess=(rea
 d,tcheck) scf=(maxcycle=1)\\title\\0,1\C,0,-0.477575,0.588155,0.\C,0,0
 .477575,-0.588155,0.\Cl,0,0.477575,2.13178,0.\H,0,-1.10141,0.600674,0.
 890691\H,0,-1.10141,0.600674,-0.890691\H,0,1.10141,-0.600674,0.890691\
 H,0,1.10141,-0.600674,-0.890691\Cl,0,-0.477575,-2.13178,0.\\Version=ES
 64L-G16RevC.01\State=1-AG\HF=-997.3279569\RMSD=6.249e-03\Dipole=0.,0.,
 0.\Quadrupole=2.2885945,-4.3005103,2.0119158,-1.8009409,0.,0.\PG=C02H

 Normal termination of Gaussian 16 at Tue Apr  8 22:29:40 2025.
