 Gaussian 16, Revision C.01,

 ----------------------------------------------------------------------
 #t hf aug-cc-pvdz symm=none int=(grid=ultrafine) guess=(read,tcheck) s
 table=opt
 ----------------------------------------------------------------------
 -----
 title
 -----
 Symbolic Z-matrix:
 Charge =  0 Multiplicity = 2

 SCF Done:  E(UHF) =  -736.470358592     a.u. after    8 cycles
 Normal termination of Gaussian 16 at Tue Apr  8 23:19:44 2025.
 Gaussian 16:  ES64L-G16RevC.01  3-Jul-2019

 ----------------------------------------------------------------------
 #t hf aug-cc-pvdz iop(5/13=1,5/36=2,99/5=2) pseudo=read geom=check gue
 ss=(read,tcheck) scf=(maxcycle=1)
 ----------------------------------------------------------------------
 -----
 title
 -----
 Structure from the checkpoint file:  "BDE49_nonexpt_1063_mol2.chk"
 Charge =  0 Multiplicity = 2

                         Standard orientation:
 ---------------------------------------------------------------------
 Center     Atomic      Atomic             Coordinates (Angstroms)
 Number     Number       Type             X           Y           Z
 ---------------------------------------------------------------------
      1          8           0       -1.484910    1.035794   -0.000004
      2         16           0       -0.481446    0.021425    0.000000
      3          8           0       -0.475336   -0.916023   -1.147426
      4          8           0        0.900398    0.801579   -0.000006
      5          6           0        2.122049    0.012554   -0.000003
      6          1           0        2.923265    0.746791   -0.000009
      7          1           0        2.164515   -0.603821   -0.897961
      8          1           0        2.164518   -0.603809    0.897964
      9          8           0       -0.475334   -0.916010    1.147437
 ---------------------------------------------------------------------

 SCF Done:  E(UHF) =  -736.862141024     A.U. after    2 cycles

 The electronic state is 2-A.
 Alpha  occ. eigenvalues --  -94.29654 -20.72826 -20.64181 -20.59659 -20.58082
 Alpha  occ. eigenvalues --  -11.33867  -8.54070  -6.52203  -6.52074  -6.52005
 Alpha  occ. eigenvalues --   -1.72284  -1.57314  -1.51555  -1.48515  -1.02540
 Alpha  occ. eigenvalues --   -0.91311  -0.81471  -0.79626  -0.76914  -0.70394
 Alpha  occ. eigenvalues --   -0.69141  -0.65958  -0.63569  -0.58751  -0.57828
 Alpha  occ. eigenvalues --   -0.54904  -0.52826  -0.52060  -0.49894
 Alpha virt. eigenvalues --    0.02848   0.04715   0.05407   0.07859   0.10299
 Alpha virt. eigenvalues --    0.10766   0.11203   0.13131   0.14743   0.15613
 Alpha virt. eigenvalues --    0.17171   0.19901   0.20724   0.22434   0.23023

  Beta  occ. eigenvalues --  -94.29760 -20.69153 -20.64211 -20.58368 -20.57936
  Beta  occ. eigenvalues --  -11.33869  -8.54218  -6.52425  -6.52242  -6.52139
  Beta  occ. eigenvalues --   -1.67979  -1.52620  -1.49111  -1.44499  -1.02246
  Beta  occ. eigenvalues --   -0.88774  -0.79407  -0.75663  -0.72410  -0.68605
  Beta  occ. eigenvalues --   -0.65647  -0.62314  -0.57860  -0.54700  -0.53539
  Beta  occ. eigenvalues --   -0.52293  -0.49294  -0.48512
  Beta virt. eigenvalues --   -0.03536   0.02858   0.04749   0.05491   0.07978
  Beta virt. eigenvalues --    0.10379   0.11203   0.11347   0.13144   0.14759
  Beta virt. eigenvalues --    0.15716   0.17249   0.20168   0.20832   0.22674

 Mulliken charges and spin densities:
               1          2
     1  O   -1.285073   0.030816
     2  S    4.321667  -0.231685
     3  O   -0.936341   0.934256
     4  O   -1.467237  -0.002441
     5  C    0.181236  -0.000358
     6  H    0.030267   0.000058
     7  H    0.192986  -0.001630
     8  H    0.215578  -0.000154
     9  O   -1.253083   0.271137
 Sum of Mulliken charges =   0.00000   1.00000

 Dipole moment (field-independent basis, Debye):
    X=              4.0473    Y=             -0.7090    Z=             -1.6665  Tot=              4.4340
                          Isotropic Fermi Contact Couplings
        Atom                 a.u.       MegaHertz       Gauss      10(-4) cm-1
     1  O(17)              0.00461      -2.79749      -0.99821      -0.93314
     2  S(33)             -0.12462     -42.80226     -15.27291     -14.27730
     3  O(17)              0.20394    -123.62893     -44.11388     -41.23817
     4  O(17)             -0.00518       3.14263       1.12137       1.04827
     5  C(13)             -0.00088      -0.98418      -0.35118      -0.32829
     6  H(1)              -0.00004      -0.18160      -0.06480      -0.06057
     7  H(1)               0.00011       0.49267       0.17580       0.16434
     8  H(1)               0.00001       0.03597       0.01284       0.01200

 Normal termination of Gaussian 16 at Tue Apr  8 23:19:49 2025.
