 Gaussian 16, Revision C.01,

 ----------------------------------------------------------------------
 #t hf aug-cc-pvdz symm=none int=(grid=ultrafine) guess=(read,tcheck) s
 table=opt
 ----------------------------------------------------------------------
 -----
 title
 -----
 Symbolic Z-matrix:
 Charge =  0 Multiplicity = 2

 SCF Done:  E(UHF) =  -984.319517069     A.U. after   18 cycles
 Normal termination of Gaussian 16 at Wed Apr  9 00:18:39 2025.
 Gaussian 16:  ES64L-G16RevC.01  3-Jul-2019

 ----------------------------------------------------------------------
 #t hf aug-cc-pvdz iop(5/13=1,5/36=2,99/5=2) pseudo=read geom=check gue
 ss=(read,tcheck) scf=(maxcycle=1)
 ----------------------------------------------------------------------
 -----
 title
 -----
 Structure from the checkpoint file:  "BDE49_nonexpt_2579_mol2.chk"
 Charge =  0 Multiplicity = 2

                         Standard orientation:
 ---------------------------------------------------------------------
 Center     Atomic      Atomic             Coordinates (Angstroms)
 Number     Number       Type             X           Y           Z
 ---------------------------------------------------------------------
      1         16           0        1.687826    0.222074   -0.000009
      2         16           0       -0.354970   -0.205874    0.000002
      3          8           0       -0.639824   -0.852084    1.263291
      4          6           0       -1.177189    1.390363    0.000001
      5          8           0       -0.639837   -0.852091   -1.263279
      6          1           0       -0.889166    1.928707    0.900668
      7          1           0       -2.246942    1.174607    0.000007
      8          1           0       -0.889175    1.928702   -0.900671
 ---------------------------------------------------------------------

 SCF Done:  E(UHF) =  -984.626080350     A.U. after    2 cycles

 The electronic state is 2-A.
 Alpha  occ. eigenvalues --  -94.22431 -94.02734 -20.56103 -20.56101 -11.30700
 Alpha  occ. eigenvalues --   -8.47643  -8.30888  -6.45716  -6.45517  -6.45410
 Alpha  occ. eigenvalues --   -6.29992  -6.28274  -6.27873  -1.57913  -1.46117
 Alpha  occ. eigenvalues --   -1.11741  -1.04671  -0.84913  -0.70546  -0.69509
 Alpha  occ. eigenvalues --   -0.68469  -0.62745  -0.62169  -0.54992  -0.51049
 Alpha  occ. eigenvalues --   -0.49647  -0.47015  -0.45732  -0.44352
 Alpha virt. eigenvalues --    0.02913   0.04906   0.05110   0.05712   0.08594
 Alpha virt. eigenvalues --    0.10898   0.11447   0.11695   0.12656   0.12967
 Alpha virt. eigenvalues --    0.15125   0.15826   0.15900   0.16664   0.20391

  Beta  occ. eigenvalues --  -94.22467 -94.01816 -20.55966 -20.55963 -11.30720
  Beta  occ. eigenvalues --   -8.47690  -8.29837  -6.45760  -6.45624  -6.45446
  Beta  occ. eigenvalues --   -6.27729  -6.27327  -6.25911  -1.57706  -1.45765
  Beta  occ. eigenvalues --   -1.09361  -0.99820  -0.82802  -0.69759  -0.68858
  Beta  occ. eigenvalues --   -0.68068  -0.62575  -0.61879  -0.51472  -0.50267
  Beta  occ. eigenvalues --   -0.48307  -0.44580  -0.42252
  Beta virt. eigenvalues --   -0.04134   0.02972   0.05086   0.05158   0.06242
  Beta virt. eigenvalues --    0.08826   0.11322   0.11745   0.12701   0.13018
  Beta virt. eigenvalues --    0.13117   0.15142   0.15967   0.16099   0.16993

 Mulliken charges and spin densities:
               1          2
     1  S    0.157528   1.054371
     2  S    2.794411  -0.067459
     3  O   -1.429207   0.015890
     4  C   -0.827786  -0.016217
     5  O   -1.429207   0.015890
     6  H    0.241513  -0.001101
     7  H    0.251238  -0.000271
     8  H    0.241511  -0.001101
 Sum of Mulliken charges =  -0.00000   1.00000

 Dipole moment (field-independent basis, Debye):
    X=              0.3050    Y=              4.2210    Z=             -0.0000  Tot=              4.2320
                          Isotropic Fermi Contact Couplings
        Atom                 a.u.       MegaHertz       Gauss      10(-4) cm-1
     1  S(33)              0.16962      58.26103      20.78898      19.43379
     2  S(33)             -0.02683      -9.21591      -3.28847      -3.07410
     3  O(17)              0.01175      -7.12547      -2.54254      -2.37680
     4  C(13)             -0.00425      -4.77298      -1.70312      -1.59209
     5  O(17)              0.01175      -7.12540      -2.54252      -2.37678
     6  H(1)               0.00018       0.79537       0.28381       0.26531
     7  H(1)              -0.00043      -1.93104      -0.68904      -0.64412
     8  H(1)               0.00018       0.79537       0.28381       0.26531

 Normal termination of Gaussian 16 at Wed Apr  9 00:18:42 2025.
