 Gaussian 16, Revision C.01,

 ----------------------------------------------------------------------
 #t hf aug-cc-pvdz symm=none int=(grid=ultrafine) guess=(read,tcheck) s
 table=opt
 ----------------------------------------------------------------------
 -----
 title
 -----
 Symbolic Z-matrix:
 Charge =  0 Multiplicity = 2

 SCF Done:  E(UHF) =  -453.905834548     A.U. after   24 cycles
 Normal termination of Gaussian 16 at Tue Apr  8 23:02:31 2025.
 Gaussian 16:  ES64L-G16RevC.01  3-Jul-2019

 ----------------------------------------------------------------------
 #t hf aug-cc-pvdz iop(5/13=1,5/36=2,99/5=2) pseudo=read geom=check gue
 ss=(read,tcheck) scf=(maxcycle=1)
 ----------------------------------------------------------------------
 -----
 title
 -----
 Structure from the checkpoint file:  "BDE49_expt_256_mol2.chk"
 Charge =  0 Multiplicity = 2

                         Standard orientation:
 ---------------------------------------------------------------------
 Center     Atomic      Atomic             Coordinates (Angstroms)
 Number     Number       Type             X           Y           Z
 ---------------------------------------------------------------------
      1          6           0       -1.711245    0.043051   -0.053226
      2          6           0        1.668488   -0.149176   -0.076926
      3          8           0        2.747350   -0.354722   -0.586873
      4          8           0       -2.780296   -0.365871   -0.398499
      5          8           0        1.373008    1.070154    0.512030
      6          1           0        2.159139    1.626841    0.414030
      7          6           0        0.573876   -1.085381    0.003197
      8          8           0       -1.312385    1.301347   -0.301580
      9          1           0       -0.415053    1.453503    0.042518
     10          6           0       -0.695836   -0.837522    0.734123
     11          1           0       -1.212001   -1.772787    0.940299
     12          1           0       -0.495887   -0.322188    1.680778
     13          1           0        0.730687   -2.018470   -0.521261
 ---------------------------------------------------------------------

 SCF Done:  E(UHF) =  -454.350637158     A.U. after    2 cycles

 The electronic state is 2-A.
 Alpha  occ. eigenvalues --  -20.63357 -20.60061 -20.58950 -20.54137 -11.41806
 Alpha  occ. eigenvalues --  -11.40633 -11.31582 -11.28945  -1.57913  -1.54964
 Alpha  occ. eigenvalues --   -1.49659  -1.46296  -1.13731  -0.99200  -0.85673
 Alpha  occ. eigenvalues --   -0.83660  -0.75875  -0.75039  -0.71860  -0.68459
 Alpha  occ. eigenvalues --   -0.66637  -0.64832  -0.64317  -0.62258  -0.58464
 Alpha  occ. eigenvalues --   -0.56375  -0.54312  -0.49755  -0.47726  -0.47629
 Alpha  occ. eigenvalues --   -0.40973
 Alpha virt. eigenvalues --    0.02626   0.03494   0.04153   0.05857   0.06104
 Alpha virt. eigenvalues --    0.09155   0.09491   0.10608   0.10921   0.12662
 Alpha virt. eigenvalues --    0.13278   0.13975   0.14386   0.15014   0.15414

  Beta  occ. eigenvalues --  -20.63446 -20.60041 -20.57424 -20.54147 -11.42560
  Beta  occ. eigenvalues --  -11.40373 -11.29364 -11.29240  -1.57284  -1.54833
  Beta  occ. eigenvalues --   -1.47232  -1.46240  -1.09724  -0.97192  -0.84854
  Beta  occ. eigenvalues --   -0.82531  -0.75080  -0.73874  -0.70445  -0.68002
  Beta  occ. eigenvalues --   -0.65096  -0.64164  -0.63660  -0.61668  -0.57557
  Beta  occ. eigenvalues --   -0.55461  -0.48604  -0.48036  -0.47641  -0.44849
  Beta virt. eigenvalues --    0.01789   0.02651   0.03540   0.04190   0.05886
  Beta virt. eigenvalues --    0.06124   0.09261   0.09634   0.10722   0.10933
  Beta virt. eigenvalues --    0.12830   0.13394   0.14397   0.14554   0.15107

 Mulliken charges and spin densities:
               1          2
     1  C    2.055989   0.062450
     2  C    1.918280  -0.464747
     3  O   -1.197335   0.359895
     4  O   -1.197480  -0.003004
     5  O   -1.355323  -0.004621
     6  H    0.422836  -0.002940
     7  C    0.378953   1.331107
     8  O   -1.312468   0.003183
     9  H    0.597008   0.001708
    10  C   -0.514949  -0.259319
    11  H    0.090217   0.000595
    12  H    0.287582   0.021543
    13  H   -0.173310  -0.045850
 Sum of Mulliken charges =  -0.00000   1.00000

 Dipole moment (field-independent basis, Debye):
    X=              2.9797    Y=              0.1129    Z=              2.5442  Tot=              3.9198
                          Isotropic Fermi Contact Couplings
        Atom                 a.u.       MegaHertz       Gauss      10(-4) cm-1
     1  C(13)              0.06082      68.37435      24.39767      22.80723
     2  C(13)             -0.10182    -114.46858     -40.84524     -38.18261
     3  O(17)              0.11481     -69.59484     -24.83317     -23.21434
     4  O(17)             -0.00010       0.06118       0.02183       0.02041
     5  O(17)             -0.01702      10.31561       3.68086       3.44092
     6  H(1)              -0.00020      -0.90243      -0.32201      -0.30102
     7  C(13)              0.18826     211.64525      75.52029      70.59725
     8  O(17)              0.00133      -0.80816      -0.28837      -0.26957

 Normal termination of Gaussian 16 at Tue Apr  8 23:02:36 2025.
