 Gaussian 16, Revision C.01,

 ----------------------------------------------------------------------
 #t hf aug-cc-pvdz symm=none int=(grid=ultrafine) guess=(read,tcheck) s
 table=(opt,rrhf)
 ----------------------------------------------------------------------
 -----
 title
 -----
 Symbolic Z-matrix:
 Charge =  0 Multiplicity = 1

 SCF Done:  E(RHF) =  -1063.08730137     A.U. after   16 cycles
 Normal termination of Gaussian 16 at Tue Apr  8 23:12:55 2025.
 Gaussian 16:  ES64L-G16RevC.01  3-Jul-2019

 ----------------------------------------------------------------------
 #t hf aug-cc-pvdz iop(5/13=1,5/36=2,99/5=2) pseudo=read geom=check gue
 ss=(read,tcheck) scf=(maxcycle=1)
 ----------------------------------------------------------------------
 -----
 title
 -----
 Structure from the checkpoint file:  "BDE49_expt_534_mol1.chk"
 Charge =  0 Multiplicity = 1

                         Standard orientation:
 ---------------------------------------------------------------------
 Center     Atomic      Atomic             Coordinates (Angstroms)
 Number     Number       Type             X           Y           Z
 ---------------------------------------------------------------------
      1          6           0        2.437417    0.864630   -0.195037
      2          6           0        1.403118    0.088361    0.637270
      3          6           0        1.771779   -1.374756    0.378116
      4          7           0        2.830977   -1.379474   -0.520823
      5          7           0        3.352868   -0.066242   -0.676219
      6          1           0        3.730695    0.130482   -1.596213
      7          1           0        3.527715   -2.102997   -0.387393
      8          6           0       -0.044467    0.496473    0.388330
      9          8           0        1.298244   -2.369248    0.871572
     10          8           0        2.491971    2.046404   -0.426216
     11          1           0        1.637679    0.267466    1.695128
     12          6           0       -1.027487   -0.457610    0.116061
     13          6           0       -2.339845   -0.043103   -0.088930
     14          6           0       -2.703469    1.295718   -0.023561
     15          6           0       -1.717248    2.237783    0.257881
     16          6           0       -0.398209    1.848273    0.465856
     17          1           0        0.362654    2.590979    0.663375
     18          1           0       -1.982559    3.287106    0.314835
     19          1           0       -0.787529   -1.510885    0.086622
     20         17           0       -3.567928   -1.252023   -0.434734
     21          1           0       -3.732047    1.590383   -0.185346
 ---------------------------------------------------------------------

 SCF Done:  E(RHF) =  -1063.76277203     A.U. after    2 cycles

 The electronic state is 1-A.
 Alpha  occ. eigenvalues -- -105.57285 -20.55509 -20.55374 -15.59234 -15.58792
 Alpha  occ. eigenvalues --  -11.39997 -11.39963 -11.31552 -11.30317 -11.28309
 Alpha  occ. eigenvalues --  -11.26284 -11.26246 -11.26143 -11.25672 -10.62072
 Alpha  occ. eigenvalues --   -7.79039  -7.78642  -7.78624  -1.50795  -1.50062
 Alpha  occ. eigenvalues --   -1.36911  -1.19550  -1.15701  -1.12532  -1.08605
 Alpha  occ. eigenvalues --   -1.02847  -0.99322  -0.90386  -0.85788  -0.83941
 Alpha  occ. eigenvalues --   -0.82400  -0.80057  -0.74616  -0.72102  -0.69909
 Alpha  occ. eigenvalues --   -0.68061  -0.66727  -0.65701  -0.65154  -0.63217
 Alpha  occ. eigenvalues --   -0.62048  -0.60300  -0.59218  -0.55515  -0.54473
 Alpha  occ. eigenvalues --   -0.53126  -0.50908  -0.48517  -0.47597  -0.46613
 Alpha  occ. eigenvalues --   -0.44195  -0.43415  -0.36465  -0.34976
 Alpha virt. eigenvalues --    0.02365   0.03478   0.04062   0.04821   0.04874
 Alpha virt. eigenvalues --    0.06141   0.06974   0.07851   0.08189   0.08740
 Alpha virt. eigenvalues --    0.09227   0.09933   0.09982   0.10477   0.11313

 Mulliken charges:
               1
     1  C    0.818494
     2  C   -1.514915
     3  C    1.088171
     4  N    0.308059
     5  N    0.340097
     6  H    0.180931
     7  H    0.182038
     8  C    1.705212
     9  O   -1.361175
    10  O   -1.326982
    11  H    0.398550
    12  C    0.507643
    13  C   -0.406819
    14  C    0.180787
    15  C    0.377520
    16  C   -0.202344
    17  H   -0.363206
    18  H   -0.222158
    19  H   -0.153972
    20  Cl  -0.336237
    21  H   -0.199694
 Sum of Mulliken charges =  -0.00000

 Dipole moment (field-independent basis, Debye):
    X=              2.5224    Y=              0.9517    Z=             -0.3495  Tot=              2.7185

 Test job not archived.
 1\1\GINC-SE087\SP\RHF\Aug-CC-pVDZ\C9H7Cl1N2O2\OHZDE\08-Apr-2025\0\\#t
 hf aug-cc-pvdz iop(5/13=1,5/36=2,99/5=2) pseudo=read geom=check guess=
 (read,tcheck) scf=(maxcycle=1)\\title\\0,1\C,0,2.437417,0.86463,-0.195
 037\C,0,1.403118,0.088361,0.63727\C,0,1.771779,-1.374756,0.378116\N,0,
 2.830977,-1.379474,-0.520823\N,0,3.352868,-0.066242,-0.676219\H,0,3.73
 0695,0.130482,-1.596213\H,0,3.527715,-2.102997,-0.387393\C,0,-0.044467
 ,0.496473,0.38833\O,0,1.298244,-2.369248,0.871572\O,0,2.491971,2.04640
 4,-0.426216\H,0,1.637679,0.267466,1.695128\C,0,-1.027487,-0.45761,0.11

 Normal termination of Gaussian 16 at Tue Apr  8 23:13:15 2025.
