 Gaussian 16, Revision C.01,

 ----------------------------------------------------------------------
 #t hf aug-cc-pvdz symm=none int=(grid=ultrafine) guess=(read,tcheck) s
 table=(opt,rrhf)
 ----------------------------------------------------------------------
 -----
 title
 -----
 Symbolic Z-matrix:
 Charge =  0 Multiplicity = 1

 SCF Done:  E(RHF) =  -159.594665711     A.U. after   12 cycles
 Normal termination of Gaussian 16 at Wed Apr  9 00:38:01 2025.
 Gaussian 16:  ES64L-G16RevC.01  3-Jul-2019

 ----------------------------------------------------------------------
 #t hf aug-cc-pvdz iop(5/13=1,5/36=2,99/5=2) pseudo=read geom=check gue
 ss=(read,tcheck) scf=(maxcycle=1)
 ----------------------------------------------------------------------
 -----
 title
 -----
 Structure from the checkpoint file:  "BDE49_nonexpt_583_mol1.chk"
 Charge =  0 Multiplicity = 1

                         Standard orientation:
 ---------------------------------------------------------------------
 Center     Atomic      Atomic             Coordinates (Angstroms)
 Number     Number       Type             X           Y           Z
 ---------------------------------------------------------------------
      1          6           0        0.598495   -0.485416    0.323613
      2          5           0       -0.700819    0.410327    0.292793
      3          7           0       -1.913177   -0.052646   -0.216422
      4          6           0        1.840668    0.200739   -0.279806
      5          1           0        0.434751   -1.453556   -0.168395
      6          1           0        0.811062   -0.720238    1.377096
      7          1           0        1.698857    0.420129   -1.342535
      8          1           0        2.733458   -0.425187   -0.191195
      9          1           0        2.049538    1.149964    0.222015
     10          1           0       -0.679322    1.530585    0.719705
     11          1           0       -2.032432   -0.978832   -0.599627
     12          1           0       -2.754558    0.502089   -0.228918
 ---------------------------------------------------------------------

 SCF Done:  E(RHF) =  -159.771542981     A.U. after    2 cycles

 The electronic state is 1-A.
 Alpha  occ. eigenvalues --  -15.49002 -11.21916 -11.19877  -7.56979  -1.16119
 Alpha  occ. eigenvalues --   -1.01125  -0.84142  -0.73230  -0.70835  -0.60944
 Alpha  occ. eigenvalues --   -0.58776  -0.51995  -0.50988  -0.48149  -0.46311
 Alpha  occ. eigenvalues --   -0.43857
 Alpha virt. eigenvalues --    0.03255   0.04172   0.04457   0.04645   0.06527
 Alpha virt. eigenvalues --    0.06867   0.07253   0.07684   0.09358   0.09570
 Alpha virt. eigenvalues --    0.12066   0.13105   0.13626   0.14379   0.15697

 Mulliken charges:
               1
     1  C   -0.384315
     2  B   -0.008433
     3  N    0.227545
     4  C   -0.450299
     5  H    0.046897
     6  H    0.113849
     7  H    0.115428
     8  H    0.085169
     9  H    0.130581
    10  H    0.133896
    11  H    0.021133
    12  H   -0.031452
 Sum of Mulliken charges =  -0.00000

 Dipole moment (field-independent basis, Debye):
    X=             -0.9777    Y=             -0.6665    Z=             -0.4216  Tot=              1.2561

 Test job not archived.
 1\1\GINC-SE059\SP\RHF\Aug-CC-pVDZ\C2H8B1N1\OHZDE\09-Apr-2025\0\\#t hf
 aug-cc-pvdz iop(5/13=1,5/36=2,99/5=2) pseudo=read geom=check guess=(re
 ad,tcheck) scf=(maxcycle=1)\\title\\0,1\C,0,0.598495,-0.485416,0.32361
 3\B,0,-0.700819,0.410327,0.292793\N,0,-1.913177,-0.052646,-0.216422\C,
 0,1.840668,0.200739,-0.279806\H,0,0.434751,-1.453556,-0.168395\H,0,0.8
 11062,-0.720238,1.377096\H,0,1.698857,0.420129,-1.342535\H,0,2.733458,
 -0.425187,-0.191195\H,0,2.049538,1.149964,0.222015\H,0,-0.679322,1.530
 585,0.719705\H,0,-2.032432,-0.978832,-0.599627\H,0,-2.754558,0.502089,

 Normal termination of Gaussian 16 at Wed Apr  9 00:38:05 2025.
