 Gaussian 16, Revision C.01,

 ----------------------------------------------------------------------
 #t hf aug-cc-pvdz symm=none int=(grid=ultrafine) guess=(read,tcheck) s
 table=(opt,rrhf)
 ----------------------------------------------------------------------
 -----
 title
 -----
 Symbolic Z-matrix:
 Charge =  0 Multiplicity = 1

 SCF Done:  E(RHF) =  -1061.48729344     A.U. after   12 cycles
 Normal termination of Gaussian 16 at Tue Apr  8 23:47:32 2025.
 Gaussian 16:  ES64L-G16RevC.01  3-Jul-2019

 ----------------------------------------------------------------------
 #t hf aug-cc-pvdz iop(5/13=1,5/36=2,99/5=2) pseudo=read geom=check gue
 ss=(read,tcheck) scf=(maxcycle=1)
 ----------------------------------------------------------------------
 -----
 title
 -----
 Structure from the checkpoint file:  "BDE49_nonexpt_179_mol1.chk"
 Charge =  0 Multiplicity = 1

                         Standard orientation:
 ---------------------------------------------------------------------
 Center     Atomic      Atomic             Coordinates (Angstroms)
 Number     Number       Type             X           Y           Z
 ---------------------------------------------------------------------
      1         17           0        1.760952   -1.043173   -0.249911
      2         17           0        0.626713    1.694093    0.314490
      3          5           0        0.339602    0.002817   -0.112819
      4          6           0       -1.103470   -0.580704   -0.299376
      5          6           0       -1.587751   -1.124594    1.073190
      6          1           0       -0.904467   -1.872821    1.482237
      7          1           0       -2.569280   -1.593581    0.959133
      8          1           0       -1.687153   -0.317464    1.804656
      9          6           0       -2.128801    0.403682   -0.889026
     10          1           0       -1.018452   -1.442542   -0.972096
     11          1           0       -2.275546    1.266149   -0.234071
     12          1           0       -3.097293   -0.089235   -1.015587
     13          1           0       -1.815988    0.779474   -1.866757
 ---------------------------------------------------------------------

 SCF Done:  E(RHF) =  -1061.79585685     A.U. after    2 cycles

 The electronic state is 1-A.
 Alpha  occ. eigenvalues -- -105.57331-105.57247 -11.24364 -11.23749 -11.23600
 Alpha  occ. eigenvalues --  -10.62338 -10.62247  -7.79232  -7.79144  -7.78958
 Alpha  occ. eigenvalues --   -7.78914  -7.78873  -7.78826  -7.70682  -1.11546
 Alpha  occ. eigenvalues --   -1.06464  -1.05342  -0.94259  -0.83274  -0.69049
 Alpha  occ. eigenvalues --   -0.64087  -0.61998  -0.58868  -0.56651  -0.55703
 Alpha  occ. eigenvalues --   -0.52842  -0.51974  -0.49749  -0.49120  -0.47400
 Alpha  occ. eigenvalues --   -0.45940  -0.44954
 Alpha virt. eigenvalues --    0.03462   0.03973   0.04267   0.04341   0.06465
 Alpha virt. eigenvalues --    0.06638   0.07094   0.07249   0.07457   0.08477
 Alpha virt. eigenvalues --    0.09866   0.11083   0.13146   0.14469   0.15028

 Mulliken charges:
               1
     1  Cl  -0.411567
     2  Cl  -0.402755
     3  B    0.819617
     4  C   -0.341999
     5  C   -0.360152
     6  H    0.097352
     7  H    0.139175
     8  H    0.166760
     9  C   -0.338517
    10  H    0.172885
    11  H    0.196082
    12  H    0.149711
    13  H    0.113410
 Sum of Mulliken charges =  -0.00000

 Dipole moment (field-independent basis, Debye):
    X=             -1.7164    Y=             -0.6399    Z=             -0.1775  Tot=              1.8404

 Test job not archived.
 1\1\GINC-SE335\SP\RHF\Aug-CC-pVDZ\C3H7B1Cl2\OHZDE\08-Apr-2025\0\\#t hf
  aug-cc-pvdz iop(5/13=1,5/36=2,99/5=2) pseudo=read geom=check guess=(r
 ead,tcheck) scf=(maxcycle=1)\\title\\0,1\Cl,0,1.760952,-1.043173,-0.24
 9911\Cl,0,0.626713,1.694093,0.31449\B,0,0.339602,0.002817,-0.112819\C,
 0,-1.10347,-0.580704,-0.299376\C,0,-1.587751,-1.124594,1.07319\H,0,-0.
 904466,-1.872821,1.482237\H,0,-2.56928,-1.593582,0.959133\H,0,-1.68715
 3,-0.317464,1.804656\C,0,-2.128801,0.403681,-0.889026\H,0,-1.018452,-1
 .442542,-0.972096\H,0,-2.275546,1.266148,-0.234071\H,0,-3.097293,-0.08

 Normal termination of Gaussian 16 at Tue Apr  8 23:47:36 2025.
