 Gaussian 16, Revision C.01,

 ----------------------------------------------------------------------
 #t hf aug-cc-pvdz symm=none int=(grid=ultrafine) guess=(read,tcheck) s
 table=opt
 ----------------------------------------------------------------------
 -----
 title
 -----
 Symbolic Z-matrix:
 Charge =  0 Multiplicity = 2

 SCF Done:  E(UHF) =  -632.699543558     A.U. after   20 cycles
 Normal termination of Gaussian 16 at Wed Apr  9 00:10:37 2025.
 Gaussian 16:  ES64L-G16RevC.01  3-Jul-2019

 ----------------------------------------------------------------------
 #t hf aug-cc-pvdz iop(5/13=1,5/36=2,99/5=2) pseudo=read geom=check gue
 ss=(read,tcheck) scf=(maxcycle=1)
 ----------------------------------------------------------------------
 -----
 title
 -----
 Structure from the checkpoint file:  "BDE49_nonexpt_234_mol2.chk"
 Charge =  0 Multiplicity = 2

                         Standard orientation:
 ---------------------------------------------------------------------
 Center     Atomic      Atomic             Coordinates (Angstroms)
 Number     Number       Type             X           Y           Z
 ---------------------------------------------------------------------
      1         17           0       -2.316876    0.125426   -0.000100
      2          5           0       -0.634514   -0.129409    0.000525
      3          7           0        0.605362   -0.314123   -0.000012
      4          7           0        1.848094   -0.660925   -0.000189
      5          6           0        2.744034    0.495145    0.000039
      6          1           0        3.770881    0.131749    0.000176
      7          1           0        2.574941    1.118731    0.887316
      8          1           0        2.575248    1.118802   -0.887247
 ---------------------------------------------------------------------

 SCF Done:  E(UHF) =  -632.946770395     A.U. after    2 cycles

 The electronic state is 2-A.
 Alpha  occ. eigenvalues -- -105.61036 -15.56796 -15.52612 -11.26375 -10.65992
 Alpha  occ. eigenvalues --   -7.82878  -7.82615  -7.82562  -7.68135  -1.33839
 Alpha  occ. eigenvalues --   -1.11668  -1.07808  -0.93996  -0.74161  -0.69845
 Alpha  occ. eigenvalues --   -0.65864  -0.65556  -0.56462  -0.55372  -0.53235
 Alpha  occ. eigenvalues --   -0.52803  -0.41072  -0.38734
 Alpha virt. eigenvalues --    0.03461   0.05121   0.05434   0.05606   0.06285
 Alpha virt. eigenvalues --    0.06382   0.07469   0.11615   0.13842   0.14448
 Alpha virt. eigenvalues --    0.14475   0.14978   0.15199   0.16616   0.18295

  Beta  occ. eigenvalues -- -105.61024 -15.53896 -15.53237 -11.26681 -10.65979
  Beta  occ. eigenvalues --   -7.82962  -7.82539  -7.82494  -7.67511  -1.29995
  Beta  occ. eigenvalues --   -1.11307  -1.05690  -0.92468  -0.70884  -0.65304
  Beta  occ. eigenvalues --   -0.65116  -0.60706  -0.55224  -0.55071  -0.52469
  Beta  occ. eigenvalues --   -0.50516  -0.40364
  Beta virt. eigenvalues --    0.03539   0.05033   0.05158   0.05436   0.06284
  Beta virt. eigenvalues --    0.06288   0.06644   0.07557   0.11653   0.13911
  Beta virt. eigenvalues --    0.14676   0.14784   0.15249   0.16115   0.16741

 Mulliken charges and spin densities:
               1          2
     1  Cl  -0.118714   0.002165
     2  B   -0.131108   0.328092
     3  N    0.677865  -0.194212
     4  N   -0.440298   0.933640
     5  C   -0.402204  -0.146501
     6  H    0.066141   0.007788
     7  H    0.174167   0.034500
     8  H    0.174150   0.034529
 Sum of Mulliken charges =   0.00000   1.00000

 Dipole moment (field-independent basis, Debye):
    X=             -0.7691    Y=              1.8100    Z=              0.0015  Tot=              1.9666
                          Isotropic Fermi Contact Couplings
        Atom                 a.u.       MegaHertz       Gauss      10(-4) cm-1
     1  Cl(35)             0.00877       3.84517       1.37205       1.28261
     2  B(11)              0.04166      59.75160      21.32086      19.93099
     3  N(14)             -0.19227     -62.12490     -22.16771     -20.72264
     4  N(14)              0.31984     103.34072      36.87454      34.47075
     5  C(13)             -0.04985     -56.04027     -19.99656     -18.69302
     6  H(1)               0.00091       4.06569       1.45074       1.35617
     7  H(1)               0.01580      70.61279      25.19640      23.55389
     8  H(1)               0.01581      70.66628      25.21549      23.57173

 1\1\GINC-SE058\SP\UHF\Aug-CC-pVDZ\C1H3B1Cl1N2(2)\OHZDE\09-Apr-2025\0\\
 #t hf aug-cc-pvdz iop(5/13=1,5/36=2,99/5=2) pseudo=read geom=check gue
 ss=(read,tcheck) scf=(maxcycle=1)\\title\\0,2\Cl,0,-2.316876,0.125426,
 -0.0001\B,0,-0.634514,-0.129409,0.000525\N,0,0.605362,-0.314123,-0.000
 012\N,0,1.848094,-0.660925,-0.000189\C,0,2.744034,0.495145,0.000039\H,
 0,3.770881,0.131749,0.000176\H,0,2.574941,1.118731,0.887316\H,0,2.5752
 48,1.118802,-0.887247\\Version=ES64L-G16RevC.01\State=2-A\HF=-632.9467
 704\S2=0.798138\S2-1=0.\S2A=0.75134\RMSD=3.481e-02\Dipole=-0.3025755,0

 Normal termination of Gaussian 16 at Wed Apr  9 00:10:44 2025.
