 Gaussian 16, Revision C.01,

 ----------------------------------------------------------------------
 #t hf aug-cc-pvdz symm=none int=(grid=ultrafine) guess=(read,tcheck) s
 table=(opt,rrhf)
 ----------------------------------------------------------------------
 -----
 title
 -----
 Symbolic Z-matrix:
 Charge =  0 Multiplicity = 1

 SCF Done:  E(RHF) =  -2074.22491022     A.U. after   15 cycles
 Normal termination of Gaussian 16 at Tue Apr  8 23:55:30 2025.
 Gaussian 16:  ES64L-G16RevC.01  3-Jul-2019

 ----------------------------------------------------------------------
 #t hf aug-cc-pvdz iop(5/13=1,5/36=2,99/5=2) pseudo=read geom=check gue
 ss=(read,tcheck) scf=(maxcycle=1)
 ----------------------------------------------------------------------
 -----
 title
 -----
 Structure from the checkpoint file:  "BDE49_nonexpt_1949_mol1.chk"
 Charge =  0 Multiplicity = 1

                         Standard orientation:
 ---------------------------------------------------------------------
 Center     Atomic      Atomic             Coordinates (Angstroms)
 Number     Number       Type             X           Y           Z
 ---------------------------------------------------------------------
      1          6           0       -1.110201   -1.475155    0.789670
      2         14           0        0.485012   -1.845303   -0.180198
      3          6           0        1.746857   -0.443412    0.077548
      4          1           0        0.185773   -2.003087   -1.619264
      5          1           0        1.085363   -3.077899    0.369003
      6         16           0        2.293467   -0.146825    1.602010
      7         16           0        2.202716    0.392397   -1.368227
      8          6           0        3.395356    1.642279   -0.812764
      9          1           0        3.701306    2.185559   -1.707076
     10          1           0        4.253739    1.158673   -0.347299
     11          1           0        2.923968    2.316228   -0.098036
     12          6           0       -1.964413   -0.397124    0.181843
     13         16           0       -2.969633   -0.659083   -1.092616
     14         16           0       -1.728398    1.143508    0.981260
     15          6           0       -2.781061    2.285516    0.049353
     16          1           0       -2.659147    3.257056    0.530384
     17          1           0       -3.820649    1.965005    0.099653
     18          1           0       -2.461208    2.333072   -0.990675
     19          1           0       -0.814582   -1.241408    1.817565
     20          1           0       -1.674392   -2.411538    0.795798
 ---------------------------------------------------------------------

 SCF Done:  E(RHF) =  -2074.69545053     A.U. after    2 cycles

 The electronic state is 1-A.
 Alpha  occ. eigenvalues --  -93.99095 -93.98162 -93.93698 -93.92200 -69.55932
 Alpha  occ. eigenvalues --  -11.36249 -11.34252 -11.28245 -11.27678 -11.25818
 Alpha  occ. eigenvalues --   -8.27221  -8.26312  -8.21857  -8.20451  -6.25043
 Alpha  occ. eigenvalues --   -6.24829  -6.24692  -6.24136  -6.23931  -6.23771
 Alpha  occ. eigenvalues --   -6.22892  -6.19685  -6.19474  -6.19278  -6.18294
 Alpha  occ. eigenvalues --   -6.18052  -6.17878  -3.98277  -3.98240  -3.98227
 Alpha  occ. eigenvalues --   -1.16027  -1.14732  -1.05311  -1.03943  -0.97877
 Alpha  occ. eigenvalues --   -0.93289  -0.91337  -0.79123  -0.72744  -0.68477
 Alpha  occ. eigenvalues --   -0.64635  -0.62653  -0.61723  -0.61359  -0.60866
 Alpha  occ. eigenvalues --   -0.57527  -0.56832  -0.54568  -0.53622  -0.51451
 Alpha  occ. eigenvalues --   -0.49670  -0.47611  -0.46746  -0.46194  -0.42701
 Alpha  occ. eigenvalues --   -0.35848  -0.35143  -0.34684  -0.34283
 Alpha virt. eigenvalues --    0.02428   0.03000   0.03524   0.03783   0.04562
 Alpha virt. eigenvalues --    0.04916   0.05155   0.05807   0.06188   0.06626
 Alpha virt. eigenvalues --    0.06900   0.07595   0.08264   0.09270   0.09903

 Mulliken charges:
               1
     1  C   -0.740833
     2  Si   1.574240
     3  C   -1.062474
     4  H   -0.144524
     5  H   -0.197366
     6  S    0.019006
     7  S    0.528652
     8  C   -0.728966
     9  H    0.125967
    10  H    0.242199
    11  H    0.236930
    12  C   -0.446735
    13  S    0.040776
    14  S    0.431437
    15  C   -0.700960
    16  H    0.119924
    17  H    0.242038
    18  H    0.239375
    19  H    0.113268
    20  H    0.108047
 Sum of Mulliken charges =  -0.00000

 Dipole moment (field-independent basis, Debye):
    X=              1.2274    Y=              2.0845    Z=             -0.3175  Tot=              2.4397

 Test job not archived.
 1\1\GINC-SE458\SP\RHF\Aug-CC-pVDZ\C5H10S4Si1\OHZDE\08-Apr-2025\0\\#t h
 f aug-cc-pvdz iop(5/13=1,5/36=2,99/5=2) pseudo=read geom=check guess=(
 read,tcheck) scf=(maxcycle=1)\\title\\0,1\C,0,-1.110201,-1.475155,0.78
 967\Si,0,0.485012,-1.845303,-0.180198\C,0,1.746857,-0.443412,0.077548\
 H,0,0.185773,-2.003087,-1.619264\H,0,1.085363,-3.077899,0.369003\S,0,2
 .293467,-0.146825,1.60201\S,0,2.202716,0.392397,-1.368227\C,0,3.395356
 ,1.642279,-0.812764\H,0,3.701306,2.185559,-1.707076\H,0,4.253739,1.158
 673,-0.347299\H,0,2.923968,2.316228,-0.098036\C,0,-1.964413,-0.397124,

 Normal termination of Gaussian 16 at Tue Apr  8 23:55:44 2025.
