 Gaussian 16, Revision C.01,

 ----------------------------------------------------------------------
 #t hf aug-cc-pvdz symm=none int=(grid=ultrafine) guess=(read,tcheck) s
 table=opt
 ----------------------------------------------------------------------
 -----
 title
 -----
 Symbolic Z-matrix:
 Charge =  0 Multiplicity = 2

 SCF Done:  E(UHF) =  -778.598178230     A.U. after   15 cycles

 1\1\GINC-SE460\Stability\UHF\Aug-CC-pVDZ\F2H3Si2\OHZDE\08-Apr-2025\0\\
 #t hf aug-cc-pvdz symm=none int=(grid=ultrafine) guess=(read,tcheck) s
 table=opt\\title\\0,2\Si,0,-1.786527,-0.069672,-0.034727\Si,0,0.514211
 ,0.02575,0.364496\F,0,1.180583,-1.298623,-0.248144\F,0,1.223336,1.2654
 76,-0.368315\H,0,0.879953,0.100599,1.789687\H,0,-2.160419,-0.223066,-1
 .460376\H,0,-2.54239,1.03569,0.602066\\Version=ES64L-G16RevC.01\HF=-77
 8.5981782\S2=0.758708\S2-1=0.\S2A=0.750029\RMSD=3.301e-09\Dipole=-0.70
 46088,0.047346,0.4280409\Quadrupole=0.1002772,-1.561675,1.4613978,-0.0

 Normal termination of Gaussian 16 at Tue Apr  8 23:56:21 2025.
 Gaussian 16:  ES64L-G16RevC.01  3-Jul-2019

 ----------------------------------------------------------------------
 #t hf aug-cc-pvdz iop(5/13=1,5/36=2,99/5=2) pseudo=read geom=check gue
 ss=(read,tcheck) scf=(maxcycle=1)
 ----------------------------------------------------------------------
 -----
 title
 -----
 Structure from the checkpoint file:  "BDE49_nonexpt_2019_mol2.chk"
 Charge =  0 Multiplicity = 2

                         Standard orientation:
 ---------------------------------------------------------------------
 Center     Atomic      Atomic             Coordinates (Angstroms)
 Number     Number       Type             X           Y           Z
 ---------------------------------------------------------------------
      1         14           0        1.786527    0.069672   -0.034727
      2         14           0       -0.514211   -0.025750    0.364496
      3          9           0       -1.180583    1.298623   -0.248144
      4          9           0       -1.223336   -1.265476   -0.368315
      5          1           0       -0.879953   -0.100599    1.789687
      6          1           0        2.160419    0.223066   -1.460376
      7          1           0        2.542390   -1.035690    0.602066
 ---------------------------------------------------------------------

 SCF Done:  E(UHF) =  -778.840330751     A.U. after    2 cycles

 The electronic state is 2-A.
 Alpha  occ. eigenvalues --  -69.63521 -69.55478 -26.46562 -26.46535  -6.29653
 Alpha  occ. eigenvalues --   -6.22829  -4.05046  -4.04870  -4.04720  -3.98814
 Alpha  occ. eigenvalues --   -3.97867  -3.97863  -1.59008  -1.56681  -0.81528
 Alpha  occ. eigenvalues --   -0.75046  -0.69886  -0.68173  -0.66615  -0.63739
 Alpha  occ. eigenvalues --   -0.61814  -0.56975  -0.51577  -0.45274  -0.35271
 Alpha virt. eigenvalues --    0.03670   0.04529   0.05508   0.06117   0.07044
 Alpha virt. eigenvalues --    0.07495   0.07774   0.08329   0.09859   0.12570
 Alpha virt. eigenvalues --    0.12904   0.14236   0.15562   0.17167   0.17796

  Beta  occ. eigenvalues --  -69.63514 -69.54917 -26.46576 -26.46435  -6.29637
  Beta  occ. eigenvalues --   -6.22001  -4.05030  -4.04890  -4.04693  -3.97467
  Beta  occ. eigenvalues --   -3.97456  -3.96597  -1.58898  -1.56551  -0.80341
  Beta  occ. eigenvalues --   -0.71598  -0.69706  -0.68098  -0.65965  -0.63577
  Beta  occ. eigenvalues --   -0.61716  -0.56887  -0.51082  -0.44237
  Beta virt. eigenvalues --    0.00162   0.03937   0.04612   0.05609   0.07125
  Beta virt. eigenvalues --    0.07359   0.07828   0.08691   0.08760   0.10210
  Beta virt. eigenvalues --    0.13055   0.14124   0.15959   0.17344   0.18371

 Mulliken charges and spin densities:
               1          2
     1  Si   0.179935   1.116640
     2  Si   1.870207  -0.028849
     3  F   -0.796102   0.005398
     4  F   -0.795961  -0.029191
     5  H   -0.178482  -0.007759
     6  H   -0.130373  -0.024164
     7  H   -0.149224  -0.032075
 Sum of Mulliken charges =  -0.00000   1.00000

 Dipole moment (field-independent basis, Debye):
    X=              1.6628    Y=             -0.1496    Z=              0.9456  Tot=              1.9187
                          Isotropic Fermi Contact Couplings
        Atom                 a.u.       MegaHertz       Gauss      10(-4) cm-1
     1  Si(29)             0.49590    -440.72236    -157.26070    -147.00915
     2  Si(29)             0.02334     -20.74040      -7.40069      -6.91825
     3  F(19)             -0.00350     -14.74367      -5.26091      -4.91796
     4  F(19)              0.02369      99.69361      35.57316      33.25421
     5  H(1)              -0.00208      -9.29248      -3.31579      -3.09964
     6  H(1)              -0.00485     -21.67477      -7.73410      -7.22993
     7  H(1)              -0.00514     -22.99482      -8.20512      -7.67025
 --------------------------------------------------------

 Normal termination of Gaussian 16 at Tue Apr  8 23:56:23 2025.
