 Gaussian 16, Revision C.01,

 ----------------------------------------------------------------------
 #t hf aug-cc-pvdz symm=none int=(grid=ultrafine) guess=(read,tcheck) s
 table=(opt,rrhf)
 ----------------------------------------------------------------------
 -----
 title
 -----
 Symbolic Z-matrix:
 Charge =  0 Multiplicity = 1

 SCF Done:  E(RHF) =  -434.212595700     A.U. after   13 cycles
 Normal termination of Gaussian 16 at Tue Apr  8 23:26:47 2025.
 Gaussian 16:  ES64L-G16RevC.01  3-Jul-2019

 ----------------------------------------------------------------------
 #t hf aug-cc-pvdz iop(5/13=1,5/36=2,99/5=2) pseudo=read geom=check gue
 ss=(read,tcheck) scf=(maxcycle=1)
 ----------------------------------------------------------------------
 -----
 title
 -----
 Structure from the checkpoint file:  "BDE49_nonexpt_1291_mol1.chk"
 Charge =  0 Multiplicity = 1

                         Standard orientation:
 ---------------------------------------------------------------------
 Center     Atomic      Atomic             Coordinates (Angstroms)
 Number     Number       Type             X           Y           Z
 ---------------------------------------------------------------------
      1         15           0       -1.030769    0.000116   -0.121684
      2          6           0        0.756835   -0.000889    0.027373
      3          7           0        1.912293    0.000386    0.001905
      4          1           0       -1.231905    1.036268    0.823659
      5          1           0       -1.233619   -1.035371    0.824032
 ---------------------------------------------------------------------

 SCF Done:  E(RHF) =  -434.344550678     A.U. after    2 cycles

 The electronic state is 1-A.
 Alpha  occ. eigenvalues --  -84.33804 -15.52996 -11.28738  -6.80787  -4.33438
 Alpha  occ. eigenvalues --   -4.32932  -4.32349  -1.24218  -0.95533  -0.66924
 Alpha  occ. eigenvalues --   -0.59520  -0.57618  -0.53492  -0.50034  -0.40333
 Alpha virt. eigenvalues --    0.02958   0.05577   0.05848   0.07997   0.08338
 Alpha virt. eigenvalues --    0.10150   0.11279   0.12042   0.14780   0.15161
 Alpha virt. eigenvalues --    0.15693   0.17686   0.20522   0.21122   0.22642

 Mulliken charges:
               1
     1  P   -0.259422
     2  C   -1.387509
     3  N    0.719811
     4  H    0.463413
     5  H    0.463707
 Sum of Mulliken charges =   0.00000

 Dipole moment (field-independent basis, Debye):
    X=             -4.5446    Y=             -0.0013    Z=              0.4470  Tot=              4.5665

 Test job not archived.
 1\1\GINC-SE051\SP\RHF\Aug-CC-pVDZ\C1H2N1P1\OHZDE\08-Apr-2025\0\\#t hf
 aug-cc-pvdz iop(5/13=1,5/36=2,99/5=2) pseudo=read geom=check guess=(re
 ad,tcheck) scf=(maxcycle=1)\\title\\0,1\P,0,1.030769,-0.000116,-0.1216
 84\C,0,-0.756835,0.000889,0.027373\N,0,-1.912293,-0.000386,0.001905\H,
 0,1.231905,-1.036268,0.823659\H,0,1.233619,1.035371,0.824032\\Version=
 ES64L-G16RevC.01\State=1-A\HF=-434.3445507\RMSD=4.126e-02\Dipole=1.787
 99,0.0005123,0.1758629\Quadrupole=-3.2769249,2.3732694,0.9036554,-0.00
 16554,1.0337314,-0.0004289\PG=C01 [X(C1H2N1P1)]\\@

 Normal termination of Gaussian 16 at Tue Apr  8 23:26:49 2025.
