 Gaussian 16, Revision C.01,

 ----------------------------------------------------------------------
 #t hf aug-cc-pvdz symm=none int=(grid=ultrafine) guess=(read,tcheck) s
 table=opt
 ----------------------------------------------------------------------
 -----
 title
 -----
 Symbolic Z-matrix:
 Charge =  0 Multiplicity = 2

 SCF Done:  E(UHF) =  -882.319842734     A.U. after   16 cycles
 Normal termination of Gaussian 16 at Tue Apr  8 23:39:06 2025.
 Gaussian 16:  ES64L-G16RevC.01  3-Jul-2019

 ----------------------------------------------------------------------
 #t hf aug-cc-pvdz iop(5/13=1,5/36=2,99/5=2) pseudo=read geom=check gue
 ss=(read,tcheck) scf=(maxcycle=1)
 ----------------------------------------------------------------------
 -----
 title
 -----
 Structure from the checkpoint file:  "BDE49_nonexpt_160_mol2.chk"
 Charge =  0 Multiplicity = 2

                         Standard orientation:
 ---------------------------------------------------------------------
 Center     Atomic      Atomic             Coordinates (Angstroms)
 Number     Number       Type             X           Y           Z
 ---------------------------------------------------------------------
      1         17           0       -1.579638    0.092983   -0.000000
      2         16           0        1.603373    0.026361   -0.000002
      3          5           0       -0.019996   -0.670321    0.000007
      4          1           0        1.299850    1.349122    0.000004
 ---------------------------------------------------------------------

 SCF Done:  E(UHF) =  -882.474962746     A.U. after    2 cycles

 The electronic state is 2-A.
 Alpha  occ. eigenvalues -- -105.58704 -93.97944 -10.63727  -8.26293  -7.80650
 Alpha  occ. eigenvalues --   -7.80336  -7.80282  -7.70638  -6.24081  -6.23934
 Alpha  occ. eigenvalues --   -6.23740  -1.10488  -1.04363  -0.69776  -0.61547
 Alpha  occ. eigenvalues --   -0.55083  -0.51968  -0.48620  -0.42064  -0.36180
 Alpha virt. eigenvalues --    0.04130   0.05054   0.05401   0.05744   0.07375
 Alpha virt. eigenvalues --    0.08176   0.10765   0.13299   0.13742   0.15661
 Alpha virt. eigenvalues --    0.17074   0.17679   0.17885   0.21470   0.23060

  Beta  occ. eigenvalues -- -105.58633 -93.97945 -10.63644  -8.26261  -7.80546
  Beta  occ. eigenvalues --   -7.80279  -7.80101  -7.68513  -6.24127  -6.23920
  Beta  occ. eigenvalues --   -6.23836  -1.09375  -1.03701  -0.65810  -0.60229
  Beta  occ. eigenvalues --   -0.52706  -0.51683  -0.47476  -0.42286
  Beta virt. eigenvalues --    0.03003   0.04956   0.05484   0.05519   0.08062
  Beta virt. eigenvalues --    0.09535   0.10250   0.12114   0.13492   0.13848
  Beta virt. eigenvalues --    0.15902   0.17484   0.17786   0.18518   0.21941

 Mulliken charges and spin densities:
               1          2
     1  Cl  -0.170872  -0.001341
     2  S   -0.406769  -0.096235
     3  B    0.271879   1.046496
     4  H    0.305762   0.051080
 Sum of Mulliken charges =  -0.00000   1.00000

 Dipole moment (field-independent basis, Debye):
    X=              0.4115    Y=              1.0513    Z=              0.0000  Tot=              1.1289
                          Isotropic Fermi Contact Couplings
        Atom                 a.u.       MegaHertz       Gauss      10(-4) cm-1
     1  Cl(35)             0.07170      31.43652      11.21733      10.48610
     2  S(33)              0.15861      54.47935      19.43959      18.17235
     3  B(11)              0.34600     496.28859     177.08811     165.54405
     4  H(1)               0.01813      81.04435      28.91864      27.03348
 --------------------------------------------------------
       Center         ----  Spin Dipole Couplings  ----
                      3XX-RR        3YY-RR        3ZZ-RR
 --------------------------------------------------------

 Normal termination of Gaussian 16 at Tue Apr  8 23:39:08 2025.
