 Gaussian 16, Revision C.01,

 ----------------------------------------------------------------------
 #t hf aug-cc-pvdz symm=none int=(grid=ultrafine) guess=(read,tcheck) s
 table=(opt,rrhf)
 ----------------------------------------------------------------------
 -----
 title
 -----
 Symbolic Z-matrix:
 Charge =  0 Multiplicity = 1

 SCF Done:  E(RHF) =  -728.734652218     A.U. after   16 cycles
 Normal termination of Gaussian 16 at Tue Apr  8 22:40:15 2025.
 Gaussian 16:  ES64L-G16RevC.01  3-Jul-2019

 ----------------------------------------------------------------------
 #t hf aug-cc-pvdz iop(5/13=1,5/36=2,99/5=2) pseudo=read geom=check gue
 ss=(read,tcheck) scf=(maxcycle=1)
 ----------------------------------------------------------------------
 -----
 title
 -----
 Structure from the checkpoint file:  "BDE49_expt_1217_mol1.chk"
 Charge =  0 Multiplicity = 1

                         Standard orientation:
 ---------------------------------------------------------------------
 Center     Atomic      Atomic             Coordinates (Angstroms)
 Number     Number       Type             X           Y           Z
 ---------------------------------------------------------------------
      1          6           0        0.018616    0.000536    0.214060
      2          7           0       -0.070955    1.363507   -0.520083
      3          8           0       -1.064958    1.540588   -1.188046
      4          8           0        0.861155    2.122992   -0.363931
      5          6           0        0.937009   -0.006333    1.423987
      6          7           0       -1.445668   -0.307388    0.617154
      7          8           0       -1.838338    0.339518    1.567869
      8          8           0       -2.058464   -1.115989   -0.036774
      9          7           0        0.456288   -1.051832   -0.818796
     10          8           0        0.724688   -0.666150   -1.934697
     11          8           0        0.533265   -2.179646   -0.379582
     12          6           0        2.440023   -0.029337    1.116547
     13          1           0        0.665757   -0.893320    2.001111
     14          1           0        0.666599    0.864413    2.022273
     15          1           0        2.725192   -0.940925    0.587857
     16          1           0        2.984811   -0.015428    2.062090
     17          1           0        2.747310    0.835543    0.532470
 ---------------------------------------------------------------------

 SCF Done:  E(RHF) =  -729.429173536     A.U. after    2 cycles

 The electronic state is 1-A.
 Alpha  occ. eigenvalues --  -20.65220 -20.65090 -20.64705 -20.64662 -20.64576
 Alpha  occ. eigenvalues --  -20.64368 -15.85379 -15.85276 -15.85148 -11.48470
 Alpha  occ. eigenvalues --  -11.31650 -11.27398  -1.74233  -1.72906  -1.72750
 Alpha  occ. eigenvalues --   -1.57715  -1.57320  -1.57206  -1.26749  -1.09345
 Alpha  occ. eigenvalues --   -1.05963  -1.05189  -0.94224  -0.89309  -0.87800
 Alpha  occ. eigenvalues --   -0.86974  -0.81066  -0.80180  -0.80035  -0.79357
 Alpha  occ. eigenvalues --   -0.78894  -0.77879  -0.70356  -0.67769  -0.61296
 Alpha  occ. eigenvalues --   -0.59298  -0.57527  -0.55772  -0.54898  -0.54435
 Alpha  occ. eigenvalues --   -0.54120  -0.53021  -0.52531  -0.50845  -0.49208
 Alpha  occ. eigenvalues --   -0.48954
 Alpha virt. eigenvalues --    0.00209   0.00610   0.01977   0.02792   0.04151
 Alpha virt. eigenvalues --    0.04440   0.05791   0.06635   0.10232   0.11069
 Alpha virt. eigenvalues --    0.11587   0.11938   0.13131   0.13580   0.14405

 Mulliken charges:
               1
     1  C   -2.798201
     2  N    3.566122
     3  O   -1.531191
     4  O   -1.532179
     5  C    0.182996
     6  N    3.778422
     7  O   -1.583086
     8  O   -1.553267
     9  N    3.564659
    10  O   -1.463340
    11  O   -1.579146
    12  C   -0.236986
    13  H    0.264722
    14  H    0.294037
    15  H    0.218160
    16  H    0.143370
    17  H    0.264910
 Sum of Mulliken charges =   0.00000

 Dipole moment (field-independent basis, Debye):
    X=              2.8815    Y=             -0.1067    Z=              2.9971  Tot=              4.1590

 Test job not archived.
 1\1\GINC-SE186\SP\RHF\Aug-CC-pVDZ\C3H5N3O6\OHZDE\08-Apr-2025\0\\#t hf
 aug-cc-pvdz iop(5/13=1,5/36=2,99/5=2) pseudo=read geom=check guess=(re
 ad,tcheck) scf=(maxcycle=1)\\title\\0,1\C,0,0.018616,0.000536,0.21406\
 N,0,-0.070955,1.363507,-0.520083\O,0,-1.064958,1.540588,-1.188046\O,0,
 0.861155,2.122992,-0.363931\C,0,0.937009,-0.006333,1.423987\N,0,-1.445
 668,-0.307388,0.617154\O,0,-1.838338,0.339518,1.567869\O,0,-2.058464,-
 1.115989,-0.036774\N,0,0.456288,-1.051832,-0.818796\O,0,0.724688,-0.66
 615,-1.934697\O,0,0.533266,-2.179646,-0.379582\C,0,2.440023,-0.029337,

 Normal termination of Gaussian 16 at Tue Apr  8 22:40:27 2025.
