 Gaussian 16, Revision C.01,

 ----------------------------------------------------------------------
 #t hf aug-cc-pvdz symm=none int=(grid=ultrafine) guess=(read,tcheck) s
 table=opt
 ----------------------------------------------------------------------
 -----
 title
 -----
 Symbolic Z-matrix:
 Charge =  0 Multiplicity = 2

 SCF Done:  E(UHF) =  -234.761342428     A.U. after   16 cycles
 Normal termination of Gaussian 16 at Tue Apr  8 22:44:29 2025.
 Gaussian 16:  ES64L-G16RevC.01  3-Jul-2019

 ----------------------------------------------------------------------
 #t hf aug-cc-pvdz iop(5/13=1,5/36=2,99/5=2) pseudo=read geom=check gue
 ss=(read,tcheck) scf=(maxcycle=1)
 ----------------------------------------------------------------------
 -----
 title
 -----
 Structure from the checkpoint file:  "BDE49_expt_1467_mol2.chk"
 Charge =  0 Multiplicity = 2

                         Standard orientation:
 ---------------------------------------------------------------------
 Center     Atomic      Atomic             Coordinates (Angstroms)
 Number     Number       Type             X           Y           Z
 ---------------------------------------------------------------------
      1          6           0        2.591172    0.929879   -0.253264
      2          6           0        2.121916   -0.352497    0.342926
      3          1           0        2.386860    1.158200   -1.293828
      4          1           0        3.270975    1.583115    0.279784
      5          6           0        0.751665   -0.827197   -0.174376
      6          1           0        2.094962   -0.269411    1.436931
      7          1           0        2.860191   -1.147470    0.135007
      8          6           0       -0.412918    0.080096    0.237839
      9          1           0        0.565491   -1.844080    0.190785
     10          1           0        0.790056   -0.897815   -1.269076
     11          6           0       -1.771744   -0.387528   -0.294708
     12          1           0       -0.217336    1.101880   -0.109460
     13          1           0       -0.453635    0.135909    1.333807
     14          6           0       -2.931845    0.518448    0.127954
     15          1           0       -1.963353   -1.410803    0.051115
     16          1           0       -1.730744   -0.440774   -1.389530
     17          1           0       -3.021591    0.563269    1.217898
     18          1           0       -3.885426    0.159342   -0.268856
     19          1           0       -2.785930    1.541431   -0.232804
 ---------------------------------------------------------------------

 SCF Done:  E(UHF) =  -235.024971710     A.U. after    2 cycles

 The electronic state is 2-A.
 Alpha  occ. eigenvalues --  -11.23498 -11.22886 -11.22524 -11.22371 -11.22035
 Alpha  occ. eigenvalues --  -11.21982  -1.09086  -1.03934  -0.96097  -0.87855
 Alpha  occ. eigenvalues --   -0.80643  -0.77929  -0.65262  -0.61971  -0.61184
 Alpha  occ. eigenvalues --   -0.58164  -0.56708  -0.55092  -0.53254  -0.49568
 Alpha  occ. eigenvalues --   -0.48668  -0.47071  -0.46458  -0.46070  -0.35070
 Alpha virt. eigenvalues --    0.03585   0.03644   0.03758   0.04168   0.05554
 Alpha virt. eigenvalues --    0.05823   0.06276   0.06716   0.07625   0.08859
 Alpha virt. eigenvalues --    0.09458   0.09677   0.10217   0.12418   0.13993

  Beta  occ. eigenvalues --  -11.23214 -11.22444 -11.22374 -11.22026 -11.21981
  Beta  occ. eigenvalues --  -11.21063  -1.08503  -1.02696  -0.94100  -0.85181
  Beta  occ. eigenvalues --   -0.79637  -0.76253  -0.64978  -0.61188  -0.60278
  Beta  occ. eigenvalues --   -0.57644  -0.55428  -0.54641  -0.52683  -0.49214
  Beta  occ. eigenvalues --   -0.48391  -0.46533  -0.46357  -0.45635
  Beta virt. eigenvalues --    0.03597   0.03666   0.03787   0.04210   0.05511
  Beta virt. eigenvalues --    0.05822   0.06218   0.06631   0.07598   0.08793
  Beta virt. eigenvalues --    0.08880   0.09658   0.09906   0.12366   0.12464

 Mulliken charges and spin densities:
               1          2
     1  C    0.159808   1.414043
     2  C   -0.298897  -0.264894
     3  H   -0.067672  -0.103545
     4  H   -0.048944  -0.104801
     5  C   -0.301842   0.029894
     6  H    0.130054   0.004273
     7  H    0.192540   0.042041
     8  C   -0.244244   0.011804
     9  H    0.108537  -0.002368
    10  H    0.100677  -0.006064
    11  C   -0.243023  -0.004103
    12  H    0.138333  -0.019426
    13  H    0.103469   0.003078
    14  C   -0.405917  -0.000161
    15  H    0.118995   0.000202
    16  H    0.112980   0.000046
    17  H    0.164995  -0.000232
    18  H    0.120478   0.000027
    19  H    0.159674   0.000188
 Sum of Mulliken charges =  -0.00000   1.00000

 Dipole moment (field-independent basis, Debye):
    X=              0.0389    Y=             -0.2414    Z=              0.0313  Tot=              0.2465
                          Isotropic Fermi Contact Couplings
        Atom                 a.u.       MegaHertz       Gauss      10(-4) cm-1
     1  C(13)              0.20954     235.56072      84.05392      78.57460
     2  C(13)             -0.05913     -66.47824     -23.72109     -22.17475
     3  H(1)              -0.02379    -106.32306     -37.93871     -35.46556
     4  H(1)              -0.02415    -107.96990     -38.52635     -36.01488
     5  C(13)              0.01729      19.43331       6.93429       6.48226
     6  H(1)               0.00688      30.74865      10.97188      10.25665
     7  H(1)               0.02603     116.36309      41.52124      38.81455
     8  C(13)             -0.00045      -0.50238      -0.17926      -0.16758

 Normal termination of Gaussian 16 at Tue Apr  8 22:44:36 2025.
