 Gaussian 16, Revision C.01,

 ----------------------------------------------------------------------
 #t hf aug-cc-pvdz symm=none int=(grid=ultrafine) guess=(read,tcheck) s
 table=opt
 ----------------------------------------------------------------------
 -----
 title
 -----
 Symbolic Z-matrix:
 Charge =  0 Multiplicity = 2

 SCF Done:  E(UHF) =  -75.4034745627     A.U. after   12 cycles
 Normal termination of Gaussian 16 at Tue Apr  8 22:40:23 2025.
 Gaussian 16:  ES64L-G16RevC.01  3-Jul-2019

 ----------------------------------------------------------------------
 #t hf aug-cc-pvdz iop(5/13=1,5/36=2,99/5=2) pseudo=read geom=check gue
 ss=(read,tcheck) scf=(maxcycle=1)
 ----------------------------------------------------------------------
 -----
 title
 -----
 Structure from the checkpoint file:  "BDE49_expt_1325_mol3.chk"
 Charge =  0 Multiplicity = 2

                         Standard orientation:
 ---------------------------------------------------------------------
 Center     Atomic      Atomic             Coordinates (Angstroms)
 Number     Number       Type             X           Y           Z
 ---------------------------------------------------------------------
      1          8           0        0.000000    0.000000    0.108336
      2          1           0        0.000000    0.000000   -0.866687
 ---------------------------------------------------------------------

 SCF Done:  E(UHF) =  -75.4724780137     A.U. after    2 cycles

 Unable to determine electronic state:  an orbital has unidentified symmetry.
 Alpha  occ. eigenvalues --  -20.63324  -1.47023  -0.67683  -0.64531  -0.55079
 Alpha virt. eigenvalues --    0.03735   0.17626   0.18336   0.19642   0.22967
 Alpha virt. eigenvalues --    0.31695   0.38476   0.39508   0.62147   0.84608
 Alpha virt. eigenvalues --    0.95972   0.96153   1.09379   1.12396   1.33890

  Beta  occ. eigenvalues --  -20.59309  -1.31319  -0.63465  -0.50205
  Beta virt. eigenvalues --    0.03879   0.06530   0.17967   0.20002   0.23665
  Beta virt. eigenvalues --    0.25962   0.32218   0.39465   0.40868   0.63632
  Beta virt. eigenvalues --    0.85655   0.99766   0.99867   1.12613   1.13848

 Mulliken charges and spin densities:
               1          2
     1  O   -0.465323   1.067129
     2  H    0.465323  -0.067129
 Sum of Mulliken charges =  -0.00000   1.00000

 Dipole moment (field-independent basis, Debye):
    X=              0.0000    Y=              0.0000    Z=             -1.7404  Tot=              1.7404
                          Isotropic Fermi Contact Couplings
        Atom                 a.u.       MegaHertz       Gauss      10(-4) cm-1
     1  O(17)              0.22592    -136.95293     -48.86821     -45.68258
     2  H(1)              -0.02189     -97.83257     -34.90909     -32.63343
 --------------------------------------------------------
       Center         ----  Spin Dipole Couplings  ----
                      3XX-RR        3YY-RR        3ZZ-RR
 --------------------------------------------------------
     1   Atom        0.653420      1.093698     -1.747118
     2   Atom       -0.094161     -0.086109      0.180270

 Normal termination of Gaussian 16 at Tue Apr  8 22:40:25 2025.
