 Gaussian 16, Revision C.01,

 ----------------------------------------------------------------------
 #t hf aug-cc-pvdz symm=none int=(grid=ultrafine) guess=(read,tcheck) s
 table=(opt,rrhf)
 ----------------------------------------------------------------------
 -----
 title
 -----
 Symbolic Z-matrix:
 Charge =  0 Multiplicity = 1

 SCF Done:  E(RHF) =  -806.769715502     A.U. after   16 cycles
 Normal termination of Gaussian 16 at Tue Apr  8 22:51:49 2025.
 Gaussian 16:  ES64L-G16RevC.01  3-Jul-2019

 ----------------------------------------------------------------------
 #t hf aug-cc-pvdz iop(5/13=1,5/36=2,99/5=2) pseudo=read geom=check gue
 ss=(read,tcheck) scf=(maxcycle=1)
 ----------------------------------------------------------------------
 -----
 title
 -----
 Structure from the checkpoint file:  "BDE49_expt_1701_mol1.chk"
 Charge =  0 Multiplicity = 1

                         Standard orientation:
 ---------------------------------------------------------------------
 Center     Atomic      Atomic             Coordinates (Angstroms)
 Number     Number       Type             X           Y           Z
 ---------------------------------------------------------------------
      1          6           0        2.288388   -1.274194    0.205022
      2          6           0        0.912012   -1.112988    0.299262
      3          6           0        3.103981   -0.185565   -0.103775
      4          6           0        2.525058    1.059119   -0.319711
      5          6           0        1.141888    1.218732   -0.227004
      6          6           0        0.313821    0.137182    0.086439
      7          1           0        0.289962   -1.973359    0.514980
      8          1           0        2.725947   -2.252898    0.367036
      9          1           0        4.178152   -0.310744   -0.179085
     10          1           0        3.145544    1.913844   -0.564842
     11          1           0        0.720397    2.199652   -0.401883
     12          6           0       -1.193582    0.301780    0.250340
     13          6           0       -1.732383    1.671199   -0.156395
     14          1           0       -1.337284    2.443171    0.510701
     15          1           0       -2.819645    1.677773   -0.074484
     16          1           0       -1.464555    1.920496   -1.183524
     17          6           0       -1.645217   -0.056541    1.668890
     18         17           0       -2.027290   -0.927261   -0.899074
     19          1           0       -1.185987    0.641971    2.375459
     20          1           0       -1.341753   -1.066170    1.944679
     21          1           0       -2.730643    0.017347    1.756799
 ---------------------------------------------------------------------

 SCF Done:  E(RHF) =  -807.211844145     A.U. after    2 cycles

 The electronic state is 1-A.
 Alpha  occ. eigenvalues -- -105.54097 -11.32610 -11.25851 -11.24906 -11.24797
 Alpha  occ. eigenvalues --  -11.24734 -11.24679 -11.24577 -11.24348 -11.24299
 Alpha  occ. eigenvalues --  -10.58877  -7.75796  -7.75467  -7.75459  -1.17551
 Alpha  occ. eigenvalues --   -1.12377  -1.02424  -1.01666  -0.98777  -0.95818
 Alpha  occ. eigenvalues --   -0.86061  -0.83843  -0.77502  -0.71608  -0.65740
 Alpha  occ. eigenvalues --   -0.65116  -0.63230  -0.62537  -0.60575  -0.59040
 Alpha  occ. eigenvalues --   -0.56544  -0.54932  -0.52843  -0.52644  -0.50455
 Alpha  occ. eigenvalues --   -0.50351  -0.48504  -0.43920  -0.43411  -0.35146
 Alpha  occ. eigenvalues --   -0.34438
 Alpha virt. eigenvalues --    0.03138   0.03351   0.03750   0.04549   0.04758
 Alpha virt. eigenvalues --    0.05185   0.06620   0.07433   0.07523   0.08038
 Alpha virt. eigenvalues --    0.09107   0.09613   0.10258   0.11670   0.11975

 Mulliken charges:
               1
     1  C    0.089754
     2  C    0.015504
     3  C   -0.001916
     4  C    0.135576
     5  C    0.047669
     6  C    2.506727
     7  H   -0.324068
     8  H   -0.239104
     9  H   -0.224264
    10  H   -0.244069
    11  H   -0.439439
    12  C   -2.247572
    13  C    0.040788
    14  H    0.336967
    15  H    0.071234
    16  H    0.247972
    17  C   -0.175318
    18  Cl  -0.141659
    19  H    0.233514
    20  H    0.145507
    21  H    0.166196
 Sum of Mulliken charges =  -0.00000

 Dipole moment (field-independent basis, Debye):
    X=              1.1537    Y=              1.5847    Z=              1.5772  Tot=              2.5160

 Test job not archived.
 1\1\GINC-SE039\SP\RHF\Aug-CC-pVDZ\C9H11Cl1\OHZDE\08-Apr-2025\0\\#t hf
 aug-cc-pvdz iop(5/13=1,5/36=2,99/5=2) pseudo=read geom=check guess=(re
 ad,tcheck) scf=(maxcycle=1)\\title\\0,1\C,0,2.288388,-1.274194,0.20502
 2\C,0,0.912012,-1.112988,0.299262\C,0,3.103981,-0.185565,-0.103775\C,0
 ,2.525058,1.059119,-0.319711\C,0,1.141888,1.218732,-0.227004\C,0,0.313
 821,0.137182,0.086439\H,0,0.289962,-1.973359,0.51498\H,0,2.725947,-2.2
 52898,0.367036\H,0,4.178152,-0.310744,-0.179085\H,0,3.145544,1.913844,
 -0.564842\H,0,0.720397,2.199652,-0.401883\C,0,-1.193582,0.30178,0.2503

 Normal termination of Gaussian 16 at Tue Apr  8 22:52:05 2025.
