 Gaussian 16, Revision C.01,

 ----------------------------------------------------------------------
 #t hf aug-cc-pvdz symm=none int=(grid=ultrafine) guess=(read,tcheck) s
 table=opt
 ----------------------------------------------------------------------
 -----
 title
 -----
 Symbolic Z-matrix:
 Charge =  0 Multiplicity = 2

 SCF Done:  E(UHF) =  -671.385860384     A.U. after   17 cycles
 Normal termination of Gaussian 16 at Wed Apr  9 00:09:56 2025.
 Gaussian 16:  ES64L-G16RevC.01  3-Jul-2019

 ----------------------------------------------------------------------
 #t hf aug-cc-pvdz iop(5/13=1,5/36=2,99/5=2) pseudo=read geom=check gue
 ss=(read,tcheck) scf=(maxcycle=1)
 ----------------------------------------------------------------------
 -----
 title
 -----
 Structure from the checkpoint file:  "BDE49_nonexpt_2277_mol2.chk"
 Charge =  0 Multiplicity = 2

                         Standard orientation:
 ---------------------------------------------------------------------
 Center     Atomic      Atomic             Coordinates (Angstroms)
 Number     Number       Type             X           Y           Z
 ---------------------------------------------------------------------
      1         14           0        1.831571   -0.886083    0.517412
      2          6           0        0.103729   -0.174027    0.043598
      3          6           0        0.320937    0.865392   -1.063395
      4          8           0        1.358123    1.749390   -0.618066
      5          1           0        0.609750    0.357500   -1.992370
      6          1           0       -0.605554    1.416799   -1.248701
      7          1           0        1.531002    2.393512   -1.310880
      8          6           0       -0.511936    0.485574    1.284030
      9          6           0       -0.791092   -1.328349   -0.474682
     10          8           0       -1.858314    0.903340    0.976157
     11          1           0        0.090780    1.351641    1.575134
     12          1           0       -0.531866   -0.228877    2.118186
     13          1           0       -2.229209    1.342674    1.746693
     14          8           0       -1.977434   -0.877568   -1.116701
     15          1           0       -1.024522   -2.003569    0.361329
     16          1           0       -0.255287   -1.916118   -1.225752
     17          1           0       -2.408161   -0.281932   -0.488387
     18          1           0        2.615416   -1.156001   -0.715210
     19          1           0        1.656828   -2.163303    1.267767
 ---------------------------------------------------------------------

 SCF Done:  E(UHF) =  -671.807359730     A.U. after    2 cycles

 The electronic state is 2-A.
 Alpha  occ. eigenvalues --  -69.53426 -20.56651 -20.55696 -20.53006 -11.29864
 Alpha  occ. eigenvalues --  -11.28824 -11.28597 -11.23957  -6.20535  -3.96471
 Alpha  occ. eigenvalues --   -3.95563  -3.95552  -1.46540  -1.45359  -1.43118
 Alpha  occ. eigenvalues --   -1.07823  -0.93091  -0.91815  -0.79330  -0.75088
 Alpha  occ. eigenvalues --   -0.70884  -0.69008  -0.67998  -0.65034  -0.62399
 Alpha  occ. eigenvalues --   -0.59749  -0.58777  -0.56452  -0.55557  -0.51845
 Alpha  occ. eigenvalues --   -0.48520  -0.47640  -0.46204  -0.45376  -0.43496
 Alpha  occ. eigenvalues --   -0.42343  -0.33106
 Alpha virt. eigenvalues --    0.03031   0.03443   0.03780   0.04742   0.05627
 Alpha virt. eigenvalues --    0.06060   0.06463   0.06676   0.07393   0.09228
 Alpha virt. eigenvalues --    0.09486   0.09952   0.10244   0.11337   0.12747

  Beta  occ. eigenvalues --  -69.52844 -20.56656 -20.55657 -20.52953 -11.29856
  Beta  occ. eigenvalues --  -11.28833 -11.28548 -11.23923  -6.19645  -3.95166
  Beta  occ. eigenvalues --   -3.95147  -3.94268  -1.46536  -1.45291  -1.42975
  Beta  occ. eigenvalues --   -1.07573  -0.93028  -0.91685  -0.78349  -0.74250
  Beta  occ. eigenvalues --   -0.70481  -0.68405  -0.66955  -0.64317  -0.62141
  Beta  occ. eigenvalues --   -0.59608  -0.58314  -0.56316  -0.55378  -0.51683
  Beta  occ. eigenvalues --   -0.47764  -0.47339  -0.46145  -0.45233  -0.42876
  Beta  occ. eigenvalues --   -0.41891
  Beta virt. eigenvalues --    0.02704   0.03256   0.03602   0.03962   0.05666
  Beta virt. eigenvalues --    0.05681   0.06127   0.06579   0.06855   0.08306
  Beta virt. eigenvalues --    0.09256   0.09512   0.10169   0.10451   0.11582

 Mulliken charges and spin densities:
               1          2
     1  Si   0.020219   1.046962
     2  C   -1.559103  -0.131613
     3  C    1.072808   0.035566
     4  O   -1.169915  -0.014631
     5  H    0.139943  -0.003502
     6  H    0.230052   0.001918
     7  H    0.305877  -0.000900
     8  C    0.977434   0.058180
     9  C    1.174957  -0.024765
    10  O   -1.275710  -0.000246
    11  H    0.146405  -0.000240
    12  H    0.115855   0.000112
    13  H    0.352910   0.000067
    14  O   -1.221224   0.010005
    15  H    0.125540  -0.004293
    16  H    0.084795  -0.009744
    17  H    0.470273  -0.000433
    18  H    0.011069   0.010303
    19  H   -0.002185   0.027253
 Sum of Mulliken charges =   0.00000   1.00000

 Dipole moment (field-independent basis, Debye):
    X=              0.1445    Y=              1.7343    Z=              1.4118  Tot=              2.2409
                          Isotropic Fermi Contact Couplings
        Atom                 a.u.       MegaHertz       Gauss      10(-4) cm-1
     1  Si(29)             0.62814    -558.24642    -199.19621    -186.21096
     2  C(13)              0.00369       4.14431       1.47879       1.38239
     3  C(13)             -0.00176      -1.97300      -0.70402      -0.65812
     4  O(17)              0.00898      -5.44643      -1.94342      -1.81673
     5  H(1)               0.00006       0.27334       0.09753       0.09118
     6  H(1)               0.00054       2.40278       0.85737       0.80148
     7  H(1)               0.00009       0.42336       0.15106       0.14122
     8  C(13)              0.00280       3.14341       1.12165       1.04853

 Normal termination of Gaussian 16 at Wed Apr  9 00:10:28 2025.
