 Gaussian 16, Revision C.01,

 ----------------------------------------------------------------------
 #t hf aug-cc-pvdz symm=none int=(grid=ultrafine) guess=(read,tcheck) s
 table=opt
 ----------------------------------------------------------------------
 -----
 title
 -----
 Symbolic Z-matrix:
 Charge =  0 Multiplicity = 2

 SCF Done:  E(UHF) =  -465.764004499     A.U. after   16 cycles
 Normal termination of Gaussian 16 at Tue Apr  8 23:54:21 2025.
 Gaussian 16:  ES64L-G16RevC.01  3-Jul-2019

 ----------------------------------------------------------------------
 #t hf aug-cc-pvdz iop(5/13=1,5/36=2,99/5=2) pseudo=read geom=check gue
 ss=(read,tcheck) scf=(maxcycle=1)
 ----------------------------------------------------------------------
 -----
 title
 -----
 Structure from the checkpoint file:  "BDE49_nonexpt_1958_mol2.chk"
 Charge =  0 Multiplicity = 2

                         Standard orientation:
 ---------------------------------------------------------------------
 Center     Atomic      Atomic             Coordinates (Angstroms)
 Number     Number       Type             X           Y           Z
 ---------------------------------------------------------------------
      1         14           0       -1.485579   -0.022784   -0.074518
      2          5           0        0.527447   -0.005071    0.011755
      3          1           0       -2.196532   -1.196892    0.480313
      4          1           0       -2.160527    1.236060    0.336350
      5          8           0        1.283825    1.137682    0.011792
      6          1           0        0.774718    1.951518    0.036753
      7          8           0        1.167994   -1.205272    0.003496
      8          1           0        2.128664   -1.105629    0.008754
 ---------------------------------------------------------------------

 SCF Done:  E(UHF) =  -465.966598060     A.U. after    2 cycles

 The electronic state is 2-A.
 Alpha  occ. eigenvalues --  -69.52482 -20.57167 -20.56289  -7.65521  -6.19895
 Alpha  occ. eigenvalues --   -3.95925  -3.94978  -3.94925  -1.49105  -1.44822
 Alpha  occ. eigenvalues --   -0.79616  -0.75924  -0.71528  -0.61553  -0.58052
 Alpha  occ. eigenvalues --   -0.56634  -0.50287  -0.49225  -0.44694  -0.32129
 Alpha virt. eigenvalues --    0.03621   0.04174   0.05156   0.05811   0.07159
 Alpha virt. eigenvalues --    0.07657   0.08232   0.09177   0.09357   0.10315
 Alpha virt. eigenvalues --    0.11017   0.14328   0.16618   0.17309   0.18716

  Beta  occ. eigenvalues --  -69.51944 -20.57115 -20.56232  -7.65558  -6.19117
  Beta  occ. eigenvalues --   -3.94581  -3.94552  -3.93718  -1.48979  -1.44682
  Beta  occ. eigenvalues --   -0.78730  -0.74894  -0.68816  -0.61052  -0.57500
  Beta  occ. eigenvalues --   -0.56574  -0.49783  -0.48881  -0.43903
  Beta virt. eigenvalues --    0.01933   0.03712   0.04310   0.05216   0.06743
  Beta virt. eigenvalues --    0.07272   0.07738   0.09460   0.09698   0.09891
  Beta virt. eigenvalues --    0.10468   0.11549   0.16665   0.17379   0.18855

 Mulliken charges and spin densities:
               1          2
     1  Si   0.405443   1.083865
     2  B    1.190997  -0.034175
     3  H   -0.155096  -0.040651
     4  H   -0.177714  -0.051727
     5  O   -1.207069   0.021855
     6  H    0.541838  -0.003703
     7  O   -1.122892   0.025763
     8  H    0.524492  -0.001228
 Sum of Mulliken charges =   0.00000   1.00000

 Dipole moment (field-independent basis, Debye):
    X=              0.5537    Y=              1.3507    Z=              0.2088  Tot=              1.4746
                          Isotropic Fermi Contact Couplings
        Atom                 a.u.       MegaHertz       Gauss      10(-4) cm-1
     1  Si(29)             0.41151    -365.72347    -130.49923    -121.99222
     2  B(11)             -0.00721     -10.33528      -3.68789      -3.44748
     3  H(1)              -0.00797     -35.62965     -12.71354     -11.88477
     4  H(1)              -0.00796     -35.56899     -12.69190     -11.86454
     5  O(17)              0.00491      -2.97800      -1.06262      -0.99335
     6  H(1)              -0.00026      -1.16504      -0.41572      -0.38862
     7  O(17)              0.00283      -1.71844      -0.61318      -0.57321
     8  H(1)              -0.00060      -2.69577      -0.96192      -0.89921

 Normal termination of Gaussian 16 at Tue Apr  8 23:54:24 2025.
