 Gaussian 16, Revision C.01,

 ----------------------------------------------------------------------
 #t hf aug-cc-pvdz symm=none int=(grid=ultrafine) guess=(read,tcheck) s
 table=(opt,rrhf)
 ----------------------------------------------------------------------
 -----
 title
 -----
 Symbolic Z-matrix:
 Charge =  0 Multiplicity = 1

 SCF Done:  E(RHF) =  -1221.81396320     A.U. after   18 cycles
 Normal termination of Gaussian 16 at Tue Apr  8 23:27:08 2025.
 Gaussian 16:  ES64L-G16RevC.01  3-Jul-2019

 ----------------------------------------------------------------------
 #t hf aug-cc-pvdz iop(5/13=1,5/36=2,99/5=2) pseudo=read geom=check gue
 ss=(read,tcheck) scf=(maxcycle=1)
 ----------------------------------------------------------------------
 -----
 title
 -----
 Structure from the checkpoint file:  "BDE49_nonexpt_1235_mol1.chk"
 Charge =  0 Multiplicity = 1

                         Standard orientation:
 ---------------------------------------------------------------------
 Center     Atomic      Atomic             Coordinates (Angstroms)
 Number     Number       Type             X           Y           Z
 ---------------------------------------------------------------------
      1         17           0       -2.223794   -1.822320   -0.215661
      2          1           0        0.811553    1.515906   -1.791738
      3          1           0        3.192859    1.574276   -1.201425
      4         15           0       -1.431910   -0.001858   -0.954560
      5          6           0       -1.976492    1.266329    0.366511
      6          6           0        0.333895   -0.104013   -0.445776
      7          6           0        3.080065   -0.048578    0.207266
      8          6           0       -2.897897    0.910039    1.502326
      9          1           0       -2.439677    0.143734    2.133255
     10          1           0       -3.826962    0.482814    1.115293
     11          6           0        1.194860    0.816443   -1.057143
     12          8           0       -1.553063    2.376635    0.158352
     13          6           0        4.553079   -0.043036    0.533323
     14          6           0        2.544691    0.847426   -0.722769
     15          1           0        0.215985   -1.730711    0.965107
     16          1           0        2.604455   -1.678851    1.527835
     17          1           0       -3.108163    1.806316    2.086737
     18          6           0        0.859565   -1.002365    0.487638
     19          6           0        2.214179   -0.972379    0.802089
     20          1           0        5.104486   -0.709009   -0.139439
     21          1           0        4.736360   -0.385640    1.554178
     22          1           0        4.981078    0.956200    0.427209
 ---------------------------------------------------------------------

 SCF Done:  E(RHF) =  -1222.36641680     A.U. after    2 cycles

 The electronic state is 1-A.
 Alpha  occ. eigenvalues -- -105.56848 -84.33949 -20.55940 -11.36060 -11.26311
 Alpha  occ. eigenvalues --  -11.26270 -11.25931 -11.25841 -11.25587 -11.24866
 Alpha  occ. eigenvalues --  -11.24827 -11.24427 -10.61703  -7.78607  -7.78268
 Alpha  occ. eigenvalues --   -7.78252  -6.80569  -4.33305  -4.32897  -4.32360
 Alpha  occ. eigenvalues --   -1.49424  -1.17202  -1.08696  -1.05371  -1.02822
 Alpha  occ. eigenvalues --   -1.02415  -0.95607  -0.87343  -0.84891  -0.80874
 Alpha  occ. eigenvalues --   -0.74438  -0.69129  -0.66934  -0.65282  -0.64320
 Alpha  occ. eigenvalues --   -0.63142  -0.61855  -0.60955  -0.59199  -0.56366
 Alpha  occ. eigenvalues --   -0.56112  -0.55758  -0.52672  -0.51226  -0.50865
 Alpha  occ. eigenvalues --   -0.49761  -0.49129  -0.48186  -0.40678  -0.37399
 Alpha  occ. eigenvalues --   -0.35675  -0.32608
 Alpha virt. eigenvalues --    0.03258   0.03479   0.03884   0.04441   0.04678
 Alpha virt. eigenvalues --    0.05485   0.05768   0.06799   0.07200   0.08144
 Alpha virt. eigenvalues --    0.08460   0.08674   0.08892   0.09757   0.09993

 Mulliken charges:
               1
     1  Cl  -0.507173
     2  H   -0.237758
     3  H   -0.305637
     4  P    1.096315
     5  C    0.741452
     6  C    0.531065
     7  C    0.155893
     8  C   -0.617216
     9  H    0.259291
    10  H    0.277238
    11  C   -0.702159
    12  O   -1.285485
    13  C   -0.713716
    14  C    0.811922
    15  H   -0.299051
    16  H   -0.306855
    17  H    0.124928
    18  C   -0.321097
    19  C    0.775639
    20  H    0.282154
    21  H    0.119270
    22  H    0.120978
 Sum of Mulliken charges =   0.00000

 Dipole moment (field-independent basis, Debye):
    X=              1.5610    Y=             -0.6141    Z=              1.1074  Tot=              2.0100

 Test job not archived.
 1\1\GINC-SE454\SP\RHF\Aug-CC-pVDZ\C9H10Cl1O1P1\OHZDE\08-Apr-2025\0\\#t
  hf aug-cc-pvdz iop(5/13=1,5/36=2,99/5=2) pseudo=read geom=check guess
 =(read,tcheck) scf=(maxcycle=1)\\title\\0,1\Cl,0,-2.223794,-1.82232,-0
 .215661\H,0,0.811553,1.515906,-1.791738\H,0,3.192859,1.574276,-1.20142
 5\P,0,-1.43191,-0.001858,-0.95456\C,0,-1.976492,1.266329,0.366511\C,0,
 0.333895,-0.104013,-0.445776\C,0,3.080065,-0.048578,0.207266\C,0,-2.89
 7897,0.910039,1.502326\H,0,-2.439677,0.143734,2.133255\H,0,-3.826962,0
 .482814,1.115293\C,0,1.19486,0.816443,-1.057143\O,0,-1.553063,2.376635

 Normal termination of Gaussian 16 at Tue Apr  8 23:27:25 2025.
