 Gaussian 16, Revision C.01,

 ----------------------------------------------------------------------
 #t hf aug-cc-pvdz symm=none int=(grid=ultrafine) guess=(read,tcheck) s
 table=opt
 ----------------------------------------------------------------------
 -----
 title
 -----
 Symbolic Z-matrix:
 Charge =  0 Multiplicity = 2

 SCF Done:  E(UHF) =  -1184.18210998     A.U. after   17 cycles
 Normal termination of Gaussian 16 at Tue Apr  8 23:48:26 2025.
 Gaussian 16:  ES64L-G16RevC.01  3-Jul-2019

 ----------------------------------------------------------------------
 #t hf aug-cc-pvdz iop(5/13=1,5/36=2,99/5=2) pseudo=read geom=check gue
 ss=(read,tcheck) scf=(maxcycle=1)
 ----------------------------------------------------------------------
 -----
 title
 -----
 Structure from the checkpoint file:  "BDE49_nonexpt_1811_mol2.chk"
 Charge =  0 Multiplicity = 2

                         Standard orientation:
 ---------------------------------------------------------------------
 Center     Atomic      Atomic             Coordinates (Angstroms)
 Number     Number       Type             X           Y           Z
 ---------------------------------------------------------------------
      1          6           0       -0.700164   -0.429669    0.000075
      2         14           0        1.247445   -0.435467    0.000084
      3         17           0       -1.348971    1.245847   -0.000226
      4          9           0       -1.167329   -1.077033    1.091365
      5          9           0       -1.167320   -1.077421   -1.090988
      6          9           0        1.704501    0.382751    1.292166
      7          9           0        1.704510    0.382276   -1.292297
 ---------------------------------------------------------------------

 SCF Done:  E(UHF) =  -1184.67761387     A.U. after    2 cycles

 The electronic state is 2-A.
 Alpha  occ. eigenvalues -- -105.60317 -69.68501 -26.52464 -26.52463 -26.49992
 Alpha  occ. eigenvalues --  -26.49991 -11.50439 -10.65190  -7.82177  -7.81711
 Alpha  occ. eigenvalues --   -7.81691  -6.34658  -4.10154  -4.09662  -4.09418
 Alpha  occ. eigenvalues --   -1.69699  -1.62567  -1.62556  -1.60378  -1.13007
 Alpha  occ. eigenvalues --   -0.94735  -0.84643  -0.79489  -0.78287  -0.76694
 Alpha  occ. eigenvalues --   -0.73584  -0.70832  -0.69286  -0.68590  -0.67178
 Alpha  occ. eigenvalues --   -0.65214  -0.64480  -0.62868  -0.54734  -0.50654
 Alpha  occ. eigenvalues --   -0.50238  -0.41589
 Alpha virt. eigenvalues --    0.04568   0.05201   0.05309   0.06782   0.09306
 Alpha virt. eigenvalues --    0.11835   0.11899   0.12578   0.12765   0.14465
 Alpha virt. eigenvalues --    0.16348   0.17418   0.20242   0.20602   0.21659

  Beta  occ. eigenvalues -- -105.60272 -69.67896 -26.52491 -26.52489 -26.49677
  Beta  occ. eigenvalues --  -26.49676 -11.49961 -10.65143  -7.82028  -7.81665
  Beta  occ. eigenvalues --   -7.81654  -6.33635  -4.09269  -4.09096  -4.08222
  Beta  occ. eigenvalues --   -1.69681  -1.62617  -1.61676  -1.59512  -1.12480
  Beta  occ. eigenvalues --   -0.93687  -0.82995  -0.79393  -0.77064  -0.76469
  Beta  occ. eigenvalues --   -0.72302  -0.69129  -0.68638  -0.68613  -0.66009
  Beta  occ. eigenvalues --   -0.65008  -0.64408  -0.62034  -0.53201  -0.50166
  Beta  occ. eigenvalues --   -0.48789
  Beta virt. eigenvalues --   -0.01389   0.05291   0.05602   0.06165   0.07046
  Beta virt. eigenvalues --    0.09866   0.12167   0.12306   0.13079   0.15067
  Beta virt. eigenvalues --    0.15988   0.17531   0.18197   0.20777   0.21050

 Mulliken charges and spin densities:
               1          2
     1  C    1.020761   0.106184
     2  Si   1.989971   0.890937
     3  Cl  -0.166913   0.024541
     4  F   -0.656679  -0.005045
     5  F   -0.656679  -0.005044
     6  F   -0.765231  -0.005787
     7  F   -0.765230  -0.005786
 Sum of Mulliken charges =  -0.00000   1.00000

 Dipole moment (field-independent basis, Debye):
    X=              0.9929    Y=             -1.1675    Z=              0.0002  Tot=              1.5326
                          Isotropic Fermi Contact Couplings
        Atom                 a.u.       MegaHertz       Gauss      10(-4) cm-1
     1  C(13)              0.11258     126.56513      45.16159      42.21758
     2  Si(29)             1.05422    -936.91318    -334.31392    -312.52060
     3  Cl(35)             0.01560       6.84078       2.44096       2.28184
     4  F(19)             -0.00515     -21.68537      -7.73788      -7.23346
     5  F(19)             -0.00515     -21.68492      -7.73772      -7.23331
     6  F(19)              0.05874     247.14619      88.18790      82.43909
     7  F(19)              0.05874     247.14582      88.18777      82.43897
 --------------------------------------------------------

 Normal termination of Gaussian 16 at Tue Apr  8 23:48:30 2025.
