 Gaussian 16, Revision C.01,

 ----------------------------------------------------------------------
 #t hf aug-cc-pvdz symm=none int=(grid=ultrafine) guess=(read,tcheck) s
 table=(opt,rrhf)
 ----------------------------------------------------------------------
 -----
 title
 -----
 Symbolic Z-matrix:
 Charge =  0 Multiplicity = 1

 SCF Done:  E(RHF) =  -343.473392090     A.U. after   16 cycles
 Normal termination of Gaussian 16 at Tue Apr  8 23:01:11 2025.
 Gaussian 16:  ES64L-G16RevC.01  3-Jul-2019

 ----------------------------------------------------------------------
 #t hf aug-cc-pvdz iop(5/13=1,5/36=2,99/5=2) pseudo=read geom=check gue
 ss=(read,tcheck) scf=(maxcycle=1)
 ----------------------------------------------------------------------
 -----
 title
 -----
 Structure from the checkpoint file:  "BDE49_expt_204_mol1.chk"
 Charge =  0 Multiplicity = 1

                         Standard orientation:
 ---------------------------------------------------------------------
 Center     Atomic      Atomic             Coordinates (Angstroms)
 Number     Number       Type             X           Y           Z
 ---------------------------------------------------------------------
      1          6           0        1.992705    0.465242   -0.000005
      2          8           0        2.842896   -0.394135    0.000005
      3          6           0        0.532746    0.212005   -0.000002
      4          1           0        2.271347    1.542040    0.000008
      5          6           0        0.042659   -1.100174   -0.000001
      6          6           0       -1.326468   -1.327579    0.000001
      7          6           0       -2.213920   -0.247810    0.000001
      8          6           0       -1.732020    1.059972   -0.000000
      9          6           0       -0.358978    1.288660   -0.000002
     10          1           0        0.027352    2.303400   -0.000003
     11          1           0       -3.283067   -0.428718    0.000003
     12          1           0       -2.423649    1.894453   -0.000000
     13          1           0        0.753481   -1.918106   -0.000001
     14          1           0       -1.708973   -2.341879    0.000002
 ---------------------------------------------------------------------

 SCF Done:  E(RHF) =  -343.821024576     A.U. after    2 cycles

 The electronic state is 1-A.
 Alpha  occ. eigenvalues --  -20.54543 -11.34582 -11.26916 -11.26690 -11.26196
 Alpha  occ. eigenvalues --  -11.25981 -11.25878 -11.25815  -1.47554  -1.17576
 Alpha  occ. eigenvalues --   -1.05393  -1.03671  -0.90338  -0.85635  -0.80363
 Alpha  occ. eigenvalues --   -0.73319  -0.69006  -0.66470  -0.63304  -0.62590
 Alpha  occ. eigenvalues --   -0.61772  -0.56053  -0.54207  -0.52164  -0.50828
 Alpha  occ. eigenvalues --   -0.42489  -0.36498  -0.36116
 Alpha virt. eigenvalues --    0.02914   0.03279   0.04019   0.05024   0.05462
 Alpha virt. eigenvalues --    0.05994   0.07711   0.08448   0.09485   0.10802
 Alpha virt. eigenvalues --    0.11634   0.12390   0.13458   0.13520   0.13752

 Mulliken charges:
               1
     1  C    0.577782
     2  O   -1.283518
     3  C    1.696144
     4  H   -0.016659
     5  C   -0.198651
     6  C    0.366779
     7  C   -0.190778
     8  C    0.186206
     9  C    0.070578
    10  H   -0.269058
    11  H   -0.206015
    12  H   -0.225036
    13  H   -0.294834
    14  H   -0.212940
 Sum of Mulliken charges =  -0.00000

 Dipole moment (field-independent basis, Debye):
    X=             -3.2256    Y=              1.4306    Z=             -0.0000  Tot=              3.5286

 Test job not archived.
 1\1\GINC-SE250\SP\RHF\Aug-CC-pVDZ\C7H6O1\OHZDE\08-Apr-2025\0\\#t hf au
 g-cc-pvdz iop(5/13=1,5/36=2,99/5=2) pseudo=read geom=check guess=(read
 ,tcheck) scf=(maxcycle=1)\\title\\0,1\C,0,1.992705,0.465242,-0.000005\
 O,0,2.842896,-0.394135,0.000005\C,0,0.532746,0.212005,-0.000002\H,0,2.
 271347,1.54204,0.000008\C,0,0.042659,-1.100174,-0.000001\C,0,-1.326468
 ,-1.327579,0.000001\C,0,-2.21392,-0.24781,0.000001\C,0,-1.73202,1.0599
 72,0.\C,0,-0.358978,1.28866,-0.000002\H,0,0.027352,2.3034,-0.000003\H,
 0,-3.283067,-0.428718,0.000003\H,0,-2.423649,1.894453,0.\H,0,0.753481,

 Normal termination of Gaussian 16 at Tue Apr  8 23:01:16 2025.
