 Gaussian 16, Revision C.01,

 ----------------------------------------------------------------------
 #t hf aug-cc-pvdz symm=none int=(grid=ultrafine) guess=(read,tcheck) s
 table=(opt,rrhf)
 ----------------------------------------------------------------------
 -----
 title
 -----
 Symbolic Z-matrix:
 Charge =  0 Multiplicity = 1

 SCF Done:  E(RHF) =  -630.669460855     A.U. after   15 cycles
 Normal termination of Gaussian 16 at Tue Apr  8 23:58:46 2025.
 Gaussian 16:  ES64L-G16RevC.01  3-Jul-2019

 ----------------------------------------------------------------------
 #t hf aug-cc-pvdz iop(5/13=1,5/36=2,99/5=2) pseudo=read geom=check gue
 ss=(read,tcheck) scf=(maxcycle=1)
 ----------------------------------------------------------------------
 -----
 title
 -----
 Structure from the checkpoint file:  "BDE49_nonexpt_2066_mol1.chk"
 Charge =  0 Multiplicity = 1

                         Standard orientation:
 ---------------------------------------------------------------------
 Center     Atomic      Atomic             Coordinates (Angstroms)
 Number     Number       Type             X           Y           Z
 ---------------------------------------------------------------------
      1         14           0        2.403040   -0.506472    0.171682
      2          6           0        0.757149    0.410907   -0.221046
      3          8           0        0.644165    1.539075   -0.591536
      4          8           0       -0.325957   -0.463191   -0.057627
      5          6           0       -1.636483   -0.001895    0.164432
      6          8           0       -1.879074    1.032482    0.699153
      7          6           0       -2.618994   -1.030316   -0.320878
      8          1           0       -2.385474   -2.006027    0.109841
      9          1           0       -2.538236   -1.124609   -1.406817
     10          1           0       -3.627325   -0.726043   -0.048057
     11          1           0        3.511548    0.431600   -0.082089
     12          1           0        2.503116   -1.696280   -0.699605
     13          1           0        2.370699   -0.927154    1.588209
 ---------------------------------------------------------------------

 SCF Done:  E(RHF) =  -631.035317031     A.U. after    2 cycles

 The electronic state is 1-A.
 Alpha  occ. eigenvalues --  -69.56129 -20.61183 -20.56479 -20.55709 -11.41158
 Alpha  occ. eigenvalues --  -11.39670 -11.26654  -6.23230  -3.98627  -3.98581
 Alpha  occ. eigenvalues --   -3.98579  -1.57033  -1.50480  -1.46519  -1.04938
 Alpha  occ. eigenvalues --   -0.91623  -0.79753  -0.74530  -0.70828  -0.69188
 Alpha  occ. eigenvalues --   -0.67720  -0.62304  -0.60780  -0.59595  -0.56747
 Alpha  occ. eigenvalues --   -0.53738  -0.51804  -0.51149  -0.48000  -0.47075
 Alpha  occ. eigenvalues --   -0.42251
 Alpha virt. eigenvalues --    0.02927   0.03787   0.04495   0.05104   0.05587
 Alpha virt. eigenvalues --    0.06129   0.07064   0.08064   0.09315   0.09881
 Alpha virt. eigenvalues --    0.10399   0.12045   0.12635   0.13411   0.13545

 Mulliken charges:
               1
     1  Si   0.860494
     2  C    1.098799
     3  O   -0.951671
     4  O   -1.265102
     5  C    1.777599
     6  O   -1.121452
     7  C   -0.620730
     8  H    0.238054
     9  H    0.249494
    10  H    0.187301
    11  H   -0.111320
    12  H   -0.165292
    13  H   -0.176175
 Sum of Mulliken charges =  -0.00000

 Dipole moment (field-independent basis, Debye):
    X=              0.4763    Y=             -3.9952    Z=             -0.4677  Tot=              4.0506

 Test job not archived.
 1\1\GINC-SE363\SP\RHF\Aug-CC-pVDZ\C3H6O3Si1\OHZDE\08-Apr-2025\0\\#t hf
  aug-cc-pvdz iop(5/13=1,5/36=2,99/5=2) pseudo=read geom=check guess=(r
 ead,tcheck) scf=(maxcycle=1)\\title\\0,1\Si,0,2.40304,-0.506472,0.1716
 82\C,0,0.757149,0.410907,-0.221046\O,0,0.644165,1.539075,-0.591536\O,0
 ,-0.325957,-0.463191,-0.057627\C,0,-1.636483,-0.001895,0.164432\O,0,-1
 .879074,1.032482,0.699153\C,0,-2.618994,-1.030316,-0.320878\H,0,-2.385
 474,-2.006027,0.109841\H,0,-2.538236,-1.124609,-1.406817\H,0,-3.627325
 ,-0.726043,-0.048057\H,0,3.511548,0.4316,-0.082089\H,0,2.503116,-1.696

 Normal termination of Gaussian 16 at Tue Apr  8 23:58:51 2025.
