 Gaussian 16, Revision C.01,

 ----------------------------------------------------------------------
 #t hf aug-cc-pvdz symm=none int=(grid=ultrafine) guess=(read,tcheck) s
 table=(opt,rrhf)
 ----------------------------------------------------------------------
 -----
 title
 -----
 Symbolic Z-matrix:
 Charge =  0 Multiplicity = 1

 SCF Done:  E(RHF) =  -592.846688187     A.U. after   13 cycles
 Normal termination of Gaussian 16 at Tue Apr  8 23:59:02 2025.
 Gaussian 16:  ES64L-G16RevC.01  3-Jul-2019

 ----------------------------------------------------------------------
 #t hf aug-cc-pvdz iop(5/13=1,5/36=2,99/5=2) pseudo=read geom=check gue
 ss=(read,tcheck) scf=(maxcycle=1)
 ----------------------------------------------------------------------
 -----
 title
 -----
 Structure from the checkpoint file:  "BDE49_nonexpt_2073_mol1.chk"
 Charge =  0 Multiplicity = 1

                         Standard orientation:
 ---------------------------------------------------------------------
 Center     Atomic      Atomic             Coordinates (Angstroms)
 Number     Number       Type             X           Y           Z
 ---------------------------------------------------------------------
      1         14           0       -2.202466   -0.000309    0.000026
      2          8           0       -0.662708   -0.709182   -0.000027
      3          6           0        0.433206    0.060355   -0.000066
      4          8           0        0.424167    1.267928   -0.000004
      5          8           0        1.518213   -0.713695   -0.000022
      6          6           0        2.771766   -0.005672    0.000032
      7          1           0        2.856881    0.619913   -0.889509
      8          1           0        3.536862   -0.778309    0.000062
      9          1           0        2.856808    0.619909    0.889583
     10          1           0       -3.102562   -1.166250    0.000061
     11          1           0       -2.390386    0.810271   -1.216804
     12          1           0       -2.390300    0.810277    1.216866
 ---------------------------------------------------------------------

 SCF Done:  E(RHF) =  -593.178923415     A.U. after    2 cycles

 The electronic state is 1-A.
 Alpha  occ. eigenvalues --  -69.57623 -20.60427 -20.58818 -20.54208 -11.45031
 Alpha  occ. eigenvalues --  -11.30631  -6.24217  -3.99718  -3.99555  -3.99533
 Alpha  occ. eigenvalues --   -1.58992  -1.48860  -1.45950  -0.99367  -0.85136
 Alpha  occ. eigenvalues --   -0.76881  -0.73095  -0.70484  -0.69343  -0.61904
 Alpha  occ. eigenvalues --   -0.61850  -0.57448  -0.54451  -0.52801  -0.49606
 Alpha  occ. eigenvalues --   -0.47505  -0.47007  -0.46744
 Alpha virt. eigenvalues --    0.03602   0.04026   0.05212   0.05360   0.05515
 Alpha virt. eigenvalues --    0.06711   0.07144   0.09499   0.09644   0.10587
 Alpha virt. eigenvalues --    0.13488   0.13534   0.14635   0.14773   0.15149

 Mulliken charges:
               1
     1  Si   1.267287
     2  O   -1.466864
     3  C    2.262395
     4  O   -0.893601
     5  O   -1.175854
     6  C    0.185076
     7  H    0.161962
     8  H   -0.003660
     9  H    0.161965
    10  H   -0.161230
    11  H   -0.168742
    12  H   -0.168735
 Sum of Mulliken charges =  -0.00000

 Dipole moment (field-independent basis, Debye):
    X=              0.5750    Y=             -0.5312    Z=             -0.0000  Tot=              0.7828

 Test job not archived.
 1\1\GINC-SE322\SP\RHF\Aug-CC-pVDZ\C2H6O3Si1\OHZDE\08-Apr-2025\0\\#t hf
  aug-cc-pvdz iop(5/13=1,5/36=2,99/5=2) pseudo=read geom=check guess=(r
 ead,tcheck) scf=(maxcycle=1)\\title\\0,1\Si,0,2.202466,-0.000309,-0.00
 0026\O,0,0.662708,-0.709182,0.000027\C,0,-0.433206,0.060355,0.000066\O
 ,0,-0.424167,1.267928,0.000004\O,0,-1.518213,-0.713695,0.000022\C,0,-2
 .771766,-0.005672,-0.000032\H,0,-2.856881,0.619913,0.889509\H,0,-3.536
 862,-0.778309,-0.000062\H,0,-2.856808,0.619909,-0.889583\H,0,3.102562,
 -1.16625,-0.000061\H,0,2.390386,0.810271,1.216804\H,0,2.3903,0.810277,

 Normal termination of Gaussian 16 at Tue Apr  8 23:59:07 2025.
