 Gaussian 16, Revision C.01,

 ----------------------------------------------------------------------
 #t hf aug-cc-pvdz symm=none int=(grid=ultrafine) guess=(read,tcheck) s
 table=(opt,rrhf)
 ----------------------------------------------------------------------
 -----
 title
 -----
 Symbolic Z-matrix:
 Charge =  0 Multiplicity = 1

 SCF Done:  E(RHF) =  -1017.94352748     A.U. after   11 cycles
 Normal termination of Gaussian 16 at Wed Apr  9 00:12:36 2025.
 Gaussian 16:  ES64L-G16RevC.01  3-Jul-2019

 ----------------------------------------------------------------------
 #t hf aug-cc-pvdz iop(5/13=1,5/36=2,99/5=2) pseudo=read geom=check gue
 ss=(read,tcheck) scf=(maxcycle=1)
 ----------------------------------------------------------------------
 -----
 title
 -----
 Structure from the checkpoint file:  "BDE49_nonexpt_2417_mol1.chk"
 Charge =  0 Multiplicity = 1

                         Standard orientation:
 ---------------------------------------------------------------------
 Center     Atomic      Atomic             Coordinates (Angstroms)
 Number     Number       Type             X           Y           Z
 ---------------------------------------------------------------------
      1         14           0       -2.381842   -0.247828    0.000001
      2         14           0       -0.263564    0.786625    0.000001
      3         16           0        1.237698   -0.762840   -0.000002
      4          1           0       -0.106189    1.655367    1.195197
      5          1           0       -0.106190    1.655371   -1.195192
      6          1           0       -3.427435    0.804423    0.000004
      7          1           0       -2.549634   -1.089464    1.207519
      8          6           0        2.780253    0.243769   -0.000002
      9          1           0        3.609418   -0.463709   -0.000003
     10          1           0        2.840341    0.863573    0.894237
     11          1           0        2.840340    0.863576   -0.894238
     12          1           0       -2.549636   -1.089460   -1.207519
 ---------------------------------------------------------------------

 SCF Done:  E(RHF) =  -1018.12064585     A.U. after    2 cycles

 The electronic state is 1-A.
 Alpha  occ. eigenvalues --  -93.93755 -69.55053 -69.53097 -11.27493  -8.22022
 Alpha  occ. eigenvalues --   -6.22020  -6.20304  -6.19823  -6.19686  -6.19483
 Alpha  occ. eigenvalues --   -3.97391  -3.97306  -3.97281  -3.95657  -3.95655
 Alpha  occ. eigenvalues --   -3.95653  -1.05418  -0.88849  -0.77073  -0.69043
 Alpha  occ. eigenvalues --   -0.60284  -0.59824  -0.52273  -0.51351  -0.49126
 Alpha  occ. eigenvalues --   -0.48337  -0.43095  -0.41356  -0.36265
 Alpha virt. eigenvalues --    0.03453   0.03989   0.04312   0.05390   0.06224
 Alpha virt. eigenvalues --    0.06492   0.06880   0.07504   0.08998   0.09196
 Alpha virt. eigenvalues --    0.09629   0.09690   0.10646   0.10902   0.12893

 Mulliken charges:
               1
     1  Si   0.209791
     2  Si   0.923320
     3  S   -0.304571
     4  H   -0.138100
     5  H   -0.138100
     6  H   -0.101061
     7  H   -0.103344
     8  C   -0.692994
     9  H    0.152758
    10  H    0.147824
    11  H    0.147821
    12  H   -0.103344
 Sum of Mulliken charges =  -0.00000

 Dipole moment (field-independent basis, Debye):
    X=              0.6989    Y=              1.3540    Z=             -0.0000  Tot=              1.5237

 Test job not archived.
 1\1\GINC-SE250\SP\RHF\Aug-CC-pVDZ\C1H8S1Si2\OHZDE\09-Apr-2025\0\\#t hf
  aug-cc-pvdz iop(5/13=1,5/36=2,99/5=2) pseudo=read geom=check guess=(r
 ead,tcheck) scf=(maxcycle=1)\\title\\0,1\Si,0,-2.381842,-0.247828,0.00
 0001\Si,0,-0.263564,0.786625,0.000001\S,0,1.237698,-0.76284,-0.000002\
 H,0,-0.106189,1.655367,1.195197\H,0,-0.10619,1.655371,-1.195192\H,0,-3
 .427435,0.804423,0.000004\H,0,-2.549634,-1.089464,1.207519\C,0,2.78025
 3,0.243769,-0.000002\H,0,3.609418,-0.463709,-0.000003\H,0,2.840341,0.8
 63573,0.894237\H,0,2.84034,0.863576,-0.894238\H,0,-2.549636,-1.08946,-

 Normal termination of Gaussian 16 at Wed Apr  9 00:12:40 2025.
