 Gaussian 16, Revision C.01,

 ----------------------------------------------------------------------
 #t hf aug-cc-pvdz symm=none int=(grid=ultrafine) guess=(read,tcheck) s
 table=(opt,rrhf)
 ----------------------------------------------------------------------
 -----
 title
 -----
 Symbolic Z-matrix:
 Charge =  0 Multiplicity = 1

 SCF Done:  E(RHF) =  -1076.29473473     A.U. after   13 cycles
 Normal termination of Gaussian 16 at Wed Apr  9 00:02:32 2025.
 Gaussian 16:  ES64L-G16RevC.01  3-Jul-2019

 ----------------------------------------------------------------------
 #t hf aug-cc-pvdz iop(5/13=1,5/36=2,99/5=2) pseudo=read geom=check gue
 ss=(read,tcheck) scf=(maxcycle=1)
 ----------------------------------------------------------------------
 -----
 title
 -----
 Structure from the checkpoint file:  "BDE49_nonexpt_216_mol1.chk"
 Charge =  0 Multiplicity = 1

                         Standard orientation:
 ---------------------------------------------------------------------
 Center     Atomic      Atomic             Coordinates (Angstroms)
 Number     Number       Type             X           Y           Z
 ---------------------------------------------------------------------
      1         17           0        0.921855    1.657153   -0.000224
      2         17           0        1.870404   -1.224266   -0.000418
      3          5           0        0.548504   -0.053160    0.000866
      4          6           0       -0.916721   -0.590960    0.000493
      5          7           0       -1.905575    0.213737    0.000382
      6          1           0       -1.070794   -1.682966    0.000365
      7          6           0       -3.244826   -0.336343    0.000090
      8          1           0       -3.777503    0.046274    0.876304
      9          1           0       -3.277135   -1.435355   -0.000009
     10          1           0       -3.777176    0.046422   -0.876257
 ---------------------------------------------------------------------

 SCF Done:  E(RHF) =  -1076.60738845     A.U. after    2 cycles

 The electronic state is 1-A.
 Alpha  occ. eigenvalues -- -105.57936-105.57323 -15.53820 -11.28207 -11.27410
 Alpha  occ. eigenvalues --  -10.62954 -10.62350  -7.79847  -7.79569  -7.79523
 Alpha  occ. eigenvalues --   -7.79250  -7.78961  -7.78906  -7.71629  -1.25275
 Alpha  occ. eigenvalues --   -1.11001  -1.05870  -0.99143  -0.83138  -0.71737
 Alpha  occ. eigenvalues --   -0.68810  -0.64212  -0.61872  -0.57698  -0.56384
 Alpha  occ. eigenvalues --   -0.53468  -0.48766  -0.47769  -0.46325  -0.45668
 Alpha  occ. eigenvalues --   -0.45665
 Alpha virt. eigenvalues --    0.02507   0.03371   0.04562   0.05313   0.05431
 Alpha virt. eigenvalues --    0.06096   0.06403   0.06597   0.09310   0.11833
 Alpha virt. eigenvalues --    0.12207   0.13135   0.14478   0.15497   0.16097

 Mulliken charges:
               1
     1  Cl  -0.264368
     2  Cl  -0.322122
     3  B    0.726252
     4  C   -0.725063
     5  N    0.608757
     6  H   -0.036728
     7  C   -0.395020
     8  H    0.134184
     9  H    0.139920
    10  H    0.134187
 Sum of Mulliken charges =  -0.00000

 Dipole moment (field-independent basis, Debye):
    X=             -1.7473    Y=             -1.9427    Z=              0.0016  Tot=              2.6129

 Test job not archived.
 1\1\GINC-SE364\SP\RHF\Aug-CC-pVDZ\C2H4B1Cl2N1\OHZDE\09-Apr-2025\0\\#t
 hf aug-cc-pvdz iop(5/13=1,5/36=2,99/5=2) pseudo=read geom=check guess=
 (read,tcheck) scf=(maxcycle=1)\\title\\0,1\Cl,0,-0.921855,1.657153,0.0
 00224\Cl,0,-1.870404,-1.224266,0.000418\B,0,-0.548504,-0.05316,-0.0008
 66\C,0,0.916721,-0.59096,-0.000493\N,0,1.905575,0.213737,-0.000382\H,0
 ,1.070794,-1.682966,-0.000365\C,0,3.244826,-0.336343,-0.00009\H,0,3.77
 7503,0.046274,-0.876304\H,0,3.277135,-1.435355,0.000009\H,0,3.777176,0
 .046422,0.876257\\Version=ES64L-G16RevC.01\State=1-A\HF=-1076.6073885\

 Normal termination of Gaussian 16 at Wed Apr  9 00:02:35 2025.
