 Gaussian 16, Revision C.01,

 ----------------------------------------------------------------------
 #t hf aug-cc-pvdz symm=none int=(grid=ultrafine) guess=(read,tcheck) s
 table=(opt,rrhf)
 ----------------------------------------------------------------------
 -----
 title
 -----
 Symbolic Z-matrix:
 Charge =  0 Multiplicity = 1

 SCF Done:  E(RHF) =  -295.335670431     A.U. after   14 cycles
 Normal termination of Gaussian 16 at Wed Apr  9 00:29:41 2025.
 Gaussian 16:  ES64L-G16RevC.01  3-Jul-2019

 ----------------------------------------------------------------------
 #t hf aug-cc-pvdz iop(5/13=1,5/36=2,99/5=2) pseudo=read geom=check gue
 ss=(read,tcheck) scf=(maxcycle=1)
 ----------------------------------------------------------------------
 -----
 title
 -----
 Structure from the checkpoint file:  "BDE49_nonexpt_316_mol1.chk"
 Charge =  0 Multiplicity = 1

                         Standard orientation:
 ---------------------------------------------------------------------
 Center     Atomic      Atomic             Coordinates (Angstroms)
 Number     Number       Type             X           Y           Z
 ---------------------------------------------------------------------
      1          6           0        0.296288   -0.009756    0.229039
      2          5           0       -1.256776    0.008460   -0.095986
      3          6           0       -1.994611   -1.366592   -0.263147
      4          1           0       -1.444213   -2.099255   -0.862368
      5          1           0       -3.014252   -1.280555   -0.647655
      6          1           0       -2.064669   -1.803720    0.744227
      7          8           0        0.518851   -0.099763    1.431379
      8          6           0        1.420459    0.069810   -0.788682
      9          6           0       -2.011245    1.383633   -0.117803
     10          1           0       -2.008849    1.733775   -1.162670
     11          1           0       -1.528018    2.167028    0.471682
     12          1           0       -3.062681    1.307361    0.174575
     13          6           0        2.821108    0.006565   -0.182798
     14          1           0        1.274212    0.997067   -1.360528
     15          1           0        1.261990   -0.737582   -1.516966
     16          1           0        2.975374    0.821735    0.526602
     17          1           0        3.584839    0.075360   -0.960890
     18          1           0        2.967344   -0.927366    0.363238
 ---------------------------------------------------------------------

 SCF Done:  E(RHF) =  -295.650924153     A.U. after    2 cycles

 The electronic state is 1-A.
 Alpha  occ. eigenvalues --  -20.53011 -11.30823 -11.24666 -11.22679 -11.21394
 Alpha  occ. eigenvalues --  -11.21314  -7.59690  -1.45388  -1.05401  -0.98751
 Alpha  occ. eigenvalues --   -0.93835  -0.89959  -0.77358  -0.68614  -0.63245
 Alpha  occ. eigenvalues --   -0.61808  -0.59897  -0.56999  -0.56336  -0.55458
 Alpha  occ. eigenvalues --   -0.54366  -0.52797  -0.51860  -0.50639  -0.49090
 Alpha  occ. eigenvalues --   -0.46140  -0.37915
 Alpha virt. eigenvalues --    0.02840   0.03649   0.03879   0.04172   0.05367
 Alpha virt. eigenvalues --    0.05971   0.06119   0.06717   0.07919   0.08791
 Alpha virt. eigenvalues --    0.08832   0.09676   0.10083   0.10451   0.11646

 Mulliken charges:
               1
     1  C    1.293166
     2  B    0.961844
     3  C   -0.508858
     4  H    0.012280
     5  H   -0.032762
     6  H    0.166048
     7  O   -1.364288
     8  C   -0.779540
     9  C   -0.460751
    10  H    0.142913
    11  H   -0.014367
    12  H   -0.053179
    13  C   -0.267401
    14  H    0.217982
    15  H    0.218962
    16  H    0.167106
    17  H    0.133414
    18  H    0.167432
 Sum of Mulliken charges =  -0.00000

 Dipole moment (field-independent basis, Debye):
    X=             -0.6818    Y=              0.2066    Z=             -2.8686  Tot=              2.9557

 Test job not archived.
 1\1\GINC-SE054\SP\RHF\Aug-CC-pVDZ\C5H11B1O1\OHZDE\09-Apr-2025\0\\#t hf
  aug-cc-pvdz iop(5/13=1,5/36=2,99/5=2) pseudo=read geom=check guess=(r
 ead,tcheck) scf=(maxcycle=1)\\title\\0,1\C,0,0.296288,-0.009756,0.2290
 39\B,0,-1.256776,0.00846,-0.095986\C,0,-1.994611,-1.366592,-0.263147\H
 ,0,-1.444213,-2.099255,-0.862368\H,0,-3.014252,-1.280555,-0.647655\H,0
 ,-2.064669,-1.80372,0.744227\O,0,0.518851,-0.099763,1.431379\C,0,1.420
 459,0.06981,-0.788682\C,0,-2.011245,1.383633,-0.117803\H,0,-2.008849,1
 .733775,-1.16267\H,0,-1.528018,2.167028,0.471682\H,0,-3.062681,1.30736

 Normal termination of Gaussian 16 at Wed Apr  9 00:29:48 2025.
