 Gaussian 16, Revision C.01,

 ----------------------------------------------------------------------
 #t hf aug-cc-pvdz symm=none int=(grid=ultrafine) guess=(read,tcheck) s
 table=(opt,rrhf)
 ----------------------------------------------------------------------
 -----
 title
 -----
 Symbolic Z-matrix:
 Charge =  0 Multiplicity = 1

 SCF Done:  E(RHF) =  -569.135705945     A.U. after   14 cycles
 Normal termination of Gaussian 16 at Tue Apr  8 23:34:05 2025.
 Gaussian 16:  ES64L-G16RevC.01  3-Jul-2019

 ----------------------------------------------------------------------
 #t hf aug-cc-pvdz iop(5/13=1,5/36=2,99/5=2) pseudo=read geom=check gue
 ss=(read,tcheck) scf=(maxcycle=1)
 ----------------------------------------------------------------------
 -----
 title
 -----
 Structure from the checkpoint file:  "BDE49_nonexpt_1469_mol1.chk"
 Charge =  0 Multiplicity = 1

                         Standard orientation:
 ---------------------------------------------------------------------
 Center     Atomic      Atomic             Coordinates (Angstroms)
 Number     Number       Type             X           Y           Z
 ---------------------------------------------------------------------
      1          6           0        0.010521    0.319642    0.019047
      2         15           0        1.774306   -0.294777   -0.121880
      3          8           0       -0.856265   -0.712832    0.016688
      4          8           0       -0.308775    1.478513    0.007356
      5          6           0       -2.255911   -0.353984   -0.008326
      6          1           0       -2.480533    0.236287   -0.897520
      7          1           0       -2.515698    0.222038    0.880592
      8          1           0       -2.794280   -1.298328   -0.025462
      9          1           0        1.670529   -1.324906    0.842457
     10          1           0        2.298045    0.667166    0.771460
 ---------------------------------------------------------------------

 SCF Done:  E(RHF) =  -569.405538066     A.U. after    2 cycles

 The electronic state is 1-A.
 Alpha  occ. eigenvalues --  -84.29607 -20.60019 -20.54627 -11.39869 -11.30387
 Alpha  occ. eigenvalues --   -6.76779  -4.29302  -4.29078  -4.28369  -1.55069
 Alpha  occ. eigenvalues --   -1.46116  -1.00094  -0.90439  -0.78527  -0.69159
 Alpha  occ. eigenvalues --   -0.68086  -0.67372  -0.58233  -0.56443  -0.53546
 Alpha  occ. eigenvalues --   -0.51435  -0.46542  -0.43699  -0.36883
 Alpha virt. eigenvalues --    0.03525   0.04459   0.05493   0.05865   0.07276
 Alpha virt. eigenvalues --    0.07344   0.09417   0.10221   0.11783   0.13240
 Alpha virt. eigenvalues --    0.13338   0.14901   0.15569   0.16463   0.17177

 Mulliken charges:
               1
     1  C    1.057279
     2  P   -0.337030
     3  O   -1.107785
     4  O   -1.050727
     5  C    0.313020
     6  H    0.159738
     7  H    0.162029
     8  H    0.004139
     9  H    0.418901
    10  H    0.380436
 Sum of Mulliken charges =  -0.00000

 Dipole moment (field-independent basis, Debye):
    X=             -0.4711    Y=             -1.8144    Z=              0.4210  Tot=              1.9213

 Test job not archived.
 1\1\GINC-SE284\SP\RHF\Aug-CC-pVDZ\C2H5O2P1\OHZDE\08-Apr-2025\0\\#t hf
 aug-cc-pvdz iop(5/13=1,5/36=2,99/5=2) pseudo=read geom=check guess=(re
 ad,tcheck) scf=(maxcycle=1)\\title\\0,1\C,0,0.010521,0.319642,0.019047
 \P,0,1.774306,-0.294777,-0.12188\O,0,-0.856265,-0.712832,0.016688\O,0,
 -0.308775,1.478513,0.007356\C,0,-2.255911,-0.353984,-0.008326\H,0,-2.4
 80533,0.236287,-0.89752\H,0,-2.515698,0.222038,0.880592\H,0,-2.79428,-
 1.298327,-0.025462\H,0,1.670529,-1.324906,0.842457\H,0,2.298045,0.6671
 66,0.77146\\Version=ES64L-G16RevC.01\State=1-A\HF=-569.4055381\RMSD=2.

 Normal termination of Gaussian 16 at Tue Apr  8 23:34:08 2025.
