 Gaussian 16, Revision C.01,

 ----------------------------------------------------------------------
 #t hf aug-cc-pvdz symm=none int=(grid=ultrafine) guess=(read,tcheck) s
 table=(opt,rrhf)
 ----------------------------------------------------------------------
 -----
 title
 -----
 Symbolic Z-matrix:
 Charge =  0 Multiplicity = 1

 SCF Done:  E(RHF) =  -454.534485390     A.U. after   13 cycles
 Normal termination of Gaussian 16 at Tue Apr  8 23:02:06 2025.
 Gaussian 16:  ES64L-G16RevC.01  3-Jul-2019

 ----------------------------------------------------------------------
 #t hf aug-cc-pvdz iop(5/13=1,5/36=2,99/5=2) pseudo=read geom=check gue
 ss=(read,tcheck) scf=(maxcycle=1)
 ----------------------------------------------------------------------
 -----
 title
 -----
 Structure from the checkpoint file:  "BDE49_expt_256_mol1.chk"
 Charge =  0 Multiplicity = 1

                         Standard orientation:
 ---------------------------------------------------------------------
 Center     Atomic      Atomic             Coordinates (Angstroms)
 Number     Number       Type             X           Y           Z
 ---------------------------------------------------------------------
      1          6           0       -1.596873   -0.038890    0.042501
      2          6           0        1.597042   -0.038712   -0.042675
      3          8           0        2.578781   -0.361098    0.571664
      4          8           0       -2.578837   -0.360944   -0.571653
      5          8           0        1.196777   -0.676921   -1.170445
      6          1           0        1.832665   -1.391641   -1.324073
      7          6           0        0.695767    1.124966    0.318139
      8          8           0       -1.196856   -0.676978    1.170428
      9          1           0       -1.832877   -1.391573    1.324090
     10          6           0       -0.695722    1.124972   -0.318032
     11          1           0       -1.230666    2.031997   -0.016092
     12          1           0       -0.639649    1.146440   -1.406555
     13          1           0        1.230631    2.032103    0.016401
     14          1           0        0.639691    1.146186    1.406668
 ---------------------------------------------------------------------

 SCF Done:  E(RHF) =  -454.984347656     A.U. after    2 cycles

 The electronic state is 1-A.
 Alpha  occ. eigenvalues --  -20.61168 -20.61165 -20.54558 -20.54557 -11.40542
 Alpha  occ. eigenvalues --  -11.40540 -11.27477 -11.27453  -1.55915  -1.55645
 Alpha  occ. eigenvalues --   -1.46222  -1.46178  -1.10632  -0.97448  -0.85043
 Alpha  occ. eigenvalues --   -0.82325  -0.72238  -0.72107  -0.71379  -0.67083
 Alpha  occ. eigenvalues --   -0.66094  -0.65119  -0.59923  -0.59712  -0.57689
 Alpha  occ. eigenvalues --   -0.57004  -0.54590  -0.48594  -0.48123  -0.45121
 Alpha  occ. eigenvalues --   -0.44900
 Alpha virt. eigenvalues --    0.03166   0.03727   0.03940   0.05196   0.05570
 Alpha virt. eigenvalues --    0.07039   0.09527   0.09716   0.10715   0.13091
 Alpha virt. eigenvalues --    0.13461   0.14035   0.14825   0.15151   0.15225

 Mulliken charges:
               1
     1  C    2.091055
     2  C    2.091099
     3  O   -1.262483
     4  O   -1.262470
     5  O   -1.243584
     6  H    0.387283
     7  C   -0.490130
     8  O   -1.243645
     9  H    0.387301
    10  C   -0.490098
    11  H    0.261131
    12  H    0.256727
    13  H    0.261138
    14  H    0.256675
 Sum of Mulliken charges =  -0.00000

 Dipole moment (field-independent basis, Debye):
    X=              0.0003    Y=              0.9216    Z=             -0.0001  Tot=              0.9216

 Test job not archived.
 1\1\GINC-SE453\SP\RHF\Aug-CC-pVDZ\C4H6O4\OHZDE\08-Apr-2025\0\\#t hf au
 g-cc-pvdz iop(5/13=1,5/36=2,99/5=2) pseudo=read geom=check guess=(read
 ,tcheck) scf=(maxcycle=1)\\title\\0,1\C,0,-1.596873,-0.03889,0.042501\
 C,0,1.597042,-0.038712,-0.042675\O,0,2.578781,-0.361098,0.571664\O,0,-
 2.578837,-0.360944,-0.571653\O,0,1.196777,-0.676921,-1.170445\H,0,1.83
 2665,-1.391641,-1.324073\C,0,0.695767,1.124966,0.318139\O,0,-1.196856,
 -0.676978,1.170428\H,0,-1.832877,-1.391573,1.32409\C,0,-0.695722,1.124
 972,-0.318032\H,0,-1.230666,2.031997,-0.016092\H,0,-0.639649,1.14644,-

 Normal termination of Gaussian 16 at Tue Apr  8 23:02:12 2025.
