 Gaussian 16, Revision C.01,

 ----------------------------------------------------------------------
 #t hf aug-cc-pvdz symm=none int=(grid=ultrafine) guess=(read,tcheck) s
 table=(opt,rrhf)
 ----------------------------------------------------------------------
 -----
 title
 -----
 Symbolic Z-matrix:
 Charge =  0 Multiplicity = 1

 SCF Done:  E(RHF) =  -598.820170256     A.U. after   14 cycles
 Normal termination of Gaussian 16 at Wed Apr  9 00:43:21 2025.
 Gaussian 16:  ES64L-G16RevC.01  3-Jul-2019

 ----------------------------------------------------------------------
 #t hf aug-cc-pvdz iop(5/13=1,5/36=2,99/5=2) pseudo=read geom=check gue
 ss=(read,tcheck) scf=(maxcycle=1)
 ----------------------------------------------------------------------
 -----
 title
 -----
 Structure from the checkpoint file:  "BDE49_nonexpt_707_mol1.chk"
 Charge =  0 Multiplicity = 1

                         Standard orientation:
 ---------------------------------------------------------------------
 Center     Atomic      Atomic             Coordinates (Angstroms)
 Number     Number       Type             X           Y           Z
 ---------------------------------------------------------------------
      1          6           0        1.078172    0.096574    0.041482
      2          5           0       -1.927687    0.400241   -0.277450
      3          8           0       -3.121403    0.045673    0.262765
      4          6           0        0.949914    1.043589    1.246760
      5          1           0        0.685819    0.499014    2.157012
      6          1           0        0.187313    1.808643    1.078948
      7          6           0        1.412976    0.900894   -1.228139
      8          1           0        0.642780    1.642023   -1.456145
      9          1           0        1.522141    0.247896   -2.098196
     10          1           0        2.358519    1.436993   -1.089737
     11          1           0        1.901937    1.557680    1.429150
     12          6           0        2.199351   -0.925277    0.309244
     13          1           0        3.150644   -0.404836    0.468856
     14          1           0        2.326436   -1.610894   -0.532406
     15          1           0        1.993891   -1.522504    1.202318
     16         15           0       -0.511263   -0.895098   -0.292512
     17          1           0       -3.808568    0.707568    0.136969
     18          1           0       -1.803846    1.455173   -0.833369
     19          1           0       -0.720930   -1.451550    0.993337
 ---------------------------------------------------------------------

 SCF Done:  E(RHF) =  -599.142435072     A.U. after    2 cycles

 The electronic state is 1-A.
 Alpha  occ. eigenvalues --  -84.23868 -20.57156 -11.25438 -11.22863 -11.22742
 Alpha  occ. eigenvalues --  -11.22621  -7.62971  -6.71266  -4.24000  -4.23919
 Alpha  occ. eigenvalues --   -4.23204  -1.47078  -1.09635  -0.93747  -0.93590
 Alpha  occ. eigenvalues --   -0.86369  -0.76606  -0.71549  -0.66157  -0.61346
 Alpha  occ. eigenvalues --   -0.60877  -0.60585  -0.55714  -0.55144  -0.54026
 Alpha  occ. eigenvalues --   -0.53345  -0.52417  -0.48355  -0.48201  -0.43994
 Alpha  occ. eigenvalues --   -0.40191  -0.31242
 Alpha virt. eigenvalues --    0.02823   0.03910   0.04026   0.04382   0.05727
 Alpha virt. eigenvalues --    0.05765   0.05947   0.06736   0.06968   0.08627
 Alpha virt. eigenvalues --    0.09117   0.09522   0.09747   0.10696   0.10917

 Mulliken charges:
               1
     1  C   -1.691108
     2  B    0.980150
     3  O   -1.181415
     4  C   -0.022000
     5  H    0.168542
     6  H    0.133628
     7  C   -0.093720
     8  H    0.108132
     9  H    0.189859
    10  H    0.220095
    11  H    0.194288
    12  C    0.074685
    13  H    0.196117
    14  H    0.170739
    15  H    0.167053
    16  P   -0.483555
    17  H    0.463094
    18  H    0.153749
    19  H    0.251668
 Sum of Mulliken charges =  -0.00000

 Dipole moment (field-independent basis, Debye):
    X=             -0.2637    Y=              1.8070    Z=              0.1973  Tot=              1.8368

 Test job not archived.
 1\1\GINC-SE083\SP\RHF\Aug-CC-pVDZ\C4H12B1O1P1\OHZDE\09-Apr-2025\0\\#t
 hf aug-cc-pvdz iop(5/13=1,5/36=2,99/5=2) pseudo=read geom=check guess=
 (read,tcheck) scf=(maxcycle=1)\\title\\0,1\C,0,1.078172,0.096574,0.041
 482\B,0,-1.927687,0.400241,-0.27745\O,0,-3.121403,0.045673,0.262765\C,
 0,0.949914,1.043589,1.24676\H,0,0.685819,0.499014,2.157012\H,0,0.18731
 3,1.808643,1.078948\C,0,1.412976,0.900894,-1.228139\H,0,0.64278,1.6420
 23,-1.456145\H,0,1.522141,0.247896,-2.098196\H,0,2.358519,1.436993,-1.
 089737\H,0,1.901937,1.55768,1.42915\C,0,2.199351,-0.925277,0.309244\H,

 Normal termination of Gaussian 16 at Wed Apr  9 00:43:31 2025.
