 Gaussian 16, Revision C.01,

 ----------------------------------------------------------------------
 #t hf aug-cc-pvdz symm=none int=(grid=ultrafine) guess=(read,tcheck) s
 table=(opt,rrhf)
 ----------------------------------------------------------------------
 -----
 title
 -----
 Symbolic Z-matrix:
 Charge =  0 Multiplicity = 1

 SCF Done:  E(RHF) =  -215.950427054     A.U. after   12 cycles
 Normal termination of Gaussian 16 at Tue Apr  8 22:44:27 2025.
 Gaussian 16:  ES64L-G16RevC.01  3-Jul-2019

 ----------------------------------------------------------------------
 #t hf aug-cc-pvdz iop(5/13=1,5/36=2,99/5=2) pseudo=read geom=check gue
 ss=(read,tcheck) scf=(maxcycle=1)
 ----------------------------------------------------------------------
 -----
 title
 -----
 Structure from the checkpoint file:  "BDE49_expt_1520_mol1.chk"
 Charge =  0 Multiplicity = 1

                         Standard orientation:
 ---------------------------------------------------------------------
 Center     Atomic      Atomic             Coordinates (Angstroms)
 Number     Number       Type             X           Y           Z
 ---------------------------------------------------------------------
      1          6           0       -0.960472   -0.031842    0.000000
      2          6           0        0.000000    0.878743    0.000000
      3          9           0       -0.697935   -1.361651    0.000000
      4          1           0       -2.024208    0.170010    0.000000
      5          6           0        1.470313    0.588047    0.000000
      6          1           0       -0.324465    1.914417    0.000000
      7          1           0        1.660170   -0.485348    0.000000
      8          1           0        1.955436    1.023046    0.879951
      9          1           0        1.955436    1.023046   -0.879951
 ---------------------------------------------------------------------

 SCF Done:  E(RHF) =  -216.168081474     A.U. after    2 cycles

 The electronic state is 1-A'.
 Alpha  occ. eigenvalues --  -26.46652 -11.32427 -11.24891 -11.23980  -1.59331
 Alpha  occ. eigenvalues --   -1.07735  -0.94773  -0.79621  -0.72820  -0.66345
 Alpha  occ. eigenvalues --   -0.65971  -0.58945  -0.57783  -0.54223  -0.53086
 Alpha  occ. eigenvalues --   -0.37276
 Alpha virt. eigenvalues --    0.03527   0.04189   0.05142   0.05487   0.07017
 Alpha virt. eigenvalues --    0.10850   0.11314   0.12272   0.13563   0.14228
 Alpha virt. eigenvalues --    0.15857   0.16426   0.16530   0.16773   0.18405

 Mulliken charges:
               1
     1  C    0.897555
     2  C    0.065075
     3  F   -0.790006
     4  H   -0.008957
     5  C   -0.536433
     6  H   -0.134174
     7  H    0.104143
     8  H    0.201399
     9  H    0.201399
 Sum of Mulliken charges =  -0.00000

 Dipole moment (field-independent basis, Debye):
    X=              0.1022    Y=              1.5437    Z=              0.0000  Tot=              1.5471

 Test job not archived.
 1\1\GINC-SE252\SP\RHF\Aug-CC-pVDZ\C3H5F1\OHZDE\08-Apr-2025\0\\#t hf au
 g-cc-pvdz iop(5/13=1,5/36=2,99/5=2) pseudo=read geom=check guess=(read
 ,tcheck) scf=(maxcycle=1)\\title\\0,1\C,0,-0.960472,-0.031842,0.\C,0,0
 .,0.878743,0.\F,0,-0.697935,-1.361651,0.\H,0,-2.024208,0.17001,0.\C,0,
 1.470313,0.588047,0.\H,0,-0.324465,1.914417,0.\H,0,1.66017,-0.485348,0
 .\H,0,1.955436,1.023046,0.879951\H,0,1.955436,1.023046,-0.879951\\Vers
 ion=ES64L-G16RevC.01\State=1-A'\HF=-216.1680815\RMSD=1.257e-02\Dipole=
 0.0402056,0.6073459,0.\Quadrupole=1.9474416,-0.7388625,-1.2085791,-0.4

 Normal termination of Gaussian 16 at Tue Apr  8 22:44:30 2025.
