 Gaussian 16, Revision C.01,

 ----------------------------------------------------------------------
 #t hf aug-cc-pvdz symm=none int=(grid=ultrafine) guess=(read,tcheck) s
 table=(opt,rrhf)
 ----------------------------------------------------------------------
 -----
 title
 -----
 Symbolic Z-matrix:
 Charge =  0 Multiplicity = 1

 SCF Done:  E(RHF) =  -403.972547794     A.U. after   12 cycles
 Normal termination of Gaussian 16 at Tue Apr  8 23:57:19 2025.
 Gaussian 16:  ES64L-G16RevC.01  3-Jul-2019

 ----------------------------------------------------------------------
 #t hf aug-cc-pvdz iop(5/13=1,5/36=2,99/5=2) pseudo=read geom=check gue
 ss=(read,tcheck) scf=(maxcycle=1)
 ----------------------------------------------------------------------
 -----
 title
 -----
 Structure from the checkpoint file:  "BDE49_nonexpt_2039_mol1.chk"
 Charge =  0 Multiplicity = 1

                         Standard orientation:
 ---------------------------------------------------------------------
 Center     Atomic      Atomic             Coordinates (Angstroms)
 Number     Number       Type             X           Y           Z
 ---------------------------------------------------------------------
      1         14           0       -1.061441   -0.066382    0.000005
      2          6           0        0.798917    0.452849   -0.000006
      3          8           0        1.700897   -0.352410   -0.000011
      4          1           0        1.037099    1.546466    0.000032
      5          1           0       -1.159494   -1.538985   -0.000038
      6          1           0       -1.709072    0.512060   -1.201725
      7          1           0       -1.709038    0.511987    1.201788
 ---------------------------------------------------------------------

 SCF Done:  E(RHF) =  -404.118486860     A.U. after    2 cycles

 The electronic state is 1-A.
 Alpha  occ. eigenvalues --  -69.55096 -20.56558 -11.34027  -6.22254  -3.97626
 Alpha  occ. eigenvalues --   -3.97609  -3.97605  -1.48593  -0.87086  -0.75182
 Alpha  occ. eigenvalues --   -0.66512  -0.60213  -0.54646  -0.50955  -0.49946
 Alpha  occ. eigenvalues --   -0.39798
 Alpha virt. eigenvalues --    0.03271   0.04070   0.05412   0.05467   0.07175
 Alpha virt. eigenvalues --    0.07889   0.08772   0.08817   0.11789   0.13767
 Alpha virt. eigenvalues --    0.14642   0.15441   0.16857   0.17814   0.18889

 Mulliken charges:
               1
     1  Si   1.144598
     2  C    0.316034
     3  O   -0.894128
     4  H    0.087953
     5  H   -0.172556
     6  H   -0.240950
     7  H   -0.240951
 Sum of Mulliken charges =  -0.00000

 Dipole moment (field-independent basis, Debye):
    X=             -2.0498    Y=              1.4220    Z=              0.0000  Tot=              2.4948

 Test job not archived.
 1\1\GINC-SE402\SP\RHF\Aug-CC-pVDZ\C1H4O1Si1\OHZDE\08-Apr-2025\0\\#t hf
  aug-cc-pvdz iop(5/13=1,5/36=2,99/5=2) pseudo=read geom=check guess=(r
 ead,tcheck) scf=(maxcycle=1)\\title\\0,1\Si,0,-1.061441,-0.066382,0.00
 0005\C,0,0.798917,0.452849,-0.000006\O,0,1.700897,-0.35241,-0.000011\H
 ,0,1.037099,1.546466,0.000032\H,0,-1.159494,-1.538985,-0.000038\H,0,-1
 .709072,0.51206,-1.201725\H,0,-1.709038,0.511987,1.201788\\Version=ES6
 4L-G16RevC.01\State=1-A\HF=-404.1184869\RMSD=5.983e-03\Dipole=-0.80647
 12,0.5594409,0.0000134\Quadrupole=-2.3973459,1.3083316,1.0890143,1.829

 Normal termination of Gaussian 16 at Tue Apr  8 23:57:21 2025.
