 Gaussian 16, Revision C.01,

 ----------------------------------------------------------------------
 #t hf aug-cc-pvdz symm=none int=(grid=ultrafine) guess=(read,tcheck) s
 table=(opt,rrhf)
 ----------------------------------------------------------------------
 -----
 title
 -----
 Symbolic Z-matrix:
 Charge =  0 Multiplicity = 1

 SCF Done:  E(RHF) =  -597.318242248     A.U. after   16 cycles
 Normal termination of Gaussian 16 at Wed Apr  9 00:44:42 2025.
 Gaussian 16:  ES64L-G16RevC.01  3-Jul-2019

 ----------------------------------------------------------------------
 #t hf aug-cc-pvdz iop(5/13=1,5/36=2,99/5=2) pseudo=read geom=check gue
 ss=(read,tcheck) scf=(maxcycle=1)
 ----------------------------------------------------------------------
 -----
 title
 -----
 Structure from the checkpoint file:  "BDE49_nonexpt_761_mol1.chk"
 Charge =  0 Multiplicity = 1

                         Standard orientation:
 ---------------------------------------------------------------------
 Center     Atomic      Atomic             Coordinates (Angstroms)
 Number     Number       Type             X           Y           Z
 ---------------------------------------------------------------------
      1         15           0        2.982736   -0.208522   -0.125343
      2          5           0        1.421337    0.862606    0.044874
      3          6           0       -0.040037    0.364822    0.023520
      4          6           0       -1.086734    1.310812    0.007397
      5          6           0       -0.401493   -0.998683    0.021947
      6          6           0       -1.732012   -1.396411    0.000223
      7          6           0       -2.744645   -0.435577   -0.013943
      8          6           0       -2.421544    0.920215   -0.008987
      9          1           0       -3.783995   -0.745324   -0.027870
     10          1           0       -3.208329    1.666214   -0.019635
     11          1           0       -0.837679    2.366486    0.006710
     12          1           0        0.373139   -1.757746    0.040827
     13          1           0       -1.985635   -2.450594   -0.002958
     14          1           0        1.623426    2.039607    0.025103
     15          1           0        2.695722   -1.344984    0.664671
     16          1           0        3.834423    0.450074    0.787991
 ---------------------------------------------------------------------

 SCF Done:  E(RHF) =  -597.628194167     A.U. after    2 cycles

 The electronic state is 1-A.
 Alpha  occ. eigenvalues --  -84.25357 -11.26086 -11.25745 -11.25689 -11.24911
 Alpha  occ. eigenvalues --  -11.24855 -11.22930  -7.60633  -6.72778  -4.25341
 Alpha  occ. eigenvalues --   -4.25289  -4.24487  -1.15978  -1.02591  -1.02528
 Alpha  occ. eigenvalues --   -0.87809  -0.84293  -0.83381  -0.73432  -0.67321
 Alpha  occ. eigenvalues --   -0.64981  -0.63087  -0.60797  -0.56804  -0.51896
 Alpha  occ. eigenvalues --   -0.51409  -0.51223  -0.47461  -0.44483  -0.36670
 Alpha  occ. eigenvalues --   -0.35387  -0.32753
 Alpha virt. eigenvalues --    0.03204   0.03446   0.03852   0.04096   0.04969
 Alpha virt. eigenvalues --    0.05149   0.05409   0.07140   0.07902   0.08296
 Alpha virt. eigenvalues --    0.09069   0.09708   0.10237   0.11128   0.12353

 Mulliken charges:
               1
     1  P   -1.171951
     2  B   -0.071169
     3  C    0.123278
     4  C    0.235611
     5  C    0.481813
     6  C    0.103998
     7  C    0.367222
     8  C    0.223952
     9  H   -0.206888
    10  H   -0.209737
    11  H   -0.334357
    12  H   -0.278601
    13  H   -0.225972
    14  H    0.159864
    15  H    0.364704
    16  H    0.438233
 Sum of Mulliken charges =   0.00000

 Dipole moment (field-independent basis, Debye):
    X=             -1.5110    Y=             -0.3061    Z=              0.4698  Tot=              1.6117

 Test job not archived.
 1\1\GINC-SE073\SP\RHF\Aug-CC-pVDZ\C6H8B1P1\OHZDE\09-Apr-2025\0\\#t hf
 aug-cc-pvdz iop(5/13=1,5/36=2,99/5=2) pseudo=read geom=check guess=(re
 ad,tcheck) scf=(maxcycle=1)\\title\\0,1\P,0,2.982736,-0.208522,-0.1253
 43\B,0,1.421337,0.862606,0.044874\C,0,-0.040037,0.364822,0.02352\C,0,-
 1.086734,1.310812,0.007397\C,0,-0.401493,-0.998683,0.021947\C,0,-1.732
 012,-1.396411,0.000223\C,0,-2.744645,-0.435577,-0.013943\C,0,-2.421544
 ,0.920215,-0.008987\H,0,-3.783995,-0.745324,-0.02787\H,0,-3.208329,1.6
 66214,-0.019635\H,0,-0.837679,2.366486,0.00671\H,0,0.373139,-1.757746,

 Normal termination of Gaussian 16 at Wed Apr  9 00:44:48 2025.
