 Gaussian 16, Revision C.01,

 ----------------------------------------------------------------------
 #t hf aug-cc-pvdz symm=none int=(grid=ultrafine) guess=(read,tcheck) s
 table=(opt,rrhf)
 ----------------------------------------------------------------------
 -----
 title
 -----
 Symbolic Z-matrix:
 Charge =  0 Multiplicity = 1

 SCF Done:  E(RHF) =  -1107.06578114     A.U. after   16 cycles
 Normal termination of Gaussian 16 at Wed Apr  9 00:17:02 2025.
 Gaussian 16:  ES64L-G16RevC.01  3-Jul-2019

 ----------------------------------------------------------------------
 #t hf aug-cc-pvdz iop(5/13=1,5/36=2,99/5=2) pseudo=read geom=check gue
 ss=(read,tcheck) scf=(maxcycle=1)
 ----------------------------------------------------------------------
 -----
 title
 -----
 Structure from the checkpoint file:  "BDE49_nonexpt_2480_mol1.chk"
 Charge =  0 Multiplicity = 1

                         Standard orientation:
 ---------------------------------------------------------------------
 Center     Atomic      Atomic             Coordinates (Angstroms)
 Number     Number       Type             X           Y           Z
 ---------------------------------------------------------------------
      1         16           0       -2.133042    0.214891    0.048858
      2          6           0       -1.935389    0.296927    1.840950
      3          8           0       -3.420091   -0.421496   -0.216307
      4          8           0       -1.857620    1.555309   -0.470544
      5          1           0       -2.095779   -0.694355    2.264286
      6          1           0       -2.703911    0.989189    2.189931
      7          1           0       -0.942362    0.680924    2.072796
      8          6           0        1.165318   -0.431910   -0.330193
      9          6           0        1.511193    0.892745   -0.652287
     10          6           0        2.115841   -1.235874    0.320629
     11          6           0        2.772192    1.389949   -0.337720
     12          6           0        3.378474   -0.736493    0.631911
     13          6           0        3.706991    0.576263    0.301778
     14          1           0        0.786076    1.538758   -1.134683
     15          1           0        3.025537    2.413364   -0.590144
     16          1           0        1.872089   -2.260081    0.584520
     17          1           0        4.102813   -1.370160    1.131130
     18          1           0        4.689285    0.966288    0.543980
     19         14           0       -0.509580   -1.122918   -0.758843
     20          1           0       -0.845507   -1.090695   -2.195290
     21          1           0       -0.691478   -2.470774   -0.180040
 ---------------------------------------------------------------------

 SCF Done:  E(RHF) =  -1107.59013468     A.U. after    2 cycles

 The electronic state is 1-A.
 Alpha  occ. eigenvalues --  -94.16208 -69.57710 -20.52265 -20.52201 -11.28134
 Alpha  occ. eigenvalues --  -11.27309 -11.26840 -11.26713 -11.26258 -11.26068
 Alpha  occ. eigenvalues --  -11.25828  -8.41844  -6.39930  -6.39702  -6.39619
 Alpha  occ. eigenvalues --   -6.24712  -4.00089  -4.00007  -3.99984  -1.53087
 Alpha  occ. eigenvalues --   -1.41585  -1.17379  -1.05201  -1.03818  -1.03728
 Alpha  occ. eigenvalues --   -0.88765  -0.85420  -0.84855  -0.76817  -0.72174
 Alpha  occ. eigenvalues --   -0.67040  -0.66158  -0.65772  -0.64956  -0.64628
 Alpha  occ. eigenvalues --   -0.62007  -0.59760  -0.59296  -0.58005  -0.53967
 Alpha  occ. eigenvalues --   -0.52576  -0.51837  -0.49509  -0.47893  -0.46863
 Alpha  occ. eigenvalues --   -0.44751  -0.40151  -0.36656  -0.36445
 Alpha virt. eigenvalues --    0.02398   0.03005   0.03634   0.03970   0.05011
 Alpha virt. eigenvalues --    0.05029   0.05698   0.06385   0.06609   0.06867
 Alpha virt. eigenvalues --    0.07723   0.08651   0.08784   0.10093   0.11060

 Mulliken charges:
               1
     1  S    2.648572
     2  C   -0.771085
     3  O   -1.501723
     4  O   -1.511435
     5  H    0.174209
     6  H    0.215233
     7  H    0.140075
     8  C   -0.432153
     9  C    0.291986
    10  C    0.046345
    11  C    0.501555
    12  C    0.523145
    13  C    0.289266
    14  H   -0.364463
    15  H   -0.214030
    16  H   -0.336752
    17  H   -0.214669
    18  H   -0.211272
    19  Si   0.864228
    20  H   -0.056711
    21  H   -0.080320
 Sum of Mulliken charges =  -0.00000

 Dipole moment (field-independent basis, Debye):
    X=              5.3400    Y=             -1.8426    Z=              2.6633  Tot=              6.2453

 Test job not archived.
 1\1\GINC-SE454\SP\RHF\Aug-CC-pVDZ\C7H10O2S1Si1\OHZDE\09-Apr-2025\0\\#t
  hf aug-cc-pvdz iop(5/13=1,5/36=2,99/5=2) pseudo=read geom=check guess
 =(read,tcheck) scf=(maxcycle=1)\\title\\0,1\S,0,-2.133042,0.214891,0.0
 48858\C,0,-1.935389,0.296927,1.84095\O,0,-3.420091,-0.421496,-0.216307
 \O,0,-1.85762,1.555309,-0.470544\H,0,-2.095779,-0.694355,2.264286\H,0,
 -2.703911,0.989189,2.189931\H,0,-0.942362,0.680924,2.072796\C,0,1.1653
 18,-0.43191,-0.330193\C,0,1.511193,0.892745,-0.652287\C,0,2.115841,-1.
 235874,0.320629\C,0,2.772192,1.389949,-0.33772\C,0,3.378474,-0.736493,

 Normal termination of Gaussian 16 at Wed Apr  9 00:17:16 2025.
