 Gaussian 16, Revision C.01,

 ----------------------------------------------------------------------
 #t hf aug-cc-pvdz symm=none int=(grid=ultrafine) guess=(read,tcheck) s
 table=opt
 ----------------------------------------------------------------------
 -----
 title
 -----
 Symbolic Z-matrix:
 Charge =  0 Multiplicity = 2

 SCF Done:  E(UHF) =  -418.238979047     A.U. after   27 cycles

 1\1\GINC-SE364\Stability\UHF\Aug-CC-pVDZ\C8H11N2\OHZDE\08-Apr-2025\0\\
 #t hf aug-cc-pvdz symm=none int=(grid=ultrafine) guess=(read,tcheck) s
 table=opt\\title\\0,2\C,0,1.863291,-0.132895,-0.018938\N,0,2.888473,-0
 .660564,-0.046016\C,0,-0.574631,-0.584472,-0.066912\C,0,-1.882009,0.09
 0447,-0.0281\N,0,-2.90912,0.612705,0.012045\C,0,0.560705,0.549072,0.02
 0767\C,0,-0.454152,-1.367475,-1.346099\H,0,0.442944,-1.949443,-1.51426
 \H,0,-1.256586,-1.397027,-2.068669\C,0,-0.494985,-1.56351,1.140875\H,0
 ,-0.666297,-1.049558,2.087351\H,0,0.487359,-2.038345,1.163008\H,0,-1.2

 Normal termination of Gaussian 16 at Tue Apr  8 23:07:01 2025.
 Gaussian 16:  ES64L-G16RevC.01  3-Jul-2019

 ----------------------------------------------------------------------
 #t hf aug-cc-pvdz iop(5/13=1,5/36=2,99/5=2) pseudo=read geom=check gue
 ss=(read,tcheck) scf=(maxcycle=1)
 ----------------------------------------------------------------------
 -----
 title
 -----
 Structure from the checkpoint file:  "BDE49_expt_305_mol2.chk"
 Charge =  0 Multiplicity = 2

                         Standard orientation:
 ---------------------------------------------------------------------
 Center     Atomic      Atomic             Coordinates (Angstroms)
 Number     Number       Type             X           Y           Z
 ---------------------------------------------------------------------
      1          6           0        1.863291   -0.132895   -0.018938
      2          7           0        2.888473   -0.660564   -0.046016
      3          6           0       -0.574631   -0.584472   -0.066912
      4          6           0       -1.882009    0.090447   -0.028100
      5          7           0       -2.909120    0.612705    0.012045
      6          6           0        0.560705    0.549072    0.020767
      7          6           0       -0.454152   -1.367475   -1.346099
      8          1           0        0.442944   -1.949443   -1.514260
      9          1           0       -1.256586   -1.397027   -2.068669
     10          6           0       -0.494985   -1.563510    1.140875
     11          1           0       -0.666297   -1.049558    2.087351
     12          1           0        0.487359   -2.038345    1.163008
     13          1           0       -1.253436   -2.339297    1.031802
     14          6           0        0.469049    1.363589    1.330887
     15          1           0        0.638145    0.746473    2.213024
     16          1           0       -0.514282    1.831956    1.408174
     17          1           0        1.224757    2.151205    1.324634
     18          6           0        0.465694    1.503401   -1.191360
     19          1           0        0.546713    0.958538   -2.132836
     20          1           0        1.268162    2.241763   -1.149379
     21          1           0       -0.490719    2.029801   -1.171770
 ---------------------------------------------------------------------

 SCF Done:  E(UHF) =  -418.663950455     A.U. after    2 cycles

 The electronic state is 2-A.
 Alpha  occ. eigenvalues --  -15.52571 -15.52509 -11.32566 -11.32432 -11.29312
 Alpha  occ. eigenvalues --  -11.29011 -11.27712 -11.26495 -11.26227 -11.26045
 Alpha  occ. eigenvalues --   -1.25287  -1.24594  -1.17304  -1.08568  -0.99204
 Alpha  occ. eigenvalues --   -0.95869  -0.90302  -0.89455  -0.72736  -0.70218
 Alpha  occ. eigenvalues --   -0.66686  -0.64855  -0.63088  -0.62418  -0.62014
 Alpha  occ. eigenvalues --   -0.59053  -0.58700  -0.57180  -0.56759  -0.56210
 Alpha  occ. eigenvalues --   -0.54014  -0.53576  -0.52604  -0.51002  -0.49243
 Alpha  occ. eigenvalues --   -0.48651  -0.39865
 Alpha virt. eigenvalues --    0.03385   0.03411   0.03601   0.04270   0.04644
 Alpha virt. eigenvalues --    0.04749   0.06455   0.06715   0.08339   0.08676
 Alpha virt. eigenvalues --    0.08904   0.09327   0.10762   0.11861   0.12349

  Beta  occ. eigenvalues --  -15.52752 -15.52480 -11.32925 -11.32248 -11.29164
  Beta  occ. eigenvalues --  -11.29042 -11.26325 -11.26229 -11.26029 -11.25207
  Beta  occ. eigenvalues --   -1.25307  -1.24657  -1.16596  -1.07380  -0.97996
  Beta  occ. eigenvalues --   -0.93731  -0.89644  -0.85937  -0.72205  -0.69485
  Beta  occ. eigenvalues --   -0.66108  -0.64051  -0.62785  -0.62372  -0.61730
  Beta  occ. eigenvalues --   -0.58819  -0.58139  -0.56880  -0.56457  -0.56071
  Beta  occ. eigenvalues --   -0.53605  -0.53312  -0.52692  -0.51053  -0.48896
  Beta  occ. eigenvalues --   -0.48035
  Beta virt. eigenvalues --    0.03196   0.03419   0.03527   0.04285   0.04491
  Beta virt. eigenvalues --    0.04693   0.06461   0.06720   0.07604   0.08383
  Beta virt. eigenvalues --    0.08838   0.08937   0.09618   0.10844   0.11955

 Mulliken charges and spin densities:
               1          2
     1  C   -2.179694   0.037555
     2  N    1.357119  -0.001828
     3  C   -0.320084  -0.298238
     4  C   -2.486071   0.064240
     5  N    1.378676  -0.053815
     6  C   -1.751783   0.036738
     7  C    0.598673   1.450864
     8  H    0.028832  -0.119467
     9  H   -0.102614  -0.103423
    10  C    0.359791   0.046048
    11  H    0.234560   0.005493
    12  H    0.284873  -0.004315
    13  H    0.167592  -0.012942
    14  C    0.473708  -0.001839
    15  H    0.219528   0.000574
    16  H    0.301083  -0.000048
    17  H    0.204658   0.001448
    18  C    0.432672  -0.017505
    19  H    0.313805  -0.030259
    20  H    0.186005   0.000654
    21  H    0.298672   0.000066
 Sum of Mulliken charges =  -0.00000   1.00000

 Dipole moment (field-independent basis, Debye):
    X=             -0.0119    Y=              0.1048    Z=              0.1053  Tot=              0.1491
                          Isotropic Fermi Contact Couplings
        Atom                 a.u.       MegaHertz       Gauss      10(-4) cm-1
     1  C(13)             -0.00518      -5.82673      -2.07912      -1.94359
     2  N(14)              0.00228       0.73518       0.26233       0.24523
     3  C(13)             -0.06591     -74.09336     -26.43835     -24.71489
     4  C(13)              0.01705      19.17268       6.84129       6.39532
     5  N(14)             -0.01425      -4.60551      -1.64336      -1.53623
     6  C(13)              0.04052      45.55004      16.25339      15.19386
     7  C(13)              0.21636     243.22839      86.78994      81.13226
     8  H(1)              -0.02460    -109.97186     -39.24069     -36.68266

 Normal termination of Gaussian 16 at Tue Apr  8 23:07:16 2025.
