 Gaussian 16, Revision C.01,

 ----------------------------------------------------------------------
 #t hf aug-cc-pvdz symm=none int=(grid=ultrafine) guess=(read,tcheck) s
 table=opt
 ----------------------------------------------------------------------
 -----
 title
 -----
 Symbolic Z-matrix:
 Charge =  0 Multiplicity = 2

 SCF Done:  E(UHF) =  -423.340847415     A.U. after   15 cycles
 Normal termination of Gaussian 16 at Wed Apr  9 00:34:45 2025.
 Gaussian 16:  ES64L-G16RevC.01  3-Jul-2019

 ----------------------------------------------------------------------
 #t hf aug-cc-pvdz iop(5/13=1,5/36=2,99/5=2) pseudo=read geom=check gue
 ss=(read,tcheck) scf=(maxcycle=1)
 ----------------------------------------------------------------------
 -----
 title
 -----
 Structure from the checkpoint file:  "BDE49_nonexpt_449_mol2.chk"
 Charge =  0 Multiplicity = 2

                         Standard orientation:
 ---------------------------------------------------------------------
 Center     Atomic      Atomic             Coordinates (Angstroms)
 Number     Number       Type             X           Y           Z
 ---------------------------------------------------------------------
      1          1           0       -2.114194    0.654688    0.000003
      2         16           0        0.482037   -0.069581   -0.000002
      3          5           0       -1.259912   -0.163097    0.000004
      4          1           0        0.701168    1.274084    0.000000
 ---------------------------------------------------------------------

 SCF Done:  E(UHF) =  -423.422724959     A.U. after    2 cycles

 The electronic state is 2-A.
 Alpha  occ. eigenvalues --  -93.97032  -8.25375  -7.64949  -6.23128  -6.22999
 Alpha  occ. eigenvalues --   -6.22843  -1.04401  -0.69752  -0.60163  -0.48386
 Alpha  occ. eigenvalues --   -0.42128  -0.35193
 Alpha virt. eigenvalues --    0.03810   0.04199   0.05118   0.05400   0.08825
 Alpha virt. eigenvalues --    0.08946   0.11424   0.11973   0.14822   0.16446
 Alpha virt. eigenvalues --    0.17747   0.21615   0.23375   0.26233   0.28829

  Beta  occ. eigenvalues --  -93.97091  -8.25414  -7.63013  -6.23308  -6.23081
  Beta  occ. eigenvalues --   -6.23006  -1.03636  -0.64873  -0.58432  -0.47563
  Beta  occ. eigenvalues --   -0.42291
  Beta virt. eigenvalues --    0.03722   0.04230   0.04823   0.05254   0.08050
  Beta virt. eigenvalues --    0.09802   0.11051   0.11630   0.13852   0.15081
  Beta virt. eigenvalues --    0.16953   0.18848   0.22266   0.24331   0.27534

 Mulliken charges and spin densities:
               1          2
     1  H    0.296229  -0.017780
     2  S   -0.413420  -0.129312
     3  B   -0.169931   1.067130
     4  H    0.287122   0.079961
 Sum of Mulliken charges =  -0.00000   1.00000

 Dipole moment (field-independent basis, Debye):
    X=              0.1007    Y=              1.4222    Z=              0.0000  Tot=              1.4257
                          Isotropic Fermi Contact Couplings
        Atom                 a.u.       MegaHertz       Gauss      10(-4) cm-1
     1  H(1)               0.00164       7.33161       2.61610       2.44556
     2  S(33)              0.12048      41.38292      14.76646      13.80386
     3  B(11)              0.26857     385.22284     137.45709     128.49651
     4  H(1)               0.02760     123.37105      44.02186      41.15215
 --------------------------------------------------------
       Center         ----  Spin Dipole Couplings  ----
                      3XX-RR        3YY-RR        3ZZ-RR
 --------------------------------------------------------

 Normal termination of Gaussian 16 at Wed Apr  9 00:34:47 2025.
