 Gaussian 16, Revision C.01,

 ----------------------------------------------------------------------
 #t hf aug-cc-pvdz symm=none int=(grid=ultrafine) guess=(read,tcheck) s
 table=opt
 ----------------------------------------------------------------------
 -----
 title
 -----
 Symbolic Z-matrix:
 Charge =  0 Multiplicity = 2

 SCF Done:  E(UHF) =  -445.585186934     A.U. after   15 cycles

 1\1\GINC-SE344\Stability\UHF\Aug-CC-pVDZ\C4H9Si1\OHZDE\09-Apr-2025\0\\
 #t hf aug-cc-pvdz symm=none int=(grid=ultrafine) guess=(read,tcheck) s
 table=opt\\title\\0,2\C,0,0.08041,-0.018445,-0.503911\C,0,-0.858013,1.
 094263,0.091834\C,0,-0.941531,-1.079706,0.018086\C,0,-2.000747,0.04648
 3,0.143172\H,0,-0.657557,-1.476418,0.996957\H,0,-1.165802,-1.919045,-0
 .642617\H,0,-2.634445,0.101815,-0.745401\H,0,-2.639657,0.042292,1.0288
 \H,0,-1.007711,1.987487,-0.517296\H,0,-0.546309,1.404017,1.092764\Si,0
 ,1.879179,-0.09544,0.055188\H,0,0.042742,0.023631,-1.597019\H,0,1.9584

 Normal termination of Gaussian 16 at Wed Apr  9 00:46:18 2025.
 Gaussian 16:  ES64L-G16RevC.01  3-Jul-2019

 ----------------------------------------------------------------------
 #t hf aug-cc-pvdz iop(5/13=1,5/36=2,99/5=2) pseudo=read geom=check gue
 ss=(read,tcheck) scf=(maxcycle=1)
 ----------------------------------------------------------------------
 -----
 title
 -----
 Structure from the checkpoint file:  "BDE49_nonexpt_807_mol2.chk"
 Charge =  0 Multiplicity = 2

                         Standard orientation:
 ---------------------------------------------------------------------
 Center     Atomic      Atomic             Coordinates (Angstroms)
 Number     Number       Type             X           Y           Z
 ---------------------------------------------------------------------
      1          6           0        0.080410   -0.018445   -0.503911
      2          6           0       -0.858013    1.094263    0.091834
      3          6           0       -0.941531   -1.079706    0.018086
      4          6           0       -2.000747    0.046483    0.143172
      5          1           0       -0.657557   -1.476418    0.996957
      6          1           0       -1.165803   -1.919045   -0.642617
      7          1           0       -2.634445    0.101816   -0.745401
      8          1           0       -2.639657    0.042293    1.028800
      9          1           0       -1.007711    1.987487   -0.517296
     10          1           0       -0.546309    1.404017    1.092764
     11         14           0        1.879179   -0.095440    0.055188
     12          1           0        0.042742    0.023631   -1.597019
     13          1           0        1.958471   -0.160345    1.541206
     14          1           0        2.661054    1.077153   -0.425110
 ---------------------------------------------------------------------

 SCF Done:  E(UHF) =  -445.787246041     A.U. after    2 cycles

 The electronic state is 2-A.
 Alpha  occ. eigenvalues --  -69.52668 -11.23688 -11.23540 -11.23165 -11.22858
 Alpha  occ. eigenvalues --   -6.19832  -3.95789  -3.94886  -3.94871  -1.12924
 Alpha  occ. eigenvalues --   -0.90268  -0.90232  -0.76674  -0.72082  -0.66071
 Alpha  occ. eigenvalues --   -0.61495  -0.55164  -0.53198  -0.51202  -0.48200
 Alpha  occ. eigenvalues --   -0.45897  -0.45269  -0.42178  -0.32130
 Alpha virt. eigenvalues --    0.03645   0.03894   0.04005   0.04227   0.05921
 Alpha virt. eigenvalues --    0.06273   0.06744   0.07209   0.07693   0.09287
 Alpha virt. eigenvalues --    0.09880   0.10744   0.13322   0.14095   0.14525

  Beta  occ. eigenvalues --  -69.52119 -11.23553 -11.23535 -11.23162 -11.22835
  Beta  occ. eigenvalues --   -6.19004  -3.94509  -3.94497  -3.93643  -1.12715
  Beta  occ. eigenvalues --   -0.90056  -0.89775  -0.76026  -0.69242  -0.65954
  Beta  occ. eigenvalues --   -0.60602  -0.55093  -0.52845  -0.50463  -0.47542
  Beta  occ. eigenvalues --   -0.45656  -0.44949  -0.41270
  Beta virt. eigenvalues --    0.02522   0.03729   0.03944   0.04120   0.05427
  Beta virt. eigenvalues --    0.06053   0.06425   0.07018   0.07379   0.08855
  Beta virt. eigenvalues --    0.09381   0.10173   0.11001   0.13769   0.14165

 Mulliken charges and spin densities:
               1          2
     1  C   -0.161737  -0.046992
     2  C   -0.153392   0.024820
     3  C   -0.235339   0.022870
     4  C    0.036945  -0.003906
     5  H    0.046472  -0.001803
     6  H    0.037089  -0.000349
     7  H    0.043678  -0.000323
     8  H    0.040570  -0.000232
     9  H    0.035243  -0.001957
    10  H    0.028053  -0.009267
    11  Si   0.421598   0.994147
    12  H    0.092670  -0.004090
    13  H   -0.113924   0.007792
    14  H   -0.117927   0.019290
 Sum of Mulliken charges =  -0.00000   1.00000

 Dipole moment (field-independent basis, Debye):
    X=             -1.0475    Y=              0.1134    Z=             -0.2788  Tot=              1.0899
                          Isotropic Fermi Contact Couplings
        Atom                 a.u.       MegaHertz       Gauss      10(-4) cm-1
     1  C(13)              0.00558       6.26801       2.23658       2.09078
     2  C(13)              0.02823      31.74124      11.32606      10.58774
     3  C(13)              0.00224       2.52262       0.90013       0.84145
     4  C(13)              0.00019       0.20907       0.07460       0.06974
     5  H(1)              -0.00009      -0.39076      -0.13943      -0.13034
     6  H(1)              -0.00018      -0.79453      -0.28351      -0.26503
     7  H(1)               0.00005       0.20940       0.07472       0.06985
     8  H(1)               0.00021       0.93936       0.33519       0.31334

 Normal termination of Gaussian 16 at Wed Apr  9 00:46:23 2025.
