 Gaussian 16, Revision C.01,

 ----------------------------------------------------------------------
 #t hf aug-cc-pvdz symm=none int=(grid=ultrafine) guess=(read,tcheck) s
 table=(opt,rrhf)
 ----------------------------------------------------------------------
 -----
 title
 -----
 Symbolic Z-matrix:
 Charge =  0 Multiplicity = 1

 SCF Done:  E(RHF) =  -781.199512273     A.U. after   16 cycles
 Normal termination of Gaussian 16 at Tue Apr  8 23:16:25 2025.
 Gaussian 16:  ES64L-G16RevC.01  3-Jul-2019

 ----------------------------------------------------------------------
 #t hf aug-cc-pvdz iop(5/13=1,5/36=2,99/5=2) pseudo=read geom=check gue
 ss=(read,tcheck) scf=(maxcycle=1)
 ----------------------------------------------------------------------
 -----
 title
 -----
 Structure from the checkpoint file:  "BDE49_expt_861_mol1.chk"
 Charge =  0 Multiplicity = 1

                         Standard orientation:
 ---------------------------------------------------------------------
 Center     Atomic      Atomic             Coordinates (Angstroms)
 Number     Number       Type             X           Y           Z
 ---------------------------------------------------------------------
      1          6           0        0.872727    0.265010    0.000221
      2          6           0        0.295460   -1.008384   -0.005288
      3          6           0       -1.093566   -1.138044   -0.009627
      4          6           0        0.045805    1.396812   -0.004373
      5          6           0       -1.332373    1.256500   -0.012638
      6          6           0       -1.918656   -0.015742   -0.004460
      7          1           0        0.511234    2.374918   -0.007201
      8          1           0       -1.964755    2.135775   -0.026585
      9         16           0       -3.706287   -0.200895   -0.070069
     10          1           0        0.907943   -1.899612   -0.007698
     11          1           0       -1.537471   -2.126084   -0.016528
     12          8           0        2.210301    0.509957    0.005468
     13          6           0        3.121572   -0.592889    0.003126
     14          6           0        4.526095   -0.021325    0.008323
     15          1           0        2.952752   -1.209832   -0.887888
     16          1           0        2.949036   -1.216715    0.888664
     17          1           0        4.691135    0.599300   -0.874721
     18          1           0        5.261229   -0.830125    0.006929
     19          1           0        4.687304    0.592789    0.896628
     20          1           0       -3.942613   -0.137379    1.254055
 ---------------------------------------------------------------------

 SCF Done:  E(RHF) =  -781.655053466     A.U. after    2 cycles

 The electronic state is 1-A.
 Alpha  occ. eigenvalues --  -93.95272 -20.57595 -11.31613 -11.30320 -11.26722
 Alpha  occ. eigenvalues --  -11.25692 -11.25528 -11.24517 -11.24119 -11.23797
 Alpha  occ. eigenvalues --   -8.23284  -6.21138  -6.20996  -6.20780  -1.50128
 Alpha  occ. eigenvalues --   -1.16597  -1.07103  -1.03604  -1.02427  -0.95442
 Alpha  occ. eigenvalues --   -0.88209  -0.83996  -0.80897  -0.73842  -0.67972
 Alpha  occ. eigenvalues --   -0.67904  -0.65637  -0.63103  -0.60828  -0.57841
 Alpha  occ. eigenvalues --   -0.57479  -0.56311  -0.55012  -0.52755  -0.51616
 Alpha  occ. eigenvalues --   -0.49140  -0.48729  -0.45933  -0.37389  -0.35733
 Alpha  occ. eigenvalues --   -0.32377
 Alpha virt. eigenvalues --    0.03158   0.03492   0.03887   0.04279   0.04892
 Alpha virt. eigenvalues --    0.05147   0.06298   0.07370   0.07583   0.08212
 Alpha virt. eigenvalues --    0.08780   0.09806   0.10315   0.11202   0.11818

 Mulliken charges:
               1
     1  C    1.642398
     2  C   -0.211302
     3  C    0.317501
     4  C    0.340527
     5  C    0.129615
     6  C    0.135165
     7  H   -0.324307
     8  H   -0.188180
     9  S    0.070544
    10  H   -0.448715
    11  H   -0.199984
    12  O   -1.936347
    13  C    0.044994
    14  C   -0.516740
    15  H    0.126051
    16  H    0.125880
    17  H    0.200023
    18  H    0.151907
    19  H    0.199523
    20  H    0.341448
 Sum of Mulliken charges =  -0.00000

 Dipole moment (field-independent basis, Debye):
    X=              2.5608    Y=             -0.9219    Z=              0.8691  Tot=              2.8571

 Test job not archived.
 1\1\GINC-SE424\SP\RHF\Aug-CC-pVDZ\C8H10O1S1\OHZDE\08-Apr-2025\0\\#t hf
  aug-cc-pvdz iop(5/13=1,5/36=2,99/5=2) pseudo=read geom=check guess=(r
 ead,tcheck) scf=(maxcycle=1)\\title\\0,1\C,0,0.872727,0.26501,0.000221
 \C,0,0.29546,-1.008384,-0.005288\C,0,-1.093566,-1.138044,-0.009627\C,0
 ,0.045805,1.396812,-0.004373\C,0,-1.332373,1.2565,-0.012638\C,0,-1.918
 656,-0.015742,-0.00446\H,0,0.511234,2.374918,-0.007201\H,0,-1.964755,2
 .135775,-0.026585\S,0,-3.706287,-0.200895,-0.070069\H,0,0.907943,-1.89
 9612,-0.007698\H,0,-1.537471,-2.126084,-0.016528\O,0,2.210301,0.509957

 Normal termination of Gaussian 16 at Tue Apr  8 23:16:37 2025.
