 Gaussian 16, Revision C.01,

 ----------------------------------------------------------------------
 #t hf aug-cc-pvdz symm=none int=(grid=ultrafine) guess=(read,tcheck) s
 table=(opt,rrhf)
 ----------------------------------------------------------------------
 -----
 title
 -----
 Symbolic Z-matrix:
 Charge =  0 Multiplicity = 1

 SCF Done:  E(RHF) =  -801.746907238     A.U. after   15 cycles
 Normal termination of Gaussian 16 at Tue Apr  8 23:19:19 2025.
 Gaussian 16:  ES64L-G16RevC.01  3-Jul-2019

 ----------------------------------------------------------------------
 #t hf aug-cc-pvdz iop(5/13=1,5/36=2,99/5=2) pseudo=read geom=check gue
 ss=(read,tcheck) scf=(maxcycle=1)
 ----------------------------------------------------------------------
 -----
 title
 -----
 Structure from the checkpoint file:  "BDE49_nonexpt_1075_mol1.chk"
 Charge =  0 Multiplicity = 1

                         Standard orientation:
 ---------------------------------------------------------------------
 Center     Atomic      Atomic             Coordinates (Angstroms)
 Number     Number       Type             X           Y           Z
 ---------------------------------------------------------------------
      1         17           0        2.016837    0.152023   -0.084556
      2          8           0        0.519102   -0.278020   -0.855877
      3          6           0       -0.573198   -0.462194    0.082871
      4          8           0       -0.831494    0.717214    0.781425
      5          8           0       -0.298147   -1.422205    1.025724
      6          6           0       -1.089684    1.894241    0.013314
      7          1           0       -0.303372    2.065594   -0.724731
      8          1           0       -1.107145    2.716570    0.726559
      9          1           0       -2.061095    1.836270   -0.487919
     10          6           0       -1.698736   -0.952533   -0.822584
     11          1           0       -1.851827   -0.282287   -1.667260
     12          1           0       -2.608650   -1.009626   -0.224230
     13          1           0       -1.448068   -1.943953   -1.196127
     14          1           0        0.147941   -0.979967    1.759385
 ---------------------------------------------------------------------

 SCF Done:  E(RHF) =  -802.168391110     A.U. after    2 cycles

 The electronic state is 1-A.
 Alpha  occ. eigenvalues -- -105.61743 -20.62627 -20.57341 -20.57240 -11.42057
 Alpha  occ. eigenvalues --  -11.29691 -11.24479 -10.65955  -7.82940  -7.82422
 Alpha  occ. eigenvalues --   -7.82393  -1.55835  -1.45647  -1.45515  -1.06329
 Alpha  occ. eigenvalues --   -0.99293  -0.96440  -0.82732  -0.75519  -0.71941
 Alpha  occ. eigenvalues --   -0.69020  -0.65143  -0.62308  -0.59094  -0.57765
 Alpha  occ. eigenvalues --   -0.56820  -0.55311  -0.54228  -0.51261  -0.49736
 Alpha  occ. eigenvalues --   -0.46785  -0.45361  -0.44268
 Alpha virt. eigenvalues --    0.03582   0.04234   0.04679   0.05099   0.06124
 Alpha virt. eigenvalues --    0.07243   0.07393   0.08150   0.10518   0.12008
 Alpha virt. eigenvalues --    0.13397   0.13704   0.15175   0.15892   0.16115

 Mulliken charges:
               1
     1  Cl   0.188675
     2  O   -1.344836
     3  C    3.147800
     4  O   -1.571146
     5  O   -1.429778
     6  C    0.119110
     7  H    0.208179
     8  H   -0.011144
     9  H    0.128146
    10  C   -0.323479
    11  H    0.181275
    12  H    0.241661
    13  H    0.164418
    14  H    0.301120
 Sum of Mulliken charges =  -0.00000

 Dipole moment (field-independent basis, Debye):
    X=             -1.5400    Y=              1.4901    Z=             -0.1086  Tot=              2.1457

 Test job not archived.
 1\1\GINC-SE044\SP\RHF\Aug-CC-pVDZ\C3H7Cl1O3\OHZDE\08-Apr-2025\0\\#t hf
  aug-cc-pvdz iop(5/13=1,5/36=2,99/5=2) pseudo=read geom=check guess=(r
 ead,tcheck) scf=(maxcycle=1)\\title\\0,1\Cl,0,2.016837,0.152023,-0.084
 556\O,0,0.519102,-0.27802,-0.855877\C,0,-0.573198,-0.462194,0.082871\O
 ,0,-0.831494,0.717214,0.781425\O,0,-0.298147,-1.422205,1.025724\C,0,-1
 .089684,1.894241,0.013314\H,0,-0.303372,2.065594,-0.724731\H,0,-1.1071
 45,2.71657,0.726559\H,0,-2.061095,1.83627,-0.487919\C,0,-1.698736,-0.9
 52533,-0.822584\H,0,-1.851827,-0.282287,-1.66726\H,0,-2.60865,-1.00962

 Normal termination of Gaussian 16 at Tue Apr  8 23:19:24 2025.
