 Gaussian 16, Revision C.01,

 ----------------------------------------------------------------------
 #t hf aug-cc-pvdz symm=none int=(grid=ultrafine) guess=(read,tcheck) s
 table=(opt,rrhf)
 ----------------------------------------------------------------------
 -----
 title
 -----
 Symbolic Z-matrix:
 Charge =  0 Multiplicity = 1

 SCF Done:  E(RHF) =  -330.920396101     A.U. after   14 cycles
 Normal termination of Gaussian 16 at Tue Apr  8 23:20:12 2025.
 Gaussian 16:  ES64L-G16RevC.01  3-Jul-2019

 ----------------------------------------------------------------------
 #t hf aug-cc-pvdz iop(5/13=1,5/36=2,99/5=2) pseudo=read geom=check gue
 ss=(read,tcheck) scf=(maxcycle=1)
 ----------------------------------------------------------------------
 -----
 title
 -----
 Structure from the checkpoint file:  "BDE49_nonexpt_1123_mol1.chk"
 Charge =  0 Multiplicity = 1

                         Standard orientation:
 ---------------------------------------------------------------------
 Center     Atomic      Atomic             Coordinates (Angstroms)
 Number     Number       Type             X           Y           Z
 ---------------------------------------------------------------------
      1          9           0        1.861672   -1.139195    0.145262
      2          8           0        0.593524   -0.772396   -0.457256
      3          6           0        0.119849    0.367221    0.272863
      4          6           0       -1.320731    0.529111   -0.232772
      5          6           0        0.999399    1.585737    0.030180
      6          1           0        0.983988    1.865582   -1.026270
      7          1           0        2.029097    1.371240    0.317634
      8          1           0        0.645867    2.433472    0.623158
      9          1           0        0.109390    0.098234    1.335455
     10          6           0       -2.261755   -0.609254    0.169276
     11          1           0       -1.293990    0.639121   -1.322185
     12          1           0       -1.685188    1.481599    0.165466
     13          1           0       -1.917138   -1.564965   -0.228483
     14          1           0       -3.270753   -0.427611   -0.208839
     15          1           0       -2.325083   -0.701630    1.257467
 ---------------------------------------------------------------------

 SCF Done:  E(RHF) =  -331.258950485     A.U. after    2 cycles

 The electronic state is 1-A.
 Alpha  occ. eigenvalues --  -26.48648 -20.66196 -11.30979 -11.25054 -11.23687
 Alpha  occ. eigenvalues --  -11.23390  -1.63701  -1.35699  -1.07593  -1.00321
 Alpha  occ. eigenvalues --   -0.88498  -0.81844  -0.71393  -0.68412  -0.67488
 Alpha  occ. eigenvalues --   -0.61928  -0.60868  -0.59234  -0.57774  -0.55372
 Alpha  occ. eigenvalues --   -0.53206  -0.52094  -0.50600  -0.48986  -0.46673
 Alpha virt. eigenvalues --    0.03432   0.03847   0.03904   0.04995   0.06351
 Alpha virt. eigenvalues --    0.06570   0.06683   0.08266   0.09503   0.11350
 Alpha virt. eigenvalues --    0.12659   0.14082   0.14532   0.15446   0.16206

 Mulliken charges:
               1
     1  F   -0.472455
     2  O   -0.611258
     3  C    0.505566
     4  C   -0.280635
     5  C   -0.373580
     6  H    0.213804
     7  H    0.203260
     8  H    0.201610
     9  H    0.146226
    10  C   -0.341404
    11  H    0.160770
    12  H    0.166494
    13  H    0.188788
    14  H    0.136339
    15  H    0.156475
 Sum of Mulliken charges =  -0.00000

 Dipole moment (field-independent basis, Debye):
    X=             -1.7820    Y=              2.0467    Z=              0.6007  Tot=              2.7795

 Test job not archived.
 1\1\GINC-SE339\SP\RHF\Aug-CC-pVDZ\C4H9F1O1\OHZDE\08-Apr-2025\0\\#t hf
 aug-cc-pvdz iop(5/13=1,5/36=2,99/5=2) pseudo=read geom=check guess=(re
 ad,tcheck) scf=(maxcycle=1)\\title\\0,1\F,0,1.861672,-1.139195,0.14526
 2\O,0,0.593524,-0.772396,-0.457256\C,0,0.119849,0.367221,0.272863\C,0,
 -1.320731,0.529111,-0.232772\C,0,0.999399,1.585737,0.03018\H,0,0.98398
 8,1.865582,-1.02627\H,0,2.029097,1.37124,0.317634\H,0,0.645867,2.43347
 2,0.623158\H,0,0.10939,0.098234,1.335455\C,0,-2.261755,-0.609254,0.169
 276\H,0,-1.29399,0.639121,-1.322185\H,0,-1.685188,1.481599,0.165466\H,

 Normal termination of Gaussian 16 at Tue Apr  8 23:20:16 2025.
