 Gaussian 16, Revision C.01,

 ----------------------------------------------------------------------
 #t hf aug-cc-pvdz symm=none int=(grid=ultrafine) guess=(read,tcheck) s
 table=(opt,rrhf)
 ----------------------------------------------------------------------
 -----
 title
 -----
 Symbolic Z-matrix:
 Charge =  0 Multiplicity = 1

 SCF Done:  E(RHF) =  -344.963535976     A.U. after   13 cycles

 1\1\GINC-SE058\Stability\RHF\Aug-CC-pVDZ\C5H10O2\OHZDE\08-Apr-2025\0\\
 #t hf aug-cc-pvdz symm=none int=(grid=ultrafine) guess=(read,tcheck) s
 table=(opt,rrhf)\\title\\0,1\C,0,0.321983,-0.504954,0.991216\C,0,1.308
 693,0.264043,0.1461\O,0,1.406299,1.463539,0.083674\O,0,2.095944,-0.564
 537,-0.587777\H,0,2.675774,0.005317,-1.114848\C,0,-0.772931,-1.195274,
 0.148833\H,0,-0.111751,0.199359,1.701045\H,0,0.869281,-1.266107,1.5542
 79\C,0,-1.609827,-0.25259,-0.729643\H,0,-1.434494,-1.729795,0.839635\H
 ,0,-0.300687,-1.953246,-0.482687\C,0,-2.368819,0.831641,0.042527\H,0,-

 Normal termination of Gaussian 16 at Tue Apr  8 22:37:03 2025.
 Gaussian 16:  ES64L-G16RevC.01  3-Jul-2019

 ----------------------------------------------------------------------
 #t hf aug-cc-pvdz iop(5/13=1,5/36=2,99/5=2) pseudo=read geom=check gue
 ss=(read,tcheck) scf=(maxcycle=1)
 ----------------------------------------------------------------------
 -----
 title
 -----
 Structure from the checkpoint file:  "BDE49_expt_1116_mol1.chk"
 Charge =  0 Multiplicity = 1

                         Standard orientation:
 ---------------------------------------------------------------------
 Center     Atomic      Atomic             Coordinates (Angstroms)
 Number     Number       Type             X           Y           Z
 ---------------------------------------------------------------------
      1          6           0        0.321983   -0.504954    0.991216
      2          6           0        1.308693    0.264043    0.146100
      3          8           0        1.406299    1.463539    0.083674
      4          8           0        2.095944   -0.564538   -0.587777
      5          1           0        2.675774    0.005316   -1.114848
      6          6           0       -0.772931   -1.195274    0.148833
      7          1           0       -0.111751    0.199359    1.701045
      8          1           0        0.869281   -1.266107    1.554279
      9          6           0       -1.609827   -0.252590   -0.729643
     10          1           0       -1.434494   -1.729795    0.839635
     11          1           0       -0.300687   -1.953246   -0.482687
     12          6           0       -2.368819    0.831641    0.042527
     13          1           0       -2.322827   -0.863963   -1.293379
     14          1           0       -0.964028    0.221378   -1.477948
     15          1           0       -2.999677    0.394469    0.823603
     16          1           0       -3.018391    1.402144   -0.626372
     17          1           0       -1.685735    1.541239    0.515291
 ---------------------------------------------------------------------

 SCF Done:  E(RHF) =  -345.322926876     A.U. after    2 cycles

 The electronic state is 1-A.
 Alpha  occ. eigenvalues --  -20.60008 -20.53847 -11.39294 -11.25331 -11.24489
 Alpha  occ. eigenvalues --  -11.23409 -11.22360  -1.54649  -1.45097  -1.09675
 Alpha  occ. eigenvalues --   -1.01461  -0.91639  -0.83395  -0.78680  -0.70953
 Alpha  occ. eigenvalues --   -0.68236  -0.65396  -0.63719  -0.60886  -0.58712
 Alpha  occ. eigenvalues --   -0.55983  -0.55198  -0.53986  -0.48927  -0.48498
 Alpha  occ. eigenvalues --   -0.48180  -0.46948  -0.43824
 Alpha virt. eigenvalues --    0.03505   0.03602   0.03846   0.04438   0.05916
 Alpha virt. eigenvalues --    0.06641   0.06802   0.07193   0.08148   0.09628
 Alpha virt. eigenvalues --    0.11055   0.13470   0.14084   0.14248   0.14528

 Mulliken charges:
               1
     1  C   -0.600591
     2  C    2.475632
     3  O   -1.296030
     4  O   -1.308568
     5  H    0.356462
     6  C   -0.335564
     7  H    0.185697
     8  H    0.226685
     9  C   -0.397165
    10  H    0.154296
    11  H    0.126925
    12  C   -0.310359
    13  H    0.115565
    14  H    0.190277
    15  H    0.162678
    16  H    0.098522
    17  H    0.155538
 Sum of Mulliken charges =  -0.00000

 Dipole moment (field-independent basis, Debye):
    X=             -0.4673    Y=             -1.8596    Z=             -0.1064  Tot=              1.9204

 Test job not archived.
 1\1\GINC-SE058\SP\RHF\Aug-CC-pVDZ\C5H10O2\OHZDE\08-Apr-2025\0\\#t hf a
 ug-cc-pvdz iop(5/13=1,5/36=2,99/5=2) pseudo=read geom=check guess=(rea
 d,tcheck) scf=(maxcycle=1)\\title\\0,1\C,0,0.321983,-0.504954,0.991216
 \C,0,1.308693,0.264043,0.1461\O,0,1.406299,1.463539,0.083674\O,0,2.095
 944,-0.564537,-0.587777\H,0,2.675774,0.005317,-1.114848\C,0,-0.772931,
 -1.195274,0.148833\H,0,-0.111751,0.199359,1.701045\H,0,0.869281,-1.266
 107,1.554279\C,0,-1.609827,-0.25259,-0.729643\H,0,-1.434494,-1.729795,
 0.839635\H,0,-0.300687,-1.953246,-0.482687\C,0,-2.368819,0.831641,0.04

 Normal termination of Gaussian 16 at Tue Apr  8 22:37:09 2025.
