 Gaussian 16, Revision C.01,

 ----------------------------------------------------------------------
 #t hf aug-cc-pvdz symm=none int=(grid=ultrafine) guess=(read,tcheck) s
 table=(opt,rrhf)
 ----------------------------------------------------------------------
 -----
 title
 -----
 Symbolic Z-matrix:
 Charge =  0 Multiplicity = 1

 SCF Done:  E(RHF) =  -415.415762395     A.U. after   11 cycles
 Normal termination of Gaussian 16 at Wed Apr  9 00:34:46 2025.
 Gaussian 16:  ES64L-G16RevC.01  3-Jul-2019

 ----------------------------------------------------------------------
 #t hf aug-cc-pvdz iop(5/13=1,5/36=2,99/5=2) pseudo=read geom=check gue
 ss=(read,tcheck) scf=(maxcycle=1)
 ----------------------------------------------------------------------
 -----
 title
 -----
 Structure from the checkpoint file:  "BDE49_nonexpt_458_mol1.chk"
 Charge =  0 Multiplicity = 1

                         Standard orientation:
 ---------------------------------------------------------------------
 Center     Atomic      Atomic             Coordinates (Angstroms)
 Number     Number       Type             X           Y           Z
 ---------------------------------------------------------------------
      1          1           0        1.600513   -1.893162    0.000000
      2          1           0        2.704270   -0.175764    0.000000
      3          5           0        1.634305   -0.703485    0.000000
      4         14           0        0.000000    0.456742    0.000000
      5          9           0       -1.383611   -0.383932    0.000000
      6          1           0       -0.011904    1.323675    1.204977
      7          1           0       -0.011904    1.323675   -1.204977
 ---------------------------------------------------------------------

 SCF Done:  E(RHF) =  -415.568161341     A.U. after    2 cycles

 The electronic state is 1-A'.
 Alpha  occ. eigenvalues --  -69.56906 -26.44269  -7.62052  -6.23666  -3.99086
 Alpha  occ. eigenvalues --   -3.98897  -3.98865  -1.55240  -0.78992  -0.70476
 Alpha  occ. eigenvalues --   -0.63605  -0.63577  -0.60643  -0.51598  -0.48754
 Alpha  occ. eigenvalues --   -0.43534
 Alpha virt. eigenvalues --    0.01769   0.03833   0.04289   0.04756   0.07060
 Alpha virt. eigenvalues --    0.07352   0.07458   0.08430   0.08940   0.10155
 Alpha virt. eigenvalues --    0.13062   0.14025   0.15114   0.17593   0.20977

 Mulliken charges:
               1
     1  H    0.382813
     2  H    0.338782
     3  B   -0.987171
     4  Si   1.484529
     5  F   -0.847293
     6  H   -0.185830
     7  H   -0.185830
 Sum of Mulliken charges =   0.00000

 Dipole moment (field-independent basis, Debye):
    X=              1.5950    Y=              0.3262    Z=             -0.0000  Tot=              1.6280

 Test job not archived.
 1\1\GINC-SE461\SP\RHF\Aug-CC-pVDZ\B1F1H4Si1\OHZDE\09-Apr-2025\0\\#t hf
  aug-cc-pvdz iop(5/13=1,5/36=2,99/5=2) pseudo=read geom=check guess=(r
 ead,tcheck) scf=(maxcycle=1)\\title\\0,1\H,0,1.600513,-1.893162,0.\H,0
 ,2.70427,-0.175764,0.\B,0,1.634305,-0.703485,0.\Si,0,0.,0.456742,0.\F,
 0,-1.383611,-0.383932,0.\H,0,-0.011904,1.323675,1.204977\H,0,-0.011904
 ,1.323675,-1.204977\\Version=ES64L-G16RevC.01\State=1-A'\HF=-415.56816
 13\RMSD=9.502e-03\Dipole=0.6275111,0.1283231,0.\Quadrupole=-1.436626,-
 0.076374,1.5130001,-0.6585275,0.,0.\PG=CS [SG(B1F1H2Si1),X(H2)]\\@

 Normal termination of Gaussian 16 at Wed Apr  9 00:34:48 2025.
