 Gaussian 16, Revision C.01,

 ----------------------------------------------------------------------
 #t hf aug-cc-pvdz symm=none int=(grid=ultrafine) guess=(read,tcheck) s
 table=(opt,rrhf)
 ----------------------------------------------------------------------
 -----
 title
 -----
 Symbolic Z-matrix:
 Charge =  0 Multiplicity = 1

 SCF Done:  E(RHF) =  -2373.81459760     A.U. after   13 cycles

 1\1\GINC-SE166\Stability\RHF\Aug-CC-pVDZ\C2H1Cl5\OHZDE\08-Apr-2025\0\\
 #t hf aug-cc-pvdz symm=none int=(grid=ultrafine) guess=(read,tcheck) s
 table=(opt,rrhf)\\title\\0,1\C,0,-0.619654,-0.000012,0.001656\C,0,0.81
 9312,-0.000009,-0.590877\Cl,0,-1.484418,1.45337,-0.604303\Cl,0,-0.6117
 42,-0.000409,1.782014\Cl,0,-1.484725,-1.45294,-0.604954\H,0,0.732142,0
 .000008,-1.673104\Cl,0,1.733687,-1.46511,-0.133202\Cl,0,1.733663,1.465
 096,-0.133176\\Version=ES64L-G16RevC.01\HF=-2373.8145976\RMSD=2.992e-0
 9\Dipole=-0.0535337,0.0000003,-0.3878637\Quadrupole=-1.6235754,-0.0816

 Normal termination of Gaussian 16 at Tue Apr  8 22:39:47 2025.
 Gaussian 16:  ES64L-G16RevC.01  3-Jul-2019

 ----------------------------------------------------------------------
 #t hf aug-cc-pvdz iop(5/13=1,5/36=2,99/5=2) pseudo=read geom=check gue
 ss=(read,tcheck) scf=(maxcycle=1)
 ----------------------------------------------------------------------
 -----
 title
 -----
 Structure from the checkpoint file:  "BDE49_expt_131_mol1.chk"
 Charge =  0 Multiplicity = 1

                         Standard orientation:
 ---------------------------------------------------------------------
 Center     Atomic      Atomic             Coordinates (Angstroms)
 Number     Number       Type             X           Y           Z
 ---------------------------------------------------------------------
      1          6           0       -0.619654   -0.000012    0.001656
      2          6           0        0.819312   -0.000009   -0.590877
      3         17           0       -1.484419    1.453369   -0.604303
      4         17           0       -0.611742   -0.000409    1.782014
      5         17           0       -1.484724   -1.452941   -0.604954
      6          1           0        0.732142    0.000008   -1.673104
      7         17           0        1.733688   -1.465109   -0.133202
      8         17           0        1.733662    1.465097   -0.133176
 ---------------------------------------------------------------------

 SCF Done:  E(RHF) =  -2374.26674961     A.U. after    2 cycles

 The electronic state is 1-A.
 Alpha  occ. eigenvalues -- -105.60840-105.60840-105.60650-105.59822-105.59822
 Alpha  occ. eigenvalues --  -11.47502 -11.41835 -10.65662 -10.65653 -10.65480
 Alpha  occ. eigenvalues --  -10.64643 -10.64642  -7.82610  -7.82601  -7.82434
 Alpha  occ. eigenvalues --   -7.82170  -7.82170  -7.82162  -7.82158  -7.81986
 Alpha  occ. eigenvalues --   -7.81983  -7.81596  -7.81592  -7.81170  -7.81169
 Alpha  occ. eigenvalues --   -7.81158  -7.81157  -1.25581  -1.16099  -1.08914
 Alpha  occ. eigenvalues --   -1.08348  -1.06159  -0.94888  -0.81438  -0.70950
 Alpha  occ. eigenvalues --   -0.67621  -0.66913  -0.62400  -0.59940  -0.52860
 Alpha  occ. eigenvalues --   -0.52302  -0.51241  -0.50310  -0.49497  -0.48686
 Alpha  occ. eigenvalues --   -0.48547  -0.47194  -0.47035  -0.45653
 Alpha virt. eigenvalues --    0.04251   0.06445   0.07194   0.07261   0.08650
 Alpha virt. eigenvalues --    0.09414   0.09468   0.11806   0.12320   0.13934
 Alpha virt. eigenvalues --    0.13934   0.14259   0.15438   0.16378   0.16990

 Mulliken charges:
               1
     1  C   -0.636749
     2  C   -0.294284
     3  Cl   0.152063
     4  Cl   0.110159
     5  Cl   0.152069
     6  H    0.371567
     7  Cl   0.072592
     8  Cl   0.072585
 Sum of Mulliken charges =   0.00000

 Dipole moment (field-independent basis, Debye):
    X=             -0.1402    Y=              0.0000    Z=             -0.9818  Tot=              0.9918

 Test job not archived.
 1\1\GINC-SE166\SP\RHF\Aug-CC-pVDZ\C2H1Cl5\OHZDE\08-Apr-2025\0\\#t hf a
 ug-cc-pvdz iop(5/13=1,5/36=2,99/5=2) pseudo=read geom=check guess=(rea
 d,tcheck) scf=(maxcycle=1)\\title\\0,1\C,0,-0.619654,-0.000012,0.00165
 6\C,0,0.819312,-0.000009,-0.590877\Cl,0,-1.484418,1.45337,-0.604303\Cl
 ,0,-0.611742,-0.000409,1.782014\Cl,0,-1.484725,-1.45294,-0.604954\H,0,
 0.732142,0.000008,-1.673104\Cl,0,1.733687,-1.46511,-0.133202\Cl,0,1.73
 3663,1.465096,-0.133176\\Version=ES64L-G16RevC.01\State=1-A\HF=-2374.2
 667496\RMSD=5.736e-03\Dipole=-0.0551739,0.0000002,-0.3862688\Quadrupol

 Normal termination of Gaussian 16 at Tue Apr  8 22:39:52 2025.
